 Entering Gaussian System, Link 0=/apps/gaussian/g16c01/g16/g16
 Initial command:
 /apps/gaussian/g16c01/g16/l1.exe "/jobfs/19478878.gadi-pbs/Gau-2131216.inp" -scrdir="/jobfs/19478878.gadi-pbs/"
 Entering Link 1 = /apps/gaussian/g16c01/g16/l1.exe PID=   2131217.
  
 Copyright (c) 1988-2019, Gaussian, Inc.  All Rights Reserved.
  
 This is part of the Gaussian(R) 16 program.  It is based on
 the Gaussian(R) 09 system (copyright 2009, Gaussian, Inc.),
 the Gaussian(R) 03 system (copyright 2003, Gaussian, Inc.),
 the Gaussian(R) 98 system (copyright 1998, Gaussian, Inc.),
 the Gaussian(R) 94 system (copyright 1995, Gaussian, Inc.),
 the Gaussian 92(TM) system (copyright 1992, Gaussian, Inc.),
 the Gaussian 90(TM) system (copyright 1990, Gaussian, Inc.),
 the Gaussian 88(TM) system (copyright 1988, Gaussian, Inc.),
 the Gaussian 86(TM) system (copyright 1986, Carnegie Mellon
 University), and the Gaussian 82(TM) system (copyright 1983,
 Carnegie Mellon University). Gaussian is a federally registered
 trademark of Gaussian, Inc.
  
 This software contains proprietary and confidential information,
 including trade secrets, belonging to Gaussian, Inc.
  
 This software is provided under written license and may be
 used, copied, transmitted, or stored only in accord with that
 written license.
  
 The following legend is applicable only to US Government
 contracts under FAR:
  
                    RESTRICTED RIGHTS LEGEND
  
 Use, reproduction and disclosure by the US Government is
 subject to restrictions as set forth in subparagraphs (a)
 and (c) of the Commercial Computer Software - Restricted
 Rights clause in FAR 52.227-19.
  
 Gaussian, Inc.
 340 Quinnipiac St., Bldg. 40, Wallingford CT 06492
  
  
 ---------------------------------------------------------------
 Warning -- This program may not be used in any manner that
 competes with the business of Gaussian, Inc. or will provide
 assistance to any competitor of Gaussian, Inc.  The licensee
 of this program is prohibited from giving any competitor of
 Gaussian, Inc. access to this program.  By using this program,
 the user acknowledges that Gaussian, Inc. is engaged in the
 business of creating and licensing software in the field of
 computational chemistry and represents and warrants to the
 licensee that it is not a competitor of Gaussian, Inc. and that
 it will not use this program in any manner prohibited above.
 ---------------------------------------------------------------
  

 Cite this work as:
 Gaussian 16, Revision C.01,
 M. J. Frisch, G. W. Trucks, H. B. Schlegel, G. E. Scuseria, 
 M. A. Robb, J. R. Cheeseman, G. Scalmani, V. Barone, 
 G. A. Petersson, H. Nakatsuji, X. Li, M. Caricato, A. V. Marenich, 
 J. Bloino, B. G. Janesko, R. Gomperts, B. Mennucci, H. P. Hratchian, 
 J. V. Ortiz, A. F. Izmaylov, J. L. Sonnenberg, D. Williams-Young, 
 F. Ding, F. Lipparini, F. Egidi, J. Goings, B. Peng, A. Petrone, 
 T. Henderson, D. Ranasinghe, V. G. Zakrzewski, J. Gao, N. Rega, 
 G. Zheng, W. Liang, M. Hada, M. Ehara, K. Toyota, R. Fukuda, 
 J. Hasegawa, M. Ishida, T. Nakajima, Y. Honda, O. Kitao, H. Nakai, 
 T. Vreven, K. Throssell, J. A. Montgomery, Jr., J. E. Peralta, 
 F. Ogliaro, M. J. Bearpark, J. J. Heyd, E. N. Brothers, K. N. Kudin, 
 V. N. Staroverov, T. A. Keith, R. Kobayashi, J. Normand, 
 K. Raghavachari, A. P. Rendell, J. C. Burant, S. S. Iyengar, 
 J. Tomasi, M. Cossi, J. M. Millam, M. Klene, C. Adamo, R. Cammi, 
 J. W. Ochterski, R. L. Martin, K. Morokuma, O. Farkas, 
 J. B. Foresman, and D. J. Fox, Gaussian, Inc., Wallingford CT, 2019.
 
 ******************************************
 Gaussian 16:  ES64L-G16RevC.01  3-Jul-2019
                22-Mar-2021 
 ******************************************
 %NprocShared=32
 Will use up to   32 processors via shared memory.
 %Mem=10000MB
 %chk=CP21CA_carboxy.M062X_6-311pGd_opt_Pentadecane_GD3.chk
 ----------------------------------------------------------------------
 # M062X/6-311+G* SCF=Tight INT(grid=ultrafine) OPT=CalcFC IOP(2/17=4) 
 EmpiricalDispersion=GD3 SCRF=(SMD,Solvent=n-Pentadecane) MaxDisk=10000
 MB
 ----------------------------------------------------------------------
 1/10=4,18=20,19=15,26=6,38=1/1,3;
 2/9=110,12=2,17=4,18=5,40=1/2;
 3/5=4,6=6,7=11,11=2,25=1,30=1,70=32201,71=2,72=151,74=-55,75=-5,124=31,140=1/1,2,3;
 4//1;
 5/5=2,32=2,38=5,53=151/2;
 8/6=4,10=90,11=11/1;
 11/6=1,8=1,9=11,15=111,16=1/1,2,10;
 10/6=1,13=1/2;
 6/7=2,8=2,9=2,10=2,28=1/1;
 7/10=1,25=1/1,2,3,16;
 1/10=4,18=20,19=15,26=6/3(2);
 2/9=110,17=4/2;
 99//99;
 2/9=110,17=4/2;
 3/5=4,6=6,7=11,11=2,25=1,30=1,70=32205,71=1,72=151,74=-55,75=-5,124=31/1,2,3;
 4/5=5,16=3,69=1/1;
 5/5=2,32=2,38=5,53=151/2;
 7//1,2,3,16;
 1/18=20,19=15,26=6/3(-5);
 2/9=110,17=4/2;
 6/7=2,8=2,9=2,10=2,19=2,28=1/1;
 99/9=1/99;
 -------------------------------------------------
 CP21CA_carboxy.M062X_6-311pGd_opt_Pentadecane_GD3
 -------------------------------------------------
 Symbolic Z-matrix:
 Charge = -1 Multiplicity = 1
 C                    -6.03566   1.3635    0.24174 
 N                    -4.73385   0.75136   0.17808 
 C                    -3.52127   1.37564   0.0983 
 O                    -3.42648   2.59223   0.07103 
 O                    -2.39689   0.61463   0.04557 
 C                    -1.12072   1.13785  -0.02949 
 C                    -0.09979   0.0032   -0.08102 
 C                     1.32362   0.5489   -0.16178 
 C                    -6.26778   2.761     0.24954 
 C                    -7.57017   3.26668   0.31595 
 C                    -8.66507   2.40122   0.37749 
 C                    -8.45299   1.02169   0.36713 
 C                    -7.15453   0.51104   0.30081 
 H                    -4.70564  -0.39371   0.19702 
 H                    -0.92654   1.77169   0.86431 
 H                    -1.02764   1.76107  -0.94675 
 H                    -0.2969   -0.6308   -0.97269 
 H                    -0.19706  -0.62393   0.83166 
 H                     1.44974   1.16593  -1.07711 
 H                     2.04527  -0.29396  -0.19924 
 H                     1.54983   1.17126   0.73038 
 H                    -5.48334   3.49352   0.20774 
 C                    -11.44038   3.2898   -0.96031 
 H                    -9.29193   0.33915   0.41036 
 H                    -7.00437  -0.67286   0.29444 
 F                    -11.79435   2.05951  -1.47995 
 F                    -12.57901   3.96022  -0.55533 
 F                    -10.7936   4.03479  -1.92741 
 S                    -10.33505   3.05378   0.46002 
 O                    -10.27172   4.38238   1.22985 
 O                    -11.09322   2.22421   1.50789 
 H                    -7.7235    4.33844   0.31983 
 O                    -6.62851  -2.69585   0.53821 
 O                    -4.41015  -2.43287   0.45269 
 C                    -5.37     -3.18744   0.57416 
 C                    -5.17778  -4.66823   0.76797 
 C                    -3.70879  -5.08803   0.79801 
 H                    -5.68757  -5.20437  -0.06086 
 H                    -5.65337  -4.96448   1.72735 
 H                    -3.21251  -4.82615  -0.16071 
 H                    -3.64015  -6.18663   0.94503 
 H                    -3.18096  -4.5844    1.63589 
 
 Add virtual bond connecting atoms O33        and H25        Dist= 3.92D+00.
 Add virtual bond connecting atoms O34        and H14        Dist= 3.92D+00.

 GradGradGradGradGradGradGradGradGradGradGradGradGradGradGradGradGradGrad
 Berny optimization.
 Initialization pass.
                           ----------------------------
                           !    Initial Parameters    !
                           ! (Angstroms and Degrees)  !
 --------------------------                            --------------------------
 ! Name  Definition              Value          Derivative Info.                !
 --------------------------------------------------------------------------------
 ! R1    R(1,2)                  1.44           calculate D2E/DX2 analytically  !
 ! R2    R(1,9)                  1.4167         calculate D2E/DX2 analytically  !
 ! R3    R(1,13)                 1.4079         calculate D2E/DX2 analytically  !
 ! R4    R(2,3)                  1.3662         calculate D2E/DX2 analytically  !
 ! R5    R(2,14)                 1.1456         calculate D2E/DX2 analytically  !
 ! R6    R(3,4)                  1.2206         calculate D2E/DX2 analytically  !
 ! R7    R(3,5)                  1.3587         calculate D2E/DX2 analytically  !
 ! R8    R(5,6)                  1.3813         calculate D2E/DX2 analytically  !
 ! R9    R(6,7)                  1.5272         calculate D2E/DX2 analytically  !
 ! R10   R(6,15)                 1.1128         calculate D2E/DX2 analytically  !
 ! R11   R(6,16)                 1.1128         calculate D2E/DX2 analytically  !
 ! R12   R(7,8)                  1.5266         calculate D2E/DX2 analytically  !
 ! R13   R(7,17)                 1.1117         calculate D2E/DX2 analytically  !
 ! R14   R(7,18)                 1.1116         calculate D2E/DX2 analytically  !
 ! R15   R(8,19)                 1.1111         calculate D2E/DX2 analytically  !
 ! R16   R(8,20)                 1.1102         calculate D2E/DX2 analytically  !
 ! R17   R(8,21)                 1.1111         calculate D2E/DX2 analytically  !
 ! R18   R(9,10)                 1.3987         calculate D2E/DX2 analytically  !
 ! R19   R(9,22)                 1.0741         calculate D2E/DX2 analytically  !
 ! R20   R(10,11)                1.397          calculate D2E/DX2 analytically  !
 ! R21   R(10,32)                1.0827         calculate D2E/DX2 analytically  !
 ! R22   R(11,12)                1.3958         calculate D2E/DX2 analytically  !
 ! R23   R(11,29)                1.7948         calculate D2E/DX2 analytically  !
 ! R24   R(12,13)                1.3968         calculate D2E/DX2 analytically  !
 ! R25   R(12,24)                1.0824         calculate D2E/DX2 analytically  !
 ! R26   R(13,25)                1.1934         calculate D2E/DX2 analytically  !
 ! R27   R(14,34)                2.0763         calculate D2E/DX2 analytically  !
 ! R28   R(23,26)                1.3816         calculate D2E/DX2 analytically  !
 ! R29   R(23,27)                1.382          calculate D2E/DX2 analytically  !
 ! R30   R(23,28)                1.3815         calculate D2E/DX2 analytically  !
 ! R31   R(23,29)                1.8152         calculate D2E/DX2 analytically  !
 ! R32   R(25,33)                2.072          calculate D2E/DX2 analytically  !
 ! R33   R(29,30)                1.5368         calculate D2E/DX2 analytically  !
 ! R34   R(29,31)                1.5366         calculate D2E/DX2 analytically  !
 ! R35   R(33,35)                1.3516         calculate D2E/DX2 analytically  !
 ! R36   R(34,35)                1.227          calculate D2E/DX2 analytically  !
 ! R37   R(35,36)                1.5057         calculate D2E/DX2 analytically  !
 ! R38   R(36,37)                1.5281         calculate D2E/DX2 analytically  !
 ! R39   R(36,38)                1.111          calculate D2E/DX2 analytically  !
 ! R40   R(36,39)                1.111          calculate D2E/DX2 analytically  !
 ! R41   R(37,40)                1.1109         calculate D2E/DX2 analytically  !
 ! R42   R(37,41)                1.1105         calculate D2E/DX2 analytically  !
 ! R43   R(37,42)                1.111          calculate D2E/DX2 analytically  !
 ! A1    A(2,1,9)              124.5922         calculate D2E/DX2 analytically  !
 ! A2    A(2,1,13)             117.5769         calculate D2E/DX2 analytically  !
 ! A3    A(9,1,13)             117.8309         calculate D2E/DX2 analytically  !
 ! A4    A(1,2,3)              127.6434         calculate D2E/DX2 analytically  !
 ! A5    A(1,2,14)             116.5164         calculate D2E/DX2 analytically  !
 ! A6    A(3,2,14)             115.8401         calculate D2E/DX2 analytically  !
 ! A7    A(2,3,4)              121.7149         calculate D2E/DX2 analytically  !
 ! A8    A(2,3,5)              118.7388         calculate D2E/DX2 analytically  !
 ! A9    A(4,3,5)              119.5462         calculate D2E/DX2 analytically  !
 ! A10   A(3,5,6)              123.6757         calculate D2E/DX2 analytically  !
 ! A11   A(5,6,7)              109.7565         calculate D2E/DX2 analytically  !
 ! A12   A(5,6,15)             109.4705         calculate D2E/DX2 analytically  !
 ! A13   A(5,6,16)             109.5235         calculate D2E/DX2 analytically  !
 ! A14   A(7,6,15)             109.4892         calculate D2E/DX2 analytically  !
 ! A15   A(7,6,16)             109.4112         calculate D2E/DX2 analytically  !
 ! A16   A(15,6,16)            109.1749         calculate D2E/DX2 analytically  !
 ! A17   A(6,7,8)              111.0708         calculate D2E/DX2 analytically  !
 ! A18   A(6,7,17)             109.4048         calculate D2E/DX2 analytically  !
 ! A19   A(6,7,18)             109.4474         calculate D2E/DX2 analytically  !
 ! A20   A(8,7,17)             109.0719         calculate D2E/DX2 analytically  !
 ! A21   A(8,7,18)             109.0679         calculate D2E/DX2 analytically  !
 ! A22   A(17,7,18)            108.7401         calculate D2E/DX2 analytically  !
 ! A23   A(7,8,19)             110.3617         calculate D2E/DX2 analytically  !
 ! A24   A(7,8,20)             109.6627         calculate D2E/DX2 analytically  !
 ! A25   A(7,8,21)             110.3404         calculate D2E/DX2 analytically  !
 ! A26   A(19,8,20)            108.6648         calculate D2E/DX2 analytically  !
 ! A27   A(19,8,21)            109.1069         calculate D2E/DX2 analytically  !
 ! A28   A(20,8,21)            108.6635         calculate D2E/DX2 analytically  !
 ! A29   A(1,9,10)             120.6289         calculate D2E/DX2 analytically  !
 ! A30   A(1,9,22)             123.565          calculate D2E/DX2 analytically  !
 ! A31   A(10,9,22)            115.806          calculate D2E/DX2 analytically  !
 ! A32   A(9,10,11)            120.5242         calculate D2E/DX2 analytically  !
 ! A33   A(9,10,32)            119.3361         calculate D2E/DX2 analytically  !
 ! A34   A(11,10,32)           120.1398         calculate D2E/DX2 analytically  !
 ! A35   A(10,11,12)           119.5306         calculate D2E/DX2 analytically  !
 ! A36   A(10,11,29)           120.3985         calculate D2E/DX2 analytically  !
 ! A37   A(12,11,29)           120.07           calculate D2E/DX2 analytically  !
 ! A38   A(11,12,13)           120.1931         calculate D2E/DX2 analytically  !
 ! A39   A(11,12,24)           120.3436         calculate D2E/DX2 analytically  !
 ! A40   A(13,12,24)           119.4633         calculate D2E/DX2 analytically  !
 ! A41   A(1,13,12)            121.2918         calculate D2E/DX2 analytically  !
 ! A42   A(1,13,25)            120.0305         calculate D2E/DX2 analytically  !
 ! A43   A(12,13,25)           118.6777         calculate D2E/DX2 analytically  !
 ! A44   A(26,23,27)           109.3355         calculate D2E/DX2 analytically  !
 ! A45   A(26,23,28)           109.6844         calculate D2E/DX2 analytically  !
 ! A46   A(26,23,29)           109.5433         calculate D2E/DX2 analytically  !
 ! A47   A(27,23,28)           109.2236         calculate D2E/DX2 analytically  !
 ! A48   A(27,23,29)           109.6021         calculate D2E/DX2 analytically  !
 ! A49   A(28,23,29)           109.4381         calculate D2E/DX2 analytically  !
 ! A50   A(11,29,23)           125.3012         calculate D2E/DX2 analytically  !
 ! A51   A(11,29,30)           107.3979         calculate D2E/DX2 analytically  !
 ! A52   A(11,29,31)           107.1072         calculate D2E/DX2 analytically  !
 ! A53   A(23,29,30)           107.7369         calculate D2E/DX2 analytically  !
 ! A54   A(23,29,31)           107.6592         calculate D2E/DX2 analytically  !
 ! A55   A(30,29,31)            98.3641         calculate D2E/DX2 analytically  !
 ! A56   A(25,33,35)           121.8128         calculate D2E/DX2 analytically  !
 ! A57   A(14,34,35)           120.3218         calculate D2E/DX2 analytically  !
 ! A58   A(33,35,34)           120.1396         calculate D2E/DX2 analytically  !
 ! A59   A(33,35,36)           118.6838         calculate D2E/DX2 analytically  !
 ! A60   A(34,35,36)           121.1764         calculate D2E/DX2 analytically  !
 ! A61   A(35,36,37)           113.2922         calculate D2E/DX2 analytically  !
 ! A62   A(35,36,38)           108.6618         calculate D2E/DX2 analytically  !
 ! A63   A(35,36,39)           108.5861         calculate D2E/DX2 analytically  !
 ! A64   A(37,36,38)           108.8569         calculate D2E/DX2 analytically  !
 ! A65   A(37,36,39)           108.7404         calculate D2E/DX2 analytically  !
 ! A66   A(38,36,39)           108.6089         calculate D2E/DX2 analytically  !
 ! A67   A(36,37,40)           110.3493         calculate D2E/DX2 analytically  !
 ! A68   A(36,37,41)           109.4993         calculate D2E/DX2 analytically  !
 ! A69   A(36,37,42)           110.3048         calculate D2E/DX2 analytically  !
 ! A70   A(40,37,41)           108.6543         calculate D2E/DX2 analytically  !
 ! A71   A(40,37,42)           109.376          calculate D2E/DX2 analytically  !
 ! A72   A(41,37,42)           108.6172         calculate D2E/DX2 analytically  !
 ! A73   L(2,14,34,5,-1)       173.4414         calculate D2E/DX2 analytically  !
 ! A74   L(13,25,33,5,-1)      177.0403         calculate D2E/DX2 analytically  !
 ! A75   L(2,14,34,5,-2)       173.2306         calculate D2E/DX2 analytically  !
 ! A76   L(13,25,33,5,-2)      172.7402         calculate D2E/DX2 analytically  !
 ! D1    D(9,1,2,3)             -0.9094         calculate D2E/DX2 analytically  !
 ! D2    D(9,1,2,14)           179.0398         calculate D2E/DX2 analytically  !
 ! D3    D(13,1,2,3)           179.1161         calculate D2E/DX2 analytically  !
 ! D4    D(13,1,2,14)           -0.9347         calculate D2E/DX2 analytically  !
 ! D5    D(2,1,9,10)          -179.8846         calculate D2E/DX2 analytically  !
 ! D6    D(2,1,9,22)             0.0259         calculate D2E/DX2 analytically  !
 ! D7    D(13,1,9,10)            0.0898         calculate D2E/DX2 analytically  !
 ! D8    D(13,1,9,22)         -179.9997         calculate D2E/DX2 analytically  !
 ! D9    D(2,1,13,12)          179.8798         calculate D2E/DX2 analytically  !
 ! D10   D(2,1,13,25)           -0.1409         calculate D2E/DX2 analytically  !
 ! D11   D(9,1,13,12)           -0.0965         calculate D2E/DX2 analytically  !
 ! D12   D(9,1,13,25)          179.8828         calculate D2E/DX2 analytically  !
 ! D13   D(1,2,3,4)             -0.0555         calculate D2E/DX2 analytically  !
 ! D14   D(1,2,3,5)           -179.9169         calculate D2E/DX2 analytically  !
 ! D15   D(14,2,3,4)           179.995          calculate D2E/DX2 analytically  !
 ! D16   D(14,2,3,5)             0.1336         calculate D2E/DX2 analytically  !
 ! D17   D(1,2,34,35)            2.2529         calculate D2E/DX2 analytically  !
 ! D18   D(3,2,34,35)          178.049          calculate D2E/DX2 analytically  !
 ! D19   D(2,3,5,6)           -179.6626         calculate D2E/DX2 analytically  !
 ! D20   D(4,3,5,6)              0.4729         calculate D2E/DX2 analytically  !
 ! D21   D(3,5,6,7)           -179.661          calculate D2E/DX2 analytically  !
 ! D22   D(3,5,6,15)            60.1419         calculate D2E/DX2 analytically  !
 ! D23   D(3,5,6,16)           -59.5268         calculate D2E/DX2 analytically  !
 ! D24   D(5,6,7,8)           -179.8895         calculate D2E/DX2 analytically  !
 ! D25   D(5,6,7,17)            59.6482         calculate D2E/DX2 analytically  !
 ! D26   D(5,6,7,18)           -59.4042         calculate D2E/DX2 analytically  !
 ! D27   D(15,6,7,8)           -59.7038         calculate D2E/DX2 analytically  !
 ! D28   D(15,6,7,17)          179.8339         calculate D2E/DX2 analytically  !
 ! D29   D(15,6,7,18)           60.7815         calculate D2E/DX2 analytically  !
 ! D30   D(16,6,7,8)            59.9081         calculate D2E/DX2 analytically  !
 ! D31   D(16,6,7,17)          -60.5543         calculate D2E/DX2 analytically  !
 ! D32   D(16,6,7,18)         -179.6066         calculate D2E/DX2 analytically  !
 ! D33   D(6,7,8,19)           -60.2568         calculate D2E/DX2 analytically  !
 ! D34   D(6,7,8,20)          -179.934          calculate D2E/DX2 analytically  !
 ! D35   D(6,7,8,21)            60.4038         calculate D2E/DX2 analytically  !
 ! D36   D(17,7,8,19)           60.4023         calculate D2E/DX2 analytically  !
 ! D37   D(17,7,8,20)          -59.2748         calculate D2E/DX2 analytically  !
 ! D38   D(17,7,8,21)         -178.937          calculate D2E/DX2 analytically  !
 ! D39   D(18,7,8,19)          179.0337         calculate D2E/DX2 analytically  !
 ! D40   D(18,7,8,20)           59.3566         calculate D2E/DX2 analytically  !
 ! D41   D(18,7,8,21)          -60.3056         calculate D2E/DX2 analytically  !
 ! D42   D(1,9,10,11)            0.0821         calculate D2E/DX2 analytically  !
 ! D43   D(1,9,10,32)         -179.9507         calculate D2E/DX2 analytically  !
 ! D44   D(22,9,10,11)        -179.835          calculate D2E/DX2 analytically  !
 ! D45   D(22,9,10,32)           0.1322         calculate D2E/DX2 analytically  !
 ! D46   D(9,10,11,12)          -0.249          calculate D2E/DX2 analytically  !
 ! D47   D(9,10,11,29)        -179.9037         calculate D2E/DX2 analytically  !
 ! D48   D(32,10,11,12)        179.784          calculate D2E/DX2 analytically  !
 ! D49   D(32,10,11,29)          0.1293         calculate D2E/DX2 analytically  !
 ! D50   D(10,11,12,13)          0.2422         calculate D2E/DX2 analytically  !
 ! D51   D(10,11,12,24)       -179.7585         calculate D2E/DX2 analytically  !
 ! D52   D(29,11,12,13)        179.8981         calculate D2E/DX2 analytically  !
 ! D53   D(29,11,12,24)         -0.1026         calculate D2E/DX2 analytically  !
 ! D54   D(10,11,29,23)         95.6928         calculate D2E/DX2 analytically  !
 ! D55   D(10,11,29,30)        -32.1174         calculate D2E/DX2 analytically  !
 ! D56   D(10,11,29,31)       -136.9462         calculate D2E/DX2 analytically  !
 ! D57   D(12,11,29,23)        -83.9601         calculate D2E/DX2 analytically  !
 ! D58   D(12,11,29,30)        148.2297         calculate D2E/DX2 analytically  !
 ! D59   D(12,11,29,31)         43.4009         calculate D2E/DX2 analytically  !
 ! D60   D(11,12,13,1)          -0.0691         calculate D2E/DX2 analytically  !
 ! D61   D(11,12,13,25)        179.9514         calculate D2E/DX2 analytically  !
 ! D62   D(24,12,13,1)         179.9316         calculate D2E/DX2 analytically  !
 ! D63   D(24,12,13,25)         -0.0479         calculate D2E/DX2 analytically  !
 ! D64   D(1,13,33,35)          -0.2074         calculate D2E/DX2 analytically  !
 ! D65   D(12,13,33,35)       -175.0761         calculate D2E/DX2 analytically  !
 ! D66   D(26,23,29,11)         67.3666         calculate D2E/DX2 analytically  !
 ! D67   D(26,23,29,30)       -164.9619         calculate D2E/DX2 analytically  !
 ! D68   D(26,23,29,31)        -59.7672         calculate D2E/DX2 analytically  !
 ! D69   D(27,23,29,11)       -172.6752         calculate D2E/DX2 analytically  !
 ! D70   D(27,23,29,30)        -45.0037         calculate D2E/DX2 analytically  !
 ! D71   D(27,23,29,31)         60.191          calculate D2E/DX2 analytically  !
 ! D72   D(28,23,29,11)        -52.9187         calculate D2E/DX2 analytically  !
 ! D73   D(28,23,29,30)         74.7528         calculate D2E/DX2 analytically  !
 ! D74   D(28,23,29,31)        179.9476         calculate D2E/DX2 analytically  !
 ! D75   D(25,33,35,34)         -0.4606         calculate D2E/DX2 analytically  !
 ! D76   D(25,33,35,36)        179.4095         calculate D2E/DX2 analytically  !
 ! D77   D(14,34,35,33)          0.2014         calculate D2E/DX2 analytically  !
 ! D78   D(14,34,35,36)       -179.6655         calculate D2E/DX2 analytically  !
 ! D79   D(33,35,36,37)       -179.6477         calculate D2E/DX2 analytically  !
 ! D80   D(33,35,36,38)         59.2337         calculate D2E/DX2 analytically  !
 ! D81   D(33,35,36,39)        -58.7303         calculate D2E/DX2 analytically  !
 ! D82   D(34,35,36,37)          0.221          calculate D2E/DX2 analytically  !
 ! D83   D(34,35,36,38)       -120.8976         calculate D2E/DX2 analytically  !
 ! D84   D(34,35,36,39)        121.1384         calculate D2E/DX2 analytically  !
 ! D85   D(35,36,37,40)        -60.551          calculate D2E/DX2 analytically  !
 ! D86   D(35,36,37,41)        179.8953         calculate D2E/DX2 analytically  !
 ! D87   D(35,36,37,42)         60.4148         calculate D2E/DX2 analytically  !
 ! D88   D(38,36,37,40)         60.4576         calculate D2E/DX2 analytically  !
 ! D89   D(38,36,37,41)        -59.0961         calculate D2E/DX2 analytically  !
 ! D90   D(38,36,37,42)       -178.5766         calculate D2E/DX2 analytically  !
 ! D91   D(39,36,37,40)        178.6188         calculate D2E/DX2 analytically  !
 ! D92   D(39,36,37,41)         59.0651         calculate D2E/DX2 analytically  !
 ! D93   D(39,36,37,42)        -60.4154         calculate D2E/DX2 analytically  !
 --------------------------------------------------------------------------------
 Trust Radius=3.00D-01 FncErr=5.00D-06 GrdErr=5.00D-06 EigMax=2.50D+02 EigMin=1.00D-04
 Number of steps in this run=    222 maximum allowed number of steps=    252.
 GradGradGradGradGradGradGradGradGradGradGradGradGradGradGradGradGradGrad

                          Input orientation:                          
 ---------------------------------------------------------------------
 Center     Atomic      Atomic             Coordinates (Angstroms)
 Number     Number       Type             X           Y           Z
 ---------------------------------------------------------------------
      1          6           0       -6.035660    1.363500    0.241740
      2          7           0       -4.733850    0.751360    0.178080
      3          6           0       -3.521270    1.375640    0.098300
      4          8           0       -3.426480    2.592230    0.071030
      5          8           0       -2.396890    0.614630    0.045570
      6          6           0       -1.120720    1.137850   -0.029490
      7          6           0       -0.099790    0.003200   -0.081020
      8          6           0        1.323620    0.548900   -0.161780
      9          6           0       -6.267780    2.761000    0.249540
     10          6           0       -7.570170    3.266680    0.315950
     11          6           0       -8.665070    2.401220    0.377490
     12          6           0       -8.452990    1.021690    0.367130
     13          6           0       -7.154530    0.511040    0.300810
     14          1           0       -4.705640   -0.393710    0.197020
     15          1           0       -0.926540    1.771690    0.864310
     16          1           0       -1.027640    1.761070   -0.946750
     17          1           0       -0.296900   -0.630800   -0.972690
     18          1           0       -0.197060   -0.623930    0.831660
     19          1           0        1.449740    1.165930   -1.077110
     20          1           0        2.045270   -0.293960   -0.199240
     21          1           0        1.549830    1.171260    0.730380
     22          1           0       -5.483340    3.493520    0.207740
     23          6           0      -11.440380    3.289800   -0.960310
     24          1           0       -9.291930    0.339150    0.410360
     25          1           0       -7.004370   -0.672860    0.294440
     26          9           0      -11.794350    2.059510   -1.479950
     27          9           0      -12.579010    3.960220   -0.555330
     28          9           0      -10.793600    4.034790   -1.927410
     29         16           0      -10.335050    3.053780    0.460020
     30          8           0      -10.271720    4.382380    1.229850
     31          8           0      -11.093220    2.224210    1.507890
     32          1           0       -7.723500    4.338440    0.319830
     33          8           0       -6.628510   -2.695850    0.538210
     34          8           0       -4.410150   -2.432870    0.452690
     35          6           0       -5.370000   -3.187440    0.574160
     36          6           0       -5.177780   -4.668230    0.767970
     37          6           0       -3.708790   -5.088030    0.798010
     38          1           0       -5.687570   -5.204370   -0.060860
     39          1           0       -5.653370   -4.964480    1.727350
     40          1           0       -3.212510   -4.826150   -0.160710
     41          1           0       -3.640150   -6.186630    0.945030
     42          1           0       -3.180960   -4.584400    1.635890
 ---------------------------------------------------------------------
                    Distance matrix (angstroms):
                    1          2          3          4          5
     1  C    0.000000
     2  N    1.439957   0.000000
     3  C    2.518507   1.366177   0.000000
     4  O    2.889072   2.260416   1.220582   0.000000
     5  O    3.720206   2.344704   1.358730   2.229710   0.000000
     6  C    4.927588   3.639666   2.415681   2.727976   1.381305
     7  C    6.098290   4.701211   3.690836   4.218182   2.380450
     8  C    7.415214   6.070374   4.921798   5.176181   3.726863
     9  C    1.416667   2.529170   3.079840   2.851900   4.430835
    10  C    2.445879   3.793488   4.474036   4.205358   5.819734
    11  C    2.830033   4.268055   5.252470   5.251022   6.526267
    12  C    2.444594   3.733741   4.951708   5.274474   6.078277
    13  C    1.407852   2.435674   3.740203   4.275805   4.765608
    14  H    2.204255   1.145574   2.131450   3.250840   2.523889
    15  H    5.163073   4.000949   2.734273   2.748141   2.042315
    16  H    5.162445   4.002593   2.731094   2.735167   2.043005
    17  H    6.195598   4.787605   3.945806   4.612108   2.645356
    18  H    6.195735   4.785504   3.947970   4.620757   2.644092
    19  H    7.603263   6.323303   5.112388   5.208654   4.044861
    20  H    8.260936   6.869609   5.819146   6.192188   4.540733
    21  H    7.603643   6.321866   5.114426   5.217045   4.044181
    22  H    2.200727   2.842896   2.889137   2.249819   4.223799
    23  C    5.862299   7.260658   8.215654   8.110047   9.484358
    24  H    3.417751   4.582572   5.871304   6.292457   6.910176
    25  H    2.255646   2.682760   4.045591   4.848920   4.790453
    26  F    6.050715   7.369598   8.449994   8.527050   9.629493
    27  F    7.084752   8.507715   9.441925   9.275372  10.734506
    28  F    5.871882   7.206564   8.003834   7.768475   9.278733
    29  S    4.624873   6.062513   7.026706   6.934889   8.314782
    30  O    5.294733   6.705112   7.475926   7.169715   8.809734
    31  O    5.284210   6.661777   7.748641   7.808899   8.964111
    32  H    3.421282   4.671749   5.146455   4.644947   6.504979
    33  O    4.113112   3.950024   5.140573   6.199600   5.395237
    34  O    4.135119   3.212400   3.926888   5.134676   3.675081
    35  C    4.611362   4.009453   4.946306   6.118414   4.855361
    36  C    6.115116   5.469643   6.302448   7.501137   6.013636
    37  C    6.880843   5.961001   6.504136   7.719753   5.899795
    38  H    6.584045   6.036339   6.929265   8.118922   6.685855
    39  H    6.511261   5.993044   6.884532   8.050236   6.675291
    40  H    6.814977   5.791189   6.214871   7.425082   5.505440
    41  H    7.952204   7.065416   7.610454   8.824846   6.972221
    42  H    6.743180   5.745173   6.164582   7.349359   5.493068
                    6          7          8          9         10
     6  C    0.000000
     7  C    1.527214   0.000000
     8  C    2.517769   1.526567   0.000000
     9  C    5.404137   6.764527   7.917823   0.000000
    10  C    6.800489   8.161768   9.312038   1.398693   0.000000
    11  C    7.660219   8.906444  10.173290   2.427512   1.397002
    12  C    7.343908   8.426987   9.802315   2.795384   2.412876
    13  C    6.075266   7.083294   8.490845   2.418941   2.786851
    14  H    3.904950   4.631274   6.113037   3.520687   4.649530
    15  H    1.112806   2.169037   2.758858   5.466765   6.831802
    16  H    1.112849   2.168064   2.759340   5.467178   6.831250
    17  H    2.167124   1.111703   2.162256   6.974924   8.351730
    18  H    2.167624   1.111638   2.162157   6.974974   8.352578
    19  H    2.775889   2.178343   1.111063   7.991518   9.365497
    20  H    3.478849   2.168770   1.110223   8.867975  10.266463
    21  H    2.776753   2.178068   1.111059   7.992090   9.366800
    22  H    4.963659   6.422486   7.425768   1.074094   2.101910
    23  C   10.582660  11.839927  13.079368   5.338460   4.075279
    24  H    8.221926   9.211393  10.633026   3.877719   3.397617
    25  H    6.164490   6.947752   8.429487   3.512261   3.980021
    26  F   10.811090  11.956093  13.270292   5.833198   4.746179
    27  F   11.812480  13.100149  14.320444   6.474378   5.131141
    28  F   10.274189  11.576720  12.731689   5.181187   4.001644
    29  S    9.424133  10.693891  11.940923   4.083223   2.776805
    30  O    9.790491  11.151850  12.291628   4.429607   3.062413
    31  O   10.148619  11.327534  12.640110   5.015622   3.862557
    32  H    7.345918   8.779290   9.820537   2.147645   1.082679
    33  O    6.734634   7.091721   8.617120   5.476374   6.040520
    34  O    4.878820   4.979808   6.491891   5.519814   6.518381
    35  C    6.093349   6.195527   7.701064   6.024560   6.823715
    36  C    7.127850   6.951908   8.387555   7.526641   8.300039
    37  C    6.792970   6.302238   7.617173   8.273846   9.216497
    38  H    7.815424   7.638225   9.070120   7.992503   8.685900
    39  H    7.801912   7.667483   9.090905   7.889516   8.568440
    40  H    6.321558   5.746129   7.033323   8.189495   9.203820
    41  H    7.806742   7.204230   8.439870   9.351376  10.256991
    42  H    6.305729   5.786835   7.062126   8.087356   9.091032
                   11         12         13         14         15
    11  C    0.000000
    12  C    1.395775   0.000000
    13  C    2.420825   1.396839   0.000000
    14  H    4.849875   4.009355   2.612739   0.000000
    15  H    7.779341   7.580049   6.379234   4.406340   0.000000
    16  H    7.777772   7.576859   6.376344   4.413499   1.813911
    17  H    9.002355   8.428977   7.067722   4.567431   3.089170
    18  H    9.003610   8.431147   7.069395   4.558844   2.504437
    19  H   10.293259  10.008531   8.738479   6.476464   3.127741
    20  H   11.059295  10.595526   9.248481   6.763265   3.772228
    21  H   10.294732  10.010531   8.739926   6.470279   2.551639
    22  H    3.368284   3.867062   3.420048   3.964277   4.915304
    23  C    3.206498   3.978809   5.261220   7.763014  10.778438
    24  H    2.155497   1.082382   2.147097   4.649371   8.499294
    25  H    3.494966   2.230534   1.193402   2.317666   6.575758
    26  F    3.655030   3.956446   5.205458   7.686373  11.121497
    27  F    4.315039   5.148780   6.484967   9.028438  11.940900
    28  F    3.537196   4.452206   5.533951   7.822280  10.501152
    29  S    1.794848   2.771312   4.075117   6.606407   9.504066
    30  O    2.689393   3.917436   5.056408   7.406688   9.709877
    31  O    2.684222   3.117403   4.461533   7.026597  10.197076
    32  H    2.154693   3.396354   3.869506   5.613894   7.285831
    33  O    5.491223   4.144647   3.258404   3.018889   7.251049
    34  O    6.440375   5.318445   4.027567   2.076260   5.475700
    35  C    6.490708   5.221538   4.115583   2.896297   6.664945
    36  C    7.892451   6.577451   5.563328   4.338251   7.717182
    37  C    8.990574   7.747372   6.593172   4.836480   7.402774
    38  H    8.179404   6.826020   5.911742   4.916619   8.496397
    39  H    8.071307   6.747022   5.854043   4.912437   8.274282
    40  H    9.069451   7.870100   6.651174   4.690835   7.057465
    41  H    9.966097   8.686615   7.591091   5.937399   8.408630
    42  H    8.969834   7.799506   6.598121   4.685817   6.788050
                   16         17         18         19         20
    16  H    0.000000
    17  H    2.501139   0.000000
    18  H    3.088823   1.807123   0.000000
    19  H    2.551195   2.507966   3.091755   0.000000
    20  H    3.771564   2.489467   2.489915   1.804603   0.000000
    21  H    3.131133   3.091647   2.506908   1.810267   1.804584
    22  H    4.918078   6.730720   6.729593   7.425370   8.437453
    23  C   10.524370  11.813061  12.039131  13.064443  13.974452
    24  H    8.494827   9.152278   9.155418  10.875643  11.371216
    25  H    6.571596   6.826239   6.828651   8.759810   9.071013
    26  F   10.784035  11.818902  12.126068  13.280312  14.096600
    27  F   11.765357  13.118761  13.275950  14.313844  15.234645
    28  F   10.074992  11.526488  11.899697  12.603680  13.658742
    29  S    9.501473  10.788570  10.790853  12.033620  12.841897
    30  O    9.851998  11.378936  11.257019  12.371752  13.252120
    31  O   10.370904  11.439619  11.282530  12.850215  13.486119
    32  H    7.285712   9.028751   9.029639   9.806355  10.823929
    33  O    7.310197   6.829095   6.763321   9.098391   9.030358
    34  O    5.566771   4.711474   4.600653   7.044853   6.831720
    35  C    6.756997   5.887741   5.779031   8.257565   7.997287
    36  C    7.842182   6.569150   6.416229   9.020297   8.499540
    37  C    7.559294   5.885853   5.679927   8.320969   7.555582
    38  H    8.427165   7.127994   7.205742   9.620534   9.161228
    39  H    8.589599   7.400187   7.029506   9.792910   9.208396
    40  H    6.984482   5.173109   5.266535   7.647312   6.941648
    41  H    8.577294   6.761821   6.543038   9.168215   8.267824
    42  H    7.181351   5.545579   5.023521   7.865751   7.006358
                   21         22         23         24         25
    21  H    0.000000
    22  H    7.425061   0.000000
    23  C   13.269974   6.073892   0.000000
    24  H   10.878354   4.949390   3.898834   0.000000
    25  H    8.761573   4.436189   6.079084   2.504103   0.000000
    26  F   13.555135   6.688313   1.381642   3.577012   5.792945
    27  F   14.458751   7.151826   1.382009   4.984937   7.298229
    28  F   12.946966   5.748974   1.381527   4.623628   6.438699
    29  S   12.036085   4.878125   1.815158   2.908570   5.000869
    30  O   12.260090   4.976280   2.712250   4.240196   6.091471
    31  O   12.710623   5.896803   2.710722   2.828899   5.155984
    32  H    9.807866   2.396825   4.068612   4.296800   5.062699
    33  O    9.048575   6.303089   7.824811   4.039972   2.072000
    34  O    6.970526   6.027755   9.174402   5.614059   3.138894
    35  C    8.179653   6.691961   9.008815   5.276855   3.012063
    36  C    8.908524   8.186659  10.273137   6.490606   4.418557
    37  C    8.175351   8.782963  11.535043   7.795897   5.532464
    38  H    9.677535   8.704433  10.298289   6.629033   4.732313
    39  H    9.514586   8.595108  10.432935   6.565217   4.721910
    40  H    7.709919   8.631879  11.584725   7.997862   5.642267
    41  H    9.006693   9.881612  12.420815   8.649526   6.491757
    42  H    7.505194   8.520174  11.703047   7.942747   5.631882
                   26         27         28         29         30
    26  F    0.000000
    27  F    2.254620   0.000000
    28  F    2.259082   2.252965   0.000000
    29  S    2.623283   2.624486   2.621540   0.000000
    30  O    3.880353   2.947656   3.218923   1.536824   0.000000
    31  O    3.073418   3.078665   3.894773   1.536567   2.325912
    32  H    5.000455   4.948225   3.816779   2.913794   2.706195
    33  O    7.305636   8.994862   8.290282   6.841257   7.990788
    34  O    8.856804  10.421995   9.393824   8.075136   9.022728
    35  C    8.545298  10.214432   9.371974   7.976063   9.042066
    36  C    9.700239  11.444627  10.702573   9.290948  10.395917
    37  C   11.029629  12.742965  11.867952  10.502887  11.530273
    38  H    9.595339  11.477202  10.719964   9.490386  10.704492
    39  H    9.865842  11.524990  10.989363   9.371059  10.437454
    40  H   11.081547  12.848632  11.794508  10.639980  11.686023
    41  H   11.847799  13.605619  12.802351  11.421125  12.480497
    42  H   11.315498  12.889349  12.039096  10.531166  11.438833
                   31         32         33         34         35
    31  O    0.000000
    32  H    4.151683   0.000000
    33  O    6.714232   7.122354   0.000000
    34  O    8.213724   7.539667   2.235530   0.000000
    35  C    7.931775   7.889393   1.351592   1.226965   0.000000
    36  C    9.112938   9.370252   2.459205   2.384427   1.505739
    37  C   10.416458  10.256943   3.783489   2.767856   2.534161
    38  H    9.320184   9.764997   2.745346   3.094632   2.138249
    39  H    9.017616   9.633840   2.740736   3.095061   2.137292
    40  H   10.705017  10.225931   4.086040   2.745613   2.807164
    41  H   11.251991  11.306711   4.613171   3.863420   3.482107
    42  H   10.439225  10.098701   4.081314   2.745897   2.805470
                   36         37         38         39         40
    36  C    0.000000
    37  C    1.528092   0.000000
    38  H    1.110987   2.160269   0.000000
    39  H    1.111018   2.158779   1.804553   0.000000
    40  H    2.179374   1.110864   2.505782   3.088965   0.000000
    41  H    2.168224   1.110517   2.483662   2.481679   1.804562
    42  H    2.178899   1.110986   3.089728   2.503125   1.813066
                   41         42
    41  H    0.000000
    42  H    1.804241   0.000000
 Stoichiometry    C14H17F3NO6S(1-)
 Framework group  C1[X(C14H17F3NO6S)]
 Deg. of freedom   120
 Full point group                 C1      NOp   1
 Largest Abelian subgroup         C1      NOp   1
 Largest concise Abelian subgroup C1      NOp   1
                         Standard orientation:                         
 ---------------------------------------------------------------------
 Center     Atomic      Atomic             Coordinates (Angstroms)
 Number     Number       Type             X           Y           Z
 ---------------------------------------------------------------------
      1          6           0        0.344616   -0.574658   -0.157435
      2          7           0        1.778630   -0.612204   -0.032249
      3          6           0        2.587348   -1.713297   -0.028845
      4          8           0        2.135286   -2.841787   -0.138250
      5          8           0        3.928328   -1.538561    0.103014
      6          6           0        4.838787   -2.577298    0.112709
      7          6           0        6.251626   -2.023806    0.285670
      8          6           0        7.283951   -3.148335    0.297779
      9          6           0       -0.478671   -1.715985   -0.320281
     10          6           0       -1.866192   -1.583066   -0.436293
     11          6           0       -2.463990   -0.321098   -0.395194
     12          6           0       -1.666702    0.812831   -0.231713
     13          6           0       -0.280511    0.686088   -0.115215
     14          1           0        2.309105    0.397270    0.076822
     15          1           0        4.773990   -3.136302   -0.847319
     16          1           0        4.606448   -3.267651    0.954056
     17          1           0        6.313962   -1.463143    1.243614
     18          1           0        6.481724   -1.328584   -0.550667
     19          1           0        7.084051   -3.847602    1.137735
     20          1           0        8.300559   -2.720834    0.425632
     21          1           0        7.252857   -3.711461   -0.659496
     22          1           0       -0.099809   -2.720067   -0.364576
     23          6           0       -5.404098   -0.021078    0.848744
     24          1           0       -2.116380    1.796664   -0.194154
     25          1           0        0.375274    1.673572    0.022737
     26          9           0       -5.203029    1.178318    1.504453
     27          9           0       -6.702091   -0.072715    0.377050
     28          9           0       -5.195835   -1.070134    1.723230
     29         16           0       -4.245077   -0.154634   -0.541807
     30          8           0       -4.738781   -1.287302   -1.455671
     31          8           0       -4.512328    1.027354   -1.486540
     32          1           0       -2.475541   -2.469507   -0.559216
     33          8           0        1.614263    3.334224    0.004812
     34          8           0        3.483689    2.109126    0.049281
     35          6           0        2.960844    3.218668    0.017751
     36          6           0        3.794118    4.472510   -0.010233
     37          6           0        5.297542    4.199218   -0.000502
     38          1           0        3.535818    5.090863    0.875889
     39          1           0        3.541366    5.045254   -0.928079
     40          1           0        5.584013    3.648000    0.920428
     41          1           0        5.849571    5.162523   -0.024105
     42          1           0        5.586744    3.602767   -0.892072
 ---------------------------------------------------------------------
 Rotational constants (GHZ):           0.2731377           0.0726624           0.0602350
 Standard basis: 6-311+G(d) (5D, 7F)
 There are   634 symmetry adapted cartesian basis functions of A   symmetry.
 There are   609 symmetry adapted basis functions of A   symmetry.
   609 basis functions,   999 primitive gaussians,   634 cartesian basis functions
   100 alpha electrons      100 beta electrons
       nuclear repulsion energy      2351.3283764185 Hartrees.
 NAtoms=   42 NActive=   42 NUniq=   42 SFac= 1.00D+00 NAtFMM=   60 NAOKFM=F Big=F
 Integral buffers will be    131072 words long.
 Raffenetti 2 integral format.
 Two-electron integral symmetry is turned on.
 Nuclear repulsion after empirical dispersion term =     2351.3260348124 Hartrees.
 Force inversion solution in PCM.
 ------------------------------------------------------------------------------
 Polarizable Continuum Model (PCM)
 =================================
 Model                : PCM.
 Atomic radii         : SMD-Coulomb.
 Polarization charges : Total charges.
 Charge compensation  : None.
 Solution method      : Matrix inversion.
 Cavity type          : VdW (van der Waals Surface) (Alpha=1.000).
 Cavity algorithm     : GePol (No added spheres)
                        Default sphere list used, NSphG=   42.
                        Lebedev-Laikov grids with approx.  5.0 points / Ang**2.
                        Smoothing algorithm: York/Karplus (Gamma=1.0000).
                        Polarization charges: spherical gaussians, with
                                              point-specific exponents (IZeta= 3).
                        Self-potential: point-specific (ISelfS= 7).
                        Self-field    : sphere-specific E.n sum rule (ISelfD= 2).
 1st derivatives      : Analytical E(r).r(x)/FMM algorithm (CHGder, D1EAlg=3).
                        Cavity 1st derivative terms included.
 2nd derivatives      : Analytical E(r).r(xy)/FMM algorithm (CHGder, D2EAlg=3).
                        Cavity 2nd derivative terms included.
 Solvent              : n-Pentadecane, Eps=   2.033300 Eps(inf)=   2.049192
 ------------------------------------------------------------------------------
 ------------------------------------------------------------------------------
 Atomic radii for non-electrostatic terms: SMD-CDS.
 ------------------------------------------------------------------------------
 Nuclear repulsion after PCM non-electrostatic terms =     2351.3190139466 Hartrees.
 One-electron integrals computed using PRISM.
 NBasis=   609 RedAO= T EigKep=  1.63D-06  NBF=   609
 NBsUse=   607 1.00D-06 EigRej=  5.26D-07 NBFU=   607
 ExpMin= 4.05D-02 ExpMax= 9.34D+04 ExpMxC= 3.17D+03 IAcc=3 IRadAn=         5 AccDes= 0.00D+00
 Harris functional with IExCor= 1009 and IRadAn=       5 diagonalized for initial guess.
 HarFok:  IExCor= 1009 AccDes= 0.00D+00 IRadAn=         5 IDoV= 1 UseB2=F ITyADJ=14
 ICtDFT=  3500011 ScaDFX=  1.000000  1.000000  1.000000  1.000000
 FoFCou: FMM=F IPFlag=           0 FMFlag=      100000 FMFlg1=           0
         NFxFlg=           0 DoJE=T BraDBF=F KetDBF=T FulRan=T
         wScrn=  0.000000 ICntrl=       500 IOpCl=  0 I1Cent=   200000004 NGrid=           0
         NMat0=    1 NMatS0=      1 NMatT0=    0 NMatD0=    1 NMtDS0=    0 NMtDT0=    0
 Petite list used in FoFCou.
 Requested convergence on RMS density matrix=1.00D-08 within 128 cycles.
 Requested convergence on MAX density matrix=1.00D-06.
 Requested convergence on             energy=1.00D-06.
 No special actions if energy rises.
 Inv3:  Mode=1 IEnd=    37914075.
 Iteration    1 A*A^-1 deviation from unit magnitude is 6.33D-15 for   3540.
 Iteration    1 A*A^-1 deviation from orthogonality  is 3.05D-15 for   3554   2575.
 Iteration    1 A^-1*A deviation from unit magnitude is 6.33D-15 for   3540.
 Iteration    1 A^-1*A deviation from orthogonality  is 1.80D-15 for   3548   1575.
 Error on total polarization charges =  0.01387
 SCF Done:  E(RM062X) =  -1747.39357677     A.U. after   19 cycles
            NFock= 19  Conv=0.50D-08     -V/T= 2.0037
 SMD-CDS (non-electrostatic) energy       (kcal/mol) =      -4.41
 (included in total energy above)
 DoSCS=F DFT=T ScalE2(SS,OS)=  1.000000  1.000000
 Range of M.O.s used for correlation:     1   607
 NBasis=   609 NAE=   100 NBE=   100 NFC=     0 NFV=     0
 NROrb=    607 NOA=   100 NOB=   100 NVA=   507 NVB=   507

 **** Warning!!: The largest alpha MO coefficient is  0.16425924D+03

 Symmetrizing basis deriv contribution to polar:
 IMax=3 JMax=2 DiffMx= 0.00D+00
 G2DrvN: will do    43 centers at a time, making    1 passes.
 Calling FoFCou, ICntrl=  3107 FMM=F I1Cent=   0 AccDes= 0.00D+00.
 NEqPCM:  Using equilibrium solvation (IEInf=0, Eps=   2.0333, EpsInf=   2.0492)
 G2PCM: DoFxE=T DoFxN=T DoGrad=T DoDP/DQ/DG/TGxP=FFFF NFrqRd=   0 IEInf=0 SqF1=F DoCFld=F IF1Alg=4.
 End of G2Drv F.D. properties file   721 does not exist.
 End of G2Drv F.D. properties file   722 does not exist.
 End of G2Drv F.D. properties file   788 does not exist.
          IDoAtm=111111111111111111111111111111111111111111
 NEqPCM:  Using equilibrium solvation (IEInf=0, Eps=   2.0333, EpsInf=   2.0492)
          Differentiating once with respect to nuclear coordinates.
 CalDSu exits because no D1Ps are significant.
          There are   129 degrees of freedom in the 1st order CPHF.  IDoFFX=6 NUNeed=     0.
    123 vectors produced by pass  0 Test12= 5.07D-14 1.00D-09 XBig12= 5.93D-01 1.37D-01.
 AX will form    64 AO Fock derivatives at one time.
    123 vectors produced by pass  1 Test12= 5.07D-14 1.00D-09 XBig12= 3.60D-02 5.11D-02.
    123 vectors produced by pass  2 Test12= 5.07D-14 1.00D-09 XBig12= 1.42D-03 5.43D-03.
    123 vectors produced by pass  3 Test12= 5.07D-14 1.00D-09 XBig12= 1.56D-05 7.31D-04.
    123 vectors produced by pass  4 Test12= 5.07D-14 1.00D-09 XBig12= 1.43D-07 5.12D-05.
    123 vectors produced by pass  5 Test12= 5.07D-14 1.00D-09 XBig12= 9.96D-10 2.37D-06.
    104 vectors produced by pass  6 Test12= 5.07D-14 1.00D-09 XBig12= 4.71D-12 1.83D-07.
     48 vectors produced by pass  7 Test12= 5.07D-14 1.00D-09 XBig12= 1.88D-14 1.09D-08.
 InvSVY:  IOpt=1 It=  1 EMax= 1.11D-15
 Solved reduced A of dimension   890 with   129 vectors.
 End of Minotr F.D. properties file   721 does not exist.
 End of Minotr F.D. properties file   722 does not exist.
 End of Minotr F.D. properties file   788 does not exist.

 **********************************************************************

            Population analysis using the SCF Density.

 **********************************************************************

 Orbital symmetries:
       Occupied  (A) (A) (A) (A) (A) (A) (A) (A) (A) (A) (A) (A)
                 (A) (A) (A) (A) (A) (A) (A) (A) (A) (A) (A) (A)
                 (A) (A) (A) (A) (A) (A) (A) (A) (A) (A) (A) (A)
                 (A) (A) (A) (A) (A) (A) (A) (A) (A) (A) (A) (A)
                 (A) (A) (A) (A) (A) (A) (A) (A) (A) (A) (A) (A)
                 (A) (A) (A) (A) (A) (A) (A) (A) (A) (A) (A) (A)
                 (A) (A) (A) (A) (A) (A) (A) (A) (A) (A) (A) (A)
                 (A) (A) (A) (A) (A) (A) (A) (A) (A) (A) (A) (A)
                 (A) (A) (A) (A)
       Virtual   (A) (A) (A) (A) (A) (A) (A) (A) (A) (A) (A) (A)
                 (A) (A) (A) (A) (A) (A) (A) (A) (A) (A) (A) (A)
                 (A) (A) (A) (A) (A) (A) (A) (A) (A) (A) (A) (A)
                 (A) (A) (A) (A) (A) (A) (A) (A) (A) (A) (A) (A)
                 (A) (A) (A) (A) (A) (A) (A) (A) (A) (A) (A) (A)
                 (A) (A) (A) (A) (A) (A) (A) (A) (A) (A) (A) (A)
                 (A) (A) (A) (A) (A) (A) (A) (A) (A) (A) (A) (A)
                 (A) (A) (A) (A) (A) (A) (A) (A) (A) (A) (A) (A)
                 (A) (A) (A) (A) (A) (A) (A) (A) (A) (A) (A) (A)
                 (A) (A) (A) (A) (A) (A) (A) (A) (A) (A) (A) (A)
                 (A) (A) (A) (A) (A) (A) (A) (A) (A) (A) (A) (A)
                 (A) (A) (A) (A) (A) (A) (A) (A) (A) (A) (A) (A)
                 (A) (A) (A) (A) (A) (A) (A) (A) (A) (A) (A) (A)
                 (A) (A) (A) (A) (A) (A) (A) (A) (A) (A) (A) (A)
                 (A) (A) (A) (A) (A) (A) (A) (A) (A) (A) (A) (A)
                 (A) (A) (A) (A) (A) (A) (A) (A) (A) (A) (A) (A)
                 (A) (A) (A) (A) (A) (A) (A) (A) (A) (A) (A) (A)
                 (A) (A) (A) (A) (A) (A) (A) (A) (A) (A) (A) (A)
                 (A) (A) (A) (A) (A) (A) (A) (A) (A) (A) (A) (A)
                 (A) (A) (A) (A) (A) (A) (A) (A) (A) (A) (A) (A)
                 (A) (A) (A) (A) (A) (A) (A) (A) (A) (A) (A) (A)
                 (A) (A) (A) (A) (A) (A) (A) (A) (A) (A) (A) (A)
                 (A) (A) (A) (A) (A) (A) (A) (A) (A) (A) (A) (A)
                 (A) (A) (A) (A) (A) (A) (A) (A) (A) (A) (A) (A)
                 (A) (A) (A) (A) (A) (A) (A) (A) (A) (A) (A) (A)
                 (A) (A) (A) (A) (A) (A) (A) (A) (A) (A) (A) (A)
                 (A) (A) (A) (A) (A) (A) (A) (A) (A) (A) (A) (A)
                 (A) (A) (A) (A) (A) (A) (A) (A) (A) (A) (A) (A)
                 (A) (A) (A) (A) (A) (A) (A) (A) (A) (A) (A) (A)
                 (A) (A) (A) (A) (A) (A) (A) (A) (A) (A) (A) (A)
                 (A) (A) (A) (A) (A) (A) (A) (A) (A) (A) (A) (A)
                 (A) (A) (A) (A) (A) (A) (A) (A) (A) (A) (A) (A)
                 (A) (A) (A) (A) (A) (A) (A) (A) (A) (A) (A) (A)
                 (A) (A) (A) (A) (A) (A) (A) (A) (A) (A) (A) (A)
                 (A) (A) (A) (A) (A) (A) (A) (A) (A) (A) (A) (A)
                 (A) (A) (A) (A) (A) (A) (A) (A) (A) (A) (A) (A)
                 (A) (A) (A) (A) (A) (A) (A) (A) (A) (A) (A) (A)
                 (A) (A) (A) (A) (A) (A) (A) (A) (A) (A) (A) (A)
                 (A) (A) (A) (A) (A) (A) (A) (A) (A) (A) (A) (A)
                 (A) (A) (A) (A) (A) (A) (A) (A) (A) (A) (A) (A)
                 (A) (A) (A) (A) (A) (A) (A) (A) (A) (A) (A) (A)
                 (A) (A) (A) (A) (A) (A) (A) (A) (A) (A) (A) (A)
                 (A) (A) (A)
 The electronic state is 1-A.
 Alpha  occ. eigenvalues --  -90.09061 -25.29206 -25.29125 -25.29075 -19.62306
 Alpha  occ. eigenvalues --  -19.58279 -19.58127 -19.55749 -19.49737 -19.46631
 Alpha  occ. eigenvalues --  -14.75618 -10.83721 -10.66534 -10.58520 -10.57080
 Alpha  occ. eigenvalues --  -10.55976 -10.55106 -10.54097 -10.53751 -10.52314
 Alpha  occ. eigenvalues --  -10.51966 -10.50453 -10.50223 -10.47262 -10.47085
 Alpha  occ. eigenvalues --   -8.43443  -6.35612  -6.35530  -6.35497  -1.45320
 Alpha  occ. eigenvalues --   -1.37665  -1.37424  -1.20119  -1.17385  -1.10191
 Alpha  occ. eigenvalues --   -1.07152  -1.04220  -1.00259  -0.94341  -0.93771
 Alpha  occ. eigenvalues --   -0.87606  -0.85902  -0.83364  -0.82431  -0.79999
 Alpha  occ. eigenvalues --   -0.77185  -0.75094  -0.70209  -0.68993  -0.68848
 Alpha  occ. eigenvalues --   -0.67735  -0.65760  -0.65119  -0.62750  -0.61771
 Alpha  occ. eigenvalues --   -0.59235  -0.57577  -0.57475  -0.56527  -0.54899
 Alpha  occ. eigenvalues --   -0.54716  -0.54228  -0.53648  -0.52281  -0.51575
 Alpha  occ. eigenvalues --   -0.51346  -0.51327  -0.49598  -0.49144  -0.48423
 Alpha  occ. eigenvalues --   -0.47478  -0.46600  -0.46560  -0.45196  -0.44839
 Alpha  occ. eigenvalues --   -0.44679  -0.43538  -0.42236  -0.41508  -0.40842
 Alpha  occ. eigenvalues --   -0.39373  -0.38080  -0.37871  -0.37369  -0.37233
 Alpha  occ. eigenvalues --   -0.36946  -0.35852  -0.35772  -0.34786  -0.34405
 Alpha  occ. eigenvalues --   -0.33845  -0.33596  -0.32595  -0.31365  -0.31036
 Alpha  occ. eigenvalues --   -0.28701  -0.25493  -0.24251  -0.22517  -0.21553
 Alpha virt. eigenvalues --   -0.01627   0.02965   0.04493   0.04973   0.05074
 Alpha virt. eigenvalues --    0.05358   0.06170   0.06297   0.06984   0.07300
 Alpha virt. eigenvalues --    0.07371   0.07667   0.07905   0.09065   0.09192
 Alpha virt. eigenvalues --    0.09446   0.09689   0.09944   0.10092   0.10674
 Alpha virt. eigenvalues --    0.10940   0.11317   0.11718   0.12049   0.12133
 Alpha virt. eigenvalues --    0.12278   0.12724   0.12953   0.13375   0.13578
 Alpha virt. eigenvalues --    0.13966   0.14166   0.14268   0.14664   0.15495
 Alpha virt. eigenvalues --    0.15551   0.16386   0.16773   0.17187   0.17619
 Alpha virt. eigenvalues --    0.17794   0.18068   0.18434   0.18620   0.19019
 Alpha virt. eigenvalues --    0.19070   0.19545   0.19815   0.20066   0.20292
 Alpha virt. eigenvalues --    0.20490   0.21230   0.21717   0.22008   0.22167
 Alpha virt. eigenvalues --    0.22518   0.23152   0.23597   0.23922   0.24211
 Alpha virt. eigenvalues --    0.24570   0.24828   0.25274   0.25446   0.25789
 Alpha virt. eigenvalues --    0.25983   0.26314   0.26602   0.26934   0.27185
 Alpha virt. eigenvalues --    0.27534   0.27844   0.28191   0.28498   0.28810
 Alpha virt. eigenvalues --    0.28884   0.29325   0.29705   0.29753   0.30425
 Alpha virt. eigenvalues --    0.30827   0.31105   0.31369   0.31649   0.31989
 Alpha virt. eigenvalues --    0.32419   0.32488   0.32904   0.33274   0.33465
 Alpha virt. eigenvalues --    0.33744   0.34062   0.34274   0.34816   0.35106
 Alpha virt. eigenvalues --    0.35495   0.35686   0.36046   0.36401   0.36492
 Alpha virt. eigenvalues --    0.36733   0.36978   0.37382   0.37723   0.38207
 Alpha virt. eigenvalues --    0.38367   0.39063   0.39353   0.39491   0.39748
 Alpha virt. eigenvalues --    0.40203   0.40337   0.40687   0.40805   0.40945
 Alpha virt. eigenvalues --    0.41491   0.41901   0.42062   0.42853   0.43213
 Alpha virt. eigenvalues --    0.44172   0.44325   0.44574   0.44944   0.45011
 Alpha virt. eigenvalues --    0.46016   0.46963   0.47233   0.47699   0.47913
 Alpha virt. eigenvalues --    0.49048   0.49626   0.49971   0.50661   0.50781
 Alpha virt. eigenvalues --    0.50920   0.51433   0.52608   0.52674   0.53478
 Alpha virt. eigenvalues --    0.54301   0.55127   0.55477   0.56379   0.57107
 Alpha virt. eigenvalues --    0.57326   0.57762   0.58293   0.59508   0.60362
 Alpha virt. eigenvalues --    0.60865   0.61990   0.62367   0.62557   0.62765
 Alpha virt. eigenvalues --    0.63496   0.64049   0.64377   0.64765   0.65397
 Alpha virt. eigenvalues --    0.66615   0.67846   0.68610   0.69204   0.69843
 Alpha virt. eigenvalues --    0.70305   0.70602   0.71179   0.71426   0.71916
 Alpha virt. eigenvalues --    0.72064   0.73272   0.73738   0.73939   0.74365
 Alpha virt. eigenvalues --    0.75121   0.75431   0.75889   0.76303   0.77307
 Alpha virt. eigenvalues --    0.77507   0.77893   0.78316   0.79345   0.79983
 Alpha virt. eigenvalues --    0.80025   0.80620   0.80962   0.81553   0.81885
 Alpha virt. eigenvalues --    0.82649   0.83149   0.83249   0.84651   0.85033
 Alpha virt. eigenvalues --    0.85221   0.86517   0.89098   0.90243   0.90805
 Alpha virt. eigenvalues --    0.92206   0.93390   0.94168   0.95123   0.96749
 Alpha virt. eigenvalues --    0.97235   0.97640   0.98317   0.99116   0.99692
 Alpha virt. eigenvalues --    1.00912   1.01397   1.03569   1.04460   1.05900
 Alpha virt. eigenvalues --    1.07460   1.07721   1.08761   1.09770   1.10657
 Alpha virt. eigenvalues --    1.10955   1.12575   1.13784   1.14428   1.15979
 Alpha virt. eigenvalues --    1.16492   1.17819   1.18593   1.19225   1.20993
 Alpha virt. eigenvalues --    1.21453   1.22805   1.23284   1.23447   1.24508
 Alpha virt. eigenvalues --    1.25513   1.25920   1.26177   1.26834   1.27964
 Alpha virt. eigenvalues --    1.28822   1.28947   1.30376   1.30977   1.31007
 Alpha virt. eigenvalues --    1.31873   1.33134   1.33947   1.34816   1.35479
 Alpha virt. eigenvalues --    1.36497   1.36935   1.37930   1.39198   1.40502
 Alpha virt. eigenvalues --    1.41710   1.44251   1.44936   1.45957   1.47835
 Alpha virt. eigenvalues --    1.47996   1.48998   1.49163   1.50104   1.50461
 Alpha virt. eigenvalues --    1.51478   1.52521   1.53829   1.54113   1.54820
 Alpha virt. eigenvalues --    1.55189   1.58504   1.58911   1.59404   1.60249
 Alpha virt. eigenvalues --    1.61372   1.62422   1.62796   1.63604   1.65069
 Alpha virt. eigenvalues --    1.65512   1.66490   1.66976   1.68179   1.68310
 Alpha virt. eigenvalues --    1.71155   1.72114   1.73282   1.74112   1.76097
 Alpha virt. eigenvalues --    1.76723   1.77916   1.78483   1.79245   1.81118
 Alpha virt. eigenvalues --    1.81423   1.81845   1.82941   1.84036   1.84376
 Alpha virt. eigenvalues --    1.84700   1.85049   1.85625   1.86166   1.87955
 Alpha virt. eigenvalues --    1.89028   1.89513   1.90289   1.91955   1.93163
 Alpha virt. eigenvalues --    1.94295   1.94467   1.95048   1.96078   1.98408
 Alpha virt. eigenvalues --    2.00619   2.01800   2.03103   2.03518   2.03812
 Alpha virt. eigenvalues --    2.04957   2.05526   2.07014   2.07583   2.10758
 Alpha virt. eigenvalues --    2.13956   2.14647   2.17064   2.22681   2.23860
 Alpha virt. eigenvalues --    2.24095   2.25900   2.27865   2.30049   2.32199
 Alpha virt. eigenvalues --    2.38000   2.38960   2.39501   2.46536   2.47174
 Alpha virt. eigenvalues --    2.53047   2.54400   2.55661   2.57655   2.57988
 Alpha virt. eigenvalues --    2.58106   2.58923   2.61245   2.61803   2.63161
 Alpha virt. eigenvalues --    2.65479   2.66401   2.69296   2.69521   2.72393
 Alpha virt. eigenvalues --    2.74977   2.75801   2.78463   2.80874   2.82009
 Alpha virt. eigenvalues --    2.85838   2.86296   2.86708   2.87243   2.89951
 Alpha virt. eigenvalues --    2.90496   2.92327   2.96507   2.96852   2.97712
 Alpha virt. eigenvalues --    2.98173   2.99081   2.99746   3.00421   3.01472
 Alpha virt. eigenvalues --    3.03264   3.03497   3.04642   3.06184   3.07179
 Alpha virt. eigenvalues --    3.07261   3.07636   3.07759   3.08803   3.10918
 Alpha virt. eigenvalues --    3.11159   3.14459   3.15223   3.15735   3.16647
 Alpha virt. eigenvalues --    3.19405   3.20637   3.23050   3.23301   3.23636
 Alpha virt. eigenvalues --    3.27442   3.28472   3.30249   3.30272   3.31098
 Alpha virt. eigenvalues --    3.31163   3.35762   3.36064   3.36182   3.38462
 Alpha virt. eigenvalues --    3.39944   3.42621   3.43202   3.43804   3.45643
 Alpha virt. eigenvalues --    3.47913   3.48119   3.51492   3.52743   3.56667
 Alpha virt. eigenvalues --    3.62191   3.68994   3.70746   3.72827   3.75290
 Alpha virt. eigenvalues --    3.77617   3.80420   3.80932   3.83386   3.84057
 Alpha virt. eigenvalues --    3.84686   3.85155   3.86110   3.86358   3.89376
 Alpha virt. eigenvalues --    3.92094   3.93473   3.94819   3.95086   4.03123
 Alpha virt. eigenvalues --    4.06027   4.08149   4.11251   4.13171   4.19855
 Alpha virt. eigenvalues --    4.19916   4.20955   4.23498   4.26660   4.29767
 Alpha virt. eigenvalues --    4.38898   4.55870   4.83101   4.92786   4.92996
 Alpha virt. eigenvalues --    5.09265   5.15471   5.21623   5.22644   5.24331
 Alpha virt. eigenvalues --    5.25879   5.27439   5.28188   5.29831   5.30225
 Alpha virt. eigenvalues --    5.34647   5.42834   5.46509   5.48873   5.51828
 Alpha virt. eigenvalues --    5.76746   5.86149   6.04667   6.06907   6.43998
 Alpha virt. eigenvalues --    6.45314   6.47645   6.49324   6.50293   6.51372
 Alpha virt. eigenvalues --    6.53624   6.80304   6.81622   8.27694  17.56848
 Alpha virt. eigenvalues --   17.64671  17.70388  23.45252  23.48747  23.61851
 Alpha virt. eigenvalues --   23.67436  23.77345  23.84094  23.86625  23.93722
 Alpha virt. eigenvalues --   23.95026  23.97086  24.01112  24.08287  24.13197
 Alpha virt. eigenvalues --   24.20933  35.69825  50.03953  50.06037  50.07111
 Alpha virt. eigenvalues --   50.13611  50.18938  50.22850  66.87570  66.88191
 Alpha virt. eigenvalues --   66.92773 189.53032
          Condensed to atoms (all electrons):
               1          2          3          4          5          6
     1  C   28.983472  -0.017257   0.796612  -0.345091  -0.340412  -0.942277
     2  N   -0.017257   7.865169   0.217742  -0.037473  -0.284494  -0.383230
     3  C    0.796612   0.217742  11.234943   0.566753   0.223120  -0.626562
     4  O   -0.345091  -0.037473   0.566753   8.122599  -0.198322  -0.205659
     5  O   -0.340412  -0.284494   0.223120  -0.198322   8.488144   0.411845
     6  C   -0.942277  -0.383230  -0.626562  -0.205659   0.411845   8.926428
     7  C    0.050003   0.044913   0.293380   0.031757  -0.184738  -0.992615
     8  C   -0.034464  -0.008407  -0.302053  -0.000053   0.033348   0.393408
     9  C    6.163965  -0.241855   2.066747   0.437072   0.062998  -0.126857
    10  C   -1.261133   0.005490  -0.947412   0.146248   0.024207  -0.250929
    11  C   -6.399017  -0.040241  -2.335453  -0.005416   0.008474  -0.173619
    12  C  -12.037195   0.092855  -1.570350  -0.033485  -0.026308  -0.060717
    13  C   -6.763062   0.259586  -3.659928  -0.123924  -0.087664  -0.383333
    14  H    0.002170   0.080720   0.038298   0.000793   0.023230   0.001158
    15  H    0.007217   0.003082   0.021711  -0.000034  -0.047369   0.388998
    16  H    0.009190   0.004437   0.037784   0.000260  -0.052771   0.362939
    17  H   -0.000147  -0.001018   0.001263  -0.000309   0.001301  -0.051564
    18  H   -0.000149  -0.000946   0.003416  -0.000328   0.000683  -0.059508
    19  H   -0.000056  -0.000052  -0.001203  -0.000075  -0.000418  -0.045780
    20  H    0.000140   0.000032   0.008171   0.000026  -0.000879   0.085321
    21  H   -0.000078  -0.000044  -0.001584  -0.000061  -0.000323  -0.039756
    22  H    0.082726  -0.022684   0.066741   0.001081   0.002375   0.008166
    23  C    0.655374  -0.001258   0.026621   0.000177  -0.000026   0.000399
    24  H    0.024603  -0.001162   0.002868  -0.000016   0.000000   0.000018
    25  H    0.195959  -0.014571   0.016166   0.000120   0.000166   0.000925
    26  F   -0.003415   0.000037  -0.000118  -0.000000   0.000000  -0.000000
    27  F    0.003898   0.000001   0.000041  -0.000000  -0.000000   0.000000
    28  F   -0.025244  -0.000009  -0.000731   0.000000   0.000000  -0.000003
    29  S   -2.630017   0.002103  -0.259406   0.000015   0.000924  -0.006897
    30  O   -0.130476  -0.000134  -0.008968  -0.000002   0.000001  -0.000069
    31  O   -0.000579   0.000623  -0.000832  -0.000005   0.000002  -0.000012
    32  H    0.029230  -0.000948   0.006120   0.000012   0.000021   0.000094
    33  O    0.089433  -0.012720   0.012020  -0.000037   0.000159  -0.000437
    34  O    0.153336  -0.022510  -0.022408   0.000485   0.007856  -0.009243
    35  C   -0.263154   0.008884  -0.005104   0.000005  -0.001706   0.003420
    36  C    0.094538  -0.031817   0.034138   0.000392   0.000737   0.003588
    37  C    0.007930   0.003280  -0.008836  -0.000124  -0.001035  -0.002328
    38  H   -0.000795   0.000082   0.000010  -0.000000   0.000005  -0.000023
    39  H   -0.000399   0.000085  -0.000114  -0.000000   0.000003  -0.000045
    40  H    0.000216   0.000261  -0.000101   0.000001  -0.000012   0.000035
    41  H   -0.000105  -0.000058   0.000045  -0.000000   0.000000  -0.000014
    42  H   -0.000142   0.000264  -0.000017   0.000001  -0.000005   0.000084
               7          8          9         10         11         12
     1  C    0.050003  -0.034464   6.163965  -1.261133  -6.399017 -12.037195
     2  N    0.044913  -0.008407  -0.241855   0.005490  -0.040241   0.092855
     3  C    0.293380  -0.302053   2.066747  -0.947412  -2.335453  -1.570350
     4  O    0.031757  -0.000053   0.437072   0.146248  -0.005416  -0.033485
     5  O   -0.184738   0.033348   0.062998   0.024207   0.008474  -0.026308
     6  C   -0.992615   0.393408  -0.126857  -0.250929  -0.173619  -0.060717
     7  C    6.459933  -0.283818  -0.023276  -0.005882   0.000681   0.005738
     8  C   -0.283818   6.305907  -0.008492  -0.003407  -0.001427  -0.000449
     9  C   -0.023276  -0.008492  29.523463   3.390011 -13.336448  -8.372301
    10  C   -0.005882  -0.003407   3.390011  28.067685  -1.899223 -13.012532
    11  C    0.000681  -0.001427 -13.336448  -1.899223  46.524810  -4.012312
    12  C    0.005738  -0.000449  -8.372301 -13.012532  -4.012312  31.866639
    13  C    0.037452  -0.006699 -12.218890  -5.991831  -3.949475   8.466988
    14  H   -0.000481  -0.000395   0.058303   0.015007   0.012445  -0.016553
    15  H   -0.026738  -0.018778  -0.004431  -0.000426   0.000027   0.000102
    16  H   -0.019291  -0.017121  -0.004712  -0.000371  -0.000053   0.000182
    17  H    0.447997  -0.066664   0.000060   0.000019   0.000006   0.000000
    18  H    0.454429  -0.066955   0.000179   0.000034   0.000008   0.000004
    19  H    0.019920   0.366673  -0.000028  -0.000003  -0.000000   0.000001
    20  H   -0.141134   0.396416   0.000059   0.000003   0.000000  -0.000001
    21  H    0.015828   0.365897  -0.000008  -0.000001  -0.000000   0.000000
    22  H   -0.000596   0.000064   0.280615  -0.087828   0.020446  -0.022077
    23  C    0.000005   0.000001   0.938688   2.236965  -3.030063  -0.127791
    24  H    0.000000  -0.000000  -0.002876  -0.012393   0.118244   0.325593
    25  H   -0.000075   0.000007   0.026179   0.029499   0.014478  -0.213222
    26  F   -0.000000  -0.000000  -0.012454  -0.027344  -0.155084   0.019693
    27  F   -0.000000   0.000000  -0.001776  -0.000618   0.200592  -0.025936
    28  F    0.000000  -0.000000  -0.048337  -0.157913   0.013934   0.071225
    29  S   -0.000059  -0.000022  -2.204960  -3.948063  -3.735656   4.370881
    30  O    0.000000  -0.000000  -0.150793  -0.816718  -0.526050   0.779976
    31  O   -0.000000  -0.000000   0.076686   0.489029  -0.876625  -0.387401
    32  H    0.000000   0.000000  -0.029179   0.327030   0.020949  -0.029735
    33  O    0.000368   0.000008  -0.017375  -0.003699   0.015950  -0.090841
    34  O    0.003678   0.000662   0.047007   0.009601   0.000120  -0.035428
    35  C   -0.001288  -0.000494  -0.044606  -0.001377  -0.063888   0.100324
    36  C    0.001200   0.001454  -0.006341   0.004808  -0.023106  -0.065806
    37  C    0.000156  -0.001405   0.002120   0.000585  -0.000975  -0.002915
    38  H    0.000017  -0.000000  -0.000021  -0.000004  -0.000047   0.000060
    39  H    0.000019  -0.000001  -0.000043  -0.000009  -0.000057  -0.000340
    40  H    0.000158   0.000096  -0.000009   0.000002  -0.000010  -0.000159
    41  H   -0.000021  -0.000006   0.000000  -0.000001   0.000004   0.000077
    42  H    0.000157   0.000084  -0.000008   0.000002  -0.000013  -0.000104
              13         14         15         16         17         18
     1  C   -6.763062   0.002170   0.007217   0.009190  -0.000147  -0.000149
     2  N    0.259586   0.080720   0.003082   0.004437  -0.001018  -0.000946
     3  C   -3.659928   0.038298   0.021711   0.037784   0.001263   0.003416
     4  O   -0.123924   0.000793  -0.000034   0.000260  -0.000309  -0.000328
     5  O   -0.087664   0.023230  -0.047369  -0.052771   0.001301   0.000683
     6  C   -0.383333   0.001158   0.388998   0.362939  -0.051564  -0.059508
     7  C    0.037452  -0.000481  -0.026738  -0.019291   0.447997   0.454429
     8  C   -0.006699  -0.000395  -0.018778  -0.017121  -0.066664  -0.066955
     9  C  -12.218890   0.058303  -0.004431  -0.004712   0.000060   0.000179
    10  C   -5.991831   0.015007  -0.000426  -0.000371   0.000019   0.000034
    11  C   -3.949475   0.012445   0.000027  -0.000053   0.000006   0.000008
    12  C    8.466988  -0.016553   0.000102   0.000182   0.000000   0.000004
    13  C   29.105373  -0.113174   0.000805   0.001120   0.000100   0.000109
    14  H   -0.113174   0.275799   0.000016   0.000031  -0.000030  -0.000015
    15  H    0.000805   0.000016   0.470277  -0.044440   0.005315  -0.008097
    16  H    0.001120   0.000031  -0.044440   0.478492  -0.008764   0.005366
    17  H    0.000100  -0.000030   0.005315  -0.008764   0.443214  -0.030072
    18  H    0.000109  -0.000015  -0.008097   0.005366  -0.030072   0.439636
    19  H    0.000018  -0.000000  -0.000745   0.004361  -0.008058   0.006384
    20  H   -0.000017  -0.000000  -0.000185  -0.000207  -0.003748  -0.003767
    21  H    0.000011  -0.000000   0.004218  -0.000915   0.006457  -0.007948
    22  H   -0.006659  -0.000258  -0.000025  -0.000026  -0.000000  -0.000000
    23  C   -0.097023  -0.000063  -0.000000  -0.000000  -0.000000  -0.000000
    24  H   -0.151929   0.000070  -0.000000  -0.000000  -0.000000  -0.000000
    25  H    0.151920   0.013727  -0.000000   0.000000  -0.000000   0.000000
    26  F    0.019305   0.000000   0.000000  -0.000000   0.000000   0.000000
    27  F    0.001142  -0.000000  -0.000000   0.000000  -0.000000   0.000000
    28  F    0.011890  -0.000000   0.000000  -0.000000   0.000000  -0.000000
    29  S    1.992601   0.001246  -0.000001  -0.000000   0.000000   0.000000
    30  O    0.156390   0.000001   0.000000  -0.000000   0.000000   0.000000
    31  O    0.035029   0.000007  -0.000000   0.000000   0.000000   0.000000
    32  H   -0.025219   0.000003  -0.000000  -0.000000   0.000000   0.000000
    33  O    0.002238   0.017842   0.000001  -0.000000  -0.000000  -0.000001
    34  O   -0.171563   0.065546   0.000026  -0.000037   0.000031  -0.000081
    35  C    0.258809  -0.008854   0.000022   0.000055   0.000200   0.000153
    36  C   -0.109919   0.026912  -0.000016   0.000005  -0.000353  -0.000476
    37  C   -0.000030  -0.001930   0.000012   0.000019   0.000233   0.000468
    38  H    0.000938  -0.000025   0.000000   0.000000   0.000000  -0.000000
    39  H    0.001376  -0.000016   0.000000   0.000000  -0.000000  -0.000000
    40  H   -0.000230  -0.000176   0.000000  -0.000000  -0.000013  -0.000012
    41  H    0.000173   0.000025  -0.000000  -0.000000   0.000000   0.000000
    42  H   -0.000148  -0.000184  -0.000000  -0.000000  -0.000004  -0.000020
              19         20         21         22         23         24
     1  C   -0.000056   0.000140  -0.000078   0.082726   0.655374   0.024603
     2  N   -0.000052   0.000032  -0.000044  -0.022684  -0.001258  -0.001162
     3  C   -0.001203   0.008171  -0.001584   0.066741   0.026621   0.002868
     4  O   -0.000075   0.000026  -0.000061   0.001081   0.000177  -0.000016
     5  O   -0.000418  -0.000879  -0.000323   0.002375  -0.000026   0.000000
     6  C   -0.045780   0.085321  -0.039756   0.008166   0.000399   0.000018
     7  C    0.019920  -0.141134   0.015828  -0.000596   0.000005   0.000000
     8  C    0.366673   0.396416   0.365897   0.000064   0.000001  -0.000000
     9  C   -0.000028   0.000059  -0.000008   0.280615   0.938688  -0.002876
    10  C   -0.000003   0.000003  -0.000001  -0.087828   2.236965  -0.012393
    11  C   -0.000000   0.000000  -0.000000   0.020446  -3.030063   0.118244
    12  C    0.000001  -0.000001   0.000000  -0.022077  -0.127791   0.325593
    13  C    0.000018  -0.000017   0.000011  -0.006659  -0.097023  -0.151929
    14  H   -0.000000  -0.000000  -0.000000  -0.000258  -0.000063   0.000070
    15  H   -0.000745  -0.000185   0.004218  -0.000025  -0.000000  -0.000000
    16  H    0.004361  -0.000207  -0.000915  -0.000026  -0.000000  -0.000000
    17  H   -0.008058  -0.003748   0.006457  -0.000000  -0.000000  -0.000000
    18  H    0.006384  -0.003767  -0.007948  -0.000000  -0.000000  -0.000000
    19  H    0.467145  -0.024723  -0.036709  -0.000000   0.000000   0.000000
    20  H   -0.024723   0.439415  -0.024481   0.000000  -0.000000   0.000000
    21  H   -0.036709  -0.024481   0.465601  -0.000000   0.000000   0.000000
    22  H   -0.000000   0.000000  -0.000000   0.371003   0.000265   0.000056
    23  C    0.000000  -0.000000   0.000000   0.000265  10.250175  -0.012864
    24  H    0.000000   0.000000   0.000000   0.000056  -0.012864   0.370285
    25  H   -0.000000   0.000000  -0.000000   0.000020  -0.000016  -0.001717
    26  F   -0.000000   0.000000   0.000000   0.000001   0.116741  -0.001127
    27  F   -0.000000  -0.000000  -0.000000  -0.000000   0.315910  -0.000173
    28  F   -0.000000  -0.000000   0.000000   0.000013   0.147179   0.000286
    29  S   -0.000000   0.000000  -0.000000   0.003322  -5.658930   0.029182
    30  O   -0.000000   0.000000   0.000000   0.000295   0.040481   0.000057
    31  O   -0.000000   0.000000  -0.000000   0.000027   0.066093  -0.001717
    32  H    0.000000   0.000000   0.000000  -0.003410  -0.014642  -0.000026
    33  O    0.000000   0.000000   0.000000  -0.000014  -0.000087   0.000413
    34  O    0.000000   0.000001   0.000001   0.000004  -0.000006  -0.000058
    35  C   -0.000001  -0.000004   0.000001   0.000224   0.000116  -0.000728
    36  C   -0.000004   0.000006  -0.000005   0.000025   0.000168   0.000056
    37  C    0.000005  -0.000014   0.000006   0.000002  -0.000005  -0.000018
    38  H    0.000000  -0.000000   0.000000  -0.000000  -0.000000   0.000000
    39  H    0.000000  -0.000000   0.000000   0.000000   0.000000   0.000000
    40  H   -0.000000   0.000000  -0.000000   0.000000   0.000000  -0.000000
    41  H    0.000000  -0.000000   0.000000  -0.000000  -0.000000   0.000000
    42  H   -0.000000   0.000000  -0.000000   0.000000   0.000000   0.000000
              25         26         27         28         29         30
     1  C    0.195959  -0.003415   0.003898  -0.025244  -2.630017  -0.130476
     2  N   -0.014571   0.000037   0.000001  -0.000009   0.002103  -0.000134
     3  C    0.016166  -0.000118   0.000041  -0.000731  -0.259406  -0.008968
     4  O    0.000120  -0.000000  -0.000000   0.000000   0.000015  -0.000002
     5  O    0.000166   0.000000  -0.000000   0.000000   0.000924   0.000001
     6  C    0.000925  -0.000000   0.000000  -0.000003  -0.006897  -0.000069
     7  C   -0.000075  -0.000000  -0.000000   0.000000  -0.000059   0.000000
     8  C    0.000007  -0.000000   0.000000  -0.000000  -0.000022  -0.000000
     9  C    0.026179  -0.012454  -0.001776  -0.048337  -2.204960  -0.150793
    10  C    0.029499  -0.027344  -0.000618  -0.157913  -3.948063  -0.816718
    11  C    0.014478  -0.155084   0.200592   0.013934  -3.735656  -0.526050
    12  C   -0.213222   0.019693  -0.025936   0.071225   4.370881   0.779976
    13  C    0.151920   0.019305   0.001142   0.011890   1.992601   0.156390
    14  H    0.013727   0.000000  -0.000000  -0.000000   0.001246   0.000001
    15  H   -0.000000   0.000000  -0.000000   0.000000  -0.000001   0.000000
    16  H    0.000000  -0.000000   0.000000  -0.000000  -0.000000  -0.000000
    17  H   -0.000000   0.000000  -0.000000   0.000000   0.000000   0.000000
    18  H    0.000000   0.000000   0.000000  -0.000000   0.000000   0.000000
    19  H   -0.000000  -0.000000  -0.000000  -0.000000  -0.000000  -0.000000
    20  H    0.000000   0.000000  -0.000000  -0.000000   0.000000   0.000000
    21  H   -0.000000   0.000000  -0.000000   0.000000  -0.000000   0.000000
    22  H    0.000020   0.000001  -0.000000   0.000013   0.003322   0.000295
[...]
 ,0.00010924,-0.00008676,-0.00000210,-0.00000111,-0.00000274,-0.0000019
 9,-0.00000153,0.00000396,0.00000217,-0.00000034,-0.00000294,0.00000319
 ,-0.00000204,0.00000347,-0.00000128,-0.00000153,0.00000263,-0.00000173
 ,0.00000192,-0.00000006,-0.00000125,-0.00000134,-0.00000177,-0.0000016
 8,0.00000078,-0.00000130,-0.00002067,-0.00000760,-0.00002369,-0.000000
 48,-0.00000156,-0.00000153,-0.00001202,0.00003555,-0.00000867,0.000005
 94,0.00000716,0.00000828,0.00002027,-0.00000514,0.00001197,0.00000649,
 0.00000202,0.00000234,-0.00008630,0.00001391,0.00000506,0.00002075,-0.
 00001274,0.00000133,0.00003127,0.00000984,-0.00000285,0.00000027,-0.00
 000029,-0.00000031,0.00160656,0.00006345,-0.00028994,0.00044390,0.0009
 4066,-0.00072154,0.00053475,0.00515630,0.00295471,-0.08588779,-0.09758
 225,-0.14718182,0.00385577,0.00484241,0.00452870,0.09474855,0.10464319
 ,0.15872055,-0.00000655,0.00001048,0.00000197,0.00005629,0.00009773,-0
 .00004970,-0.00016200,-0.00000505,0.00003114,0.00004313,0.00001867,-0.
 00000940,0.00008198,-0.00003844,-0.00003096,-0.00004013,0.00000773,0.0
 0000880,0.00000474,0.00000841,0.00003210,0.00000496,-0.00000884,-0.000
 00934,0.00000165,0.00000360,-0.00000222,-0.00000283,0.00001115,-0.0000
 0178,-0.00001383,0.00001353,0.00000695,0.00001077,-0.00000422,-0.00000
 625,0.00000209,0.00000340,-0.00000991,-0.00001934,-0.00016808,0.000089
 69,0.00000710,-0.00000843,-0.00000371,0.00000507,0.00000242,-0.0000010
 5,0.00000590,0.00000772,-0.00002866,0.00000131,0.00000842,0.00000857,-
 0.00000154,0.00000113,0.00000141,0.00000651,0.00000185,0.00000331,-0.0
 0000707,-0.00000776,-0.00000324,-0.00000160,0.00000305,0.00000217,0.00
 001049,-0.00000864,0.00001600,0.00000438,-0.00000314,-0.00000254,0.000
 02335,-0.00013584,0.00001674,-0.00000314,0.00000223,-0.00000355,-0.000
 01286,0.00000544,-0.00000759,-0.00000149,0.00000293,-0.00000486,0.0000
 4909,-0.00001471,-0.00000327,-0.00001316,0.00001350,0.00000053,-0.0000
 1758,-0.00000168,0.00000240,-0.00000036,0.00000035,0.00000032,-0.00104
 635,0.00136616,0.00123822,0.00059456,0.00054894,0.00042606,0.00069885,
 0.00030811,-0.00963179,-0.05974366,-0.01622732,0.05605307,-0.00871915,
 -0.00930052,0.03221604,0.00369192,0.00585009,-0.01586716,0.06823786,-0
 .00024496,0.00003193,0.00002852,-0.00000033,-0.00073960,0.00014181,0.0
 0029192,0.00009528,-0.00000858,-0.00010341,-0.00014544,0.00000303,-0.0
 0012178,-0.00000756,-0.00000394,0.00007238,0.00001458,0.00000052,-0.00
 000414,-0.00001148,0.00001311,-0.00000203,0.00000783,-0.00000392,0.000
 05688,-0.00005604,-0.00001849,-0.00002644,-0.00001745,0.00000169,0.000
 06466,-0.00003405,-0.00001920,-0.00003345,0.00001765,-0.00000086,0.000
 08166,0.00002851,0.00004362,0.00003000,0.00119318,-0.00034775,-0.00001
 149,-0.00000907,-0.00000062,-0.00001018,-0.00000361,0.00000019,0.00000
 371,-0.00000126,-0.00000259,-0.00000061,0.00000297,-0.00000344,0.00000
 154,0.00000032,-0.00000150,-0.00000464,0.00000030,0.00000140,-0.000001
 07,-0.00000269,0.,-0.00000442,0.00000229,0.00000282,-0.00000883,0.0000
 0482,-0.00001601,0.00000385,0.00000331,0.00000776,-0.00006096,0.000073
 62,-0.00002756,0.00000318,-0.00000181,0.00000191,0.00001693,-0.0000065
 3,0.00000980,0.00000351,-0.00000114,0.00000117,-0.00008944,0.00002491,
 0.00002789,0.00001776,-0.00002245,-0.00000810,0.00002839,0.00000948,-0
 .00001307,0.00000492,-0.00000216,0.00000360,0.00074234,0.00003539,-0.0
 0430523,0.00010725,-0.00609983,-0.00379963,-0.00798534,-0.00668335,0.0
 3419964,-0.01670507,-0.06545638,0.07410230,0.00152594,0.00087326,-0.00
 522266,0.00507920,0.00583034,-0.01897819,0.01683623,0.07027702,0.00015
 175,-0.00003765,-0.00001836,-0.00004222,0.00028970,0.00002252,-0.00006
 267,-0.00010812,-0.00001040,0.00003191,0.00010144,-0.00000114,0.000027
 68,0.00005009,0.00001303,-0.00003559,-0.00002005,-0.00000218,-0.000000
 07,-0.00000188,-0.00001726,-0.00000423,0.00000366,0.00000457,-0.000034
 11,0.00003889,0.00000407,0.00002081,0.00001222,-0.00000294,-0.00006091
 ,0.00003095,0.00001589,0.00003735,-0.00001444,-0.00000153,-0.00005998,
 -0.00000591,0.00000560,-0.00001870,-0.00047458,-0.00001043,0.00000354,
 0.00000961,0.00000530,0.00000226,0.00000215,-0.00000289,-0.00000512,-0
 .00000137,0.00001865,-0.00000546,-0.00000748,-0.00000852,0.00000179,0.
 00000112,-0.00000306,-0.00000012,-0.00000319,-0.00000191,0.00000552,0.
 00000680,0.00000433,0.00000377,-0.00000216,-0.00000314,0.00002412,-0.0
 0000997,0.00000742,-0.00000247,-0.00000058,-0.00000785,0.00002641,-0.0
 0004452,-0.00001277,-0.00000625,0.00000568,0.00000257,-0.00002515,0.00
 000938,-0.00000974,-0.00000861,-0.00000088,0.00000451,0.00010935,-0.00
 002219,-0.00003598,-0.00002393,0.00002405,0.00000973,-0.00003941,-0.00
 001520,0.00001776,-0.00000203,0.00000108,-0.00000126,-0.00140007,0.000
 63465,0.00142054,-0.00084972,0.00128665,0.00011447,0.00279577,-0.00072
 984,-0.00411665,0.05744831,0.06914141,-0.27400216,0.00064220,0.0005126
 1,-0.00283796,0.00431392,0.00605857,-0.01973193,-0.06448610,-0.0759689
 9,0.29679255,-0.00002205,0.00000673,0.00000392,-0.00004136,-0.00003802
 ,-0.00001438,0.00011021,-0.00000470,0.00000145,-0.00003007,0.00000059,
 -0.00000225,-0.00007348,0.00002311,0.00000054,0.00006250,-0.00000958,0
 .00000591,-0.00001205,-0.00000315,-0.00003085,-0.00001056,0.00001155,0
 .00001047,0.00000477,0.00000042,0.00000063,-0.00000208,-0.00000073,-0.
 00000111,0.00000521,-0.00000300,-0.00000302,-0.00000841,0.00000174,-0.
 00000440,0.00000425,0.00001718,-0.00001470,0.00002540,0.00007254,0.000
 01064,-0.00001209,0.00000904,0.00000266,-0.00000680,0.00000520,-0.0000
 0233,-0.00000232,-0.00002590,0.00004901,-0.00000303,-0.00001230,-0.000
 02805,0.00000557,0.00000335,-0.00000513,-0.00001038,-0.00000318,-0.000
 00284,0.00000910,0.00000946,0.00000422,0.00000103,0.00000030,0.0000016
 3,-0.00000616,0.00001172,0.00001409,0.00000102,-0.00000205,0.00000516,
 -0.00000553,-0.00001498,0.00001319,0.00000109,-0.00000858,-0.00000823,
 0.00000376,-0.00000283,-0.00000214,0.00000277,-0.00000001,-0.00000623,
 -0.00001150,-0.00000043,0.00001803,0.00000169,-0.00000374,-0.00000561,
 0.00000543,0.00000528,-0.00000850,0.00000056,0.00000022,0.00000096,0.0
 0029286,0.00029199,-0.00046283,0.00114384,-0.00017682,-0.00093658,-0.0
 0008568,-0.00169763,0.00077913,-0.00851949,-0.00896101,0.03272042,-0.0
 6122048,-0.01711578,0.05872597,0.00140438,-0.00063507,-0.00047389,-0.0
 0662560,0.00131508,0.00073823,0.06877581,0.00012110,-0.00003960,-0.000
 00740,-0.00006115,0.00017641,0.00001289,0.00005359,-0.00013973,-0.0000
 1208,0.00000553,0.00010896,-0.00000577,-0.00000263,0.00010561,0.000033
 20,-0.00004966,-0.00003087,0.00000310,0.00000784,-0.00001551,-0.000039
 69,-0.00001525,0.00001746,0.00001651,-0.00002817,0.00003213,-0.0000003
 4,0.00001789,0.00000949,-0.00000126,-0.00004679,0.00002564,0.00000426,
 0.00002163,-0.00001637,-0.00000173,-0.00004245,-0.00001184,0.00000575,
 -0.00001318,-0.00030215,-0.00000172,0.00000334,0.00001624,0.00000637,0
 .00000378,0.00000527,-0.00000582,-0.00003505,-0.00000970,0.00005105,-0
 .00000926,-0.00000294,-0.00002299,0.00000562,0.00000536,-0.00000527,0.
 00000685,-0.00000461,-0.00000012,0.00001373,0.00000877,0.00000183,0.00
 000407,-0.00000267,-0.00000078,0.00001666,-0.00000369,0.00002798,0.000
 00016,-0.00000165,-0.00000012,0.00002503,-0.00003987,0.00000198,-0.000
 00474,-0.00000110,-0.00000698,-0.00002077,0.00000735,-0.00001321,-0.00
 000351,0.00000241,-0.00000655,0.00008175,-0.00003296,-0.00000528,-0.00
 001825,0.00002134,0.00000040,-0.00002611,-0.00000108,0.00000148,-0.000
 00129,0.00000083,0.00000033,-0.00044210,0.00007495,0.00009586,-0.00094
 489,0.00006018,0.00070845,0.00078087,0.00009933,-0.00085532,0.00055483
 ,0.00080683,-0.00415544,-0.01780589,-0.06813595,0.06998189,-0.00034707
 ,-0.00001692,0.00029411,0.00094982,0.00048253,-0.00036247,0.01958163,0
 .06888478,0.00010836,-0.00004633,-0.00001389,-0.00013731,-0.00001078,0
 .00005681,0.00025184,-0.00010155,-0.00005580,-0.00005526,0.00006025,0.
 00001271,-0.00011797,0.00012486,0.00005937,0.00003348,-0.00004397,-0.0
 0000448,-0.00000634,-0.00001711,-0.00008870,-0.00001471,0.00002015,0.0
 0002644,-0.00002281,0.00002150,0.00000432,0.00001718,-0.00000285,-0.00
 000022,-0.00003059,0.00001060,0.00000633,0.00001501,-0.00001263,0.0000
 0352,-0.00004091,-0.00002256,0.00001669,0.00002841,-0.00000039,-0.0000
 6414,-0.00000966,0.00002523,0.00000972,-0.00000615,0.00000199,-0.00000
 257,-0.00003015,-0.00002999,0.00008106,-0.00000891,-0.00001773,-0.0000
 2952,0.00000549,0.00000146,-0.00000603,-0.00001023,-0.00000602,-0.0000
 0721,0.00001944,0.00002017,0.00000772,0.00000498,-0.00000552,-0.000004
 44,0.00000886,0.00000570,-0.00000904,-0.00000324,0.00000358,-0.0000037
 0,0.00000986,0.00003654,-0.00001743,-0.00000197,-0.00000070,0.00000365
 ,-0.00000616,0.00000081,0.00000003,-0.00000612,-0.00000498,0.00000863,
 0.00003691,0.00000273,-0.00002390,-0.00000535,0.00000144,0.00000619,-0
 .00001380,-0.00001281,0.00001166,-0.00000046,0.00000021,-0.00000164,-0
 .00028099,-0.00080190,0.00005933,-0.00231325,0.00001407,0.00129724,0.0
 0121287,0.00238601,-0.00035406,0.00125259,0.00030591,-0.00350468,0.060
 44695,0.06830223,-0.28283567,0.00048623,-0.00004191,0.00066627,0.00089
 863,0.00001267,0.00155129,-0.06593862,-0.07705834,0.30420030,-0.000021
 15,0.00003176,0.00000303,0.00010644,0.00024592,-0.00001591,-0.00028656
 ,-0.00005880,0.00002894,0.00007967,0.00006778,-0.00001178,0.00013452,-
 0.00004421,-0.00000735,-0.00004976,0.00001658,-0.00000001,-0.00000783,
 -0.00000629,0.00001655,0.00000718,-0.00001054,-0.00000303,0.00000722,0
 .00002041,-0.00000384,-0.00000430,0.00002537,-0.00000180,-0.00003500,0
 .00003021,0.00000517,0.00002208,-0.00000548,0.00000412,0.00001950,0.00
 006362,-0.00001522,-0.00002158,-0.00043429,0.00001972,0.00000829,0.000
 00040,-0.00000147,0.00000746,0.00000047,0.00000035,0.00001080,0.000004
 19,-0.00001531,0.00001488,0.00000820,0.00000284,-0.00000368,-0.0000003
 8,0.00000202,0.00000142,0.00000022,0.00000026,-0.00000455,-0.00000117,
 -0.00000098,-0.00000243,0.00000826,0.00000041,0.00002446,-0.00002319,0
 .00003710,0.00000742,-0.00001397,-0.00000121,0.00001383,-0.00027665,0.
 00000473,-0.00000687,0.00000783,-0.00000679,-0.00003050,0.00001356,-0.
 00001788,-0.00000210,0.00000806,-0.00001194,0.00010449,-0.00005411,-0.
 00000720,-0.00002844,0.00004119,0.00000405,-0.00003583,0.00000733,0.00
 000260,-0.00000086,0.00000152,0.00000073,-0.00313833,0.00340807,-0.000
 45326,0.00166906,0.00097412,-0.00032909,-0.00454478,-0.00605900,0.0020
 8682,-0.00792963,0.03460604,-0.00496715,-0.06644740,0.06586003,-0.0095
 5683,0.00109966,-0.00056928,-0.00071024,0.00140643,-0.00048207,0.00041
 582,0.00096230,-0.00784077,-0.00049746,0.07214445,-0.00017290,0.000048
 97,0.00002212,0.00000764,-0.00037615,0.00001497,0.00012672,0.00022395,
 -0.00002455,-0.00006411,-0.00019128,0.00001775,-0.00011214,-0.00010004
 ,0.00001399,0.00012970,0.00005332,-0.00001955,-0.00002050,-0.00000819,
 0.00002001,0.00001549,-0.00001168,-0.00000497,0.00003925,-0.00005682,-
 0.00000286,-0.00002286,-0.00002551,0.00000644,0.00008347,-0.00005409,-
 0.00001367,-0.00003729,0.00003284,-0.00000048,0.00005619,0.00000618,-0
 .00000718,0.00003715,0.00068600,-0.00004705,-0.00001244,-0.00001399,-0
 .00000643,-0.00001196,-0.00001061,0.00000982,0.00002357,0.00000306,-0.
 00002983,0.00003367,0.00001097,0.00001301,-0.00000814,-0.00000543,0.00
 000459,-0.00001635,0.00000663,0.00000216,-0.00000957,-0.00000774,-0.00
 000243,-0.00000443,0.00000121,0.00000025,-0.00003701,0.00002796,-0.000
 05344,-0.00000486,0.00000759,0.00000194,-0.00005422,0.00018830,-0.0000
 0070,0.00001000,-0.00000928,0.00000888,0.00004674,-0.00002011,0.000027
 25,0.00000488,-0.00000943,0.00001444,-0.00017136,0.00008187,0.00001584
 ,0.00004165,-0.00005621,-0.00000429,0.00005595,-0.00000442,-0.00000546
 ,0.00000195,-0.00000211,-0.00000115,0.00177004,-0.00059829,0.00002824,
 0.00177488,-0.00073695,-0.00005723,-0.00200323,0.00093884,-0.00002896,
 -0.00136820,-0.00155559,0.00022087,0.06623846,-0.28711830,0.03289243,0
 .00061063,0.00038249,0.00018622,0.00041890,0.00014001,-0.00049794,0.00
 131127,-0.00749840,0.00062170,-0.07359842,0.31200834,0.00002877,-0.000
 01294,0.00000555,-0.00001731,0.00000729,0.00003093,0.00002595,-0.00001
 860,-0.00001732,-0.00000435,0.00001148,0.00000110,-0.00000928,0.000020
 31,0.00003177,-0.00000272,0.00000059,-0.00000303,-0.00000481,-0.000018
 29,-0.00002176,-0.00000244,0.00000711,0.00000840,-0.00000741,0.0000044
 8,-0.00000223,0.00000451,-0.00000063,0.00000012,-0.00000688,0.00000313
 ,0.00000039,0.00000236,-0.00000448,-0.00000141,-0.00001275,-0.00000998
 ,-0.00000193,-0.00000956,-0.00001495,-0.00004509,-0.00000010,0.0000042
 8,0.00000218,-0.00000070,-0.00000226,-0.00000023,-0.00001200,0.0000009
 7,0.00001305,0.00000850,0.00000576,-0.00000156,-0.00000065,0.00000019,
 -0.00000095,0.00000161,-0.00000120,0.00000038,0.00000462,0.00000194,0.
 00000019,0.00000099,-0.00000165,-0.00000063,0.00000375,0.00000187,0.00
 000413,-0.00000040,0.00000144,0.00000048,0.00000711,0.00002287,-0.0000
 0029,-0.00000098,-0.00000152,-0.00000152,-0.00000302,0.00000073,-0.000
 00198,-0.00000107,-0.00000040,-0.00000067,0.00000906,-0.00000302,0.000
 00153,-0.00000205,0.00000083,-0.00000127,-0.00000259,-0.00000046,-0.00
 000101,-0.00000002,0.,0.00000033,0.00035802,-0.00044155,0.00008969,-0.
 00017398,-0.00005191,0.00058771,0.00106394,0.00062170,0.00042595,0.001
 09870,-0.00604676,-0.00032845,-0.00950950,0.03305204,-0.05479974,-0.00
 023081,0.00037230,0.00003227,-0.00039275,-0.00035830,0.00012117,-0.009
 13881,0.02952749,-0.00191097,0.00929786,-0.03685514,0.05228897,-0.0000
 9601,0.00003410,0.00000980,0.00001262,-0.00009581,0.00003464,0.0000417
 1,0.00005469,-0.00003387,-0.00002039,-0.00004558,0.00001397,-0.0000632
 0,-0.00002857,0.00004181,0.00007699,0.00002427,-0.00002713,-0.00007172
 ,-0.00005916,0.00002220,0.00000441,0.00000462,-0.00000266,0.00002002,-
 0.00001377,-0.00000243,-0.00001107,-0.00000241,0.00000497,0.00002723,-
 0.00001309,-0.00000246,-0.00001494,0.00000984,0.00000933,0.00003353,0.
 00003528,-0.00000413,0.00001215,0.00017845,-0.00006201,-0.00000836,0.0
 0000374,0.00000195,-0.00001193,-0.00000148,0.00000387,-0.00001185,-0.0
 0002652,0.00001665,-0.00001389,-0.00004683,-0.00002132,0.00000034,0.00
 000119,-0.00000252,-0.00001087,-0.00000083,0.00000129,0.00000296,0.000
 00382,0.00000352,-0.00000218,0.00000283,-0.00000278,-0.00000510,-0.000
 01601,-0.00002326,0.00000085,-0.00000428,-0.00000373,-0.00001899,-0.00
 002186,-0.00000891,0.00000210,0.00001215,0.00001074,0.00000731,0.00000
 007,0.00000808,0.00000190,0.00000199,0.00000499,-0.00004419,0.00000384
 ,-0.00000989,0.00000997,-0.00000059,0.00000600,0.00001403,0.00000530,0
 .00000419,0.00000062,-0.00000023,-0.00000167,0.00091501,0.00086893,0.0
 0012470,0.00239936,0.00035476,0.00071995,-0.00146137,-0.00288652,-0.00
 021724,-0.01835543,-0.01943169,-0.02222654,-0.12157958,-0.08115509,-0.
 08988780,-0.00617008,0.00161408,0.00176104,0.00148981,-0.00038667,0.00
 037240,0.00388553,0.00550325,0.00472135,0.00475003,0.00489176,0.007631
 18,0.13426267,0.00007055,-0.00001857,-0.00002510,-0.00000173,0.0001668
 5,0.00000612,-0.00003329,-0.00010380,0.00000440,0.00002598,0.00008420,
 -0.00000489,0.00006038,0.00005701,-0.00002474,-0.00008541,-0.00000135,
 0.00000592,-0.00003341,-0.00005245,0.00001834,0.00000005,0.00000790,-0
 .00000555,-0.00001697,0.00002146,0.00000947,0.00000869,0.00000892,-0.0
 0000375,-0.00002748,0.00001737,0.00000522,0.00001202,-0.00001016,0.000
 00162,-0.00001754,-0.00000524,0.00000984,-0.00001133,-0.00028783,0.000
 01158,0.00000988,0.00000609,0.00000255,0.00001070,0.00000526,-0.000003
 27,-0.00001741,-0.00000674,0.00000192,-0.00006354,-0.00003623,0.000002
 35,0.00000509,-0.00000091,0.00000206,0.00001444,-0.00000139,-0.0000051
 4,0.00000253,0.00000356,0.00000022,0.00000186,-0.00000081,-0.00000158,
 0.00000755,-0.00001036,0.00001087,0.00000064,-0.00000271,-0.00000211,0
 .00001504,-0.00005018,-0.00000395,-0.00000202,0.00000498,-0.00000007,-
 0.00001181,0.00000578,-0.00000656,-0.00000076,0.00000291,-0.00000258,0
 .00004870,-0.00002519,-0.00001095,-0.00001072,0.00001734,0.00000377,-0
 .00001556,0.00000063,0.00000456,-0.00000118,0.00000082,0.00000002,-0.0
 0045316,0.00027921,-0.00006801,0.00015790,-0.00145822,-0.00018146,0.00
 046536,-0.00051670,0.00062856,0.00165304,0.00281524,0.00331867,-0.0831
 1998,-0.13706511,-0.09976649,0.00122562,0.00042409,0.00033825,-0.00056
 932,0.00015236,0.00010870,0.00604108,0.00535575,0.00625829,-0.01597254
 ,-0.01637789,-0.01982474,0.09062804,0.14659409,-0.00015117,0.00005737,
 0.00001888,0.00017363,-0.00006277,-0.00001481,-0.00030693,0.00015818,0
 .00001163,0.00006105,-0.00011316,0.00000380,0.00012867,-0.00016735,0.0
 0000235,-0.00001888,0.00009516,-0.00001844,-0.00001472,-0.00004885,0.0
 0004712,0.00002645,-0.00001831,-0.00001016,0.00003167,-0.00003510,-0.0
 0000446,-0.00002187,-0.00000171,0.00000417,0.00004812,-0.00002063,-0.0
 0000618,-0.00001915,0.00001765,0.00000538,0.00006082,0.00001548,-0.000
 01310,-0.00003667,0.00013102,-0.00001454,0.00000891,-0.00002101,-0.000
 00834,0.00000929,-0.00002278,0.00001139,0.00002508,0.00003767,-0.00009
 557,0.00006550,0.00008666,0.00004936,-0.00001672,-0.00001684,0.0000162
 6,0.00001025,0.00000836,-0.00000381,-0.00001907,-0.00001500,-0.0000079
 2,-0.00000730,0.00000603,0.00000003,-0.00000775,-0.00001432,-0.0000223
 8,0.00000244,-0.00000169,-0.00000049,-0.00001906,-0.00000386,-0.000001
 70,0.00000283,0.00000994,0.00000915,0.00001157,-0.00000163,0.00000939,
 0.00000344,0.00000274,0.00000284,-0.00006601,0.00000987,0.00000451,0.0
 0001327,-0.00000593,0.00000131,0.00002095,0.00000889,-0.00000314,0.000
 00055,-0.00000078,-0.00000046,0.00038731,0.00053850,-0.00017403,0.0017
 6089,-0.00011438,-0.00047114,-0.00130446,-0.00181527,0.00034681,0.0034
 9559,0.00470542,0.00434596,-0.09114376,-0.09822327,-0.15769143,0.00160
 489,-0.00017122,0.00107312,-0.00049827,0.00050514,0.00070411,-0.016015
 75,-0.01820623,-0.01915118,0.00470262,0.00352037,0.00349576,0.09701175
 ,0.10918764,0.16754993\\0.00000215,0.00000240,-0.00000215,-0.00000112,
 0.00000488,-0.00000012,-0.00000227,-0.00000041,-0.00000409,0.00000076,
 0.00000027,-0.00000725,-0.00000105,-0.00000095,-0.00000208,0.00000222,
 -0.00000273,-0.00000607,0.00000058,-0.00000161,-0.00000395,-0.00000092
 ,-0.00000287,-0.00000621,-0.00000010,0.00000178,-0.00000458,0.00000059
 ,0.00000226,-0.00000499,-0.00000123,0.00000024,-0.00000352,0.00000143,
 0.00000282,0.00000143,-0.00000196,0.00001011,0.00000151,0.00000148,-0.
 00000892,-0.00000048,0.00000116,0.00000015,-0.00000746,-0.00000072,-0.
 00000327,-0.00000659,-0.00000165,-0.00000398,-0.00000151,0.00000019,0.
 00000059,-0.00000274,-0.00000095,-0.00000489,-0.00000752,-0.00000046,-
 0.00000268,-0.00000493,0.00000071,-0.00000076,-0.00000816,0.00000118,0
 .00000001,-0.00000706,0.00000025,-0.00000669,0.00000087,0.00000031,0.0
 0000240,0.00000404,0.00000262,-0.00001243,0.00000411,-0.00000222,-0.00
 000439,0.00000146,-0.00000200,0.00000037,-0.00000104,0.00000175,-0.000
 00185,-0.00000535,0.00000423,-0.00000775,-0.00000358,-0.00000025,0.000
 01882,0.00000140,0.00000156,0.00000354,-0.00000012,0.00000134,0.000001
 14,-0.00000687,0.00000970,0.00000019,0.00001002,-0.00000149,0.00000099
 ,0.00000678,-0.00000932,0.00000564,0.00000731,-0.00000110,0.00000085,0
 .00001181,0.00000261,0.00000273,0.00000920,-0.00000185,0.00000055,0.00
 001059,0.00000001,0.00000461,0.00001102,-0.00000323,-0.00000351,0.0000
 0737,-0.00000077,0.00000087,0.00001154,-0.00000219,0.00000145,0.000007
 94\\\@


 CLIMB THE MOUNTAINS AND GET THEIR GOOD TIDINGS.
 NATURE'S PEACE WILL FLOW INTO YOU AS SUNSHINE FLOWS INTO TREES.
 THE WINDS WILL BLOW THEIR OWN FRESHNESS INTO YOU, 
 AND CARES WILL DROP OFF LIKE AUTUMN LEAVES.

                                         -- JOHN MUIR
 Job cpu time:       0 days 10 hours 59 minutes 27.5 seconds.
 Elapsed time:       0 days 10 hours 59 minutes 28.2 seconds.
 File lengths (MBytes):  RWF=   1730 Int=      0 D2E=      0 Chk=     48 Scr=      1
 Normal termination of Gaussian 16 at Tue Mar 23 00:08:40 2021.
