 Entering Gaussian System, Link 0=/apps/gaussian/g16c01/g16/g16
 Initial command:
 /apps/gaussian/g16c01/g16/l1.exe "/jobfs/19478926.gadi-pbs/Gau-501407.inp" -scrdir="/jobfs/19478926.gadi-pbs/"
 Entering Link 1 = /apps/gaussian/g16c01/g16/l1.exe PID=    501408.
  
 Copyright (c) 1988-2019, Gaussian, Inc.  All Rights Reserved.
  
 This is part of the Gaussian(R) 16 program.  It is based on
 the Gaussian(R) 09 system (copyright 2009, Gaussian, Inc.),
 the Gaussian(R) 03 system (copyright 2003, Gaussian, Inc.),
 the Gaussian(R) 98 system (copyright 1998, Gaussian, Inc.),
 the Gaussian(R) 94 system (copyright 1995, Gaussian, Inc.),
 the Gaussian 92(TM) system (copyright 1992, Gaussian, Inc.),
 the Gaussian 90(TM) system (copyright 1990, Gaussian, Inc.),
 the Gaussian 88(TM) system (copyright 1988, Gaussian, Inc.),
 the Gaussian 86(TM) system (copyright 1986, Carnegie Mellon
 University), and the Gaussian 82(TM) system (copyright 1983,
 Carnegie Mellon University). Gaussian is a federally registered
 trademark of Gaussian, Inc.
  
 This software contains proprietary and confidential information,
 including trade secrets, belonging to Gaussian, Inc.
  
 This software is provided under written license and may be
 used, copied, transmitted, or stored only in accord with that
 written license.
  
 The following legend is applicable only to US Government
 contracts under FAR:
  
                    RESTRICTED RIGHTS LEGEND
  
 Use, reproduction and disclosure by the US Government is
 subject to restrictions as set forth in subparagraphs (a)
 and (c) of the Commercial Computer Software - Restricted
 Rights clause in FAR 52.227-19.
  
 Gaussian, Inc.
 340 Quinnipiac St., Bldg. 40, Wallingford CT 06492
  
  
 ---------------------------------------------------------------
 Warning -- This program may not be used in any manner that
 competes with the business of Gaussian, Inc. or will provide
 assistance to any competitor of Gaussian, Inc.  The licensee
 of this program is prohibited from giving any competitor of
 Gaussian, Inc. access to this program.  By using this program,
 the user acknowledges that Gaussian, Inc. is engaged in the
 business of creating and licensing software in the field of
 computational chemistry and represents and warrants to the
 licensee that it is not a competitor of Gaussian, Inc. and that
 it will not use this program in any manner prohibited above.
 ---------------------------------------------------------------
  

 Cite this work as:
 Gaussian 16, Revision C.01,
 M. J. Frisch, G. W. Trucks, H. B. Schlegel, G. E. Scuseria, 
 M. A. Robb, J. R. Cheeseman, G. Scalmani, V. Barone, 
 G. A. Petersson, H. Nakatsuji, X. Li, M. Caricato, A. V. Marenich, 
 J. Bloino, B. G. Janesko, R. Gomperts, B. Mennucci, H. P. Hratchian, 
 J. V. Ortiz, A. F. Izmaylov, J. L. Sonnenberg, D. Williams-Young, 
 F. Ding, F. Lipparini, F. Egidi, J. Goings, B. Peng, A. Petrone, 
 T. Henderson, D. Ranasinghe, V. G. Zakrzewski, J. Gao, N. Rega, 
 G. Zheng, W. Liang, M. Hada, M. Ehara, K. Toyota, R. Fukuda, 
 J. Hasegawa, M. Ishida, T. Nakajima, Y. Honda, O. Kitao, H. Nakai, 
 T. Vreven, K. Throssell, J. A. Montgomery, Jr., J. E. Peralta, 
 F. Ogliaro, M. J. Bearpark, J. J. Heyd, E. N. Brothers, K. N. Kudin, 
 V. N. Staroverov, T. A. Keith, R. Kobayashi, J. Normand, 
 K. Raghavachari, A. P. Rendell, J. C. Burant, S. S. Iyengar, 
 J. Tomasi, M. Cossi, J. M. Millam, M. Klene, C. Adamo, R. Cammi, 
 J. W. Ochterski, R. L. Martin, K. Morokuma, O. Farkas, 
 J. B. Foresman, and D. J. Fox, Gaussian, Inc., Wallingford CT, 2019.
 
 ******************************************
 Gaussian 16:  ES64L-G16RevC.01  3-Jul-2019
                22-Mar-2021 
 ******************************************
 %NprocShared=32
 Will use up to   32 processors via shared memory.
 %Mem=10000MB
 %chk=CP21CA_carboxy.M062X_6-311pGd_opt_water_GD3.chk
 ----------------------------------------------------------------------
 # M062X/6-311+G* SCF=Tight INT(grid=ultrafine) OPT=CalcFC IOP(2/17=4) 
 EmpiricalDispersion=GD3 SCRF=(SMD,Solvent=h2o) MaxDisk=10000MB
 ----------------------------------------------------------------------
 1/10=4,18=20,19=15,26=6,38=1/1,3;
 2/9=110,12=2,17=4,18=5,40=1/2;
 3/5=4,6=6,7=11,11=2,25=1,30=1,70=32201,71=2,72=1,74=-55,75=-5,124=31,140=1/1,2,3;
 4//1;
 5/5=2,32=2,38=5,53=1/2;
 8/6=4,10=90,11=11/1;
 11/6=1,8=1,9=11,15=111,16=1/1,2,10;
 10/6=1,13=1/2;
 6/7=2,8=2,9=2,10=2,28=1/1;
 7/10=1,25=1/1,2,3,16;
 1/10=4,18=20,19=15,26=6/3(2);
 2/9=110,17=4/2;
 99//99;
 2/9=110,17=4/2;
 3/5=4,6=6,7=11,11=2,25=1,30=1,70=32205,71=1,72=1,74=-55,75=-5,124=31/1,2,3;
 4/5=5,16=3,69=1/1;
 5/5=2,32=2,38=5,53=1/2;
 7//1,2,3,16;
 1/18=20,19=15,26=6/3(-5);
 2/9=110,17=4/2;
 6/7=2,8=2,9=2,10=2,19=2,28=1/1;
 99/9=1/99;
 -------------------------------------------
 CP21CA_carboxy.M062X_6-311pGd_opt_water_GD3
 -------------------------------------------
 Symbolic Z-matrix:
 Charge = -1 Multiplicity = 1
 C                    -6.03566   1.3635    0.24174 
 N                    -4.73385   0.75136   0.17808 
 C                    -3.52127   1.37564   0.0983 
 O                    -3.42648   2.59223   0.07103 
 O                    -2.39689   0.61463   0.04557 
 C                    -1.12072   1.13785  -0.02949 
 C                    -0.09979   0.0032   -0.08102 
 C                     1.32362   0.5489   -0.16178 
 C                    -6.26778   2.761     0.24954 
 C                    -7.57017   3.26668   0.31595 
 C                    -8.66507   2.40122   0.37749 
 C                    -8.45299   1.02169   0.36713 
 C                    -7.15453   0.51104   0.30081 
 H                    -4.70564  -0.39371   0.19702 
 H                    -0.92654   1.77169   0.86431 
 H                    -1.02764   1.76107  -0.94675 
 H                    -0.2969   -0.6308   -0.97269 
 H                    -0.19706  -0.62393   0.83166 
 H                     1.44974   1.16593  -1.07711 
 H                     2.04527  -0.29396  -0.19924 
 H                     1.54983   1.17126   0.73038 
 H                    -5.48334   3.49352   0.20774 
 C                    -11.44038   3.2898   -0.96031 
 H                    -9.29193   0.33915   0.41036 
 H                    -7.00437  -0.67286   0.29444 
 F                    -11.79435   2.05951  -1.47995 
 F                    -12.57901   3.96022  -0.55533 
 F                    -10.7936   4.03479  -1.92741 
 S                    -10.33505   3.05378   0.46002 
 O                    -10.27172   4.38238   1.22985 
 O                    -11.09322   2.22421   1.50789 
 H                    -7.7235    4.33844   0.31983 
 O                    -6.62851  -2.69585   0.53821 
 O                    -4.41015  -2.43287   0.45269 
 C                    -5.37     -3.18744   0.57416 
 C                    -5.17778  -4.66823   0.76797 
 C                    -3.70879  -5.08803   0.79801 
 H                    -5.68757  -5.20437  -0.06086 
 H                    -5.65337  -4.96448   1.72735 
 H                    -3.21251  -4.82615  -0.16071 
 H                    -3.64015  -6.18663   0.94503 
 H                    -3.18096  -4.5844    1.63589 
 
 Add virtual bond connecting atoms O33        and H25        Dist= 3.92D+00.
 Add virtual bond connecting atoms O34        and H14        Dist= 3.92D+00.

 GradGradGradGradGradGradGradGradGradGradGradGradGradGradGradGradGradGrad
 Berny optimization.
 Initialization pass.
                           ----------------------------
                           !    Initial Parameters    !
                           ! (Angstroms and Degrees)  !
 --------------------------                            --------------------------
 ! Name  Definition              Value          Derivative Info.                !
 --------------------------------------------------------------------------------
 ! R1    R(1,2)                  1.44           calculate D2E/DX2 analytically  !
 ! R2    R(1,9)                  1.4167         calculate D2E/DX2 analytically  !
 ! R3    R(1,13)                 1.4079         calculate D2E/DX2 analytically  !
 ! R4    R(2,3)                  1.3662         calculate D2E/DX2 analytically  !
 ! R5    R(2,14)                 1.1456         calculate D2E/DX2 analytically  !
 ! R6    R(3,4)                  1.2206         calculate D2E/DX2 analytically  !
 ! R7    R(3,5)                  1.3587         calculate D2E/DX2 analytically  !
 ! R8    R(5,6)                  1.3813         calculate D2E/DX2 analytically  !
 ! R9    R(6,7)                  1.5272         calculate D2E/DX2 analytically  !
 ! R10   R(6,15)                 1.1128         calculate D2E/DX2 analytically  !
 ! R11   R(6,16)                 1.1128         calculate D2E/DX2 analytically  !
 ! R12   R(7,8)                  1.5266         calculate D2E/DX2 analytically  !
 ! R13   R(7,17)                 1.1117         calculate D2E/DX2 analytically  !
 ! R14   R(7,18)                 1.1116         calculate D2E/DX2 analytically  !
 ! R15   R(8,19)                 1.1111         calculate D2E/DX2 analytically  !
 ! R16   R(8,20)                 1.1102         calculate D2E/DX2 analytically  !
 ! R17   R(8,21)                 1.1111         calculate D2E/DX2 analytically  !
 ! R18   R(9,10)                 1.3987         calculate D2E/DX2 analytically  !
 ! R19   R(9,22)                 1.0741         calculate D2E/DX2 analytically  !
 ! R20   R(10,11)                1.397          calculate D2E/DX2 analytically  !
 ! R21   R(10,32)                1.0827         calculate D2E/DX2 analytically  !
 ! R22   R(11,12)                1.3958         calculate D2E/DX2 analytically  !
 ! R23   R(11,29)                1.7948         calculate D2E/DX2 analytically  !
 ! R24   R(12,13)                1.3968         calculate D2E/DX2 analytically  !
 ! R25   R(12,24)                1.0824         calculate D2E/DX2 analytically  !
 ! R26   R(13,25)                1.1934         calculate D2E/DX2 analytically  !
 ! R27   R(14,34)                2.0763         calculate D2E/DX2 analytically  !
 ! R28   R(23,26)                1.3816         calculate D2E/DX2 analytically  !
 ! R29   R(23,27)                1.382          calculate D2E/DX2 analytically  !
 ! R30   R(23,28)                1.3815         calculate D2E/DX2 analytically  !
 ! R31   R(23,29)                1.8152         calculate D2E/DX2 analytically  !
 ! R32   R(25,33)                2.072          calculate D2E/DX2 analytically  !
 ! R33   R(29,30)                1.5368         calculate D2E/DX2 analytically  !
 ! R34   R(29,31)                1.5366         calculate D2E/DX2 analytically  !
 ! R35   R(33,35)                1.3516         calculate D2E/DX2 analytically  !
 ! R36   R(34,35)                1.227          calculate D2E/DX2 analytically  !
 ! R37   R(35,36)                1.5057         calculate D2E/DX2 analytically  !
 ! R38   R(36,37)                1.5281         calculate D2E/DX2 analytically  !
 ! R39   R(36,38)                1.111          calculate D2E/DX2 analytically  !
 ! R40   R(36,39)                1.111          calculate D2E/DX2 analytically  !
 ! R41   R(37,40)                1.1109         calculate D2E/DX2 analytically  !
 ! R42   R(37,41)                1.1105         calculate D2E/DX2 analytically  !
 ! R43   R(37,42)                1.111          calculate D2E/DX2 analytically  !
 ! A1    A(2,1,9)              124.5922         calculate D2E/DX2 analytically  !
 ! A2    A(2,1,13)             117.5769         calculate D2E/DX2 analytically  !
 ! A3    A(9,1,13)             117.8309         calculate D2E/DX2 analytically  !
 ! A4    A(1,2,3)              127.6434         calculate D2E/DX2 analytically  !
 ! A5    A(1,2,14)             116.5164         calculate D2E/DX2 analytically  !
 ! A6    A(3,2,14)             115.8401         calculate D2E/DX2 analytically  !
 ! A7    A(2,3,4)              121.7149         calculate D2E/DX2 analytically  !
 ! A8    A(2,3,5)              118.7388         calculate D2E/DX2 analytically  !
 ! A9    A(4,3,5)              119.5462         calculate D2E/DX2 analytically  !
 ! A10   A(3,5,6)              123.6757         calculate D2E/DX2 analytically  !
 ! A11   A(5,6,7)              109.7565         calculate D2E/DX2 analytically  !
 ! A12   A(5,6,15)             109.4705         calculate D2E/DX2 analytically  !
 ! A13   A(5,6,16)             109.5235         calculate D2E/DX2 analytically  !
 ! A14   A(7,6,15)             109.4892         calculate D2E/DX2 analytically  !
 ! A15   A(7,6,16)             109.4112         calculate D2E/DX2 analytically  !
 ! A16   A(15,6,16)            109.1749         calculate D2E/DX2 analytically  !
 ! A17   A(6,7,8)              111.0708         calculate D2E/DX2 analytically  !
 ! A18   A(6,7,17)             109.4048         calculate D2E/DX2 analytically  !
 ! A19   A(6,7,18)             109.4474         calculate D2E/DX2 analytically  !
 ! A20   A(8,7,17)             109.0719         calculate D2E/DX2 analytically  !
 ! A21   A(8,7,18)             109.0679         calculate D2E/DX2 analytically  !
 ! A22   A(17,7,18)            108.7401         calculate D2E/DX2 analytically  !
 ! A23   A(7,8,19)             110.3617         calculate D2E/DX2 analytically  !
 ! A24   A(7,8,20)             109.6627         calculate D2E/DX2 analytically  !
 ! A25   A(7,8,21)             110.3404         calculate D2E/DX2 analytically  !
 ! A26   A(19,8,20)            108.6648         calculate D2E/DX2 analytically  !
 ! A27   A(19,8,21)            109.1069         calculate D2E/DX2 analytically  !
 ! A28   A(20,8,21)            108.6635         calculate D2E/DX2 analytically  !
 ! A29   A(1,9,10)             120.6289         calculate D2E/DX2 analytically  !
 ! A30   A(1,9,22)             123.565          calculate D2E/DX2 analytically  !
 ! A31   A(10,9,22)            115.806          calculate D2E/DX2 analytically  !
 ! A32   A(9,10,11)            120.5242         calculate D2E/DX2 analytically  !
 ! A33   A(9,10,32)            119.3361         calculate D2E/DX2 analytically  !
 ! A34   A(11,10,32)           120.1398         calculate D2E/DX2 analytically  !
 ! A35   A(10,11,12)           119.5306         calculate D2E/DX2 analytically  !
 ! A36   A(10,11,29)           120.3985         calculate D2E/DX2 analytically  !
 ! A37   A(12,11,29)           120.07           calculate D2E/DX2 analytically  !
 ! A38   A(11,12,13)           120.1931         calculate D2E/DX2 analytically  !
 ! A39   A(11,12,24)           120.3436         calculate D2E/DX2 analytically  !
 ! A40   A(13,12,24)           119.4633         calculate D2E/DX2 analytically  !
 ! A41   A(1,13,12)            121.2918         calculate D2E/DX2 analytically  !
 ! A42   A(1,13,25)            120.0305         calculate D2E/DX2 analytically  !
 ! A43   A(12,13,25)           118.6777         calculate D2E/DX2 analytically  !
 ! A44   A(26,23,27)           109.3355         calculate D2E/DX2 analytically  !
 ! A45   A(26,23,28)           109.6844         calculate D2E/DX2 analytically  !
 ! A46   A(26,23,29)           109.5433         calculate D2E/DX2 analytically  !
 ! A47   A(27,23,28)           109.2236         calculate D2E/DX2 analytically  !
 ! A48   A(27,23,29)           109.6021         calculate D2E/DX2 analytically  !
 ! A49   A(28,23,29)           109.4381         calculate D2E/DX2 analytically  !
 ! A50   A(11,29,23)           125.3012         calculate D2E/DX2 analytically  !
 ! A51   A(11,29,30)           107.3979         calculate D2E/DX2 analytically  !
 ! A52   A(11,29,31)           107.1072         calculate D2E/DX2 analytically  !
 ! A53   A(23,29,30)           107.7369         calculate D2E/DX2 analytically  !
 ! A54   A(23,29,31)           107.6592         calculate D2E/DX2 analytically  !
 ! A55   A(30,29,31)            98.3641         calculate D2E/DX2 analytically  !
 ! A56   A(25,33,35)           121.8128         calculate D2E/DX2 analytically  !
 ! A57   A(14,34,35)           120.3218         calculate D2E/DX2 analytically  !
 ! A58   A(33,35,34)           120.1396         calculate D2E/DX2 analytically  !
 ! A59   A(33,35,36)           118.6838         calculate D2E/DX2 analytically  !
 ! A60   A(34,35,36)           121.1764         calculate D2E/DX2 analytically  !
 ! A61   A(35,36,37)           113.2922         calculate D2E/DX2 analytically  !
 ! A62   A(35,36,38)           108.6618         calculate D2E/DX2 analytically  !
 ! A63   A(35,36,39)           108.5861         calculate D2E/DX2 analytically  !
 ! A64   A(37,36,38)           108.8569         calculate D2E/DX2 analytically  !
 ! A65   A(37,36,39)           108.7404         calculate D2E/DX2 analytically  !
 ! A66   A(38,36,39)           108.6089         calculate D2E/DX2 analytically  !
 ! A67   A(36,37,40)           110.3493         calculate D2E/DX2 analytically  !
 ! A68   A(36,37,41)           109.4993         calculate D2E/DX2 analytically  !
 ! A69   A(36,37,42)           110.3048         calculate D2E/DX2 analytically  !
 ! A70   A(40,37,41)           108.6543         calculate D2E/DX2 analytically  !
 ! A71   A(40,37,42)           109.376          calculate D2E/DX2 analytically  !
 ! A72   A(41,37,42)           108.6172         calculate D2E/DX2 analytically  !
 ! A73   L(2,14,34,5,-1)       173.4414         calculate D2E/DX2 analytically  !
 ! A74   L(13,25,33,5,-1)      177.0403         calculate D2E/DX2 analytically  !
 ! A75   L(2,14,34,5,-2)       173.2306         calculate D2E/DX2 analytically  !
 ! A76   L(13,25,33,5,-2)      172.7402         calculate D2E/DX2 analytically  !
 ! D1    D(9,1,2,3)             -0.9094         calculate D2E/DX2 analytically  !
 ! D2    D(9,1,2,14)           179.0398         calculate D2E/DX2 analytically  !
 ! D3    D(13,1,2,3)           179.1161         calculate D2E/DX2 analytically  !
 ! D4    D(13,1,2,14)           -0.9347         calculate D2E/DX2 analytically  !
 ! D5    D(2,1,9,10)          -179.8846         calculate D2E/DX2 analytically  !
 ! D6    D(2,1,9,22)             0.0259         calculate D2E/DX2 analytically  !
 ! D7    D(13,1,9,10)            0.0898         calculate D2E/DX2 analytically  !
 ! D8    D(13,1,9,22)         -179.9997         calculate D2E/DX2 analytically  !
 ! D9    D(2,1,13,12)          179.8798         calculate D2E/DX2 analytically  !
 ! D10   D(2,1,13,25)           -0.1409         calculate D2E/DX2 analytically  !
 ! D11   D(9,1,13,12)           -0.0965         calculate D2E/DX2 analytically  !
 ! D12   D(9,1,13,25)          179.8828         calculate D2E/DX2 analytically  !
 ! D13   D(1,2,3,4)             -0.0555         calculate D2E/DX2 analytically  !
 ! D14   D(1,2,3,5)           -179.9169         calculate D2E/DX2 analytically  !
 ! D15   D(14,2,3,4)           179.995          calculate D2E/DX2 analytically  !
 ! D16   D(14,2,3,5)             0.1336         calculate D2E/DX2 analytically  !
 ! D17   D(1,2,34,35)            2.2529         calculate D2E/DX2 analytically  !
 ! D18   D(3,2,34,35)          178.049          calculate D2E/DX2 analytically  !
 ! D19   D(2,3,5,6)           -179.6626         calculate D2E/DX2 analytically  !
 ! D20   D(4,3,5,6)              0.4729         calculate D2E/DX2 analytically  !
 ! D21   D(3,5,6,7)           -179.661          calculate D2E/DX2 analytically  !
 ! D22   D(3,5,6,15)            60.1419         calculate D2E/DX2 analytically  !
 ! D23   D(3,5,6,16)           -59.5268         calculate D2E/DX2 analytically  !
 ! D24   D(5,6,7,8)           -179.8895         calculate D2E/DX2 analytically  !
 ! D25   D(5,6,7,17)            59.6482         calculate D2E/DX2 analytically  !
 ! D26   D(5,6,7,18)           -59.4042         calculate D2E/DX2 analytically  !
 ! D27   D(15,6,7,8)           -59.7038         calculate D2E/DX2 analytically  !
 ! D28   D(15,6,7,17)          179.8339         calculate D2E/DX2 analytically  !
 ! D29   D(15,6,7,18)           60.7815         calculate D2E/DX2 analytically  !
 ! D30   D(16,6,7,8)            59.9081         calculate D2E/DX2 analytically  !
 ! D31   D(16,6,7,17)          -60.5543         calculate D2E/DX2 analytically  !
 ! D32   D(16,6,7,18)         -179.6066         calculate D2E/DX2 analytically  !
 ! D33   D(6,7,8,19)           -60.2568         calculate D2E/DX2 analytically  !
 ! D34   D(6,7,8,20)          -179.934          calculate D2E/DX2 analytically  !
 ! D35   D(6,7,8,21)            60.4038         calculate D2E/DX2 analytically  !
 ! D36   D(17,7,8,19)           60.4023         calculate D2E/DX2 analytically  !
 ! D37   D(17,7,8,20)          -59.2748         calculate D2E/DX2 analytically  !
 ! D38   D(17,7,8,21)         -178.937          calculate D2E/DX2 analytically  !
 ! D39   D(18,7,8,19)          179.0337         calculate D2E/DX2 analytically  !
 ! D40   D(18,7,8,20)           59.3566         calculate D2E/DX2 analytically  !
 ! D41   D(18,7,8,21)          -60.3056         calculate D2E/DX2 analytically  !
 ! D42   D(1,9,10,11)            0.0821         calculate D2E/DX2 analytically  !
 ! D43   D(1,9,10,32)         -179.9507         calculate D2E/DX2 analytically  !
 ! D44   D(22,9,10,11)        -179.835          calculate D2E/DX2 analytically  !
 ! D45   D(22,9,10,32)           0.1322         calculate D2E/DX2 analytically  !
 ! D46   D(9,10,11,12)          -0.249          calculate D2E/DX2 analytically  !
 ! D47   D(9,10,11,29)        -179.9037         calculate D2E/DX2 analytically  !
 ! D48   D(32,10,11,12)        179.784          calculate D2E/DX2 analytically  !
 ! D49   D(32,10,11,29)          0.1293         calculate D2E/DX2 analytically  !
 ! D50   D(10,11,12,13)          0.2422         calculate D2E/DX2 analytically  !
 ! D51   D(10,11,12,24)       -179.7585         calculate D2E/DX2 analytically  !
 ! D52   D(29,11,12,13)        179.8981         calculate D2E/DX2 analytically  !
 ! D53   D(29,11,12,24)         -0.1026         calculate D2E/DX2 analytically  !
 ! D54   D(10,11,29,23)         95.6928         calculate D2E/DX2 analytically  !
 ! D55   D(10,11,29,30)        -32.1174         calculate D2E/DX2 analytically  !
 ! D56   D(10,11,29,31)       -136.9462         calculate D2E/DX2 analytically  !
 ! D57   D(12,11,29,23)        -83.9601         calculate D2E/DX2 analytically  !
 ! D58   D(12,11,29,30)        148.2297         calculate D2E/DX2 analytically  !
 ! D59   D(12,11,29,31)         43.4009         calculate D2E/DX2 analytically  !
 ! D60   D(11,12,13,1)          -0.0691         calculate D2E/DX2 analytically  !
 ! D61   D(11,12,13,25)        179.9514         calculate D2E/DX2 analytically  !
 ! D62   D(24,12,13,1)         179.9316         calculate D2E/DX2 analytically  !
 ! D63   D(24,12,13,25)         -0.0479         calculate D2E/DX2 analytically  !
 ! D64   D(1,13,33,35)          -0.2074         calculate D2E/DX2 analytically  !
 ! D65   D(12,13,33,35)       -175.0761         calculate D2E/DX2 analytically  !
 ! D66   D(26,23,29,11)         67.3666         calculate D2E/DX2 analytically  !
 ! D67   D(26,23,29,30)       -164.9619         calculate D2E/DX2 analytically  !
 ! D68   D(26,23,29,31)        -59.7672         calculate D2E/DX2 analytically  !
 ! D69   D(27,23,29,11)       -172.6752         calculate D2E/DX2 analytically  !
 ! D70   D(27,23,29,30)        -45.0037         calculate D2E/DX2 analytically  !
 ! D71   D(27,23,29,31)         60.191          calculate D2E/DX2 analytically  !
 ! D72   D(28,23,29,11)        -52.9187         calculate D2E/DX2 analytically  !
 ! D73   D(28,23,29,30)         74.7528         calculate D2E/DX2 analytically  !
 ! D74   D(28,23,29,31)        179.9476         calculate D2E/DX2 analytically  !
 ! D75   D(25,33,35,34)         -0.4606         calculate D2E/DX2 analytically  !
 ! D76   D(25,33,35,36)        179.4095         calculate D2E/DX2 analytically  !
 ! D77   D(14,34,35,33)          0.2014         calculate D2E/DX2 analytically  !
 ! D78   D(14,34,35,36)       -179.6655         calculate D2E/DX2 analytically  !
 ! D79   D(33,35,36,37)       -179.6477         calculate D2E/DX2 analytically  !
 ! D80   D(33,35,36,38)         59.2337         calculate D2E/DX2 analytically  !
 ! D81   D(33,35,36,39)        -58.7303         calculate D2E/DX2 analytically  !
 ! D82   D(34,35,36,37)          0.221          calculate D2E/DX2 analytically  !
 ! D83   D(34,35,36,38)       -120.8976         calculate D2E/DX2 analytically  !
 ! D84   D(34,35,36,39)        121.1384         calculate D2E/DX2 analytically  !
 ! D85   D(35,36,37,40)        -60.551          calculate D2E/DX2 analytically  !
 ! D86   D(35,36,37,41)        179.8953         calculate D2E/DX2 analytically  !
 ! D87   D(35,36,37,42)         60.4148         calculate D2E/DX2 analytically  !
 ! D88   D(38,36,37,40)         60.4576         calculate D2E/DX2 analytically  !
 ! D89   D(38,36,37,41)        -59.0961         calculate D2E/DX2 analytically  !
 ! D90   D(38,36,37,42)       -178.5766         calculate D2E/DX2 analytically  !
 ! D91   D(39,36,37,40)        178.6188         calculate D2E/DX2 analytically  !
 ! D92   D(39,36,37,41)         59.0651         calculate D2E/DX2 analytically  !
 ! D93   D(39,36,37,42)        -60.4154         calculate D2E/DX2 analytically  !
 --------------------------------------------------------------------------------
 Trust Radius=3.00D-01 FncErr=5.00D-06 GrdErr=5.00D-06 EigMax=2.50D+02 EigMin=1.00D-04
 Number of steps in this run=    222 maximum allowed number of steps=    252.
 GradGradGradGradGradGradGradGradGradGradGradGradGradGradGradGradGradGrad

                          Input orientation:                          
 ---------------------------------------------------------------------
 Center     Atomic      Atomic             Coordinates (Angstroms)
 Number     Number       Type             X           Y           Z
 ---------------------------------------------------------------------
      1          6           0       -6.035660    1.363500    0.241740
      2          7           0       -4.733850    0.751360    0.178080
      3          6           0       -3.521270    1.375640    0.098300
      4          8           0       -3.426480    2.592230    0.071030
      5          8           0       -2.396890    0.614630    0.045570
      6          6           0       -1.120720    1.137850   -0.029490
      7          6           0       -0.099790    0.003200   -0.081020
      8          6           0        1.323620    0.548900   -0.161780
      9          6           0       -6.267780    2.761000    0.249540
     10          6           0       -7.570170    3.266680    0.315950
     11          6           0       -8.665070    2.401220    0.377490
     12          6           0       -8.452990    1.021690    0.367130
     13          6           0       -7.154530    0.511040    0.300810
     14          1           0       -4.705640   -0.393710    0.197020
     15          1           0       -0.926540    1.771690    0.864310
     16          1           0       -1.027640    1.761070   -0.946750
     17          1           0       -0.296900   -0.630800   -0.972690
     18          1           0       -0.197060   -0.623930    0.831660
     19          1           0        1.449740    1.165930   -1.077110
     20          1           0        2.045270   -0.293960   -0.199240
     21          1           0        1.549830    1.171260    0.730380
     22          1           0       -5.483340    3.493520    0.207740
     23          6           0      -11.440380    3.289800   -0.960310
     24          1           0       -9.291930    0.339150    0.410360
     25          1           0       -7.004370   -0.672860    0.294440
     26          9           0      -11.794350    2.059510   -1.479950
     27          9           0      -12.579010    3.960220   -0.555330
     28          9           0      -10.793600    4.034790   -1.927410
     29         16           0      -10.335050    3.053780    0.460020
     30          8           0      -10.271720    4.382380    1.229850
     31          8           0      -11.093220    2.224210    1.507890
     32          1           0       -7.723500    4.338440    0.319830
     33          8           0       -6.628510   -2.695850    0.538210
     34          8           0       -4.410150   -2.432870    0.452690
     35          6           0       -5.370000   -3.187440    0.574160
     36          6           0       -5.177780   -4.668230    0.767970
     37          6           0       -3.708790   -5.088030    0.798010
     38          1           0       -5.687570   -5.204370   -0.060860
     39          1           0       -5.653370   -4.964480    1.727350
     40          1           0       -3.212510   -4.826150   -0.160710
     41          1           0       -3.640150   -6.186630    0.945030
     42          1           0       -3.180960   -4.584400    1.635890
 ---------------------------------------------------------------------
                    Distance matrix (angstroms):
                    1          2          3          4          5
     1  C    0.000000
     2  N    1.439957   0.000000
     3  C    2.518507   1.366177   0.000000
     4  O    2.889072   2.260416   1.220582   0.000000
     5  O    3.720206   2.344704   1.358730   2.229710   0.000000
     6  C    4.927588   3.639666   2.415681   2.727976   1.381305
     7  C    6.098290   4.701211   3.690836   4.218182   2.380450
     8  C    7.415214   6.070374   4.921798   5.176181   3.726863
     9  C    1.416667   2.529170   3.079840   2.851900   4.430835
    10  C    2.445879   3.793488   4.474036   4.205358   5.819734
    11  C    2.830033   4.268055   5.252470   5.251022   6.526267
    12  C    2.444594   3.733741   4.951708   5.274474   6.078277
    13  C    1.407852   2.435674   3.740203   4.275805   4.765608
    14  H    2.204255   1.145574   2.131450   3.250840   2.523889
    15  H    5.163073   4.000949   2.734273   2.748141   2.042315
    16  H    5.162445   4.002593   2.731094   2.735167   2.043005
    17  H    6.195598   4.787605   3.945806   4.612108   2.645356
    18  H    6.195735   4.785504   3.947970   4.620757   2.644092
    19  H    7.603263   6.323303   5.112388   5.208654   4.044861
    20  H    8.260936   6.869609   5.819146   6.192188   4.540733
    21  H    7.603643   6.321866   5.114426   5.217045   4.044181
    22  H    2.200727   2.842896   2.889137   2.249819   4.223799
    23  C    5.862299   7.260658   8.215654   8.110047   9.484358
    24  H    3.417751   4.582572   5.871304   6.292457   6.910176
    25  H    2.255646   2.682760   4.045591   4.848920   4.790453
    26  F    6.050715   7.369598   8.449994   8.527050   9.629493
    27  F    7.084752   8.507715   9.441925   9.275372  10.734506
    28  F    5.871882   7.206564   8.003834   7.768475   9.278733
    29  S    4.624873   6.062513   7.026706   6.934889   8.314782
    30  O    5.294733   6.705112   7.475926   7.169715   8.809734
    31  O    5.284210   6.661777   7.748641   7.808899   8.964111
    32  H    3.421282   4.671749   5.146455   4.644947   6.504979
    33  O    4.113112   3.950024   5.140573   6.199600   5.395237
    34  O    4.135119   3.212400   3.926888   5.134676   3.675081
    35  C    4.611362   4.009453   4.946306   6.118414   4.855361
    36  C    6.115116   5.469643   6.302448   7.501137   6.013636
    37  C    6.880843   5.961001   6.504136   7.719753   5.899795
    38  H    6.584045   6.036339   6.929265   8.118922   6.685855
    39  H    6.511261   5.993044   6.884532   8.050236   6.675291
    40  H    6.814977   5.791189   6.214871   7.425082   5.505440
    41  H    7.952204   7.065416   7.610454   8.824846   6.972221
    42  H    6.743180   5.745173   6.164582   7.349359   5.493068
                    6          7          8          9         10
     6  C    0.000000
     7  C    1.527214   0.000000
     8  C    2.517769   1.526567   0.000000
     9  C    5.404137   6.764527   7.917823   0.000000
    10  C    6.800489   8.161768   9.312038   1.398693   0.000000
    11  C    7.660219   8.906444  10.173290   2.427512   1.397002
    12  C    7.343908   8.426987   9.802315   2.795384   2.412876
    13  C    6.075266   7.083294   8.490845   2.418941   2.786851
    14  H    3.904950   4.631274   6.113037   3.520687   4.649530
    15  H    1.112806   2.169037   2.758858   5.466765   6.831802
    16  H    1.112849   2.168064   2.759340   5.467178   6.831250
    17  H    2.167124   1.111703   2.162256   6.974924   8.351730
    18  H    2.167624   1.111638   2.162157   6.974974   8.352578
    19  H    2.775889   2.178343   1.111063   7.991518   9.365497
    20  H    3.478849   2.168770   1.110223   8.867975  10.266463
    21  H    2.776753   2.178068   1.111059   7.992090   9.366800
    22  H    4.963659   6.422486   7.425768   1.074094   2.101910
    23  C   10.582660  11.839927  13.079368   5.338460   4.075279
    24  H    8.221926   9.211393  10.633026   3.877719   3.397617
    25  H    6.164490   6.947752   8.429487   3.512261   3.980021
    26  F   10.811090  11.956093  13.270292   5.833198   4.746179
    27  F   11.812480  13.100149  14.320444   6.474378   5.131141
    28  F   10.274189  11.576720  12.731689   5.181187   4.001644
    29  S    9.424133  10.693891  11.940923   4.083223   2.776805
    30  O    9.790491  11.151850  12.291628   4.429607   3.062413
    31  O   10.148619  11.327534  12.640110   5.015622   3.862557
    32  H    7.345918   8.779290   9.820537   2.147645   1.082679
    33  O    6.734634   7.091721   8.617120   5.476374   6.040520
    34  O    4.878820   4.979808   6.491891   5.519814   6.518381
    35  C    6.093349   6.195527   7.701064   6.024560   6.823715
    36  C    7.127850   6.951908   8.387555   7.526641   8.300039
    37  C    6.792970   6.302238   7.617173   8.273846   9.216497
    38  H    7.815424   7.638225   9.070120   7.992503   8.685900
    39  H    7.801912   7.667483   9.090905   7.889516   8.568440
    40  H    6.321558   5.746129   7.033323   8.189495   9.203820
    41  H    7.806742   7.204230   8.439870   9.351376  10.256991
    42  H    6.305729   5.786835   7.062126   8.087356   9.091032
                   11         12         13         14         15
    11  C    0.000000
    12  C    1.395775   0.000000
    13  C    2.420825   1.396839   0.000000
    14  H    4.849875   4.009355   2.612739   0.000000
    15  H    7.779341   7.580049   6.379234   4.406340   0.000000
    16  H    7.777772   7.576859   6.376344   4.413499   1.813911
    17  H    9.002355   8.428977   7.067722   4.567431   3.089170
    18  H    9.003610   8.431147   7.069395   4.558844   2.504437
    19  H   10.293259  10.008531   8.738479   6.476464   3.127741
    20  H   11.059295  10.595526   9.248481   6.763265   3.772228
    21  H   10.294732  10.010531   8.739926   6.470279   2.551639
    22  H    3.368284   3.867062   3.420048   3.964277   4.915304
    23  C    3.206498   3.978809   5.261220   7.763014  10.778438
    24  H    2.155497   1.082382   2.147097   4.649371   8.499294
    25  H    3.494966   2.230534   1.193402   2.317666   6.575758
    26  F    3.655030   3.956446   5.205458   7.686373  11.121497
    27  F    4.315039   5.148780   6.484967   9.028438  11.940900
    28  F    3.537196   4.452206   5.533951   7.822280  10.501152
    29  S    1.794848   2.771312   4.075117   6.606407   9.504066
    30  O    2.689393   3.917436   5.056408   7.406688   9.709877
    31  O    2.684222   3.117403   4.461533   7.026597  10.197076
    32  H    2.154693   3.396354   3.869506   5.613894   7.285831
    33  O    5.491223   4.144647   3.258404   3.018889   7.251049
    34  O    6.440375   5.318445   4.027567   2.076260   5.475700
    35  C    6.490708   5.221538   4.115583   2.896297   6.664945
    36  C    7.892451   6.577451   5.563328   4.338251   7.717182
    37  C    8.990574   7.747372   6.593172   4.836480   7.402774
    38  H    8.179404   6.826020   5.911742   4.916619   8.496397
    39  H    8.071307   6.747022   5.854043   4.912437   8.274282
    40  H    9.069451   7.870100   6.651174   4.690835   7.057465
    41  H    9.966097   8.686615   7.591091   5.937399   8.408630
    42  H    8.969834   7.799506   6.598121   4.685817   6.788050
                   16         17         18         19         20
    16  H    0.000000
    17  H    2.501139   0.000000
    18  H    3.088823   1.807123   0.000000
    19  H    2.551195   2.507966   3.091755   0.000000
    20  H    3.771564   2.489467   2.489915   1.804603   0.000000
    21  H    3.131133   3.091647   2.506908   1.810267   1.804584
    22  H    4.918078   6.730720   6.729593   7.425370   8.437453
    23  C   10.524370  11.813061  12.039131  13.064443  13.974452
    24  H    8.494827   9.152278   9.155418  10.875643  11.371216
    25  H    6.571596   6.826239   6.828651   8.759810   9.071013
    26  F   10.784035  11.818902  12.126068  13.280312  14.096600
    27  F   11.765357  13.118761  13.275950  14.313844  15.234645
    28  F   10.074992  11.526488  11.899697  12.603680  13.658742
    29  S    9.501473  10.788570  10.790853  12.033620  12.841897
    30  O    9.851998  11.378936  11.257019  12.371752  13.252120
    31  O   10.370904  11.439619  11.282530  12.850215  13.486119
    32  H    7.285712   9.028751   9.029639   9.806355  10.823929
    33  O    7.310197   6.829095   6.763321   9.098391   9.030358
    34  O    5.566771   4.711474   4.600653   7.044853   6.831720
    35  C    6.756997   5.887741   5.779031   8.257565   7.997287
    36  C    7.842182   6.569150   6.416229   9.020297   8.499540
    37  C    7.559294   5.885853   5.679927   8.320969   7.555582
    38  H    8.427165   7.127994   7.205742   9.620534   9.161228
    39  H    8.589599   7.400187   7.029506   9.792910   9.208396
    40  H    6.984482   5.173109   5.266535   7.647312   6.941648
    41  H    8.577294   6.761821   6.543038   9.168215   8.267824
    42  H    7.181351   5.545579   5.023521   7.865751   7.006358
                   21         22         23         24         25
    21  H    0.000000
    22  H    7.425061   0.000000
    23  C   13.269974   6.073892   0.000000
    24  H   10.878354   4.949390   3.898834   0.000000
    25  H    8.761573   4.436189   6.079084   2.504103   0.000000
    26  F   13.555135   6.688313   1.381642   3.577012   5.792945
    27  F   14.458751   7.151826   1.382009   4.984937   7.298229
    28  F   12.946966   5.748974   1.381527   4.623628   6.438699
    29  S   12.036085   4.878125   1.815158   2.908570   5.000869
    30  O   12.260090   4.976280   2.712250   4.240196   6.091471
    31  O   12.710623   5.896803   2.710722   2.828899   5.155984
    32  H    9.807866   2.396825   4.068612   4.296800   5.062699
    33  O    9.048575   6.303089   7.824811   4.039972   2.072000
    34  O    6.970526   6.027755   9.174402   5.614059   3.138894
    35  C    8.179653   6.691961   9.008815   5.276855   3.012063
    36  C    8.908524   8.186659  10.273137   6.490606   4.418557
    37  C    8.175351   8.782963  11.535043   7.795897   5.532464
    38  H    9.677535   8.704433  10.298289   6.629033   4.732313
    39  H    9.514586   8.595108  10.432935   6.565217   4.721910
    40  H    7.709919   8.631879  11.584725   7.997862   5.642267
    41  H    9.006693   9.881612  12.420815   8.649526   6.491757
    42  H    7.505194   8.520174  11.703047   7.942747   5.631882
                   26         27         28         29         30
    26  F    0.000000
    27  F    2.254620   0.000000
    28  F    2.259082   2.252965   0.000000
    29  S    2.623283   2.624486   2.621540   0.000000
    30  O    3.880353   2.947656   3.218923   1.536824   0.000000
    31  O    3.073418   3.078665   3.894773   1.536567   2.325912
    32  H    5.000455   4.948225   3.816779   2.913794   2.706195
    33  O    7.305636   8.994862   8.290282   6.841257   7.990788
    34  O    8.856804  10.421995   9.393824   8.075136   9.022728
    35  C    8.545298  10.214432   9.371974   7.976063   9.042066
    36  C    9.700239  11.444627  10.702573   9.290948  10.395917
    37  C   11.029629  12.742965  11.867952  10.502887  11.530273
    38  H    9.595339  11.477202  10.719964   9.490386  10.704492
    39  H    9.865842  11.524990  10.989363   9.371059  10.437454
    40  H   11.081547  12.848632  11.794508  10.639980  11.686023
    41  H   11.847799  13.605619  12.802351  11.421125  12.480497
    42  H   11.315498  12.889349  12.039096  10.531166  11.438833
                   31         32         33         34         35
    31  O    0.000000
    32  H    4.151683   0.000000
    33  O    6.714232   7.122354   0.000000
    34  O    8.213724   7.539667   2.235530   0.000000
    35  C    7.931775   7.889393   1.351592   1.226965   0.000000
    36  C    9.112938   9.370252   2.459205   2.384427   1.505739
    37  C   10.416458  10.256943   3.783489   2.767856   2.534161
    38  H    9.320184   9.764997   2.745346   3.094632   2.138249
    39  H    9.017616   9.633840   2.740736   3.095061   2.137292
    40  H   10.705017  10.225931   4.086040   2.745613   2.807164
    41  H   11.251991  11.306711   4.613171   3.863420   3.482107
    42  H   10.439225  10.098701   4.081314   2.745897   2.805470
                   36         37         38         39         40
    36  C    0.000000
    37  C    1.528092   0.000000
    38  H    1.110987   2.160269   0.000000
    39  H    1.111018   2.158779   1.804553   0.000000
    40  H    2.179374   1.110864   2.505782   3.088965   0.000000
    41  H    2.168224   1.110517   2.483662   2.481679   1.804562
    42  H    2.178899   1.110986   3.089728   2.503125   1.813066
                   41         42
    41  H    0.000000
    42  H    1.804241   0.000000
 Stoichiometry    C14H17F3NO6S(1-)
 Framework group  C1[X(C14H17F3NO6S)]
 Deg. of freedom   120
 Full point group                 C1      NOp   1
 Largest Abelian subgroup         C1      NOp   1
 Largest concise Abelian subgroup C1      NOp   1
                         Standard orientation:                         
 ---------------------------------------------------------------------
 Center     Atomic      Atomic             Coordinates (Angstroms)
 Number     Number       Type             X           Y           Z
 ---------------------------------------------------------------------
      1          6           0        0.344616   -0.574658   -0.157435
      2          7           0        1.778630   -0.612204   -0.032249
      3          6           0        2.587348   -1.713297   -0.028845
      4          8           0        2.135286   -2.841787   -0.138250
      5          8           0        3.928328   -1.538561    0.103014
      6          6           0        4.838787   -2.577298    0.112709
      7          6           0        6.251626   -2.023806    0.285670
      8          6           0        7.283951   -3.148335    0.297779
      9          6           0       -0.478671   -1.715985   -0.320281
     10          6           0       -1.866192   -1.583066   -0.436293
     11          6           0       -2.463990   -0.321098   -0.395194
     12          6           0       -1.666702    0.812831   -0.231713
     13          6           0       -0.280511    0.686088   -0.115215
     14          1           0        2.309105    0.397270    0.076822
     15          1           0        4.773990   -3.136302   -0.847319
     16          1           0        4.606448   -3.267651    0.954056
     17          1           0        6.313962   -1.463143    1.243614
     18          1           0        6.481724   -1.328584   -0.550667
     19          1           0        7.084051   -3.847602    1.137735
     20          1           0        8.300559   -2.720834    0.425632
     21          1           0        7.252857   -3.711461   -0.659496
     22          1           0       -0.099809   -2.720067   -0.364576
     23          6           0       -5.404098   -0.021078    0.848744
     24          1           0       -2.116380    1.796664   -0.194154
     25          1           0        0.375274    1.673572    0.022737
     26          9           0       -5.203029    1.178318    1.504453
     27          9           0       -6.702091   -0.072715    0.377050
     28          9           0       -5.195835   -1.070134    1.723230
     29         16           0       -4.245077   -0.154634   -0.541807
     30          8           0       -4.738781   -1.287302   -1.455671
     31          8           0       -4.512328    1.027354   -1.486540
     32          1           0       -2.475541   -2.469507   -0.559216
     33          8           0        1.614263    3.334224    0.004812
     34          8           0        3.483689    2.109126    0.049281
     35          6           0        2.960844    3.218668    0.017751
     36          6           0        3.794118    4.472510   -0.010233
     37          6           0        5.297542    4.199218   -0.000502
     38          1           0        3.535818    5.090863    0.875889
     39          1           0        3.541366    5.045254   -0.928079
     40          1           0        5.584013    3.648000    0.920428
     41          1           0        5.849571    5.162523   -0.024105
     42          1           0        5.586744    3.602767   -0.892072
 ---------------------------------------------------------------------
 Rotational constants (GHZ):           0.2731377           0.0726624           0.0602350
 Standard basis: 6-311+G(d) (5D, 7F)
 There are   634 symmetry adapted cartesian basis functions of A   symmetry.
 There are   609 symmetry adapted basis functions of A   symmetry.
   609 basis functions,   999 primitive gaussians,   634 cartesian basis functions
   100 alpha electrons      100 beta electrons
       nuclear repulsion energy      2351.3283764185 Hartrees.
 NAtoms=   42 NActive=   42 NUniq=   42 SFac= 1.00D+00 NAtFMM=   60 NAOKFM=F Big=F
 Integral buffers will be    131072 words long.
 Raffenetti 2 integral format.
 Two-electron integral symmetry is turned on.
 Nuclear repulsion after empirical dispersion term =     2351.3260348124 Hartrees.
 Force inversion solution in PCM.
 ------------------------------------------------------------------------------
 Polarizable Continuum Model (PCM)
 =================================
 Model                : PCM.
 Atomic radii         : SMD-Coulomb.
 Polarization charges : Total charges.
 Charge compensation  : None.
 Solution method      : Matrix inversion.
 Cavity type          : VdW (van der Waals Surface) (Alpha=1.000).
 Cavity algorithm     : GePol (No added spheres)
                        Default sphere list used, NSphG=   42.
                        Lebedev-Laikov grids with approx.  5.0 points / Ang**2.
                        Smoothing algorithm: York/Karplus (Gamma=1.0000).
                        Polarization charges: spherical gaussians, with
                                              point-specific exponents (IZeta= 3).
                        Self-potential: point-specific (ISelfS= 7).
                        Self-field    : sphere-specific E.n sum rule (ISelfD= 2).
 1st derivatives      : Analytical E(r).r(x)/FMM algorithm (CHGder, D1EAlg=3).
                        Cavity 1st derivative terms included.
 2nd derivatives      : Analytical E(r).r(xy)/FMM algorithm (CHGder, D2EAlg=3).
                        Cavity 2nd derivative terms included.
 Solvent              : Water, Eps=  78.355300 Eps(inf)=   1.777849
 ------------------------------------------------------------------------------
 ------------------------------------------------------------------------------
 Atomic radii for non-electrostatic terms: SMD-CDS.
 ------------------------------------------------------------------------------
 Nuclear repulsion after PCM non-electrostatic terms =     2351.3444122790 Hartrees.
 One-electron integrals computed using PRISM.
 NBasis=   609 RedAO= T EigKep=  1.63D-06  NBF=   609
 NBsUse=   607 1.00D-06 EigRej=  5.26D-07 NBFU=   607
 ExpMin= 4.05D-02 ExpMax= 9.34D+04 ExpMxC= 3.17D+03 IAcc=3 IRadAn=         5 AccDes= 0.00D+00
 Harris functional with IExCor= 1009 and IRadAn=       5 diagonalized for initial guess.
 HarFok:  IExCor= 1009 AccDes= 0.00D+00 IRadAn=         5 IDoV= 1 UseB2=F ITyADJ=14
 ICtDFT=  3500011 ScaDFX=  1.000000  1.000000  1.000000  1.000000
 FoFCou: FMM=F IPFlag=           0 FMFlag=      100000 FMFlg1=           0
         NFxFlg=           0 DoJE=T BraDBF=F KetDBF=T FulRan=T
         wScrn=  0.000000 ICntrl=       500 IOpCl=  0 I1Cent=   200000004 NGrid=           0
         NMat0=    1 NMatS0=      1 NMatT0=    0 NMatD0=    1 NMtDS0=    0 NMtDT0=    0
 Petite list used in FoFCou.
 Requested convergence on RMS density matrix=1.00D-08 within 128 cycles.
 Requested convergence on MAX density matrix=1.00D-06.
 Requested convergence on             energy=1.00D-06.
 No special actions if energy rises.
 Inv3:  Mode=1 IEnd=    31648512.
 Iteration    1 A*A^-1 deviation from unit magnitude is 4.55D-15 for   3235.
 Iteration    1 A*A^-1 deviation from orthogonality  is 3.11D-15 for   3226    897.
 Iteration    1 A^-1*A deviation from unit magnitude is 4.66D-15 for   3220.
 Iteration    1 A^-1*A deviation from orthogonality  is 3.62D-14 for   2525   2498.
 Error on total polarization charges =  0.07262
 SCF Done:  E(RM062X) =  -1747.44671558     A.U. after   18 cycles
            NFock= 18  Conv=0.35D-08     -V/T= 2.0037
 SMD-CDS (non-electrostatic) energy       (kcal/mol) =      11.53
 (included in total energy above)
 DoSCS=F DFT=T ScalE2(SS,OS)=  1.000000  1.000000
 Range of M.O.s used for correlation:     1   607
 NBasis=   609 NAE=   100 NBE=   100 NFC=     0 NFV=     0
 NROrb=    607 NOA=   100 NOB=   100 NVA=   507 NVB=   507

 **** Warning!!: The largest alpha MO coefficient is  0.12693221D+03

 Symmetrizing basis deriv contribution to polar:
 IMax=3 JMax=2 DiffMx= 0.00D+00
 G2DrvN: will do    43 centers at a time, making    1 passes.
 Calling FoFCou, ICntrl=  3107 FMM=F I1Cent=   0 AccDes= 0.00D+00.
 NEqPCM:  Using equilibrium solvation (IEInf=0, Eps=  78.3553, EpsInf=   1.7778)
 G2PCM: DoFxE=T DoFxN=T DoGrad=T DoDP/DQ/DG/TGxP=FFFF NFrqRd=   0 IEInf=0 SqF1=F DoCFld=F IF1Alg=4.
 End of G2Drv F.D. properties file   721 does not exist.
 End of G2Drv F.D. properties file   722 does not exist.
 End of G2Drv F.D. properties file   788 does not exist.
          IDoAtm=111111111111111111111111111111111111111111
 NEqPCM:  Using equilibrium solvation (IEInf=0, Eps=  78.3553, EpsInf=   1.7778)
          Differentiating once with respect to nuclear coordinates.
 CalDSu exits because no D1Ps are significant.
          There are   129 degrees of freedom in the 1st order CPHF.  IDoFFX=6 NUNeed=     0.
    123 vectors produced by pass  0 Test12= 5.07D-14 1.00D-09 XBig12= 4.88D-01 1.43D-01.
 AX will form    64 AO Fock derivatives at one time.
    123 vectors produced by pass  1 Test12= 5.07D-14 1.00D-09 XBig12= 2.79D-02 4.48D-02.
    123 vectors produced by pass  2 Test12= 5.07D-14 1.00D-09 XBig12= 1.61D-03 5.36D-03.
    123 vectors produced by pass  3 Test12= 5.07D-14 1.00D-09 XBig12= 1.58D-05 6.83D-04.
    123 vectors produced by pass  4 Test12= 5.07D-14 1.00D-09 XBig12= 1.62D-07 6.07D-05.
    123 vectors produced by pass  5 Test12= 5.07D-14 1.00D-09 XBig12= 1.08D-09 3.35D-06.
    104 vectors produced by pass  6 Test12= 5.07D-14 1.00D-09 XBig12= 5.12D-12 1.88D-07.
     49 vectors produced by pass  7 Test12= 5.07D-14 1.00D-09 XBig12= 2.13D-14 1.00D-08.
 InvSVY:  IOpt=1 It=  1 EMax= 1.33D-15
 Solved reduced A of dimension   891 with   129 vectors.
 End of Minotr F.D. properties file   721 does not exist.
 End of Minotr F.D. properties file   722 does not exist.
 End of Minotr F.D. properties file   788 does not exist.

 **********************************************************************

            Population analysis using the SCF Density.

 **********************************************************************

 Orbital symmetries:
       Occupied  (A) (A) (A) (A) (A) (A) (A) (A) (A) (A) (A) (A)
                 (A) (A) (A) (A) (A) (A) (A) (A) (A) (A) (A) (A)
                 (A) (A) (A) (A) (A) (A) (A) (A) (A) (A) (A) (A)
                 (A) (A) (A) (A) (A) (A) (A) (A) (A) (A) (A) (A)
                 (A) (A) (A) (A) (A) (A) (A) (A) (A) (A) (A) (A)
                 (A) (A) (A) (A) (A) (A) (A) (A) (A) (A) (A) (A)
                 (A) (A) (A) (A) (A) (A) (A) (A) (A) (A) (A) (A)
                 (A) (A) (A) (A) (A) (A) (A) (A) (A) (A) (A) (A)
                 (A) (A) (A) (A)
       Virtual   (A) (A) (A) (A) (A) (A) (A) (A) (A) (A) (A) (A)
                 (A) (A) (A) (A) (A) (A) (A) (A) (A) (A) (A) (A)
                 (A) (A) (A) (A) (A) (A) (A) (A) (A) (A) (A) (A)
                 (A) (A) (A) (A) (A) (A) (A) (A) (A) (A) (A) (A)
                 (A) (A) (A) (A) (A) (A) (A) (A) (A) (A) (A) (A)
                 (A) (A) (A) (A) (A) (A) (A) (A) (A) (A) (A) (A)
                 (A) (A) (A) (A) (A) (A) (A) (A) (A) (A) (A) (A)
                 (A) (A) (A) (A) (A) (A) (A) (A) (A) (A) (A) (A)
                 (A) (A) (A) (A) (A) (A) (A) (A) (A) (A) (A) (A)
                 (A) (A) (A) (A) (A) (A) (A) (A) (A) (A) (A) (A)
                 (A) (A) (A) (A) (A) (A) (A) (A) (A) (A) (A) (A)
                 (A) (A) (A) (A) (A) (A) (A) (A) (A) (A) (A) (A)
                 (A) (A) (A) (A) (A) (A) (A) (A) (A) (A) (A) (A)
                 (A) (A) (A) (A) (A) (A) (A) (A) (A) (A) (A) (A)
                 (A) (A) (A) (A) (A) (A) (A) (A) (A) (A) (A) (A)
                 (A) (A) (A) (A) (A) (A) (A) (A) (A) (A) (A) (A)
                 (A) (A) (A) (A) (A) (A) (A) (A) (A) (A) (A) (A)
                 (A) (A) (A) (A) (A) (A) (A) (A) (A) (A) (A) (A)
                 (A) (A) (A) (A) (A) (A) (A) (A) (A) (A) (A) (A)
                 (A) (A) (A) (A) (A) (A) (A) (A) (A) (A) (A) (A)
                 (A) (A) (A) (A) (A) (A) (A) (A) (A) (A) (A) (A)
                 (A) (A) (A) (A) (A) (A) (A) (A) (A) (A) (A) (A)
                 (A) (A) (A) (A) (A) (A) (A) (A) (A) (A) (A) (A)
                 (A) (A) (A) (A) (A) (A) (A) (A) (A) (A) (A) (A)
                 (A) (A) (A) (A) (A) (A) (A) (A) (A) (A) (A) (A)
                 (A) (A) (A) (A) (A) (A) (A) (A) (A) (A) (A) (A)
                 (A) (A) (A) (A) (A) (A) (A) (A) (A) (A) (A) (A)
                 (A) (A) (A) (A) (A) (A) (A) (A) (A) (A) (A) (A)
                 (A) (A) (A) (A) (A) (A) (A) (A) (A) (A) (A) (A)
                 (A) (A) (A) (A) (A) (A) (A) (A) (A) (A) (A) (A)
                 (A) (A) (A) (A) (A) (A) (A) (A) (A) (A) (A) (A)
                 (A) (A) (A) (A) (A) (A) (A) (A) (A) (A) (A) (A)
                 (A) (A) (A) (A) (A) (A) (A) (A) (A) (A) (A) (A)
                 (A) (A) (A) (A) (A) (A) (A) (A) (A) (A) (A) (A)
                 (A) (A) (A) (A) (A) (A) (A) (A) (A) (A) (A) (A)
                 (A) (A) (A) (A) (A) (A) (A) (A) (A) (A) (A) (A)
                 (A) (A) (A) (A) (A) (A) (A) (A) (A) (A) (A) (A)
                 (A) (A) (A) (A) (A) (A) (A) (A) (A) (A) (A) (A)
                 (A) (A) (A) (A) (A) (A) (A) (A) (A) (A) (A) (A)
                 (A) (A) (A) (A) (A) (A) (A) (A) (A) (A) (A) (A)
                 (A) (A) (A) (A) (A) (A) (A) (A) (A) (A) (A) (A)
                 (A) (A) (A) (A) (A) (A) (A) (A) (A) (A) (A) (A)
                 (A) (A) (A)
 The electronic state is 1-A.
 Alpha  occ. eigenvalues --  -90.15021 -25.33297 -25.33024 -25.33013 -19.67401
 Alpha  occ. eigenvalues --  -19.64388 -19.64335 -19.61373 -19.58843 -19.56247
 Alpha  occ. eigenvalues --  -14.81100 -10.88301 -10.72097 -10.64153 -10.63554
 Alpha  occ. eigenvalues --  -10.62057 -10.59272 -10.58673 -10.58638 -10.57265
 Alpha  occ. eigenvalues --  -10.56938 -10.53400 -10.53251 -10.52408 -10.52090
 Alpha  occ. eigenvalues --   -8.49417  -6.41565  -6.41529  -6.41457  -1.49254
 Alpha  occ. eigenvalues --   -1.41466  -1.41459  -1.25297  -1.23654  -1.16473
 Alpha  occ. eigenvalues --   -1.15612  -1.10658  -1.05605  -1.03699  -0.99300
 Alpha  occ. eigenvalues --   -0.92637  -0.89621  -0.87657  -0.87194  -0.85924
 Alpha  occ. eigenvalues --   -0.81465  -0.79164  -0.74759  -0.73018  -0.72908
 Alpha  occ. eigenvalues --   -0.72510  -0.71782  -0.69062  -0.67136  -0.66065
 Alpha  occ. eigenvalues --   -0.64085  -0.62164  -0.61376  -0.61260  -0.60041
 Alpha  occ. eigenvalues --   -0.59027  -0.58945  -0.58195  -0.57816  -0.56835
 Alpha  occ. eigenvalues --   -0.56790  -0.56130  -0.55002  -0.53363  -0.53173
 Alpha  occ. eigenvalues --   -0.53086  -0.53026  -0.52910  -0.51219  -0.50763
 Alpha  occ. eigenvalues --   -0.48945  -0.48816  -0.48603  -0.46470  -0.45807
 Alpha  occ. eigenvalues --   -0.44680  -0.43754  -0.43559  -0.42990  -0.42253
 Alpha  occ. eigenvalues --   -0.41664  -0.41040  -0.40877  -0.40018  -0.39762
 Alpha  occ. eigenvalues --   -0.39370  -0.39168  -0.37701  -0.37093  -0.36962
 Alpha  occ. eigenvalues --   -0.33479  -0.33029  -0.32837  -0.31545  -0.30673
 Alpha virt. eigenvalues --   -0.06609  -0.02155   0.00021   0.00225   0.01313
 Alpha virt. eigenvalues --    0.01930   0.02610   0.02810   0.03046   0.03751
 Alpha virt. eigenvalues --    0.03893   0.04032   0.04299   0.05186   0.05389
 Alpha virt. eigenvalues --    0.05548   0.06231   0.06515   0.06628   0.07165
 Alpha virt. eigenvalues --    0.07240   0.07455   0.07617   0.07867   0.07989
 Alpha virt. eigenvalues --    0.08311   0.08643   0.08760   0.08864   0.09070
 Alpha virt. eigenvalues --    0.09614   0.10191   0.10307   0.10473   0.11023
 Alpha virt. eigenvalues --    0.11478   0.12401   0.12529   0.13037   0.13525
 Alpha virt. eigenvalues --    0.13729   0.13933   0.14121   0.14413   0.14578
 Alpha virt. eigenvalues --    0.14966   0.15230   0.15415   0.15837   0.15962
 Alpha virt. eigenvalues --    0.16214   0.16775   0.17234   0.17702   0.17926
 Alpha virt. eigenvalues --    0.18278   0.19115   0.19330   0.19782   0.20061
 Alpha virt. eigenvalues --    0.20689   0.21025   0.21143   0.21269   0.21520
 Alpha virt. eigenvalues --    0.21526   0.21881   0.22337   0.22763   0.23212
 Alpha virt. eigenvalues --    0.23476   0.23731   0.23970   0.24136   0.24622
 Alpha virt. eigenvalues --    0.24913   0.24954   0.25457   0.25631   0.25938
 Alpha virt. eigenvalues --    0.26620   0.26833   0.26962   0.27608   0.27731
 Alpha virt. eigenvalues --    0.27895   0.28303   0.28499   0.28804   0.28842
 Alpha virt. eigenvalues --    0.29108   0.29606   0.29906   0.30098   0.30508
 Alpha virt. eigenvalues --    0.30816   0.30941   0.31291   0.31571   0.31595
 Alpha virt. eigenvalues --    0.31908   0.32036   0.32631   0.32746   0.32805
 Alpha virt. eigenvalues --    0.33521   0.33802   0.34295   0.34392   0.34638
 Alpha virt. eigenvalues --    0.34959   0.35066   0.35556   0.36082   0.36237
 Alpha virt. eigenvalues --    0.36860   0.37116   0.37252   0.37829   0.38403
 Alpha virt. eigenvalues --    0.38988   0.39412   0.40046   0.40353   0.40502
 Alpha virt. eigenvalues --    0.41094   0.42135   0.42442   0.43140   0.43492
 Alpha virt. eigenvalues --    0.44406   0.44852   0.45004   0.45327   0.45561
 Alpha virt. eigenvalues --    0.46084   0.46438   0.47161   0.48995   0.49414
 Alpha virt. eigenvalues --    0.49679   0.50076   0.50672   0.51308   0.52187
 Alpha virt. eigenvalues --    0.52709   0.52833   0.53433   0.54605   0.55056
 Alpha virt. eigenvalues --    0.55457   0.55748   0.56833   0.57634   0.57990
 Alpha virt. eigenvalues --    0.58853   0.59074   0.59984   0.60716   0.61032
 Alpha virt. eigenvalues --    0.62213   0.62473   0.63466   0.64209   0.64901
 Alpha virt. eigenvalues --    0.65657   0.65717   0.66668   0.66840   0.67212
 Alpha virt. eigenvalues --    0.68628   0.68982   0.69616   0.69760   0.70339
 Alpha virt. eigenvalues --    0.70679   0.71279   0.71607   0.71905   0.72295
 Alpha virt. eigenvalues --    0.72444   0.73180   0.73301   0.74309   0.75560
 Alpha virt. eigenvalues --    0.75862   0.76272   0.76790   0.77194   0.77657
 Alpha virt. eigenvalues --    0.78027   0.78205   0.78657   0.79723   0.80181
 Alpha virt. eigenvalues --    0.80916   0.82373   0.83721   0.85531   0.85677
 Alpha virt. eigenvalues --    0.87280   0.87932   0.88947   0.90101   0.90535
 Alpha virt. eigenvalues --    0.92309   0.92628   0.93348   0.93967   0.94391
 Alpha virt. eigenvalues --    0.95781   0.96566   0.98652   0.99397   1.01362
 Alpha virt. eigenvalues --    1.02248   1.03651   1.03833   1.04635   1.05626
 Alpha virt. eigenvalues --    1.06239   1.06559   1.08473   1.08956   1.10565
 Alpha virt. eigenvalues --    1.11818   1.12329   1.13090   1.14429   1.15071
 Alpha virt. eigenvalues --    1.15344   1.15704   1.17164   1.17741   1.18683
 Alpha virt. eigenvalues --    1.20095   1.20782   1.20954   1.21528   1.22565
 Alpha virt. eigenvalues --    1.23176   1.23538   1.24155   1.24413   1.24914
 Alpha virt. eigenvalues --    1.25153   1.25667   1.26282   1.27090   1.28898
 Alpha virt. eigenvalues --    1.29502   1.31297   1.33128   1.33649   1.34799
 Alpha virt. eigenvalues --    1.36432   1.38921   1.39409   1.41187   1.41761
 Alpha virt. eigenvalues --    1.42598   1.43686   1.44266   1.44897   1.45820
 Alpha virt. eigenvalues --    1.46001   1.46742   1.49801   1.49933   1.50943
 Alpha virt. eigenvalues --    1.51558   1.53946   1.54396   1.54628   1.55196
 Alpha virt. eigenvalues --    1.56078   1.57262   1.57754   1.59356   1.60447
 Alpha virt. eigenvalues --    1.61318   1.61497   1.62798   1.63148   1.64774
 Alpha virt. eigenvalues --    1.65199   1.66902   1.68919   1.69131   1.69312
 Alpha virt. eigenvalues --    1.71590   1.71928   1.73305   1.74055   1.76436
 Alpha virt. eigenvalues --    1.77018   1.78265   1.78697   1.78776   1.78915
 Alpha virt. eigenvalues --    1.79191   1.79419   1.80088   1.80777   1.83027
 Alpha virt. eigenvalues --    1.84419   1.85158   1.85256   1.87118   1.87919
 Alpha virt. eigenvalues --    1.88417   1.89390   1.89889   1.90973   1.93620
 Alpha virt. eigenvalues --    1.94916   1.96035   1.97824   1.98681   1.99258
 Alpha virt. eigenvalues --    1.99861   2.00720   2.01815   2.02776   2.05719
 Alpha virt. eigenvalues --    2.09763   2.10769   2.12313   2.16289   2.18652
 Alpha virt. eigenvalues --    2.19671   2.21397   2.22593   2.23305   2.27124
 Alpha virt. eigenvalues --    2.33028   2.34005   2.34769   2.41328   2.42169
 Alpha virt. eigenvalues --    2.49489   2.50015   2.52738   2.52925   2.53115
 Alpha virt. eigenvalues --    2.55146   2.55935   2.57051   2.57442   2.58869
 Alpha virt. eigenvalues --    2.61299   2.62785   2.64341   2.65977   2.67217
 Alpha virt. eigenvalues --    2.70001   2.70936   2.73128   2.73599   2.75934
 Alpha virt. eigenvalues --    2.80608   2.81225   2.81541   2.82356   2.85056
 Alpha virt. eigenvalues --    2.85725   2.87308   2.90067   2.91062   2.91489
 Alpha virt. eigenvalues --    2.92501   2.93600   2.93712   2.94136   2.95127
 Alpha virt. eigenvalues --    2.96414   2.97422   2.97705   2.98172   2.98889
 Alpha virt. eigenvalues --    3.00043   3.01193   3.02058   3.03228   3.03969
 Alpha virt. eigenvalues --    3.07650   3.08690   3.08771   3.10627   3.10802
 Alpha virt. eigenvalues --    3.13395   3.17780   3.17922   3.19547   3.19811
 Alpha virt. eigenvalues --    3.21477   3.22534   3.23033   3.23897   3.27217
 Alpha virt. eigenvalues --    3.28027   3.30175   3.30963   3.31808   3.33464
 Alpha virt. eigenvalues --    3.33472   3.34216   3.37795   3.37867   3.38977
 Alpha virt. eigenvalues --    3.42272   3.43092   3.43495   3.45570   3.51503
 Alpha virt. eigenvalues --    3.55611   3.60342   3.65896   3.68073   3.70791
 Alpha virt. eigenvalues --    3.72007   3.72898   3.76531   3.78391   3.80211
 Alpha virt. eigenvalues --    3.80981   3.81141   3.82176   3.82548   3.85413
 Alpha virt. eigenvalues --    3.86215   3.87616   3.90827   3.91169   3.97742
 Alpha virt. eigenvalues --    4.01604   4.03504   4.06319   4.09247   4.15894
 Alpha virt. eigenvalues --    4.16012   4.16148   4.18006   4.18971   4.21107
 Alpha virt. eigenvalues --    4.34893   4.50335   4.78225   4.88741   4.89154
 Alpha virt. eigenvalues --    5.03919   5.10335   5.15609   5.16349   5.16776
 Alpha virt. eigenvalues --    5.17957   5.20537   5.21123   5.21773   5.23434
 Alpha virt. eigenvalues --    5.28255   5.36371   5.37318   5.39741   5.46584
 Alpha virt. eigenvalues --    5.67392   5.80709   5.97375   5.99441   6.40119
 Alpha virt. eigenvalues --    6.41383   6.43731   6.45512   6.46402   6.47433
 Alpha virt. eigenvalues --    6.49755   6.76246   6.77763   8.21752  17.50909
 Alpha virt. eigenvalues --   17.58750  17.64455  23.40670  23.43891  23.59260
 Alpha virt. eigenvalues --   23.62116  23.74404  23.80782  23.81173  23.88579
 Alpha virt. eigenvalues --   23.89848  23.91969  23.92380  24.03320  24.08357
 Alpha virt. eigenvalues --   24.16040  35.64348  49.97788  49.99871  50.01793
 Alpha virt. eigenvalues --   50.04330  50.12924  50.14045  66.83689  66.84090
 Alpha virt. eigenvalues --   66.88812 189.47072
          Condensed to atoms (all electrons):
               1          2          3          4          5          6
     1  C   24.545280   0.035497   0.702871  -0.329813  -0.293247  -0.823909
     2  N    0.035497   7.656173   0.297558  -0.051997  -0.207173  -0.312637
     3  C    0.702871   0.297558  10.400563   0.584273   0.220814  -0.568476
     4  O   -0.329813  -0.051997   0.584273   8.177868  -0.186431  -0.166432
     5  O   -0.293247  -0.207173   0.220814  -0.186431   8.451487   0.343706
     6  C   -0.823909  -0.312637  -0.568476  -0.166432   0.343706   8.650513
     7  C    0.032000   0.027276   0.241116   0.024844  -0.164258  -0.917195
     8  C   -0.031898  -0.008353  -0.295413  -0.000966   0.031848   0.371431
     9  C    5.067101  -0.262661   1.776143   0.377842   0.056481  -0.157444
    10  C   -1.037576   0.024937  -0.888649   0.137608   0.018874  -0.235170
    11  C   -4.905497  -0.039152  -2.061847  -0.001903   0.004948  -0.156448
    12  C   -9.768250   0.060361  -1.365152  -0.028696  -0.021779  -0.051340
    13  C   -5.473995   0.175590  -3.195248  -0.103374  -0.079853  -0.332512
    14  H   -0.009013   0.122923   0.027373   0.001126   0.026853   0.006394
    15  H    0.007598   0.002319   0.013676   0.000679  -0.047166   0.396992
    16  H    0.006388   0.003460   0.025489   0.001483  -0.051221   0.379648
    17  H   -0.000008  -0.000869  -0.000047  -0.000301   0.001995  -0.058140
    18  H   -0.000235  -0.000821   0.001070  -0.000285   0.001779  -0.060175
    19  H   -0.000059  -0.000048  -0.001657  -0.000066  -0.000328  -0.045733
    20  H    0.000136   0.000032   0.008544   0.000025  -0.000761   0.084123
    21  H   -0.000065  -0.000043  -0.001714  -0.000059  -0.000268  -0.042334
    22  H    0.089781  -0.020071   0.057216   0.003437   0.001540   0.007455
    23  C    0.517181  -0.000946   0.023430   0.000120  -0.000022   0.000354
    24  H    0.030239  -0.001026   0.002464  -0.000012  -0.000001   0.000016
    25  H    0.131575  -0.014575   0.012643   0.000062   0.000243   0.000899
    26  F   -0.003102   0.000026  -0.000133  -0.000000   0.000000  -0.000001
    27  F    0.002765   0.000001   0.000029  -0.000000  -0.000000   0.000000
    28  F   -0.020730  -0.000009  -0.000570   0.000000   0.000000  -0.000002
    29  S   -2.293509  -0.000656  -0.238517   0.000184   0.000678  -0.006490
    30  O   -0.107062  -0.000187  -0.007033   0.000002   0.000001  -0.000053
    31  O   -0.004673   0.000487  -0.000870  -0.000005   0.000001  -0.000011
    32  H    0.028485  -0.000860   0.005256  -0.000003   0.000017   0.000070
    33  O    0.092217  -0.009751   0.009947  -0.000007   0.000159  -0.000700
    34  O    0.080688  -0.016472  -0.016944   0.000279   0.010403  -0.007059
    35  C   -0.216365   0.005311  -0.001670   0.000096  -0.001551   0.003192
    36  C    0.073059  -0.016306   0.027664   0.000288   0.000631   0.006581
    37  C   -0.003869   0.000751  -0.005362  -0.000113  -0.001245  -0.003001
    38  H   -0.000612   0.000047  -0.000016  -0.000000   0.000003  -0.000038
    39  H   -0.000270   0.000109  -0.000098   0.000000   0.000002  -0.000038
    40  H    0.000156   0.000231  -0.000111   0.000001  -0.000002   0.000048
    41  H   -0.000060  -0.000042   0.000033  -0.000000   0.000001  -0.000009
    42  H   -0.000158   0.000122   0.000075   0.000000   0.000003  -0.000048
               7          8          9         10         11         12
     1  C    0.032000  -0.031898   5.067101  -1.037576  -4.905497  -9.768250
     2  N    0.027276  -0.008353  -0.262661   0.024937  -0.039152   0.060361
     3  C    0.241116  -0.295413   1.776143  -0.888649  -2.061847  -1.365152
     4  O    0.024844  -0.000966   0.377842   0.137608  -0.001903  -0.028696
     5  O   -0.164258   0.031848   0.056481   0.018874   0.004948  -0.021779
     6  C   -0.917195   0.371431  -0.157444  -0.235170  -0.156448  -0.051340
     7  C    6.409204  -0.239796  -0.020869  -0.004905   0.000666   0.005200
     8  C   -0.239796   6.299303  -0.009251  -0.003276  -0.001296  -0.000277
     9  C   -0.020869  -0.009251  24.826706   2.972984 -10.873547  -6.897529
    10  C   -0.004905  -0.003276   2.972984  23.463396  -1.284177 -10.475075
    11  C    0.000666  -0.001296 -10.873547  -1.284177  38.173924  -3.140583
    12  C    0.005200  -0.000277  -6.897529 -10.475075  -3.140583  26.553137
    13  C    0.034181  -0.005156  -9.741135  -4.809413  -3.044073   7.230620
    14  H   -0.001324  -0.000227   0.062733   0.017401   0.011334  -0.019369
    15  H   -0.030232  -0.014250  -0.005151  -0.000610   0.000015   0.000135
    16  H   -0.024647  -0.014596  -0.002646  -0.000061  -0.000016   0.000091
    17  H    0.446351  -0.057030  -0.000138   0.000000   0.000005   0.000009
    18  H    0.450116  -0.060882   0.000123   0.000026   0.000005   0.000005
    19  H    0.016316   0.370353  -0.000035  -0.000003  -0.000000   0.000001
    20  H   -0.129813   0.384149   0.000059   0.000003   0.000000  -0.000001
    21  H    0.014190   0.369822  -0.000023  -0.000002  -0.000000   0.000000
    22  H   -0.000453   0.000052   0.299854  -0.098563   0.009946  -0.018755
    23  C    0.000003   0.000001   0.743966   1.760766  -2.337197  -0.142001
    24  H    0.000000  -0.000000  -0.006091  -0.011888   0.098252   0.318402
    25  H   -0.000092   0.000008   0.022304   0.022101   0.014906  -0.168539
    26  F   -0.000000  -0.000000  -0.010972  -0.025410  -0.116840   0.016412
    27  F   -0.000000   0.000000  -0.002857  -0.007377   0.177828  -0.021762
    28  F    0.000000  -0.000000  -0.042835  -0.135966   0.034395   0.050244
    29  S   -0.000050  -0.000020  -1.884873  -3.204890  -2.876779   3.679014
    30  O    0.000000  -0.000000  -0.091319  -0.662460  -0.448511   0.607020
    31  O   -0.000000  -0.000000   0.041464   0.371998  -0.743962  -0.297821
    32  H    0.000000   0.000000  -0.013021   0.351561  -0.006035  -0.031443
    33  O    0.000296  -0.000007  -0.005336   0.000095   0.010827  -0.083274
    34  O    0.002930   0.000433   0.028390   0.005362   0.001218  -0.012711
    35  C   -0.001551  -0.000762  -0.034071  -0.002152  -0.055906   0.097572
    36  C    0.000463   0.001720  -0.004064   0.004168  -0.020897  -0.055983
    37  C    0.000729  -0.001380  -0.000533  -0.000034  -0.000591   0.002057
    38  H    0.000020  -0.000001   0.000003  -0.000003  -0.000039   0.000093
    39  H    0.000017  -0.000001  -0.000053  -0.000009  -0.000046  -0.000456
    40  H    0.000145   0.000094  -0.000016   0.000001  -0.000007  -0.000138
    41  H   -0.000022  -0.000005   0.000002  -0.000000   0.000003   0.000054
    42  H    0.000200   0.000073   0.000008   0.000003  -0.000011  -0.000050
              13         14         15         16         17         18
     1  C   -5.473995  -0.009013   0.007598   0.006388  -0.000008  -0.000235
     2  N    0.175590   0.122923   0.002319   0.003460  -0.000869  -0.000821
     3  C   -3.195248   0.027373   0.013676   0.025489  -0.000047   0.001070
     4  O   -0.103374   0.001126   0.000679   0.001483  -0.000301  -0.000285
     5  O   -0.079853   0.026853  -0.047166  -0.051221   0.001995   0.001779
     6  C   -0.332512   0.006394   0.396992   0.379648  -0.058140  -0.060175
     7  C    0.034181  -0.001324  -0.030232  -0.024647   0.446351   0.450116
     8  C   -0.005156  -0.000227  -0.014250  -0.014596  -0.057030  -0.060882
     9  C   -9.741135   0.062733  -0.005151  -0.002646  -0.000138   0.000123
    10  C   -4.809413   0.017401  -0.000610  -0.000061   0.000000   0.000026
    11  C   -3.044073   0.011334   0.000015  -0.000016   0.000005   0.000005
    12  C    7.230620  -0.019369   0.000135   0.000091   0.000009   0.000005
    13  C   24.220356  -0.099771   0.000960   0.000600   0.000148   0.000105
    14  H   -0.099771   0.258477  -0.000009   0.000031  -0.000027   0.000004
    15  H    0.000960  -0.000009   0.441368  -0.040202   0.005012  -0.007723
    16  H    0.000600   0.000031  -0.040202   0.446032  -0.008011   0.005062
    17  H    0.000148  -0.000027   0.005012  -0.008011   0.439275  -0.033287
    18  H    0.000105   0.000004  -0.007723   0.005062  -0.033287   0.440697
    19  H    0.000018  -0.000000  -0.000522   0.003648  -0.007662   0.006089
    20  H   -0.000017  -0.000000  -0.000136  -0.000153  -0.003533  -0.003552
    21  H    0.000012  -0.000000   0.003556  -0.000612   0.006077  -0.007642
    22  H   -0.008727  -0.000196  -0.000018  -0.000014  -0.000000  -0.000000
    23  C   -0.081300  -0.000056  -0.000000  -0.000000  -0.000000  -0.000000
    24  H   -0.123780   0.000054  -0.000000  -0.000000  -0.000000  -0.000000
    25  H    0.218662   0.010438  -0.000000  -0.000000  -0.000000   0.000000
    26  F    0.017361   0.000000   0.000000  -0.000000   0.000000   0.000000
    27  F    0.001053  -0.000000  -0.000000   0.000000  -0.000000   0.000000
    28  F    0.009409  -0.000000   0.000000  -0.000000   0.000000  -0.000000
    29  S    1.664804   0.001131  -0.000000  -0.000000   0.000000   0.000000
    30  O    0.112759   0.000000   0.000000   0.000000  -0.000000   0.000000
    31  O    0.071766   0.000006  -0.000000   0.000000   0.000000   0.000000
    32  H   -0.025614   0.000005   0.000000  -0.000000   0.000000   0.000000
    33  O   -0.018538   0.016808   0.000000  -0.000000  -0.000000  -0.000000
    34  O   -0.101255   0.052219   0.000029  -0.000026   0.000034  -0.000066
    35  C    0.192733  -0.007836   0.000012   0.000038   0.000199   0.000203
    36  C   -0.090226   0.010476  -0.000008   0.000001  -0.000274  -0.000483
    37  C    0.008943   0.000122   0.000006   0.000017   0.000153   0.000486
    38  H    0.000778  -0.000002   0.000000   0.000000   0.000000  -0.000000
    39  H    0.001310  -0.000012   0.000000   0.000000  -0.000000   0.000000
    40  H   -0.000149  -0.000130   0.000000  -0.000000  -0.000011  -0.000012
    41  H    0.000114   0.000016  -0.000000  -0.000000   0.000000   0.000000
    42  H   -0.000099  -0.000097   0.000000  -0.000000  -0.000003  -0.000022
              19         20         21         22         23         24
     1  C   -0.000059   0.000136  -0.000065   0.089781   0.517181   0.030239
     2  N   -0.000048   0.000032  -0.000043  -0.020071  -0.000946  -0.001026
     3  C   -0.001657   0.008544  -0.001714   0.057216   0.023430   0.002464
     4  O   -0.000066   0.000025  -0.000059   0.003437   0.000120  -0.000012
     5  O   -0.000328  -0.000761  -0.000268   0.001540  -0.000022  -0.000001
     6  C   -0.045733   0.084123  -0.042334   0.007455   0.000354   0.000016
     7  C    0.016316  -0.129813   0.014190  -0.000453   0.000003   0.000000
     8  C    0.370353   0.384149   0.369822   0.000052   0.000001  -0.000000
     9  C   -0.000035   0.000059  -0.000023   0.299854   0.743966  -0.006091
    10  C   -0.000003   0.000003  -0.000002  -0.098563   1.760766  -0.011888
    11  C   -0.000000   0.000000  -0.000000   0.009946  -2.337197   0.098252
    12  C    0.000001  -0.000001   0.000000  -0.018755  -0.142001   0.318402
    13  C    0.000018  -0.000017   0.000012  -0.008727  -0.081300  -0.123780
    14  H   -0.000000  -0.000000  -0.000000  -0.000196  -0.000056   0.000054
    15  H   -0.000522  -0.000136   0.003556  -0.000018  -0.000000  -0.000000
    16  H    0.003648  -0.000153  -0.000612  -0.000014  -0.000000  -0.000000
    17  H   -0.007662  -0.003533   0.006077  -0.000000  -0.000000  -0.000000
    18  H    0.006089  -0.003552  -0.007642  -0.000000  -0.000000  -0.000000
    19  H    0.449693  -0.023192  -0.034427  -0.000000   0.000000   0.000000
    20  H   -0.023192   0.426101  -0.023160   0.000000  -0.000000   0.000000
    21  H   -0.034427  -0.023160   0.449468  -0.000000   0.000000   0.000000
    22  H   -0.000000   0.000000  -0.000000   0.349453   0.000213   0.000049
    23  C    0.000000  -0.000000   0.000000   0.000213   9.349468  -0.010516
    24  H    0.000000   0.000000   0.000000   0.000049  -0.010516   0.347702
    25  H   -0.000000   0.000000  -0.000000   0.000006  -0.000119  -0.002402
    26  F   -0.000000   0.000000  -0.000000   0.000001   0.142578  -0.001163
    27  F   -0.000000  -0.000000  -0.000000  -0.000000   0.284578  -0.000113
    28  F   -0.000000  -0.000000   0.000000   0.000010   0.165448   0.000227
    29  S   -0.000000   0.000000  -0.000000   0.002352  -4.558335   0.021883
    30  O   -0.000000   0.000000   0.000000   0.000235  -0.004478  -0.000049
    31  O   -0.000000   0.000000  -0.000000   0.000026   0.017070  -0.001062
    32  H    0.000000   0.000000   0.000000  -0.003021  -0.012681  -0.000002
    33  O    0.000000   0.000000   0.000000  -0.000017  -0.000060   0.000522
    34  O    0.000000   0.000001   0.000001  -0.000001  -0.000006  -0.000046
    35  C   -0.000000  -0.000003   0.000001   0.000186   0.000189  -0.000591
    36  C   -0.000004   0.000005  -0.000005   0.000022   0.000156   0.000046
    37  C    0.000005  -0.000012   0.000005   0.000001  -0.000003  -0.000011
    38  H    0.000000  -0.000000   0.000000  -0.000000  -0.000000   0.000000
    39  H    0.000000  -0.000000   0.000000   0.000000   0.000000   0.000000
    40  H   -0.000000   0.000000  -0.000000   0.000000   0.000000  -0.000000
    41  H    0.000000  -0.000000   0.000000  -0.000000  -0.000000   0.000000
    42  H   -0.000000   0.000000  -0.000000   0.000000   0.000000   0.000000
              25         26         27         28         29         30
     1  C    0.131575  -0.003102   0.002765  -0.020730  -2.293509  -0.107062
     2  N   -0.014575   0.000026   0.000001  -0.000009  -0.000656  -0.000187
     3  C    0.012643  -0.000133   0.000029  -0.000570  -0.238517  -0.007033
     4  O    0.000062  -0.000000  -0.000000   0.000000   0.000184   0.000002
     5  O    0.000243   0.000000  -0.000000   0.000000   0.000678   0.000001
     6  C    0.000899  -0.000001   0.000000  -0.000002  -0.006490  -0.000053
     7  C   -0.000092  -0.000000  -0.000000   0.000000  -0.000050   0.000000
     8  C    0.000008  -0.000000   0.000000  -0.000000  -0.000020  -0.000000
     9  C    0.022304  -0.010972  -0.002857  -0.042835  -1.884873  -0.091319
    10  C    0.022101  -0.025410  -0.007377  -0.135966  -3.204890  -0.662460
    11  C    0.014906  -0.116840   0.177828   0.034395  -2.876779  -0.448511
    12  C   -0.168539   0.016412  -0.021762   0.050244   3.679014   0.607020
    13  C    0.218662   0.017361   0.001053   0.009409   1.664804   0.112759
    14  H    0.010438   0.000000  -0.000000  -0.000000   0.001131   0.000000
    15  H   -0.000000   0.000000  -0.000000   0.000000  -0.000000   0.000000
    16  H   -0.000000  -0.000000   0.000000  -0.000000  -0.000000   0.000000
    17  H   -0.000000   0.000000  -0.000000   0.000000   0.000000  -0.000000
    18  H    0.000000   0.000000   0.000000  -0.000000   0.000000   0.000000
    19  H   -0.000000  -0.000000  -0.000000  -0.000000  -0.000000  -0.000000
    20  H    0.000000   0.000000  -0.000000  -0.000000   0.000000   0.000000
    21  H   -0.000000  -0.000000  -0.000000   0.000000  -0.000000   0.000000
    22  H    0.000006   0.000001  -0.000000   0.000010   0.002352   0.000235
    23  C   -0.000119   0.142578   0.284578   0.165448  -4.558335  -0.004478
[...]
 ,0.08559856,-0.08660941,-0.23623870,0.00964559,-0.00890514,-0.02163457
 ,-0.09098117,0.09198274,0.25858353,-0.00004365,-0.00000900,0.00001269,
 0.00000726,-0.00014949,0.00001379,0.00005832,0.00002100,-0.00001565,-0
 .00001963,-0.00003209,0.00001072,-0.00001829,-0.00000586,0.00000193,0.
 00000723,0.00000369,-0.00000194,-0.00000096,-0.00000024,0.00000113,0.0
 0000039,0.00000018,-0.00000033,0.00001310,-0.00000748,0.00000051,-0.00
 000397,-0.00000473,0.00000403,0.00001377,-0.00000607,-0.00000372,-0.00
 000828,-0.00000297,0.00000123,0.00001447,0.00002141,-0.00001937,-0.000
 02566,0.00022701,-0.00003739,-0.00000133,-0.00000111,0.00000021,-0.000
 00109,-0.00000067,0.00000087,-0.00000015,-0.00000002,-0.00000144,0.000
 00057,0.00000065,0.00000126,-0.00000033,-0.00000031,0.00000055,-0.0000
 0021,0.00000013,0.00000002,-0.00000039,-0.00000039,-0.00000019,-0.0000
 0010,-0.00000029,-0.00000048,0.00000030,-0.00000358,-0.00000456,0.0000
 0166,0.00000027,-0.00000130,-0.00000056,-0.00004725,0.00001338,0.00000
 039,0.00000170,0.00000149,0.00000214,0.00000011,0.00000188,0.,0.000000
 20,0.00000077,-0.00001671,0.00000185,0.00000354,0.00000344,-0.00000299
 ,-0.00000008,0.00000534,0.00000246,-0.00000172,0.00000121,-0.00000049,
 -0.00000062,0.00148955,0.00068977,-0.00027686,0.00011785,-0.00139626,0
 .00062680,-0.00316853,0.00037662,-0.00121592,-0.29841068,-0.06076296,0
 .00284905,-0.01294924,-0.00233416,-0.00001830,-0.01200862,-0.00286750,
 0.00067565,0.32354439,-0.00016392,0.00001492,0.00001448,-0.00004432,-0
 .00051574,0.00014278,0.00022393,0.00004451,-0.00003719,-0.00007291,-0.
 00009922,0.00002332,-0.00005615,0.00001663,0.00000743,0.00001962,0.000
 00828,-0.00000576,-0.00000154,-0.00000369,0.00000221,0.00000002,0.0000
 0249,-0.00000076,0.00004148,-0.00002429,0.00000547,-0.00001343,-0.0000
 1058,0.00000187,0.00003650,-0.00001348,-0.00000082,-0.00001605,0.00000
 233,-0.00000264,0.00007086,0.00003722,-0.00001830,0.00008136,0.0008756
 5,-0.00025285,-0.00000339,-0.00000101,0.00000039,-0.00000367,-0.000001
 59,0.00000091,0.,0.00000039,-0.00000011,0.00000085,0.00000009,-0.00000
 044,-0.00000019,-0.00000011,0.00000025,-0.00000136,-0.00000006,0.00000
 024,-0.00000029,-0.00000039,-0.00000016,-0.00000119,0.00000178,0.00000
 015,0.00000072,-0.00000728,-0.00001174,0.00000368,-0.00000226,-0.00000
 286,-0.00001966,-0.00003820,0.00000293,-0.00000004,0.00000470,0.000002
 82,0.00000579,-0.00000012,0.00000488,-0.00000005,0.00000080,0.00000186
 ,-0.00004094,0.00000952,0.00001073,0.00000792,-0.00000718,-0.00000129,
 0.00001173,0.00000275,-0.00000443,0.00000301,-0.00000105,-0.00000086,0
 .00361543,0.00011042,-0.00135187,0.00247351,-0.00666475,-0.00315657,-0
 .03614583,-0.00538197,0.00326549,-0.06359589,-0.06056212,0.00380314,0.
 01488476,0.00270518,-0.00024281,0.01338816,0.00312916,0.00026970,0.064
 89606,0.06613456,-0.00000767,0.00000841,0.00001311,-0.00000204,-0.0000
 3732,0.00002188,0.00000293,-0.00000605,-0.00000116,-0.00000233,-0.0000
 0023,-0.00000033,0.00000217,0.00000109,0.00000007,-0.00000105,0.000000
 61,-0.00000059,-0.00000069,-0.00000013,-0.00000024,-0.00000020,-0.0000
 0002,0.00000018,0.00000166,-0.00000251,-0.00000663,-0.00000127,0.00000
 067,0.00000188,-0.00000264,0.00000056,-0.00000319,0.00000639,0.0000061
 2,0.00001092,-0.00000339,-0.00002426,-0.00001457,0.00000613,0.00002297
 ,-0.00002978,0.00000003,0.00000040,0.00000012,0.00000014,0.,0.00000029
 ,0.00000018,0.00000067,0.00000027,0.00000062,0.00000076,0.00000034,0.0
 0000007,-0.00000011,0.00000007,0.00000019,-0.00000005,-0.00000012,0.00
 000014,0.00000010,0.00000002,-0.00000022,0.00000115,0.00000049,0.00000
 047,0.00000153,0.00000356,0.00000004,0.00000011,0.00000120,-0.00000274
 ,0.00001624,-0.00000381,-0.00000035,-0.00000121,-0.00000105,-0.0000005
 2,-0.00000006,-0.00000090,0.00000003,0.00000013,-0.00000094,0.00000353
 ,-0.00000219,0.00000103,-0.00000123,0.00000103,-0.00000095,-0.00000151
 ,0.00000121,-0.00000089,0.00000004,-0.00000009,0.00000004,-0.00040817,
 0.00195163,-0.00064500,0.00055495,-0.00073651,0.00013249,-0.00013811,-
 0.00261421,-0.00177887,0.00250049,0.00298475,-0.04430931,-0.02749114,-
 0.00628210,-0.00011850,0.02638602,0.00761289,-0.00036581,-0.00014187,-
 0.00419667,0.04875040,-0.00000508,0.00000296,0.00000190,0.00000741,0.0
 0000841,0.00000095,-0.00001826,0.00000383,0.00000021,0.00000369,-0.000
 00152,0.00000022,0.00000891,-0.00000268,0.00000117,0.00000154,0.000001
 41,-0.00000227,0.00000110,0.00000315,0.00000088,-0.00000206,-0.0000005
 0,0.00000017,0.00000076,-0.00000054,-0.00000083,-0.00000126,0.00000087
 ,0.,0.00000107,0.00000045,-0.00000044,-0.00000084,0.00000126,0.0000012
 2,0.00000123,-0.00000092,0.00000174,0.00000330,-0.00000568,0.00000923,
 0.00000051,0.00000075,-0.00000026,0.00000033,0.00000011,0.00000040,0.0
 0000140,0.00000423,-0.00000159,0.00000291,0.00000607,-0.00000193,-0.00
 000008,0.00000003,0.00000028,0.00000139,-0.00000085,-0.00000015,-0.000
 00003,0.00000022,-0.00000006,-0.00000005,0.00000028,-0.00000032,0.0000
 0025,-0.00000331,-0.00000014,0.00000044,-0.00000066,0.,-0.00000246,0.0
 0000335,-0.00000120,-0.00000010,0.00000187,0.00000059,-0.00000035,0.00
 000058,0.,0.00000013,0.00000077,-0.00000045,-0.00000076,-0.00000353,-0
 .00000050,0.00000006,0.00000219,0.00000042,0.00000030,0.00000126,-0.00
 000004,0.00000002,0.00000007,0.00000003,0.00014381,0.00071461,-0.00000
 749,0.00105944,-0.00008425,0.00097377,-0.00048853,-0.00198549,-0.00063
 882,-0.01373570,-0.00236138,0.00006944,-0.30731855,-0.05545907,0.00329
 905,0.00074348,-0.00006352,-0.00018080,0.00015437,0.00135297,-0.002816
 57,0.33186270,0.00001619,-0.00000076,-0.00000386,-0.00000971,0.0000368
 4,-0.00001369,-0.00000304,-0.00001338,0.00000737,0.00000254,0.00001327
 ,-0.00000223,0.00000113,0.00001377,-0.00000378,-0.00000346,-0.00000364
 ,0.00000108,0.00000128,-0.00000283,0.00000076,-0.00000274,0.00000131,-
 0.00000016,-0.00000449,0.00000148,-0.00000029,0.00000170,0.00000094,-0
 .00000054,-0.00000439,0.00000175,0.00000034,0.00000185,-0.00000100,-0.
 00000078,-0.00000303,-0.00000329,0.00000576,0.00000802,-0.00007199,0.0
 0001839,0.00000059,0.00000090,-0.00000008,0.00000079,0.00000172,-0.000
 00041,0.00000129,0.00000338,0.00000256,-0.00000193,0.00000261,-0.00000
 522,0.00000128,0.00000083,-0.00000076,0.00000089,-0.00000028,0.0000000
 3,0.00000111,0.00000074,-0.00000005,-0.00000012,0.00000011,0.00000017,
 0.00000042,0.00000074,0.00000145,-0.00000034,0.00000027,0.00000047,-0.
 00000137,0.00000277,-0.00000166,-0.00000018,-0.00000044,-0.00000043,-0
 .00000096,0.00000013,-0.00000068,-0.00000004,0.00000012,-0.00000029,0.
 00000474,-0.00000172,-0.00000077,-0.00000110,0.00000112,-0.00000006,-0
 .00000130,-0.00000031,0.00000048,-0.00000023,0.00000006,0.,-0.00020075
 ,0.00010491,0.00013595,0.00041473,-0.00019040,0.00029569,0.00040022,0.
 00003646,-0.00081375,0.01408771,0.00250758,-0.00073557,-0.05735413,-0.
 05967684,0.00018518,-0.00058008,0.00036102,-0.00050388,0.00133304,-0.0
 0060660,0.00230232,0.06129181,0.06057047,0.00000826,-0.00000101,-0.000
 01048,0.00000427,0.00003562,0.00000534,-0.00002025,-0.00000350,0.00000
 480,0.00000581,0.00000593,-0.00000264,0.00000603,-0.00000612,-0.000003
 65,-0.00000175,0.00000123,0.00000070,0.00000118,0.00000350,0.00000589,
 0.00000108,-0.00000108,-0.00000125,-0.00000254,0.00000269,0.00000257,0
 .00000101,0.00000052,-0.00000149,-0.00000286,0.00000200,0.00000105,0.0
 0000117,-0.00000094,-0.00000356,-0.00000175,0.00000001,0.00001000,-0.0
 0000065,-0.00005485,-0.00000777,0.00000060,-0.00000071,-0.00000031,0.0
 0000013,0.00000026,-0.00000047,-0.00000089,-0.00000235,-0.00000335,0.0
 0000121,0.00000132,-0.00000064,-0.00000013,0.00000010,-0.00000006,0.00
 000012,0.00000007,0.00000031,-0.00000099,-0.00000081,-0.00000007,-0.00
 000004,-0.00000018,-0.00000006,-0.00000004,-0.00000076,0.00000100,-0.0
 0000024,-0.00000006,0.00000007,0.00000159,0.00000024,-0.00000215,-0.00
 000012,0.00000046,-0.00000006,-0.00000071,0.00000018,-0.00000044,0.000
 00011,0.00000011,-0.00000044,0.00000356,-0.00000141,-0.00000102,-0.000
 00068,0.00000112,-0.00000009,-0.00000102,-0.00000035,0.00000045,-0.000
 00019,0.00000017,0.00000031,0.00022971,0.00021286,-0.00022105,0.000242
 16,0.00049027,0.00022176,0.00004985,-0.00124136,0.00076250,-0.02814101
 ,-0.00627464,0.00029142,0.00479973,0.00022172,-0.04809572,0.00064259,-
 0.00082906,0.00118526,-0.00259264,0.00286563,-0.00389489,-0.00112062,-
 0.00261654,0.05054234,0.00001357,-0.00000024,-0.00000304,0.00000125,0.
 00004347,-0.00000401,-0.00002395,-0.00000552,0.00000291,0.00000674,0.0
 0000797,-0.00000211,0.00000726,-0.00000379,0.00000142,-0.00000229,0.00
 000051,-0.00000018,0.00000023,0.00000186,-0.00000091,0.00000042,-0.000
 00076,0.00000016,-0.00000324,0.00000017,-0.00000207,0.00000036,0.00000
 223,-0.00000026,-0.00000398,0.00000225,-0.00000045,0.00000194,0.000000
 28,-0.00000191,-0.00000480,-0.00000322,0.00001185,0.00000514,-0.000069
 01,0.00000596,0.00000043,0.00000009,-0.00000033,0.00000057,-0.00000013
 ,0.00000026,0.00000012,0.00000024,-0.00000085,0.00000087,0.00000058,0.
 00000093,-0.00000033,-0.00000026,0.00000021,0.00000012,0.00000006,-0.0
 0000012,-0.00000013,-0.00000007,0.00000005,0.00000004,0.,0.00000017,0.
 00000067,0.00000082,0.00000115,-0.00000019,0.00000055,0.00000065,0.000
 00399,0.00000090,-0.00000178,-0.00000027,-0.00000049,-0.00000024,-0.00
 000111,0.00000005,-0.00000056,-0.00000026,-0.00000018,-0.00000005,0.00
 000606,-0.00000118,-0.00000187,-0.00000135,0.00000126,0.00000023,-0.00
 000194,-0.00000067,0.00000091,-0.00000028,0.00000009,0.00000023,-0.000
 22954,0.00184291,-0.00095099,0.00052707,0.00008643,0.00053852,-0.00100
 791,-0.00145165,-0.00265582,0.00104543,0.01711534,0.00082480,-0.051386
 91,-0.02960508,0.00045526,0.00037701,-0.00057305,0.00033384,0.00042258
 ,-0.00020041,0.00087777,-0.00132272,-0.03178433,-0.00060685,0.05074913
 ,-0.00005383,0.00000194,0.00001027,0.00000431,-0.00015856,0.00001853,0
 .00007146,0.00002895,-0.00001774,-0.00002283,-0.00003832,0.00001143,-0
 .00002331,-0.00000328,0.00000553,0.00001135,0.00000401,-0.00000229,-0.
 00000111,-0.00000200,-0.00000032,0.00000135,0.00000048,0.00000011,0.00
 001445,-0.00000987,0.00000084,-0.00000491,-0.00000473,0.00000218,0.000
 01434,-0.00000684,-0.00000083,-0.00000621,0.00000178,0.00000142,0.0000
 1447,0.00001130,-0.00001097,-0.00000371,0.00030503,-0.00003556,-0.0000
 0204,-0.00000094,-0.00000017,-0.00000179,-0.00000076,0.00000099,0.0000
 0027,0.00000023,-0.00000069,0.00000051,0.00000047,0.00000038,-0.000000
 40,-0.00000033,0.00000065,-0.00000126,0.00000065,0.00000004,-0.0000005
 5,-0.00000045,-0.00000037,-0.00000022,0.00000044,-0.00000014,-0.000001
 66,-0.00000038,-0.00000500,0.00000056,0.00000003,-0.00000039,-0.000016
 76,0.00000238,0.00000632,0.00000066,0.00000021,0.00000079,0.00000374,-
 0.00000066,0.00000228,0.00000033,-0.00000033,0.00000109,-0.00002022,0.
 00000704,0.00000435,0.00000421,-0.00000541,-0.00000033,0.00000620,0.00
 000128,-0.00000205,0.00000117,-0.00000044,-0.00000019,0.00055512,-0.00
 202266,0.00141162,0.00013687,-0.00116756,0.00043574,0.00075920,0.00301
 088,0.00068048,-0.00191466,-0.01132400,-0.00138744,-0.02861657,-0.3157
 0735,-0.00077763,-0.00025039,0.00051751,0.00023134,0.00034839,0.000402
 03,-0.00022291,-0.00083016,-0.00506035,-0.00025085,0.03101414,0.340999
 84,0.00003195,-0.00000287,-0.00001074,-0.00000064,0.00009461,0.0000024
 2,-0.00004527,-0.00001749,0.00000783,0.00001348,0.00002141,-0.00000517
 ,0.00001571,0.00000027,-0.00000215,-0.00000608,-0.00000118,0.00000025,
 0.00000024,0.00000042,-0.00000006,-0.00000030,-0.00000068,-0.00000001,
 -0.00000796,0.00000376,0.00000092,0.00000208,0.00000298,-0.00000228,-0
 .00000773,0.00000344,0.00000040,0.00000255,0.00000125,0.00000103,-0.00
 000879,-0.00000812,0.00001009,-0.00000033,-0.00015606,0.00001025,0.000
 00137,0.00000078,-0.00000019,0.00000109,0.00000014,-0.00000022,-0.0000
 0014,0.00000001,0.00000027,0.00000018,-0.00000035,0.00000040,-0.000000
 02,0.00000002,0.00000005,0.00000046,0.,-0.00000008,0.00000015,0.000000
 16,0.,0.00000005,-0.00000006,-0.00000001,0.00000105,-0.00000024,0.0000
 0245,-0.00000049,0.,0.00000025,0.00000921,0.00000377,-0.00000611,-0.00
 000038,0.00000004,-0.00000031,-0.00000200,0.00000042,-0.00000117,-0.00
 000021,0.00000030,-0.00000046,0.00001060,-0.00000372,-0.00000314,-0.00
 000220,0.00000327,0.00000040,-0.00000320,-0.00000077,0.00000131,-0.000
 00070,0.00000025,0.00000027,-0.00057642,0.00330506,-0.00164305,0.00059
 497,0.00028193,0.00108789,-0.00317982,-0.00280647,-0.00363337,0.003893
 25,0.02916575,0.00012553,0.00033518,-0.00232172,-0.04782472,0.00083503
 ,-0.00059658,0.00096899,0.00022075,-0.00079733,0.00106587,0.00026445,0
 .00092951,-0.00138590,0.00232492,-0.00003188,0.05004070,0.00001485,-0.
 00000241,-0.00000289,-0.00000196,0.00003505,0.00000068,-0.00001435,-0.
 00000464,0.00000557,0.00000470,0.00000749,-0.00000370,0.00000437,-0.00
 000081,-0.00000172,-0.00000281,-0.00000081,0.00000075,0.00000165,0.000
 00174,0.00000203,0.00000024,0.00000063,-0.00000070,-0.00000365,0.00000
 139,-0.00000122,0.00000159,0.00000119,0.00000046,-0.00000342,0.0000012
 0,-0.00000041,-0.00000021,-0.00000019,-0.00000209,-0.00000303,-0.00000
 098,0.00000362,-0.00000324,-0.00005969,-0.00000297,0.00000033,-0.00000
 046,-0.00000003,0.00000003,0.00000033,-0.00000036,-0.00000054,-0.00000
 029,-0.00000104,0.00000011,0.00000110,-0.00000042,0.00000017,0.0000002
 3,-0.00000020,0.00000033,-0.00000015,0.00000026,-0.00000036,-0.0000005
 2,0.,0.00000007,-0.00000018,0.00000031,-0.00000011,0.00000220,0.000001
 38,-0.00000013,0.00000030,0.00000013,0.00000289,0.00000396,0.00000306,
 -0.00000003,-0.00000142,-0.00000067,-0.00000069,-0.00000022,-0.0000006
 2,0.00000024,-0.00000067,-0.00000035,0.00000466,0.00000086,-0.00000043
 ,-0.00000104,-0.00000019,0.00000014,-0.00000104,-0.00000087,0.00000058
 ,-0.00000024,0.00000001,0.00000025,-0.00019514,-0.00003241,0.00002876,
 -0.00005318,0.00047145,-0.00025760,0.00050396,-0.00022147,0.00065807,0
 .00675073,-0.00688019,-0.01488604,-0.09087726,0.03775584,0.09191664,-0
 .00051429,0.00172935,-0.00295785,0.00082003,-0.00073713,0.00067974,-0.
 01110372,0.01238638,0.02649579,0.00082023,-0.00119050,-0.00471605,0.09
 384928,0.00001042,0.00000115,0.00000664,-0.00000407,0.00002493,-0.0000
 1321,-0.00000855,-0.00000297,0.00000085,0.00000328,0.00000468,-0.00000
 117,0.00000271,0.00000340,-0.00000292,-0.00000158,-0.00000086,0.000000
 24,0.00000028,0.00000031,0.00000008,0.00000042,0.00000088,-0.00000041,
 -0.00000274,0.00000031,-0.00000256,0.00000049,0.00000170,0.00000114,-0
 .00000135,-0.00000057,-0.00000248,0.00000123,-0.00000068,0.00000320,-0
 .00000498,0.00000177,-0.00000563,0.00000656,-0.00005175,0.00001866,0.0
 0000015,-0.00000011,0.00000024,0.00000016,-0.00000011,-0.00000062,-0.0
 0000031,-0.00000023,0.00000018,0.00000045,0.00000016,0.00000041,0.,0.0
 0000019,0.00000001,-0.00000014,-0.00000020,0.00000012,-0.00000003,0.00
 000004,0.00000007,0.00000003,0.,0.00000041,0.00000076,0.00000073,0.000
 00137,-0.00000062,0.00000050,0.00000016,0.00000048,-0.00000291,-0.0000
 0353,-0.00000029,-0.00000017,-0.00000023,-0.00000049,-0.00000030,-0.00
 000027,-0.00000048,0.00000003,-0.00000025,0.00000347,-0.00000040,0.000
 00020,-0.00000054,0.00000091,-0.00000051,-0.00000158,-0.00000016,-0.00
 000038,-0.00000026,0.00000013,-0.00000014,0.00024002,0.00012498,-0.000
 11478,0.00006519,-0.00024150,0.00081031,-0.00099371,-0.00009083,-0.000
 22335,-0.00641387,0.00499593,0.01219271,0.03849252,-0.08220960,-0.0833
 0422,0.00118170,-0.00064769,0.00239782,-0.00028860,0.00043827,-0.00078
 872,-0.00259946,0.00196852,0.00744055,0.01357782,-0.00978126,-0.027074
 05,-0.04326449,0.08546279,0.00000819,-0.00000134,-0.00000536,-0.000003
 55,0.00000804,0.00000752,0.00000056,-0.00000123,-0.00000341,-0.0000000
 5,0.00000125,0.00000126,0.00000039,0.00000185,0.00000158,0.00000039,-0
 .00000001,-0.00000191,-0.00000086,0.00000059,-0.00000222,-0.00000065,-
 0.00000017,0.00000041,-0.00000175,0.00000109,0.00000220,0.00000062,-0.
 00000039,-0.00000088,-0.00000206,0.00000175,0.00000180,0.00000086,0.00
 000119,-0.00000022,-0.00000335,0.00000289,0.00000365,0.00000285,-0.000
 00592,0.00000045,0.00000014,0.00000104,0.00000059,-0.00000008,-0.00000
 055,0.00000029,-0.00000007,0.00000014,0.00000104,0.00000054,-0.0000009
 2,0.00000102,-0.00000003,-0.00000025,-0.00000002,0.00000013,-0.0000003
 3,-0.00000017,0.00000047,0.00000056,0.00000042,0.00000016,-0.00000051,
 -0.00000085,-0.00000015,0.00000029,-0.00000383,-0.00000162,-0.00000015
 ,-0.00000032,-0.00000207,0.00000868,-0.00000298,0.00000014,0.00000022,
 0.00000100,0.00000028,0.00000010,0.00000063,-0.00000030,-0.00000092,0.
 00000172,0.00000024,0.00000279,-0.00000487,-0.00000005,-0.00000135,0.0
 0000128,-0.00000019,-0.00000200,0.00000332,-0.00000008,-0.00000004,-0.
 00000012,-0.00006383,0.00080909,0.00015110,0.00038661,0.00007252,0.001
 47303,-0.00032330,-0.00235311,-0.00048319,0.01051642,-0.00908850,-0.02
 257720,0.09064046,-0.08127881,-0.24242666,-0.00308727,0.00276025,-0.00
 315052,-0.00010786,-0.00034119,0.00117335,0.00014836,0.00081797,0.0006
 0179,-0.00114776,-0.00007863,0.00119157,-0.09696088,0.08866404,0.26404
 370\\0.00000418,0.00000154,-0.00000073,0.00000137,0.00000919,-0.000000
 58,-0.00000013,-0.00000271,-0.00000078,0.00000016,0.00000126,0.0000023
 3,0.00000083,0.00000053,0.00000056,-0.00000058,-0.00000130,0.00000134,
 0.00000003,-0.00000123,0.00000089,0.00000032,-0.00000180,0.00000093,-0
 .00000011,0.00000180,0.00000038,0.00000515,-0.00000160,0.00000107,-0.0
 0000027,0.00000908,-0.00000192,-0.00000169,0.00000064,-0.00000049,-0.0
 0000089,-0.00001514,0.00000184,0.00000027,-0.00000819,-0.00000068,0.00
 000056,-0.00000091,0.00000096,0.00000036,-0.00000135,0.00000030,-0.000
 00013,-0.00000134,0.00000018,-0.00000028,-0.00000175,0.00000089,0.0000
 0029,-0.00000163,0.00000061,-0.00000001,-0.00000242,0.00000081,0.00000
 026,-0.00000182,0.00000127,0.00000184,-0.00000031,-0.00000115,0.000001
 85,0.00000581,0.00000280,-0.00000023,0.00000157,-0.00000040,-0.0000042
 2,0.00001304,-0.00000222,0.00000186,-0.00000163,-0.00000127,-0.0000036
 3,0.00000329,-0.00000048,0.00000539,0.00000419,-0.00000409,-0.00000289
 ,-0.00000449,-0.00000219,0.00000187,-0.00000477,-0.00000185,0.00000034
 ,0.00000279,0.00000424,0.00000112,0.00000089,-0.00000024,-0.00000463,0
 .00000534,-0.00000684,0.00000322,0.00000219,0.00000532,-0.00000201,-0.
 00000688,0.00000095,0.00000015,0.00000127,0.00000137,-0.00000233,-0.00
 000143,-0.00000119,-0.00000070,0.00000002,-0.00000045,-0.00000133,-0.0
 0000017,-0.00000047,-0.00000144,-0.00000078,-0.00000043,-0.00000228,-0
 .00000068,-0.00000044,-0.00000164,-0.00000011,-0.00000014\\\@


 EXPERIMENTALISTS THINK SILICON IS REALLY FUN TO USE
     ITS PLACE IN NOVEL COMPOUNDS IS CERTAIN TO AMUSE
 THEY SIT ALL DAY IN LABORATORIES MAKING ALL THIS SLUDGE
     "LOADED WITH THE SILICON THEY SAY", TO ME IT LOOKS LIKE FUDGE.
 FOR HAPPY THOUGH THEY BE WITH CRUD, I'D LIKE TO KNOW A LITTLE
      ABOUT THE PI BONDS ON THE EDGE AND SIGMAS IN THE MIDDLE.

 SO LETS DERIVE A WAVEFUNCTION.....6-31G*
     USE AN OPTIMAL GEOMETRY AND SEE WHERE ELECTRONS ARE.
 BUT WHAT OF CORRELATION?  ASKS THE WIRY LITTLE SKEPTIC.
     WE'LL THROW IN PERTURBATION AS AN ELECTRON ANTISEPTIC.
 AND WHEN THE PROGRAM GIVES US ANSWERS IN THEM WE CAN TRUST
     SINCE NOBODY CAN MAKE THE STUFF, WE HAVE NO CHOICE, WE MUST.

 SO THEORY GUYS HAVE GOT IT MADE, IN ROOMS FREE OF POLLUTION.
     INSTEAD OF PROBLEMS WITH THE REFLUX, THEY HAVE ONLY SOLUTIONS.
 AND WHEN THE FEDS ANNOUNCE THE LIST OF CARCINOGENIC TERRORS,
     THE THEORISTS SIT SAFELY AT THEIR TERMINALS FIXING ERRORS.
 IN OTHER WORDS, EXPERIMENTALISTS WILL LIKELY DIE OF CANCER
     FROM WORKING HARD YET FRUITLESSLY...TILL THEORY GIVES THE ANSWER.
          -- THOMAS A. HOLME, 1983
 Job cpu time:       0 days 10 hours 59 minutes 29.0 seconds.
 Elapsed time:       0 days 10 hours 59 minutes 29.2 seconds.
 File lengths (MBytes):  RWF=   1695 Int=      0 D2E=      0 Chk=     48 Scr=      1
 Normal termination of Gaussian 16 at Tue Mar 23 05:08:10 2021.
