 Entering Gaussian System, Link 0=/apps/gaussian/g16c01/g16/g16
 Initial command:
 /apps/gaussian/g16c01/g16/l1.exe "/jobfs/21661316.gadi-pbs/Gau-643950.inp" -scrdir="/jobfs/21661316.gadi-pbs/"
 Entering Link 1 = /apps/gaussian/g16c01/g16/l1.exe PID=    643951.
  
 Copyright (c) 1988-2019, Gaussian, Inc.  All Rights Reserved.
  
 This is part of the Gaussian(R) 16 program.  It is based on
 the Gaussian(R) 09 system (copyright 2009, Gaussian, Inc.),
 the Gaussian(R) 03 system (copyright 2003, Gaussian, Inc.),
 the Gaussian(R) 98 system (copyright 1998, Gaussian, Inc.),
 the Gaussian(R) 94 system (copyright 1995, Gaussian, Inc.),
 the Gaussian 92(TM) system (copyright 1992, Gaussian, Inc.),
 the Gaussian 90(TM) system (copyright 1990, Gaussian, Inc.),
 the Gaussian 88(TM) system (copyright 1988, Gaussian, Inc.),
 the Gaussian 86(TM) system (copyright 1986, Carnegie Mellon
 University), and the Gaussian 82(TM) system (copyright 1983,
 Carnegie Mellon University). Gaussian is a federally registered
 trademark of Gaussian, Inc.
  
 This software contains proprietary and confidential information,
 including trade secrets, belonging to Gaussian, Inc.
  
 This software is provided under written license and may be
 used, copied, transmitted, or stored only in accord with that
 written license.
  
 The following legend is applicable only to US Government
 contracts under FAR:
  
                    RESTRICTED RIGHTS LEGEND
  
 Use, reproduction and disclosure by the US Government is
 subject to restrictions as set forth in subparagraphs (a)
 and (c) of the Commercial Computer Software - Restricted
 Rights clause in FAR 52.227-19.
  
 Gaussian, Inc.
 340 Quinnipiac St., Bldg. 40, Wallingford CT 06492
  
  
 ---------------------------------------------------------------
 Warning -- This program may not be used in any manner that
 competes with the business of Gaussian, Inc. or will provide
 assistance to any competitor of Gaussian, Inc.  The licensee
 of this program is prohibited from giving any competitor of
 Gaussian, Inc. access to this program.  By using this program,
 the user acknowledges that Gaussian, Inc. is engaged in the
 business of creating and licensing software in the field of
 computational chemistry and represents and warrants to the
 licensee that it is not a competitor of Gaussian, Inc. and that
 it will not use this program in any manner prohibited above.
 ---------------------------------------------------------------
  

 Cite this work as:
 Gaussian 16, Revision C.01,
 M. J. Frisch, G. W. Trucks, H. B. Schlegel, G. E. Scuseria, 
 M. A. Robb, J. R. Cheeseman, G. Scalmani, V. Barone, 
 G. A. Petersson, H. Nakatsuji, X. Li, M. Caricato, A. V. Marenich, 
 J. Bloino, B. G. Janesko, R. Gomperts, B. Mennucci, H. P. Hratchian, 
 J. V. Ortiz, A. F. Izmaylov, J. L. Sonnenberg, D. Williams-Young, 
 F. Ding, F. Lipparini, F. Egidi, J. Goings, B. Peng, A. Petrone, 
 T. Henderson, D. Ranasinghe, V. G. Zakrzewski, J. Gao, N. Rega, 
 G. Zheng, W. Liang, M. Hada, M. Ehara, K. Toyota, R. Fukuda, 
 J. Hasegawa, M. Ishida, T. Nakajima, Y. Honda, O. Kitao, H. Nakai, 
 T. Vreven, K. Throssell, J. A. Montgomery, Jr., J. E. Peralta, 
 F. Ogliaro, M. J. Bearpark, J. J. Heyd, E. N. Brothers, K. N. Kudin, 
 V. N. Staroverov, T. A. Keith, R. Kobayashi, J. Normand, 
 K. Raghavachari, A. P. Rendell, J. C. Burant, S. S. Iyengar, 
 J. Tomasi, M. Cossi, J. M. Millam, M. Klene, C. Adamo, R. Cammi, 
 J. W. Ochterski, R. L. Martin, K. Morokuma, O. Farkas, 
 J. B. Foresman, and D. J. Fox, Gaussian, Inc., Wallingford CT, 2019.
 
 ******************************************
 Gaussian 16:  ES64L-G16RevC.01  3-Jul-2019
                28-Apr-2021 
 ******************************************
 %NprocShared=32
 Will use up to   32 processors via shared memory.
 %Mem=1194000MB
 %chk=CP21CA_carboxy.DSDPBEP86_AUG-cc-PVTZ.chk
 ----------------------------------------------------------------------
 # DSDPBEP86/AUG-cc-PVTZ SCF=Tight INT(grid=ultrafine) Pop=NBO MaxDisk=
 1400000MB
 ----------------------------------------------------------------------
 1/38=1,172=1/1;
 2/12=2,17=6,18=5,40=1/2;
 3/5=16,6=1,7=10,11=9,25=1,30=1,74=-77,75=-5/1,2,3;
 4//1;
 5/5=2,32=2,38=5/2;
 8/10=1/1;
 9/16=-3/6;
 6/7=2,8=2,9=2,10=2,40=1/1,7;
 99/5=1,9=1/99;
 ------------------------------------
 CP21CA_carboxy.DSDPBEP86_AUG-cc-PVTZ
 ------------------------------------
 Symbolic Z-matrix:
 Charge = -1 Multiplicity = 1
 C                    -5.0666    0.59891  -0.59209 
 N                    -3.85559   0.0225   -0.93337 
 C                    -2.64909   0.65042  -0.93394 
 O                    -2.41257   1.80659  -0.64655 
 O                    -1.69088  -0.22166  -1.31023 
 C                    -5.21638   1.93681  -0.17614 
 C                    -6.47219   2.42162   0.14474 
 C                    -7.57924   1.57998   0.06022 
 C                    -7.44754   0.24886  -0.35009 
 C                    -6.19952  -0.23911  -0.67471 
 H                    -3.86906  -0.99899  -1.23056 
 H                    -4.35269   2.57854  -0.10451 
 C                    -9.74934   2.80881  -1.26575 
 H                    -8.31736  -0.39595  -0.40323 
 H                    -6.08676  -1.27698  -0.99264 
 F                    -9.80845   1.79704  -2.12143 
 F                    -10.9625   3.33695  -1.14147 
 F                    -8.92995   3.73435  -1.75266 
 S                    -9.16054   2.22515   0.40694 
 O                    -9.06057   3.44563   1.18788 
 O                    -10.09138   1.1705    0.76077 
 H                    -6.59859   3.44711   0.47245 
 O                    -5.94112  -3.22904  -1.62837 
 O                    -3.80999  -2.53057  -1.70815 
 C                    -4.72917  -3.38568  -1.85293 
 C                    -4.29492  -4.7745   -2.36129 
 C                    -2.80677  -4.90676  -2.65597 
 H                    -4.89522  -4.99126  -3.25055 
 H                    -4.61326  -5.50227  -1.60779 
 H                    -2.49779  -4.18492  -3.41401 
 H                    -2.55608  -5.91238  -3.00953 
 H                    -2.21674  -4.69408  -1.76308 
 C                    -0.3721    0.30145  -1.40856 
 C                    -0.15375   1.04062  -2.71889 
 C                     1.28721   1.52822  -2.83958 
 H                     0.27691  -0.57407  -1.34545 
 H                    -0.17082   0.95696  -0.55769 
 H                    -0.84554   1.88489  -2.76432 
 H                    -0.40255   0.36754  -3.54418 
 H                     1.53769   2.21855  -2.02952 
 H                     1.45225   2.05194  -3.78313 
 H                     1.99357   0.69412  -2.79571 
 
                          Input orientation:                          
 ---------------------------------------------------------------------
 Center     Atomic      Atomic             Coordinates (Angstroms)
 Number     Number       Type             X           Y           Z
 ---------------------------------------------------------------------
      1          6           0       -5.066598    0.598914   -0.592093
      2          7           0       -3.855586    0.022500   -0.933367
      3          6           0       -2.649089    0.650416   -0.933944
      4          8           0       -2.412568    1.806594   -0.646553
      5          8           0       -1.690883   -0.221659   -1.310225
      6          6           0       -5.216383    1.936811   -0.176139
      7          6           0       -6.472192    2.421622    0.144738
      8          6           0       -7.579239    1.579980    0.060220
      9          6           0       -7.447541    0.248862   -0.350092
     10          6           0       -6.199516   -0.239111   -0.674709
     11          1           0       -3.869061   -0.998991   -1.230562
     12          1           0       -4.352686    2.578538   -0.104514
     13          6           0       -9.749344    2.808807   -1.265747
     14          1           0       -8.317363   -0.395953   -0.403227
     15          1           0       -6.086759   -1.276976   -0.992643
     16          9           0       -9.808446    1.797036   -2.121434
     17          9           0      -10.962505    3.336946   -1.141474
     18          9           0       -8.929946    3.734348   -1.752655
     19         16           0       -9.160538    2.225147    0.406944
     20          8           0       -9.060567    3.445629    1.187877
     21          8           0      -10.091378    1.170496    0.760767
     22          1           0       -6.598588    3.447111    0.472450
     23          8           0       -5.941118   -3.229039   -1.628368
     24          8           0       -3.809988   -2.530573   -1.708148
     25          6           0       -4.729174   -3.385676   -1.852933
     26          6           0       -4.294915   -4.774498   -2.361288
     27          6           0       -2.806770   -4.906764   -2.655971
     28          1           0       -4.895219   -4.991264   -3.250550
     29          1           0       -4.613258   -5.502272   -1.607790
     30          1           0       -2.497788   -4.184918   -3.414010
     31          1           0       -2.556077   -5.912380   -3.009530
     32          1           0       -2.216743   -4.694078   -1.763079
     33          6           0       -0.372095    0.301448   -1.408563
     34          6           0       -0.153751    1.040620   -2.718890
     35          6           0        1.287208    1.528224   -2.839580
     36          1           0        0.276912   -0.574065   -1.345450
     37          1           0       -0.170823    0.956964   -0.557686
     38          1           0       -0.845542    1.884889   -2.764318
     39          1           0       -0.402546    0.367541   -3.544179
     40          1           0        1.537691    2.218545   -2.029519
     41          1           0        1.452251    2.051942   -3.783134
     42          1           0        1.993570    0.694119   -2.795711
 ---------------------------------------------------------------------
                    Distance matrix (angstroms):
                    1          2          3          4          5
     1  C    0.000000
     2  N    1.383933   0.000000
     3  C    2.442102   1.360114   0.000000
     4  O    2.916391   2.312478   1.214613   0.000000
     5  O    3.547465   2.210786   1.349170   2.252798   0.000000
     6  C    1.409051   2.467742   2.969862   2.845984   4.286525
     7  C    2.416792   3.710084   4.349350   4.181501   5.653740
     8  C    2.775134   4.156748   5.114570   5.219710   6.308468
     9  C    2.418675   3.646037   4.850491   5.278766   5.855114
    10  C    1.411600   2.372626   3.669331   4.304263   4.553236
    11  H    2.096434   1.063932   2.072885   3.214614   2.314099
    12  H    2.160166   2.732661   2.703304   2.157258   4.047226
    13  C    5.221642   6.527662   7.428483   7.430755   8.609559
    14  H    3.404835   4.512606   5.788426   6.306903   6.690536
    15  H    2.172586   2.582689   3.941555   4.809143   4.531918
    16  F    5.124402   6.324320   7.347193   7.541510   8.404047
    17  F    6.523830   7.844562   8.739187   8.699905   9.932528
    18  F    5.109140   6.340203   7.044862   6.885921   8.261342
    19  S    4.516974   5.898356   6.832036   6.842524   8.045575
    20  O    5.217650   6.580981   7.309062   7.088544   8.602427
    21  O    5.235012   6.563009   7.650502   7.832579   8.763300
    22  H    3.404772   4.607422   5.039642   4.633166   6.381487
    23  O    4.061019   3.924918   5.135158   6.226735   5.216326
    24  O    3.552229   2.668436   3.473581   4.678759   3.159120
    25  C    4.192914   3.636540   4.632637   5.812201   4.420040
    26  C    5.709562   5.024258   5.846002   7.056510   5.349212
    27  C    6.299119   5.325883   5.820008   7.018713   5.000645
    28  H    6.192484   5.620321   6.499255   7.691244   6.064798
    29  H    6.201744   5.617119   6.493658   7.693279   6.042657
    30  H    6.119399   5.069475   5.436366   6.600326   4.558995
    31  H    7.385369   6.420435   6.883822   8.073836   6.001709
    32  H    6.124430   5.061654   5.425679   6.598766   4.525941
    33  C    4.774250   3.526802   2.351966   2.647575   1.422150
    34  C    5.371633   4.234175   3.092734   3.159676   2.437305
    35  C    6.803356   5.687633   4.460541   4.309895   3.777570
    36  H    5.522366   4.195622   3.198465   3.659139   1.999412
    37  H    4.908971   3.819926   2.525341   2.398997   2.065441
    38  H    4.918293   3.985127   2.850785   2.635646   2.695650
    39  H    5.524647   4.342681   3.455474   3.808845   2.645282
    40  H    6.950255   5.925504   4.603091   4.205573   4.110434
    41  H    7.401988   6.357117   5.186825   4.983488   4.600416
    42  H    7.396686   6.175113   5.002236   5.026980   4.076825
                    6          7          8          9         10
     6  C    0.000000
     7  C    1.383857   0.000000
     8  C    2.401309   1.393219   0.000000
     9  C    2.803123   2.432499   1.399134   0.000000
    10  C    2.439213   2.797382   2.398510   1.378789   0.000000
    11  H    3.397943   4.513129   4.699216   3.890743   2.513445
    12  H    1.078386   2.139873   3.381553   3.881472   3.416877
    13  C    4.742927   3.588747   2.824458   3.562309   4.715974
    14  H    3.887086   3.412280   2.159611   1.084067   2.140930
    15  H    3.428215   3.888679   3.390902   2.143077   1.091311
    16  F    4.989063   4.081204   3.126674   3.332922   4.388995
    17  F    5.992509   4.759734   3.997184   4.745263   5.974288
    18  F    4.416683   3.371039   3.122856   4.038976   4.940202
    19  S    3.997434   2.708239   1.742689   2.722713   4.001274
    20  O    4.349117   2.972610   2.635638   3.896989   5.023161
    21  O    5.023007   3.878571   2.639940   3.012191   4.381115
    22  H    2.147595   1.083973   2.148904   3.409706   3.881168
    23  O    5.414815   5.946085   5.353638   3.999887   3.148953
    24  O    4.927730   5.919861   5.850728   4.775077   3.468232
    25  C    5.601596   6.383848   6.036618   4.780995   3.667558
    26  C    7.117981   7.924951   7.551813   6.262436   5.200172
    27  C    7.667485   8.659361   8.498941   7.309877   6.101074
    28  H    7.586395   8.304560   7.832395   6.510447   5.560495
    29  H    7.599562   8.325569   7.857327   6.533797   5.575636
    30  H    7.439767   8.491581   8.433592   7.317517   6.064318
    31  H    8.758718   9.733497   9.528431   8.304212   7.135266
    32  H    7.448819   8.507749   8.452490   7.334196   6.074023
    33  C    5.259316   6.642219   7.465581   7.154373   5.898269
    34  C    5.735764   7.073205   7.946839   7.709569   6.509045
    35  C    7.039712   8.361375   9.328740   9.172249   7.991318
    36  H    6.152080   7.532942   8.266495   7.831674   6.519679
    37  H    5.153965   6.507371   7.460200   7.314036   6.147310
    38  H    5.079924   6.356877   7.308466   7.217442   6.127225
    39  H    6.081064   7.393779   8.121985   7.736164   6.496672
    40  H    7.009416   8.302221   9.375137   9.350643   8.230429
    41  H    7.582502   8.852211   9.826593   9.707892   8.570925
    42  H    7.771091   9.126863  10.028946   9.762882   8.514471
                   11         12         13         14         15
    11  H    0.000000
    12  H    3.781612   0.000000
    13  C    7.005590   5.524980   0.000000
    14  H    4.564595   4.965430   3.614554   0.000000
    15  H    2.247679   4.319811   5.493882   2.469658   0.000000
    16  F    6.624780   5.868903   1.326414   3.159868   4.957285
    17  F    8.314158   6.733511   1.328959   4.634255   6.714412
    18  F    6.949074   5.000357   1.328577   4.388120   5.811600
    19  S    6.409073   4.847877   1.866881   2.870102   4.865370
    20  O    7.249498   4.958453   2.626829   4.223945   5.991761
    21  O    6.883988   5.971924   2.628271   2.637380   5.010144
    22  H    5.488022   2.476163   3.654589   4.300016   4.972470
    23  O    3.069982   6.210733   7.147704   3.895368   2.058132
    24  O    1.605404   5.382302   7.998790   5.155177   2.695762
    25  C    2.612165   6.226601   7.994905   4.890316   2.651367
    26  C    3.964133   7.691782   9.405186   6.259852   4.161316
    27  C    4.293128   8.057887  10.471967   7.469197   5.167238
    28  H    4.590381   8.215461   9.399100   6.398063   4.507089
    29  H    4.579921   8.223578   9.776012   6.422294   4.516939
    30  H    4.098533   7.754853  10.301082   7.568919   5.215348
    31  H    5.387955   9.152192  11.438662   8.391437   6.166078
    32  H    4.082573   7.759126  10.643341   7.585555   5.219883
    33  C    3.735184   4.767682   9.707731   8.038927   5.943214
    34  C    4.492067   5.179885   9.864762   8.606428   6.599376
    35  C    5.963460   6.355482  11.221511  10.093862   8.102820
    36  H    4.169275   5.736899  10.581871   8.647605   6.412087
    37  H    4.237391   4.508087   9.781551   8.259561   6.338609
    38  H    4.450937   4.455982   9.076180   8.161195   6.372329
    39  H    4.385996   5.685369   9.925405   8.549435   6.443993
    40  H    6.342227   6.207398  11.328236  10.324850   8.451391
    41  H    6.643807   6.892521  11.505903  10.623621   8.700873
    42  H    6.299742   7.146226  12.029494  10.640845   8.510462
                   16         17         18         19         20
    16  F    0.000000
    17  F    2.159513   0.000000
    18  F    2.158920   2.159344   0.000000
    19  S    2.644949   2.623124   2.644755   0.000000
    20  O    3.772098   3.009162   2.957559   1.452386   0.000000
    21  O    2.963053   3.011791   3.773533   1.450497   2.534013
    22  H    4.444566   4.654101   3.235557   2.839202   2.563821
    23  O    6.360878   8.280311   7.578740   6.652467   7.887547
    24  O    7.408137   9.268624   8.091055   7.464507   8.465844
    25  C    7.261652   9.195337   8.267483   7.498357   8.641424
    26  C    8.581469  10.570725   9.708471   8.962836  10.142904
    27  C    9.708250  11.694805  10.629114  10.030751  11.119695
    28  H    8.455514  10.517569   9.729287   9.145863  10.403409
    29  H    8.974057  10.893216  10.196564   9.189664  10.375897
    30  H    9.534162  11.549645  10.336708  10.004042  11.066737
    31  H   10.621708  12.637551  11.630361  11.023183  12.144915
    32  H    9.994845  11.889999  10.775229  10.039968  11.036344
    33  C    9.580693  11.020089   9.227135   9.177876   9.597756
    34  C    9.702693  11.162012   9.231001   9.607089  10.018896
    35  C   11.122118  12.498419  10.508978  10.962710  11.268242
    36  H   10.389356  11.902189  10.173224   9.998597  10.476841
    37  H    9.799734  11.066414   9.266285   9.129828   9.395104
    38  H    8.986360  10.348673   8.354733   8.905720   9.248913
    39  H    9.619699  11.229563   9.341387   9.785934  10.335778
    40  H   11.354336  12.581508  10.580442  10.972169  11.143628
    41  H   11.385495  12.757576  10.711832  11.411311  11.712073
    42  H   11.872600  13.325948  11.386578  11.705347  12.067880
                   21         22         23         24         25
    21  O    0.000000
    22  H    4.179196   0.000000
    23  O    6.502964   7.029700   0.000000
    24  O    7.697357   6.947230   2.244089   0.000000
    25  C    7.506221   7.455809   1.242486   1.263751   0.000000
    26  C    8.870691   8.996212   2.373941   2.386828   1.541374
    27  C   10.083288   9.692891   3.700657   2.747926   2.579577
    28  H    9.003223   9.379146   2.613583   3.100279   2.135139
    29  H    8.952413   9.400021   2.632722   3.079985   2.133896
    30  H   10.186846   9.495736   3.994840   2.714534   2.838104
    31  H   11.007409  10.773401   4.535023   3.834386   3.527649
    32  H   10.137697   9.511946   4.004430   2.687415   2.834131
    33  C    9.996284   7.225138   6.597475   4.464214   5.725075
    34  C   10.530019   7.583652   7.274122   5.209903   6.424677
    35  C   11.939961   8.765697   8.737693   6.613273   7.830500
    36  H   10.722923   8.169891   6.767040   4.545572   5.763991
    37  H   10.010061   6.969805   7.208695   5.170106   6.427655
    38  H    9.920790   6.783418   7.308046   5.422153   6.609998
    39  H   10.632533   8.000500   6.876155   4.835363   5.972157
    40  H   12.004972   8.600481   9.261193   7.159266   8.409048
    41  H   12.437015   9.212627   9.337756   7.279847   8.455967
    42  H   12.606404   9.596094   8.928221   6.727757   7.920154
                   26         27         28         29         30
    26  C    0.000000
    27  C    1.522796   0.000000
    28  H    1.094595   2.173081   0.000000
    29  H    1.094878   2.171799   1.743356   0.000000
    30  H    2.164601   1.091401   2.534677   3.077835   0.000000
    31  H    2.176822   1.095041   2.525496   2.522907   1.775142
    32  H    2.164053   1.091157   3.078169   2.533886   1.750372
    33  C    6.485479   5.882953   7.201692   7.190989   5.354238
    34  C    7.147917   6.512591   7.690761   7.995698   5.769224
    35  C    8.432862   7.629118   8.994166   9.260706   6.877220
    36  H    6.291039   5.477120   7.063426   6.947648   5.001615
    37  H    7.287714   6.762715   8.059333   7.909467   6.325527
    38  H    7.510529   7.069986   7.994860   8.372777   6.324126
    39  H    6.556702   5.864086   6.999080   7.478931   5.013169
    40  H    9.112191   8.368801   9.739333   9.880438   7.694560
    41  H    9.036141   8.236100   9.496356   9.929183   7.391717
    42  H    8.345031   7.377851   8.943482   9.135458   6.660299
                   31         32         33         34         35
    31  H    0.000000
    32  H    1.775683   0.000000
    33  C    6.778240   5.337010   0.000000
    34  C    7.362055   6.168976   1.520199   0.000000
    35  C    8.376295   7.221742   2.511190   1.526003   0.000000
    36  H    6.268381   4.833966   1.091658   2.163103   2.769971
    37  H    7.673908   6.129684   1.092796   2.162889   2.767531
    38  H    7.986455   6.794517   2.137641   1.092442   2.163676
    39  H    6.660402   5.664239   2.136855   1.093635   2.167697
    40  H    9.155944   7.870904   2.776353   2.173411   1.093382
    41  H    8.949614   7.940461   3.468581   2.175920   1.091703
    42  H    8.024390   6.915614   2.770332   2.176453   1.093894
                   36         37         38         39         40
    36  H    0.000000
    37  H    1.779070   0.000000
    38  H    3.052793   2.487069   0.000000
    39  H    2.486503   3.052909   1.762604   0.000000
    40  H    3.139457   2.583970   2.516159   3.079762   0.000000
    41  H    3.770894   3.773176   2.519075   2.516858   1.763582
    42  H    2.580399   3.124490   3.078875   2.531447   1.765999
                   41         42
    41  H    0.000000
    42  H    1.764006   0.000000
 Stoichiometry    C14H17F3NO6S(1-)
 Framework group  C1[X(C14H17F3NO6S)]
 Deg. of freedom   120
 Full point group                 C1      NOp   1
 Largest Abelian subgroup         C1      NOp   1
 Largest concise Abelian subgroup C1      NOp   1
                         Standard orientation:                         
 ---------------------------------------------------------------------
 Center     Atomic      Atomic             Coordinates (Angstroms)
 Number     Number       Type             X           Y           Z
 ---------------------------------------------------------------------
      1          6           0        0.361813   -0.344058   -0.512193
      2          7           0        1.743195   -0.326002   -0.430154
      3          6           0        2.556944   -1.414046   -0.492468
      4          8           0        2.233894   -2.577455   -0.624383
      5          8           0        3.842486   -1.017978   -0.388672
      6          6           0       -0.404697   -1.512950   -0.689891
      7          6           0       -1.784128   -1.427685   -0.760321
      8          6           0       -2.404690   -0.184227   -0.661458
      9          6           0       -1.658154    0.985989   -0.485805
     10          6           0       -0.283639    0.907261   -0.411170
     11          1           0        2.210788    0.620398   -0.297359
     12          1           0        0.084569   -2.470187   -0.774919
     13          6           0       -4.597426   -0.229613    1.118264
     14          1           0       -2.155066    1.947110   -0.418536
     15          1           0        0.307026    1.815120   -0.277500
     16          9           0       -4.069581    0.774800    1.805219
     17          9           0       -5.919933   -0.185256    1.241317
     18          9           0       -4.160426   -1.375091    1.630149
     19         16           0       -4.145280   -0.103156   -0.688617
     20          8           0       -4.709282   -1.306164   -1.275218
     21          8           0       -4.602937    1.217733   -1.075584
     22          1           0       -2.383638   -2.319333   -0.903674
     23          8           0        1.365915    3.554753    0.019718
     24          8           0        2.988465    2.007561   -0.077539
     25          6           0        2.552059    3.186351    0.053105
     26          6           0        3.610316    4.284791    0.275267
     27          6           0        5.045420    3.780179    0.344198
     28          1           0        3.332834    4.815054    1.191762
     29          1           0        3.487281    5.012492   -0.533479
     30          1           0        5.163434    3.062247    1.157710
     31          1           0        5.752202    4.602068    0.499355
     32          1           0        5.314765    3.257741   -0.575115
     33          6           0        4.818050   -2.052763   -0.386715
     34          6           0        4.951923   -2.700423    0.982087
     35          6           0        6.055181   -3.754701    0.984047
     36          1           0        5.747207   -1.555865   -0.672156
     37          1           0        4.565474   -2.799346   -1.143697
     38          1           0        3.994316   -3.152174    1.251048
     39          1           0        5.164670   -1.919556    1.717629
     40          1           0        5.839645   -4.550482    0.265882
     41          1           0        6.162087   -4.216812    1.967327
     42          1           0        7.021837   -3.318274    0.716258
 ---------------------------------------------------------------------
 Rotational constants (GHZ):           0.2668899           0.0879372           0.0717703
 Standard basis: Aug-CC-pVTZ (5D, 7F)
 There are  1804 symmetry adapted cartesian basis functions of A   symmetry.
 There are  1545 symmetry adapted basis functions of A   symmetry.
  1545 basis functions,  2301 primitive gaussians,  1804 cartesian basis functions
   100 alpha electrons      100 beta electrons
       nuclear repulsion energy      2459.2493050800 Hartrees.
 NAtoms=   42 NActive=   42 NUniq=   42 SFac= 1.00D+00 NAtFMM=   60 NAOKFM=F Big=F
 Integral buffers will be    131072 words long.
 Regular integral format.
 Two-electron integral symmetry is turned on.
 Nuclear repulsion after empirical dispersion term =     2459.2170831981 Hartrees.
 One-electron integrals computed using PRISM.
 NBasis=  1545 RedAO= T EigKep=  1.14D-06  NBF=  1545
 NBsUse=  1540 1.00D-06 EigRej=  7.97D-07 NBFU=  1540
 ExpMin= 2.53D-02 ExpMax= 3.74D+05 ExpMxC= 1.18D+03 IAcc=3 IRadAn=         5 AccDes= 0.00D+00
 Harris functional with IExCor= 1004 and IRadAn=       5 diagonalized for initial guess.
 HarFok:  IExCor= 1004 AccDes= 0.00D+00 IRadAn=         5 IDoV= 1 UseB2=F ITyADJ=14
 ICtDFT=  3500011 ScaDFX=  1.000000  1.000000  1.000000  1.000000
 FoFCou: FMM=F IPFlag=           0 FMFlag=      100000 FMFlg1=           0
         NFxFlg=           0 DoJE=T BraDBF=F KetDBF=T FulRan=T
         wScrn=  0.000000 ICntrl=       500 IOpCl=  0 I1Cent=   200000004 NGrid=           0
         NMat0=    1 NMatS0=      1 NMatT0=    0 NMatD0=    1 NMtDS0=    0 NMtDT0=    0
 Petite list used in FoFCou.
 Requested convergence on RMS density matrix=1.00D-08 within 128 cycles.
 Requested convergence on MAX density matrix=1.00D-06.
 Requested convergence on             energy=1.00D-06.
 No special actions if energy rises.
 SCF Done:  E(RDSDPBEP86) =  -1743.26199397     A.U. after   14 cycles
            NFock= 14  Conv=0.46D-08     -V/T= 2.0029
 DoSCS=T DFT=T ScalE2(SS,OS)=  0.220000  0.520000
 ExpMin= 2.53D-02 ExpMax= 3.74D+05 ExpMxC= 1.18D+03 IAcc=3 IRadAn=         5 AccDes= 0.00D+00
 HarFok:  IExCor=  205 AccDes= 0.00D+00 IRadAn=         5 IDoV=-2 UseB2=F ITyADJ=14
 ICtDFT= 12500011 ScaDFX=  1.000000  1.000000  1.000000  1.000000
 GSVD:  LWork=       -1073 too small for GESVD, short by        4640 words or        4640 for optimal perf.
 Range of M.O.s used for correlation:    30  1540
 NBasis=  1545 NAE=   100 NBE=   100 NFC=    29 NFV=     0
 NROrb=   1511 NOA=    71 NOB=    71 NVA=  1440 NVB=  1440

 **** Warning!!: The largest alpha MO coefficient is  0.10167101D+03

 DoSCS=T DFT=T ScalE2(SS,OS)=  0.220000  0.520000
 Fully direct method using O(OVN) memory.
 JobTyp=1 Pass  1:  I=   1 to  32 NPSUse= 32 ParTrn=T ParDer=T DoDerP=F.
 JobTyp=1 Pass  2:  I=  33 to  71 NPSUse= 32 ParTrn=T ParDer=T DoDerP=F.
 Spin components of T(2) and E(2):
     alpha-alpha T2 =       0.2510483653D+00 E2=     -0.1602689859D+00
     alpha-beta  T2 =       0.1295877693D+01 E2=     -0.2141140630D+01
     beta-beta   T2 =       0.2510483653D+00 E2=     -0.1602689859D+00
 E2(DSDPBEP86) =    -0.2461678602D+01 E(DSDPBEP86) =    -0.17457236725744D+04

 **********************************************************************

            Population analysis using the SCF Density.

 **********************************************************************

 Orbital symmetries:
       Occupied  (A) (A) (A) (A) (A) (A) (A) (A) (A) (A) (A) (A)
                 (A) (A) (A) (A) (A) (A) (A) (A) (A) (A) (A) (A)
                 (A) (A) (A) (A) (A) (A) (A) (A) (A) (A) (A) (A)
                 (A) (A) (A) (A) (A) (A) (A) (A) (A) (A) (A) (A)
                 (A) (A) (A) (A) (A) (A) (A) (A) (A) (A) (A) (A)
                 (A) (A) (A) (A) (A) (A) (A) (A) (A) (A) (A) (A)
                 (A) (A) (A) (A) (A) (A) (A) (A) (A) (A) (A) (A)
                 (A) (A) (A) (A) (A) (A) (A) (A) (A) (A) (A) (A)
                 (A) (A) (A) (A)
       Virtual   (A) (A) (A) (A) (A) (A) (A) (A) (A) (A) (A) (A)
                 (A) (A) (A) (A) (A) (A) (A) (A) (A) (A) (A) (A)
                 (A) (A) (A) (A) (A) (A) (A) (A) (A) (A) (A) (A)
                 (A) (A) (A) (A) (A) (A) (A) (A) (A) (A) (A) (A)
                 (A) (A) (A) (A) (A) (A) (A) (A) (A) (A) (A) (A)
                 (A) (A) (A) (A) (A) (A) (A) (A) (A) (A) (A) (A)
                 (A) (A) (A) (A) (A) (A) (A) (A) (A) (A) (A) (A)
                 (A) (A) (A) (A) (A) (A) (A) (A) (A) (A) (A) (A)
                 (A) (A) (A) (A) (A) (A) (A) (A) (A) (A) (A) (A)
                 (A) (A) (A) (A) (A) (A) (A) (A) (A) (A) (A) (A)
                 (A) (A) (A) (A) (A) (A) (A) (A) (A) (A) (A) (A)
                 (A) (A) (A) (A) (A) (A) (A) (A) (A) (A) (A) (A)
                 (A) (A) (A) (A) (A) (A) (A) (A) (A) (A) (A) (A)
                 (A) (A) (A) (A) (A) (A) (A) (A) (A) (A) (A) (A)
                 (A) (A) (A) (A) (A) (A) (A) (A) (A) (A) (A) (A)
                 (A) (A) (A) (A) (A) (A) (A) (A) (A) (A) (A) (A)
                 (A) (A) (A) (A) (A) (A) (A) (A) (A) (A) (A) (A)
                 (A) (A) (A) (A) (A) (A) (A) (A) (A) (A) (A) (A)
                 (A) (A) (A) (A) (A) (A) (A) (A) (A) (A) (A) (A)
                 (A) (A) (A) (A) (A) (A) (A) (A) (A) (A) (A) (A)
                 (A) (A) (A) (A) (A) (A) (A) (A) (A) (A) (A) (A)
                 (A) (A) (A) (A) (A) (A) (A) (A) (A) (A) (A) (A)
                 (A) (A) (A) (A) (A) (A) (A) (A) (A) (A) (A) (A)
                 (A) (A) (A) (A) (A) (A) (A) (A) (A) (A) (A) (A)
                 (A) (A) (A) (A) (A) (A) (A) (A) (A) (A) (A) (A)
                 (A) (A) (A) (A) (A) (A) (A) (A) (A) (A) (A) (A)
                 (A) (A) (A) (A) (A) (A) (A) (A) (A) (A) (A) (A)
                 (A) (A) (A) (A) (A) (A) (A) (A) (A) (A) (A) (A)
                 (A) (A) (A) (A) (A) (A) (A) (A) (A) (A) (A) (A)
                 (A) (A) (A) (A) (A) (A) (A) (A) (A) (A) (A) (A)
                 (A) (A) (A) (A) (A) (A) (A) (A) (A) (A) (A) (A)
                 (A) (A) (A) (A) (A) (A) (A) (A) (A) (A) (A) (A)
                 (A) (A) (A) (A) (A) (A) (A) (A) (A) (A) (A) (A)
                 (A) (A) (A) (A) (A) (A) (A) (A) (A) (A) (A) (A)
                 (A) (A) (A) (A) (A) (A) (A) (A) (A) (A) (A) (A)
                 (A) (A) (A) (A) (A) (A) (A) (A) (A) (A) (A) (A)
                 (A) (A) (A) (A) (A) (A) (A) (A) (A) (A) (A) (A)
                 (A) (A) (A) (A) (A) (A) (A) (A) (A) (A) (A) (A)
                 (A) (A) (A) (A) (A) (A) (A) (A) (A) (A) (A) (A)
                 (A) (A) (A) (A) (A) (A) (A) (A) (A) (A) (A) (A)
                 (A) (A) (A) (A) (A) (A) (A) (A) (A) (A) (A) (A)
                 (A) (A) (A) (A) (A) (A) (A) (A) (A) (A) (A) (A)
                 (A) (A) (A) (A) (A) (A) (A) (A) (A) (A) (A) (A)
                 (A) (A) (A) (A) (A) (A) (A) (A) (A) (A) (A) (A)
                 (A) (A) (A) (A) (A) (A) (A) (A) (A) (A) (A) (A)
                 (A) (A) (A) (A) (A) (A) (A) (A) (A) (A) (A) (A)
                 (A) (A) (A) (A) (A) (A) (A) (A) (A) (A) (A) (A)
                 (A) (A) (A) (A) (A) (A) (A) (A) (A) (A) (A) (A)
                 (A) (A) (A) (A) (A) (A) (A) (A) (A) (A) (A) (A)
                 (A) (A) (A) (A) (A) (A) (A) (A) (A) (A) (A) (A)
                 (A) (A) (A) (A) (A) (A) (A) (A) (A) (A) (A) (A)
                 (A) (A) (A) (A) (A) (A) (A) (A) (A) (A) (A) (A)
                 (A) (A) (A) (A) (A) (A) (A) (A) (A) (A) (A) (A)
                 (A) (A) (A) (A) (A) (A) (A) (A) (A) (A) (A) (A)
                 (A) (A) (A) (A) (A) (A) (A) (A) (A) (A) (A) (A)
                 (A) (A) (A) (A) (A) (A) (A) (A) (A) (A) (A) (A)
                 (A) (A) (A) (A) (A) (A) (A) (A) (A) (A) (A) (A)
                 (A) (A) (A) (A) (A) (A) (A) (A) (A) (A) (A) (A)
                 (A) (A) (A) (A) (A) (A) (A) (A) (A) (A) (A) (A)
                 (A) (A) (A) (A) (A) (A) (A) (A) (A) (A) (A) (A)
                 (A) (A) (A) (A) (A) (A) (A) (A) (A) (A) (A) (A)
                 (A) (A) (A) (A) (A) (A) (A) (A) (A) (A) (A) (A)
                 (A) (A) (A) (A) (A) (A) (A) (A) (A) (A) (A) (A)
                 (A) (A) (A) (A) (A) (A) (A) (A) (A) (A) (A) (A)
                 (A) (A) (A) (A) (A) (A) (A) (A) (A) (A) (A) (A)
                 (A) (A) (A) (A) (A) (A) (A) (A) (A) (A) (A) (A)
                 (A) (A) (A) (A) (A) (A) (A) (A) (A) (A) (A) (A)
                 (A) (A) (A) (A) (A) (A) (A) (A) (A) (A) (A) (A)
                 (A) (A) (A) (A) (A) (A) (A) (A) (A) (A) (A) (A)
                 (A) (A) (A) (A) (A) (A) (A) (A) (A) (A) (A) (A)
                 (A) (A) (A) (A) (A) (A) (A) (A) (A) (A) (A) (A)
                 (A) (A) (A) (A) (A) (A) (A) (A) (A) (A) (A) (A)
                 (A) (A) (A) (A) (A) (A) (A) (A) (A) (A) (A) (A)
                 (A) (A) (A) (A) (A) (A) (A) (A) (A) (A) (A) (A)
                 (A) (A) (A) (A) (A) (A) (A) (A) (A) (A) (A) (A)
                 (A) (A) (A) (A) (A) (A) (A) (A) (A) (A) (A) (A)
                 (A) (A) (A) (A) (A) (A) (A) (A) (A) (A) (A) (A)
                 (A) (A) (A) (A) (A) (A) (A) (A) (A) (A) (A) (A)
                 (A) (A) (A) (A) (A) (A) (A) (A) (A) (A) (A) (A)
                 (A) (A) (A) (A) (A) (A) (A) (A) (A) (A) (A) (A)
                 (A) (A) (A) (A) (A) (A) (A) (A) (A) (A) (A) (A)
                 (A) (A) (A) (A) (A) (A) (A) (A) (A) (A) (A) (A)
                 (A) (A) (A) (A) (A) (A) (A) (A) (A) (A) (A) (A)
                 (A) (A) (A) (A) (A) (A) (A) (A) (A) (A) (A) (A)
                 (A) (A) (A) (A) (A) (A) (A) (A) (A) (A) (A) (A)
                 (A) (A) (A) (A) (A) (A) (A) (A) (A) (A) (A) (A)
                 (A) (A) (A) (A) (A) (A) (A) (A) (A) (A) (A) (A)
                 (A) (A) (A) (A) (A) (A) (A) (A) (A) (A) (A) (A)
                 (A) (A) (A) (A) (A) (A) (A) (A) (A) (A) (A) (A)
                 (A) (A) (A) (A) (A) (A) (A) (A) (A) (A) (A) (A)
                 (A) (A) (A) (A) (A) (A) (A) (A) (A) (A) (A) (A)
                 (A) (A) (A) (A) (A) (A) (A) (A) (A) (A) (A) (A)
                 (A) (A) (A) (A) (A) (A) (A) (A) (A) (A) (A) (A)
                 (A) (A) (A) (A) (A) (A) (A) (A) (A) (A) (A) (A)
                 (A) (A) (A) (A) (A) (A) (A) (A) (A) (A) (A) (A)
                 (A) (A) (A) (A) (A) (A) (A) (A) (A) (A) (A) (A)
                 (A) (A) (A) (A) (A) (A) (A) (A) (A) (A) (A) (A)
                 (A) (A) (A) (A) (A) (A) (A) (A) (A) (A) (A) (A)
                 (A) (A) (A) (A) (A) (A) (A) (A) (A) (A) (A) (A)
                 (A) (A) (A) (A) (A) (A) (A) (A) (A) (A) (A) (A)
                 (A) (A) (A) (A) (A) (A) (A) (A) (A) (A) (A) (A)
                 (A) (A) (A) (A) (A) (A) (A) (A) (A) (A) (A) (A)
                 (A) (A) (A) (A) (A) (A) (A) (A) (A) (A) (A) (A)
                 (A) (A) (A) (A) (A) (A) (A) (A) (A) (A) (A) (A)
                 (A) (A) (A) (A) (A) (A) (A) (A) (A) (A) (A) (A)
                 (A) (A) (A) (A) (A) (A) (A) (A) (A) (A) (A) (A)
                 (A) (A) (A) (A) (A) (A) (A) (A) (A) (A) (A) (A)
                 (A) (A) (A) (A) (A) (A) (A) (A) (A) (A) (A) (A)
                 (A) (A) (A) (A) (A) (A) (A) (A) (A) (A) (A) (A)
                 (A) (A) (A) (A) (A) (A) (A) (A) (A) (A) (A) (A)
                 (A) (A) (A) (A) (A) (A) (A) (A) (A) (A) (A) (A)
                 (A) (A) (A) (A) (A) (A) (A) (A) (A) (A) (A) (A)
                 (A) (A) (A) (A) (A) (A) (A) (A) (A) (A) (A) (A)
                 (A) (A) (A) (A) (A) (A) (A) (A) (A) (A) (A) (A)
                 (A) (A) (A) (A) (A) (A) (A) (A) (A) (A) (A) (A)
                 (A) (A) (A) (A) (A) (A) (A) (A) (A) (A) (A) (A)
                 (A) (A) (A) (A) (A) (A) (A) (A) (A) (A) (A) (A)
                 (A) (A) (A) (A) (A) (A) (A) (A) (A) (A) (A) (A)
                 (A) (A) (A) (A) (A) (A) (A) (A) (A) (A) (A) (A)
                 (A) (A) (A) (A) (A) (A) (A) (A) (A) (A) (A) (A)
 The electronic state is 1-A.
 Alpha  occ. eigenvalues --  -90.90950 -25.65327 -25.65292 -25.65254 -19.94927
 Alpha  occ. eigenvalues --  -19.92490 -19.92423 -19.88447 -19.81077 -19.80184
 Alpha  occ. eigenvalues --  -15.00113 -11.02643 -10.88417 -10.79203 -10.78602
 Alpha  occ. eigenvalues --  -10.77608 -10.76363 -10.75680 -10.75042 -10.73981
 Alpha  occ. eigenvalues --  -10.73465 -10.72984 -10.71822 -10.68863 -10.68730
 Alpha  occ. eigenvalues --   -8.68231  -6.47068  -6.46961  -6.46941  -1.52072
 Alpha  occ. eigenvalues --   -1.42639  -1.42600  -1.25059  -1.24068  -1.14300
 Alpha  occ. eigenvalues --   -1.13671  -1.11231  -1.04310  -1.01302  -0.96293
 Alpha  occ. eigenvalues --   -0.88873  -0.86462  -0.83944  -0.82825  -0.81291
 Alpha  occ. eigenvalues --   -0.77935  -0.74316  -0.69866  -0.68223  -0.68085
 Alpha  occ. eigenvalues --   -0.67725  -0.66693  -0.66230  -0.62436  -0.60730
 Alpha  occ. eigenvalues --   -0.57960  -0.56862  -0.56065  -0.55967  -0.54404
 Alpha  occ. eigenvalues --   -0.52145  -0.51810  -0.50776  -0.50580  -0.50518
 Alpha  occ. eigenvalues --   -0.50056  -0.49956  -0.49669  -0.48643  -0.46517
 Alpha  occ. eigenvalues --   -0.46376  -0.44813  -0.44480  -0.44000  -0.43878
 Alpha  occ. eigenvalues --   -0.43391  -0.41734  -0.40778  -0.39633  -0.38775
 Alpha  occ. eigenvalues --   -0.37547  -0.37108  -0.36665  -0.36452  -0.36238
 Alpha  occ. eigenvalues --   -0.35869  -0.35408  -0.34607  -0.34155  -0.33128
 Alpha  occ. eigenvalues --   -0.31731  -0.31394  -0.30752  -0.30442  -0.29345
 Alpha  occ. eigenvalues --   -0.23201  -0.21654  -0.21208  -0.20065  -0.19307
 Alpha virt. eigenvalues --    0.07363   0.08820   0.09044   0.09386   0.09865
 Alpha virt. eigenvalues --    0.10538   0.11015   0.11084   0.11307   0.11775
 Alpha virt. eigenvalues --    0.11991   0.12126   0.12398   0.12517   0.13116
 Alpha virt. eigenvalues --    0.13478   0.14121   0.14370   0.14749   0.14960
 Alpha virt. eigenvalues --    0.15399   0.15689   0.15927   0.15978   0.16376
 Alpha virt. eigenvalues --    0.16645   0.17250   0.17432   0.17755   0.17895
 Alpha virt. eigenvalues --    0.18112   0.18329   0.18449   0.18668   0.19038
 Alpha virt. eigenvalues --    0.19451   0.19659   0.20154   0.20280   0.20699
 Alpha virt. eigenvalues --    0.20935   0.21199   0.21375   0.21482   0.21735
 Alpha virt. eigenvalues --    0.21910   0.22140   0.22469   0.22670   0.22792
 Alpha virt. eigenvalues --    0.22940   0.23254   0.23690   0.23918   0.24174
 Alpha virt. eigenvalues --    0.24561   0.24965   0.25356   0.25569   0.25680
 Alpha virt. eigenvalues --    0.25895   0.26389   0.26610   0.26778   0.27287
 Alpha virt. eigenvalues --    0.27389   0.27697   0.27955   0.28066   0.28229
 Alpha virt. eigenvalues --    0.28585   0.28799   0.29216   0.29343   0.29692
 Alpha virt. eigenvalues --    0.29895   0.30021   0.30246   0.30623   0.30964
 Alpha virt. eigenvalues --    0.31152   0.31265   0.31940   0.32014   0.32113
 Alpha virt. eigenvalues --    0.32461   0.32678   0.32822   0.33303   0.33373
 Alpha virt. eigenvalues --    0.33539   0.33871   0.33958   0.34188   0.34535
 Alpha virt. eigenvalues --    0.34823   0.34978   0.35326   0.35497   0.35710
 Alpha virt. eigenvalues --    0.36053   0.36212   0.36331   0.36532   0.36709
 Alpha virt. eigenvalues --    0.36932   0.37247   0.37457   0.37529   0.37593
 Alpha virt. eigenvalues --    0.37855   0.38290   0.38321   0.38651   0.38825
 Alpha virt. eigenvalues --    0.38940   0.39163   0.39400   0.39633   0.39725
 Alpha virt. eigenvalues --    0.40042   0.40240   0.40518   0.40613   0.40676
 Alpha virt. eigenvalues --    0.41171   0.41191   0.41446   0.41694   0.41957
 Alpha virt. eigenvalues --    0.42049   0.42451   0.42707   0.42864   0.43009
 Alpha virt. eigenvalues --    0.43244   0.43365   0.43823   0.44067   0.44246
 Alpha virt. eigenvalues --    0.44494   0.44602   0.44817   0.45115   0.45281
 Alpha virt. eigenvalues --    0.45480   0.45687   0.46261   0.46360   0.46576
 Alpha virt. eigenvalues --    0.46719   0.46806   0.47420   0.47558   0.47923
 Alpha virt. eigenvalues --    0.48169   0.48255   0.48534   0.48941   0.48957
 Alpha virt. eigenvalues --    0.49300   0.49332   0.49655   0.49700   0.50117
 Alpha virt. eigenvalues --    0.50213   0.50833   0.50924   0.51131   0.51421
 Alpha virt. eigenvalues --    0.51894   0.52009   0.52119   0.52414   0.52884
 Alpha virt. eigenvalues --    0.52988   0.53083   0.53444   0.53607   0.53670
 Alpha virt. eigenvalues --    0.54056   0.54214   0.54393   0.54737   0.54859
 Alpha virt. eigenvalues --    0.55016   0.55308   0.55362   0.55525   0.55701
 Alpha virt. eigenvalues --    0.55858   0.56439   0.56648   0.56730   0.56933
 Alpha virt. eigenvalues --    0.57190   0.57363   0.57655   0.57787   0.58098
 Alpha virt. eigenvalues --    0.58133   0.58414   0.58572   0.58721   0.58859
 Alpha virt. eigenvalues --    0.59235   0.59671   0.59813   0.60194   0.60486
 Alpha virt. eigenvalues --    0.60619   0.60911   0.61274   0.61585   0.61680
 Alpha virt. eigenvalues --    0.61915   0.62018   0.62141   0.62690   0.62942
 Alpha virt. eigenvalues --    0.63334   0.63573   0.63899   0.63994   0.64228
 Alpha virt. eigenvalues --    0.64416   0.64749   0.64791   0.65254   0.65505
 Alpha virt. eigenvalues --    0.65760   0.65984   0.66696   0.66834   0.66941
 Alpha virt. eigenvalues --    0.67469   0.67806   0.67955   0.68326   0.68781
 Alpha virt. eigenvalues --    0.69141   0.69449   0.69655   0.69957   0.70158
 Alpha virt. eigenvalues --    0.70501   0.70912   0.71075   0.71638   0.71771
 Alpha virt. eigenvalues --    0.72376   0.72938   0.73154   0.73582   0.73825
 Alpha virt. eigenvalues --    0.74104   0.74209   0.74674   0.74973   0.75290
 Alpha virt. eigenvalues --    0.75392   0.75718   0.76225   0.76577   0.76951
 Alpha virt. eigenvalues --    0.77454   0.77524   0.78017   0.78192   0.78566
 Alpha virt. eigenvalues --    0.79319   0.79780   0.80072   0.80353   0.80750
 Alpha virt. eigenvalues --    0.81308   0.81593   0.81745   0.81989   0.82289
 Alpha virt. eigenvalues --    0.82886   0.83297   0.83629   0.83851   0.84380
 Alpha virt. eigenvalues --    0.84534   0.84965   0.85072   0.85397   0.85957
 Alpha virt. eigenvalues --    0.86376   0.86617   0.86807   0.87186   0.87368
 Alpha virt. eigenvalues --    0.87651   0.87844   0.88315   0.88450   0.88620
 Alpha virt. eigenvalues --    0.89054   0.89436   0.89516   0.89887   0.90496
 Alpha virt. eigenvalues --    0.90667   0.90864   0.91386   0.91651   0.92067
 Alpha virt. eigenvalues --    0.92208   0.92257   0.92918   0.93227   0.93281
 Alpha virt. eigenvalues --    0.93735   0.93869   0.94308   0.94538   0.94691
 Alpha virt. eigenvalues --    0.94771   0.95067   0.95384   0.95655   0.95999
 Alpha virt. eigenvalues --    0.96184   0.96616   0.96731   0.96900   0.97033
 Alpha virt. eigenvalues --    0.97382   0.97601   0.97900   0.98163   0.98196
 Alpha virt. eigenvalues --    0.98894   0.99049   0.99468   0.99570   0.99730
 Alpha virt. eigenvalues --    1.00039   1.00449   1.00820   1.01058   1.01176
 Alpha virt. eigenvalues --    1.01370   1.01700   1.02112   1.02627   1.02833
 Alpha virt. eigenvalues --    1.02921   1.03109   1.03429   1.03679   1.04061
 Alpha virt. eigenvalues --    1.04261   1.04416   1.04700   1.04845   1.05520
 Alpha virt. eigenvalues --    1.05783   1.06190   1.06585   1.06801   1.06957
 Alpha virt. eigenvalues --    1.07151   1.07316   1.07507   1.07667   1.08245
 Alpha virt. eigenvalues --    1.08452   1.09032   1.09288   1.09505   1.09668
 Alpha virt. eigenvalues --    1.10182   1.10428   1.10493   1.10804   1.11011
 Alpha virt. eigenvalues --    1.11255   1.11530   1.12204   1.12504   1.12763
 Alpha virt. eigenvalues --    1.13046   1.13279   1.13679   1.13871   1.14052
 Alpha virt. eigenvalues --    1.14349   1.14616   1.14712   1.15217   1.15623
 Alpha virt. eigenvalues --    1.15701   1.15799   1.15924   1.16166   1.16516
 Alpha virt. eigenvalues --    1.16583   1.16777   1.16999   1.17181   1.17627
 Alpha virt. eigenvalues --    1.17724   1.17969   1.18139   1.18617   1.18973
 Alpha virt. eigenvalues --    1.19110   1.19412   1.19905   1.20212   1.20534
 Alpha virt. eigenvalues --    1.20554   1.20777   1.21113   1.21192   1.21621
 Alpha virt. eigenvalues --    1.22127   1.22444   1.22627   1.22939   1.23124
 Alpha virt. eigenvalues --    1.23552   1.23854   1.24310   1.24631   1.24995
 Alpha virt. eigenvalues --    1.25244   1.25586   1.25733   1.26256   1.26390
 Alpha virt. eigenvalues --    1.26596   1.27104   1.27165   1.27746   1.27881
 Alpha virt. eigenvalues --    1.28055   1.28252   1.28332   1.28856   1.28937
 Alpha virt. eigenvalues --    1.29430   1.29663   1.29818   1.30226   1.30568
 Alpha virt. eigenvalues --    1.31305   1.31569   1.31684   1.32004   1.32215
 Alpha virt. eigenvalues --    1.32560   1.32743   1.33417   1.33795   1.33868
 Alpha virt. eigenvalues --    1.34402   1.34418   1.35035   1.35454   1.35822
 Alpha virt. eigenvalues --    1.35999   1.36496   1.36683   1.37144   1.37472
 Alpha virt. eigenvalues --    1.37742   1.37840   1.38293   1.38454   1.39077
 Alpha virt. eigenvalues --    1.39377   1.39696   1.40067   1.40655   1.40955
 Alpha virt. eigenvalues --    1.41048   1.41782   1.41917   1.42238   1.42840
 Alpha virt. eigenvalues --    1.43276   1.43490   1.43929   1.44116   1.44329
 Alpha virt. eigenvalues --    1.45093   1.45209   1.45633   1.46278   1.46637
 Alpha virt. eigenvalues --    1.46832   1.47232   1.47426   1.47747   1.48149
 Alpha virt. eigenvalues --    1.48406   1.48874   1.49409   1.49629   1.50221
 Alpha virt. eigenvalues --    1.50467   1.51032   1.51267   1.51860   1.52179
 Alpha virt. eigenvalues --    1.52782   1.53351   1.53474   1.53807   1.53969
 Alpha virt. eigenvalues --    1.54633   1.54893   1.55195   1.55720   1.55974
 Alpha virt. eigenvalues --    1.56505   1.56711   1.56896   1.57422   1.57637
 Alpha virt. eigenvalues --    1.57838   1.58431   1.59075   1.59614   1.59696
 Alpha virt. eigenvalues --    1.59978   1.60662   1.60890   1.61646   1.61875
 Alpha virt. eigenvalues --    1.61885   1.62546   1.62770   1.63009   1.63407
 Alpha virt. eigenvalues --    1.63904   1.64285   1.64768   1.65143   1.65218
 Alpha virt. eigenvalues --    1.65638   1.66183   1.66730   1.67070   1.67214
 Alpha virt. eigenvalues --    1.67655   1.67912   1.68616   1.68788   1.68933
 Alpha virt. eigenvalues --    1.69148   1.69701   1.69958   1.70198   1.70540
 Alpha virt. eigenvalues --    1.70857   1.71143   1.71753   1.72052   1.72102
 Alpha virt. eigenvalues --    1.72316   1.73131   1.73269   1.73832   1.74265
 Alpha virt. eigenvalues --    1.74435   1.74740   1.74821   1.74950   1.75765
 Alpha virt. eigenvalues --    1.76266   1.76650   1.77009   1.77427   1.77720
 Alpha virt. eigenvalues --    1.78183   1.78391   1.78925   1.79066   1.79695
 Alpha virt. eigenvalues --    1.79848   1.79976   1.80188   1.80501   1.81097
 Alpha virt. eigenvalues --    1.81592   1.82097   1.82302   1.82539   1.82858
 Alpha virt. eigenvalues --    1.83387   1.83809   1.84439   1.84494   1.84746
 Alpha virt. eigenvalues --    1.85069   1.85897   1.86045   1.86192   1.86538
 Alpha virt. eigenvalues --    1.86813   1.87313   1.87527   1.87588   1.87988
 Alpha virt. eigenvalues --    1.88665   1.88744   1.89265   1.89836   1.90602
 Alpha virt. eigenvalues --    1.90967   1.91253   1.91685   1.92222   1.92391
 Alpha virt. eigenvalues --    1.93230   1.93414   1.94337   1.94536   1.94596
 Alpha virt. eigenvalues --    1.95031   1.95561   1.95969   1.96488   1.96678
 Alpha virt. eigenvalues --    1.97029   1.97142   1.97828   1.98222   1.98470
 Alpha virt. eigenvalues --    1.99259   1.99875   2.00314   2.00749   2.00884
 Alpha virt. eigenvalues --    2.01136   2.02175   2.02376   2.02584   2.02929
 Alpha virt. eigenvalues --    2.03292   2.03522   2.04221   2.04940   2.05119
 Alpha virt. eigenvalues --    2.05781   2.05897   2.06624   2.06772   2.07324
 Alpha virt. eigenvalues --    2.08055   2.08714   2.09016   2.09347   2.09679
 Alpha virt. eigenvalues --    2.09817   2.10705   2.11555   2.11839   2.12706
 Alpha virt. eigenvalues --    2.13442   2.14073   2.14770   2.15054   2.15361
 Alpha virt. eigenvalues --    2.15845   2.16291   2.16569   2.16992   2.17397
 Alpha virt. eigenvalues --    2.18380   2.18529   2.19108   2.19517   2.20228
 Alpha virt. eigenvalues --    2.20744   2.20960   2.21845   2.22033   2.22474
 Alpha virt. eigenvalues --    2.23434   2.23498   2.24001   2.24206   2.25109
 Alpha virt. eigenvalues --    2.25740   2.25834   2.26466   2.27100   2.27235
 Alpha virt. eigenvalues --    2.27958   2.28396   2.29084   2.29237   2.29666
 Alpha virt. eigenvalues --    2.29856   2.30183   2.30814   2.31286   2.31633
 Alpha virt. eigenvalues --    2.32151   2.32656   2.33042   2.33485   2.34208
 Alpha virt. eigenvalues --    2.34609   2.34908   2.35255   2.36281   2.36964
 Alpha virt. eigenvalues --    2.37946   2.38090   2.38671   2.38776   2.39798
 Alpha virt. eigenvalues --    2.41151   2.41509   2.42357   2.42454   2.43149
 Alpha virt. eigenvalues --    2.43475   2.44435   2.44704   2.45053   2.45372
 Alpha virt. eigenvalues --    2.46125   2.46389   2.46654   2.47396   2.47728
 Alpha virt. eigenvalues --    2.48466   2.48828   2.49358   2.50178   2.50330
 Alpha virt. eigenvalues --    2.50767   2.52079   2.52772   2.53090   2.53579
 Alpha virt. eigenvalues --    2.53905   2.54223   2.54946   2.55412   2.56068
 Alpha virt. eigenvalues --    2.56220   2.57000   2.57703   2.58380   2.59001
 Alpha virt. eigenvalues --    2.59066   2.60245   2.60434   2.61461   2.62414
 Alpha virt. eigenvalues --    2.62732   2.63907   2.64188   2.65421   2.65919
 Alpha virt. eigenvalues --    2.66256   2.66968   2.67242   2.67756   2.68950
 Alpha virt. eigenvalues --    2.69400   2.70391   2.70498   2.71467   2.71918
 Alpha virt. eigenvalues --    2.72206   2.72470   2.72847   2.74024   2.74272
 Alpha virt. eigenvalues --    2.75138   2.75373   2.76084   2.76674   2.77180
 Alpha virt. eigenvalues --    2.78333   2.78676   2.79464   2.79731   2.80678
 Alpha virt. eigenvalues --    2.81307   2.82018   2.82329   2.82534   2.83697
 Alpha virt. eigenvalues --    2.84491   2.84608   2.84838   2.85530   2.86583
 Alpha virt. eigenvalues --    2.87171   2.87931   2.88276   2.89152   2.90242
 Alpha virt. eigenvalues --    2.90804   2.91452   2.91681   2.92507   2.92910
 Alpha virt. eigenvalues --    2.93217   2.93839   2.94577   2.95342   2.95558
 Alpha virt. eigenvalues --    2.96393   2.96702   2.96906   2.97234   2.97385
 Alpha virt. eigenvalues --    2.99209   2.99669   3.00228   3.00865   3.02672
 Alpha virt. eigenvalues --    3.03359   3.04369   3.05612   3.06401   3.06797
 Alpha virt. eigenvalues --    3.07226   3.07594   3.08627   3.09087   3.09565
 Alpha virt. eigenvalues --    3.10672   3.12082   3.12087   3.12748   3.13343
 Alpha virt. eigenvalues --    3.13475   3.14506   3.14857   3.16156   3.16366
 Alpha virt. eigenvalues --    3.17167   3.17918   3.18648   3.19040   3.19876
 Alpha virt. eigenvalues --    3.20623   3.21362   3.21826   3.22458   3.22601
 Alpha virt. eigenvalues --    3.23084   3.24141   3.24777   3.26248   3.27084
 Alpha virt. eigenvalues --    3.27614   3.28338   3.28839   3.29402   3.30000
 Alpha virt. eigenvalues --    3.30467   3.31979   3.32038   3.32824   3.34060
 Alpha virt. eigenvalues --    3.34312   3.34445   3.35360   3.36811   3.37355
 Alpha virt. eigenvalues --    3.37556   3.38528   3.39276   3.39898   3.40125
 Alpha virt. eigenvalues --    3.40814   3.41314   3.41592   3.42225   3.42688
 Alpha virt. eigenvalues --    3.42978   3.43320   3.43803   3.44332   3.44858
 Alpha virt. eigenvalues --    3.45249   3.45648   3.45923   3.46238   3.47023
 Alpha virt. eigenvalues --    3.48279   3.48744   3.49672   3.50186   3.50672
 Alpha virt. eigenvalues --    3.51500   3.51885   3.52193   3.52259   3.53219
 Alpha virt. eigenvalues --    3.53546   3.54070   3.54683   3.55673   3.55782
 Alpha virt. eigenvalues --    3.56354   3.57134   3.57627   3.58144   3.58298
 Alpha virt. eigenvalues --    3.59212   3.59365   3.59853   3.60354   3.60407
 Alpha virt. eigenvalues --    3.61314   3.61508   3.61864   3.62698   3.63224
 Alpha virt. eigenvalues --    3.63787   3.64083   3.65463   3.66150   3.66385
 Alpha virt. eigenvalues --    3.67026   3.67462   3.68254   3.68777   3.69658
 Alpha virt. eigenvalues --    3.70160   3.70985   3.71260   3.71443   3.71606
 Alpha virt. eigenvalues --    3.72194   3.73048   3.73579   3.73976   3.74364
 Alpha virt. eigenvalues --    3.75143   3.75813   3.76246   3.76440   3.77428
 Alpha virt. eigenvalues --    3.77617   3.78364   3.78662   3.79097   3.79811
 Alpha virt. eigenvalues --    3.80588   3.81121   3.81940   3.82216   3.82803
 Alpha virt. eigenvalues --    3.82839   3.83749   3.84185   3.84410   3.85228
 Alpha virt. eigenvalues --    3.85450   3.86086   3.86311   3.86433   3.86842
 Alpha virt. eigenvalues --    3.87153   3.87746   3.88350   3.88695   3.89566
 Alpha virt. eigenvalues --    3.90135   3.90869   3.90904   3.91633   3.91861
 Alpha virt. eigenvalues --    3.92250   3.92615   3.93163   3.93568   3.94127
 Alpha virt. eigenvalues --    3.94391   3.94954   3.95500   3.95696   3.96149
 Alpha virt. eigenvalues --    3.96463   3.98128   3.98258   3.98388   3.98590
 Alpha virt. eigenvalues --    3.99960   4.00045   4.00419   4.01128   4.01960
 Alpha virt. eigenvalues --    4.02621   4.03109   4.03655   4.03787   4.03910
 Alpha virt. eigenvalues --    4.04314   4.04669   4.05733   4.06195   4.06839
 Alpha virt. eigenvalues --    4.07829   4.08672   4.08903   4.09714   4.10283
 Alpha virt. eigenvalues --    4.12060   4.12310   4.13089   4.13514   4.14040
 Alpha virt. eigenvalues --    4.14555   4.15405   4.15614   4.16142   4.16626
 Alpha virt. eigenvalues --    4.17213   4.17529   4.18176   4.18624   4.19510
 Alpha virt. eigenvalues --    4.19694   4.20059   4.20467   4.20948   4.21116
 Alpha virt. eigenvalues --    4.21254   4.21398   4.22661   4.23311   4.24468
 Alpha virt. eigenvalues --    4.25032   4.25404   4.25857   4.26982   4.27131
 Alpha virt. eigenvalues --    4.27401   4.27780   4.28553   4.29836   4.30198
 Alpha virt. eigenvalues --    4.30559   4.31235   4.31731   4.32096   4.32431
 Alpha virt. eigenvalues --    4.32862   4.33446   4.34114   4.35558   4.35911
 Alpha virt. eigenvalues --    4.36685   4.36859   4.38172   4.38788   4.39538
 Alpha virt. eigenvalues --    4.39747   4.40430   4.40752   4.42048   4.43127
 Alpha virt. eigenvalues --    4.44680   4.45195   4.45540   4.46442   4.47142
 Alpha virt. eigenvalues --    4.47482   4.47946   4.48576   4.48864   4.49142
 Alpha virt. eigenvalues --    4.50006   4.50296   4.50349   4.51330   4.52483
 Alpha virt. eigenvalues --    4.52782   4.54406   4.55437   4.56047   4.56253
 Alpha virt. eigenvalues --    4.56925   4.57859   4.58081   4.58854   4.59635
 Alpha virt. eigenvalues --    4.60212   4.60581   4.61350   4.62492   4.63204
 Alpha virt. eigenvalues --    4.63662   4.64090   4.64537   4.66290   4.66697
 Alpha virt. eigenvalues --    4.67219   4.68191   4.68971   4.69755   4.70828
 Alpha virt. eigenvalues --    4.71150   4.71399   4.71754   4.72278   4.72918
 Alpha virt. eigenvalues --    4.73865   4.74559   4.75738   4.75864   4.76780
 Alpha virt. eigenvalues --    4.77111   4.77390   4.78280   4.78946   4.79352
 Alpha virt. eigenvalues --    4.79700   4.80393   4.82404   4.83490   4.83674
 Alpha virt. eigenvalues --    4.84267   4.84942   4.85502   4.85896   4.86589
 Alpha virt. eigenvalues --    4.86922   4.87455   4.88165   4.89048   4.89553
 Alpha virt. eigenvalues --    4.91040   4.91987   4.93023   4.93886   4.94138
 Alpha virt. eigenvalues --    4.95035   4.95678   4.96800   4.98097   4.99116
 Alpha virt. eigenvalues --    4.99217   4.99710   4.99961   5.01831   5.02280
 Alpha virt. eigenvalues --    5.03686   5.04793   5.04998   5.06071   5.07139
 Alpha virt. eigenvalues --    5.07468   5.07917   5.08241   5.08664   5.09678
 Alpha virt. eigenvalues --    5.11286   5.11544   5.12153   5.12291   5.12959
 Alpha virt. eigenvalues --    5.13850   5.14622   5.15964   5.16999   5.18341
 Alpha virt. eigenvalues --    5.19151   5.19661   5.19857   5.20723   5.20815
 Alpha virt. eigenvalues --    5.21392   5.22252   5.22461   5.23104   5.24293
 Alpha virt. eigenvalues --    5.24584   5.25815   5.26356   5.27014   5.29185
 Alpha virt. eigenvalues --    5.30171   5.31154   5.31455   5.32196   5.33377
 Alpha virt. eigenvalues --    5.34567   5.35681   5.35915   5.37352   5.39030
 Alpha virt. eigenvalues --    5.40031   5.40510   5.41167   5.41846   5.43599
 Alpha virt. eigenvalues --    5.44987   5.46481   5.46884   5.48329   5.49016
 Alpha virt. eigenvalues --    5.50536   5.51938   5.53912   5.54415   5.54787
 Alpha virt. eigenvalues --    5.55577   5.55900   5.57839   5.58713   5.58900
 Alpha virt. eigenvalues --    5.59366   5.59854   5.62228   5.62766   5.64295
 Alpha virt. eigenvalues --    5.65072   5.65397   5.66294   5.68152   5.68738
 Alpha virt. eigenvalues --    5.71470   5.72014   5.72768   5.73972   5.74585
 Alpha virt. eigenvalues --    5.75908   5.76919   5.78019   5.78511   5.79279
 Alpha virt. eigenvalues --    5.82616   5.82784   5.82896   5.83401   5.83885
 Alpha virt. eigenvalues --    5.85814   5.86708   5.87426   5.91241   5.91917
 Alpha virt. eigenvalues --    5.93217   5.93965   5.98305   5.99597   6.00213
 Alpha virt. eigenvalues --    6.02443   6.03331   6.04403   6.05072   6.05906
 Alpha virt. eigenvalues --    6.08392   6.09801   6.10888   6.11637   6.12927
 Alpha virt. eigenvalues --    6.15006   6.15599   6.17665   6.19260   6.19955
 Alpha virt. eigenvalues --    6.20381   6.21430   6.22653   6.24093   6.32681
 Alpha virt. eigenvalues --    6.33342   6.37410   6.38769   6.42322   6.43521
 Alpha virt. eigenvalues --    6.43927   6.47615   6.49878   6.51634   6.52783
 Alpha virt. eigenvalues --    6.54435   6.59463   6.59785   6.61274   6.66070
 Alpha virt. eigenvalues --    6.66562   6.67818   6.68594   6.70346   6.71852
 Alpha virt. eigenvalues --    6.73325   6.75031   6.76760   6.77633   6.78401
 Alpha virt. eigenvalues --    6.81305   6.82212   6.82432   6.84119   6.85023
 Alpha virt. eigenvalues --    6.85346   6.86241   6.86644   6.86891   6.87449
 Alpha virt. eigenvalues --    6.88904   6.89785   6.91131   6.91748   6.92780
 Alpha virt. eigenvalues --    6.94164   6.94755   6.95539   6.96525   6.97647
 Alpha virt. eigenvalues --    6.98425   6.99373   7.01332   7.01700   7.06903
 Alpha virt. eigenvalues --    7.08425   7.10073   7.10917   7.13451   7.15393
 Alpha virt. eigenvalues --    7.16751   7.18552   7.19794   7.21785   7.22645
 Alpha virt. eigenvalues --    7.23420   7.24099   7.24645   7.26187   7.27950
 Alpha virt. eigenvalues --    7.28558   7.30375   7.31055   7.32596   7.35606
 Alpha virt. eigenvalues --    7.36831   7.37509   7.38448   7.39708   7.42547
 Alpha virt. eigenvalues --    7.47574   7.50324   7.54862   7.55900   7.59967
 Alpha virt. eigenvalues --    7.60482   7.61303   7.63761   7.65387   7.66036
 Alpha virt. eigenvalues --    7.66730   7.67249   7.69275   7.69449   7.70964
 Alpha virt. eigenvalues --    7.73496   7.80460   7.84896   7.87604   7.92681
 Alpha virt. eigenvalues --    7.95573   7.98322   8.05134   8.08052   8.12263
 Alpha virt. eigenvalues --    8.18953   8.32168   8.55652   8.59947   8.80167
 Alpha virt. eigenvalues --    8.80538   8.83467   8.84513   8.85814   8.86267
 Alpha virt. eigenvalues --    8.97147   8.98923   9.13040   9.15381   9.15743
 Alpha virt. eigenvalues --    9.18896   9.19559   9.20749   9.22139   9.27916
 Alpha virt. eigenvalues --    9.28497   9.30491   9.30930   9.33198   9.34399
 Alpha virt. eigenvalues --    9.36557   9.37350   9.39833   9.41974   9.43167
 Alpha virt. eigenvalues --    9.46796   9.52368   9.53734   9.55543   9.55824
 Alpha virt. eigenvalues --    9.64327   9.76948   9.80174   9.97955  10.00013
 Alpha virt. eigenvalues --   12.87153  13.22639  13.87568  14.89431  15.61999
 Alpha virt. eigenvalues --   15.63316  15.70081  15.74082  15.82745  16.22958
 Alpha virt. eigenvalues --   16.83319  17.15898  17.36128  17.65425  17.74133
 Alpha virt. eigenvalues --   17.93784  18.15623  18.73981  18.79700  19.64933
 Alpha virt. eigenvalues --   19.77611  20.38026  20.73717  21.27351  21.73774
          Condensed to atoms (all electrons):
               1          2          3          4          5          6
     1  C   10.447256  -0.819380  -1.264434   0.109834   0.062407  -0.792512
     2  N   -0.819380   9.161769   0.458702  -0.220306  -0.313513  -0.479844
     3  C   -1.264434   0.458702   6.904521   0.255352   0.079313  -0.013601
     4  O    0.109834  -0.220306   0.255352   9.227044  -0.194435  -0.136325
     5  O    0.062407  -0.313513   0.079313  -0.194435   8.943348  -0.074911
     6  C   -0.792512  -0.479844  -0.013601  -0.136325  -0.074911   9.586523
     7  C   -0.425995   0.282051   0.074970   0.028917   0.011560  -1.333134
     8  C   -0.138928  -0.086002  -0.068855  -0.008801   0.003997   0.320269
     9  C   -0.211767   0.114107  -0.012589   0.000412  -0.007745  -0.215599
    10  C   -1.212974  -0.486921  -0.097546  -0.011084  -0.039768  -0.057144
    11  H   -0.208410  -0.243185  -0.435807  -0.014475   0.107834  -0.012353
    12  H    0.285776  -0.054146  -0.174118  -0.045704  -0.008336   0.273230
    13  C    0.001477   0.001678  -0.002783  -0.000174   0.000026  -0.018806
    14  H    0.052485  -0.084041  -0.021862   0.000501  -0.001961   0.009100
    15  H   -0.776344   0.358876   0.131189  -0.005568  -0.005319   0.045701
    16  F   -0.003482  -0.000348   0.000654   0.000001  -0.000001   0.006204
    17  F    0.001667   0.000050   0.000058   0.000000   0.000000  -0.002014
    18  F   -0.007575  -0.003598  -0.000284  -0.000003  -0.000023   0.028852
    19  S   -0.132338  -0.011525  -0.011196   0.000770   0.000451   0.129793
    20  O    0.020352   0.002193   0.000940   0.000223   0.000005  -0.045886
    21  O    0.009259  -0.000566  -0.000666  -0.000062  -0.000020  -0.010242
    22  H   -0.048624   0.032556   0.026008  -0.005383   0.001484  -0.294923
    23  O   -0.017781   0.020009  -0.004919  -0.000130   0.016527  -0.012229
    24  O   -0.033993  -0.186025  -0.034529  -0.012911   0.004985  -0.023027
    25  C   -0.034855  -0.012280   0.004692  -0.002172  -0.026273  -0.011119
    26  C   -0.017232  -0.009225   0.009944  -0.000561  -0.006802  -0.000311
    27  C   -0.000210  -0.003255   0.001090  -0.000251   0.005489  -0.001219
    28  H   -0.001352   0.000909   0.000475  -0.000024  -0.001574   0.000403
    29  H   -0.002213   0.000639   0.000869  -0.000042  -0.001586   0.000314
    30  H   -0.001526  -0.001916   0.000814   0.000064  -0.001082   0.000003
    31  H    0.001033  -0.000214  -0.000481  -0.000040   0.000688  -0.000172
    32  H   -0.000162  -0.002177   0.000761   0.000071  -0.000961   0.000306
    33  C   -0.059978  -0.127295  -0.000366  -0.080900  -0.003925  -0.034114
    34  C    0.019953   0.033124  -0.035933  -0.029377   0.062493   0.001502
    35  C    0.002690   0.018220  -0.025114   0.013766   0.027466   0.000428
    36  H    0.003881  -0.033813   0.016204   0.030536  -0.006583  -0.001652
    37  H   -0.012668   0.000426   0.011974  -0.015337  -0.108564  -0.001879
    38  H    0.005151  -0.000397  -0.024930   0.030082  -0.033051   0.002430
    39  H   -0.007768   0.002881   0.000872  -0.005855  -0.023045   0.001785
    40  H    0.000821   0.001412  -0.004790   0.002224   0.006029   0.000512
    41  H    0.000828   0.000315   0.004103  -0.001653   0.000314  -0.000304
    42  H   -0.000185   0.000970   0.000197   0.002034   0.006514   0.000269
               7          8          9         10         11         12
     1  C   -0.425995  -0.138928  -0.211767  -1.212974  -0.208410   0.285776
     2  N    0.282051  -0.086002   0.114107  -0.486921  -0.243185  -0.054146
     3  C    0.074970  -0.068855  -0.012589  -0.097546  -0.435807  -0.174118
     4  O    0.028917  -0.008801   0.000412  -0.011084  -0.014475  -0.045704
     5  O    0.011560   0.003997  -0.007745  -0.039768   0.107834  -0.008336
     6  C   -1.333134   0.320269  -0.215599  -0.057144  -0.012353   0.273230
     7  C    9.924011  -1.425154   0.279633  -0.238378  -0.021517  -0.472070
     8  C   -1.425154   8.335408  -1.193310   0.256670   0.019063   0.079126
     9  C    0.279633  -1.193310   8.988734  -0.786512  -0.077356  -0.037878
    10  C   -0.238378   0.256670  -0.786512  10.442043   0.000238  -0.026843
    11  H   -0.021517   0.019063  -0.077356   0.000238   1.532094  -0.009241
    12  H   -0.472070   0.079126  -0.037878  -0.026843  -0.009241   0.754171
    13  C   -0.041591   0.127627  -0.036279  -0.024539  -0.000709  -0.000157
    14  H    0.005501  -0.334086   0.035363   0.013663  -0.002299   0.005450
    15  H    0.113349  -0.118058   0.013315  -0.702860  -0.046457  -0.017384
    16  F    0.005000  -0.058586  -0.016395   0.013609   0.000370   0.000105
    17  F   -0.001345   0.003454   0.000669  -0.001995   0.000005  -0.000156
    18  F   -0.023885  -0.048972  -0.001551   0.009854  -0.000119   0.001655
    19  S   -0.497174  -0.213902  -0.448875   0.105630  -0.003838   0.007636
    20  O   -0.016196   0.122367  -0.012410  -0.013720   0.000241  -0.000055
    21  O   -0.019312   0.165213  -0.040223  -0.015847  -0.000485  -0.000593
    22  H    0.264172  -0.233253   0.073006   0.006815   0.003002  -0.099324
    23  O    0.001062  -0.009935   0.034423   0.002931  -0.004432  -0.001111
    24  O    0.016685  -0.018493   0.031666   0.078641  -0.080123  -0.001919
    25  C    0.020165  -0.024861   0.043269  -0.044613  -0.076886  -0.003094
    26  C    0.001335   0.000314  -0.008217  -0.009718   0.022863   0.000078
    27  C    0.000750  -0.001107   0.002811  -0.004354  -0.005071  -0.000061
    28  H   -0.000030   0.000195  -0.001300   0.003296   0.001033   0.000045
    29  H    0.000063   0.000059  -0.000861   0.002367   0.000763   0.000010
    30  H    0.000081  -0.000060   0.000457  -0.001185  -0.002423  -0.000056
    31  H    0.000045  -0.000055  -0.000073   0.000353   0.000534  -0.000011
    32  H   -0.000060   0.000032   0.000588  -0.000573  -0.002939   0.000013
    33  C    0.012380  -0.005375  -0.003384  -0.003676  -0.029242  -0.017825
    34  C   -0.006843   0.002343  -0.001043  -0.008025  -0.005854   0.005288
    35  C   -0.001187   0.000413  -0.000089  -0.000765  -0.000235   0.000315
    36  H   -0.000207   0.000111  -0.000286  -0.001667   0.001024  -0.000534
    37  H    0.004207  -0.001399   0.000463   0.003106   0.003017  -0.003722
    38  H   -0.001626   0.000491  -0.000153  -0.000820   0.000243  -0.000571
    39  H    0.000204  -0.000004  -0.000121   0.001043  -0.000850   0.000009
    40  H   -0.000326   0.000138  -0.000034  -0.000082  -0.000358   0.000110
    41  H    0.000001   0.000018  -0.000016  -0.000061   0.000149   0.000059
    42  H   -0.000074   0.000004   0.000015  -0.000033   0.000084   0.000015
              13         14         15         16         17         18
     1  C    0.001477   0.052485  -0.776344  -0.003482   0.001667  -0.007575
     2  N    0.001678  -0.084041   0.358876  -0.000348   0.000050  -0.003598
     3  C   -0.002783  -0.021862   0.131189   0.000654   0.000058  -0.000284
     4  O   -0.000174   0.000501  -0.005568   0.000001   0.000000  -0.000003
     5  O    0.000026  -0.001961  -0.005319  -0.000001   0.000000  -0.000023
     6  C   -0.018806   0.009100   0.045701   0.006204  -0.002014   0.028852
     7  C   -0.041591   0.005501   0.113349   0.005000  -0.001345  -0.023885
     8  C    0.127627  -0.334086  -0.118058  -0.058586   0.003454  -0.048972
     9  C   -0.036279   0.035363   0.013315  -0.016395   0.000669  -0.001551
    10  C   -0.024539   0.013663  -0.702860   0.013609  -0.001995   0.009854
    11  H   -0.000709  -0.002299  -0.046457   0.000370   0.000005  -0.000119
    12  H   -0.000157   0.005450  -0.017384   0.000105  -0.000156   0.001655
    13  C    4.364607  -0.017260   0.000612   0.161746   0.158990   0.157459
    14  H   -0.017260   1.299356  -0.343354   0.006351  -0.001799   0.007009
    15  H    0.000612  -0.343354   1.795051  -0.002004  -0.000084  -0.000099
    16  F    0.161746   0.006351  -0.002004   9.276051  -0.036180  -0.032072
    17  F    0.158990  -0.001799  -0.000084  -0.036180   9.260152  -0.037778
    18  F    0.157459   0.007009  -0.000099  -0.032072  -0.037778   9.288879
    19  S    0.137879   0.014704  -0.041439   0.063347   0.027187   0.058461
    20  O    0.019671  -0.000033   0.000367   0.003180   0.006673   0.005952
    21  O    0.016259   0.019110   0.008572   0.006790   0.005727   0.003757
    22  H   -0.006473  -0.020304   0.003679   0.002846  -0.001338  -0.001046
    23  O   -0.000189  -0.007188  -0.219526   0.000019   0.000003  -0.000009
    24  O   -0.000109  -0.003407  -0.049111   0.000032   0.000000  -0.000010
    25  C   -0.000315  -0.011242  -0.008097   0.000171   0.000009  -0.000138
    26  C   -0.000002  -0.001315   0.000238   0.000000   0.000001  -0.000010
    27  C   -0.000010  -0.000322  -0.002042   0.000001   0.000000   0.000000
    28  H    0.000002   0.000195   0.001389   0.000003   0.000000  -0.000001
    29  H    0.000001  -0.000083   0.002903  -0.000002   0.000000  -0.000002
    30  H   -0.000001  -0.000113   0.001108  -0.000000   0.000000  -0.000001
    31  H   -0.000001  -0.000022   0.000096   0.000000   0.000000   0.000000
    32  H    0.000002  -0.000037   0.001014   0.000000  -0.000000   0.000000
    33  C   -0.000052  -0.000285  -0.000833   0.000007   0.000000  -0.000016
    34  C    0.000033   0.000075  -0.002474  -0.000009  -0.000000   0.000017
    35  C    0.000001  -0.000005  -0.000241  -0.000000   0.000000   0.000000
    36  H   -0.000001  -0.000032  -0.000046  -0.000000   0.000000  -0.000001
    37  H   -0.000006  -0.000087   0.001654   0.000002   0.000000  -0.000009
    38  H   -0.000015   0.000012  -0.000061   0.000002   0.000000   0.000011
    39  H    0.000006   0.000020   0.000036  -0.000002  -0.000000   0.000003
    40  H    0.000001  -0.000002  -0.000019  -0.000000  -0.000000   0.000000
    41  H   -0.000000   0.000001  -0.000013  -0.000000   0.000000   0.000000
    42  H   -0.000000   0.000001  -0.000030   0.000000   0.000000  -0.000000
              19         20         21         22         23         24
     1  C   -0.132338   0.020352   0.009259  -0.048624  -0.017781  -0.033993
     2  N   -0.011525   0.002193  -0.000566   0.032556   0.020009  -0.186025
     3  C   -0.011196   0.000940  -0.000666   0.026008  -0.004919  -0.034529
     4  O    0.000770   0.000223  -0.000062  -0.005383  -0.000130  -0.012911
     5  O    0.000451   0.000005  -0.000020   0.001484   0.016527   0.004985
     6  C    0.129793  -0.045886  -0.010242  -0.294923  -0.012229  -0.023027
     7  C   -0.497174  -0.016196  -0.019312   0.264172   0.001062   0.016685
     8  C   -0.213902   0.122367   0.165213  -0.233253  -0.009935  -0.018493
     9  C   -0.448875  -0.012410  -0.040223   0.073006   0.034423   0.031666
    10  C    0.105630  -0.013720  -0.015847   0.006815   0.002931   0.078641
    11  H   -0.003838   0.000241  -0.000485   0.003002  -0.004432  -0.080123
    12  H    0.007636  -0.000055  -0.000593  -0.099324  -0.001111  -0.001919
    13  C    0.137879   0.019671   0.016259  -0.006473  -0.000189  -0.000109
    14  H    0.014704  -0.000033   0.019110  -0.020304  -0.007188  -0.003407
    15  H   -0.041439   0.000367   0.008572   0.003679  -0.219526  -0.049111
    16  F    0.063347   0.003180   0.006790   0.002846   0.000019   0.000032
    17  F    0.027187   0.006673   0.005727  -0.001338   0.000003   0.000000
    18  F    0.058461   0.005952   0.003757  -0.001046  -0.000009  -0.000010
    19  S   14.839905   0.079448   0.061810  -0.112548   0.000910   0.000643
    20  O    0.079448   8.912085  -0.081863   0.028811  -0.000015  -0.000008
    21  O    0.061810  -0.081863   8.896417   0.006839   0.000082   0.000020
    22  H   -0.112548   0.028811   0.006839   0.978518   0.000270   0.000568
    23  O    0.000910  -0.000015   0.000082   0.000270   8.973489  -0.090258
    24  O    0.000643  -0.000008   0.000020   0.000568  -0.090258   8.864607
    25  C   -0.000713   0.000121  -0.000114   0.001202   0.494652   0.413580
    26  C   -0.000307   0.000009  -0.000021  -0.000032  -0.152641  -0.123313
    27  C    0.000039  -0.000001   0.000000   0.000029  -0.012665  -0.030959
    28  H   -0.000056   0.000002  -0.000007  -0.000014  -0.000613  -0.031310
    29  H   -0.000057   0.000002  -0.000007  -0.000003   0.002605  -0.031760
    30  H    0.000011  -0.000000   0.000000   0.000014   0.003317  -0.002312
    31  H    0.000003  -0.000000  -0.000000   0.000002  -0.004016  -0.001369
    32  H    0.000011  -0.000000   0.000002   0.000000   0.004085  -0.006788
    33  C    0.000105   0.000011  -0.000017   0.001051   0.001491   0.019346
    34  C   -0.000069   0.000001   0.000006  -0.000656  -0.000757  -0.000238
    35  C   -0.000009  -0.000000   0.000000  -0.000001   0.000001  -0.000189
    36  H   -0.000007   0.000002  -0.000001   0.000020   0.000015  -0.006136
    37  H   -0.000004   0.000003  -0.000004   0.000287   0.000058  -0.000963
    38  H   -0.000012  -0.000010   0.000001   0.000043  -0.000057  -0.000871
    39  H   -0.000000   0.000001  -0.000001  -0.000046  -0.000104   0.001398
    40  H   -0.000002  -0.000000   0.000000  -0.000013   0.000007  -0.000016
    41  H    0.000000   0.000000   0.000000  -0.000005  -0.000005  -0.000004
    42  H   -0.000000  -0.000000   0.000000   0.000002   0.000002   0.000060
              25         26         27         28         29         30
     1  C   -0.034855  -0.017232  -0.000210  -0.001352  -0.002213  -0.001526
     2  N   -0.012280  -0.009225  -0.003255   0.000909   0.000639  -0.001916
     3  C    0.004692   0.009944   0.001090   0.000475   0.000869   0.000814
     4  O   -0.002172  -0.000561  -0.000251  -0.000024  -0.000042   0.000064
     5  O   -0.026273  -0.006802   0.005489  -0.001574  -0.001586  -0.001082
     6  C   -0.011119  -0.000311  -0.001219   0.000403   0.000314   0.000003
     7  C    0.020165   0.001335   0.000750  -0.000030   0.000063   0.000081
     8  C   -0.024861   0.000314  -0.001107   0.000195   0.000059  -0.000060
     9  C    0.043269  -0.008217   0.002811  -0.001300  -0.000861   0.000457
    10  C   -0.044613  -0.009718  -0.004354   0.003296   0.002367  -0.001185
    11  H   -0.076886   0.022863  -0.005071   0.001033   0.000763  -0.002423
    12  H   -0.003094   0.000078  -0.000061   0.000045   0.000010  -0.000056
    13  C   -0.000315  -0.000002  -0.000010   0.000002   0.000001  -0.000001
    14  H   -0.011242  -0.001315  -0.000322   0.000195  -0.000083  -0.000113
    15  H   -0.008097   0.000238  -0.002042   0.001389   0.002903   0.001108
    16  F    0.000171   0.000000   0.000001   0.000003  -0.000002  -0.000000
    17  F    0.000009   0.000001   0.000000   0.000000   0.000000   0.000000
    18  F   -0.000138  -0.000010   0.000000  -0.000001  -0.000002  -0.000001
    19  S   -0.000713  -0.000307   0.000039  -0.000056  -0.000057   0.000011
    20  O    0.000121   0.000009  -0.000001   0.000002   0.000002  -0.000000
    21  O   -0.000114  -0.000021   0.000000  -0.000007  -0.000007   0.000000
    22  H    0.001202  -0.000032   0.000029  -0.000014  -0.000003   0.000014
    23  O    0.494652  -0.152641  -0.012665  -0.000613   0.002605   0.003317
    24  O    0.413580  -0.123313  -0.030959  -0.031310  -0.031760  -0.002312
    25  C    5.212544  -0.384186   0.086602  -0.061317  -0.055591  -0.011345
    26  C   -0.384186   5.825251   0.082678   0.490728   0.487317   0.046072
    27  C    0.086602   0.082678   5.715215  -0.030236  -0.028379   0.357930
    28  H   -0.061317   0.490728  -0.030236   0.388388   0.026550  -0.001489
    29  H   -0.055591   0.487317  -0.028379   0.026550   0.389592   0.002306
    30  H   -0.011345   0.046072   0.357930  -0.001489   0.002306   0.334383
    31  H    0.010155  -0.063003   0.441616  -0.005524  -0.007700  -0.009706
    32  H   -0.009403   0.044467   0.357203   0.001426   0.000908   0.025111
    33  C   -0.000394   0.002834  -0.001827  -0.000151   0.000106   0.002371
    34  C    0.000043   0.000036  -0.000043   0.000147   0.000065  -0.001088
    35  C   -0.000241  -0.000143  -0.000073  -0.000004  -0.000006   0.000012
    36  H   -0.001903  -0.000634   0.000759  -0.000084  -0.000049   0.000260
    37  H    0.000457   0.000191  -0.000041  -0.000000   0.000012   0.000116
    38  H   -0.000250  -0.000059   0.000013  -0.000004   0.000000   0.000069
    39  H    0.000910   0.000381  -0.000121   0.000102   0.000032  -0.000079
    40  H   -0.000037  -0.000022  -0.000017  -0.000003  -0.000002   0.000012
    41  H   -0.000015  -0.000008  -0.000004   0.000001  -0.000001  -0.000008
    42  H   -0.000038   0.000003   0.000023   0.000000  -0.000000   0.000010
              31         32         33         34         35         36
     1  C    0.001033  -0.000162  -0.059978   0.019953   0.002690   0.003881
     2  N   -0.000214  -0.002177  -0.127295   0.033124   0.018220  -0.033813
     3  C   -0.000481   0.000761  -0.000366  -0.035933  -0.025114   0.016204
     4  O   -0.000040   0.000071  -0.080900  -0.029377   0.013766   0.030536
     5  O    0.000688  -0.000961  -0.003925   0.062493   0.027466  -0.006583
     6  C   -0.000172   0.000306  -0.034114   0.001502   0.000428  -0.001652
     7  C    0.000045  -0.000060   0.012380  -0.006843  -0.001187  -0.000207
     8  C   -0.000055   0.000032  -0.005375   0.002343   0.000413   0.000111
     9  C   -0.000073   0.000588  -0.003384  -0.001043  -0.000089  -0.000286
    10  C    0.000353  -0.000573  -0.003676  -0.008025  -0.000765  -0.001667
    11  H    0.000534  -0.002939  -0.029242  -0.005854  -0.000235   0.001024
[...]
   956. RY*(  21) O  24                  0.00000     6.74471   
   957. RY*(  22) O  24                  0.00001     2.82547   
   958. RY*(  23) O  24                  0.00001     3.19644   
   959. RY*(  24) O  24                  0.00000     6.74453   
   960. RY*(  25) O  24                  0.00000     4.59250   
   961. RY*(  26) O  24                  0.00001     5.57012   
   962. RY*(  27) O  24                  0.00000     7.22094   
   963. RY*(  28) O  24                  0.00000     3.61103   
   964. RY*(  29) O  24                  0.00000     5.89179   
   965. RY*(  30) O  24                  0.00000     3.49058   
   966. RY*(  31) O  24                  0.00000     5.82447   
   967. RY*(  32) O  24                  0.00000     4.08320   
   968. RY*(  33) O  24                  0.00000     6.48622   
   969. RY*(  34) O  24                  0.00000     3.50634   
   970. RY*(  35) O  24                  0.00000     6.15049   
   971. RY*(  36) O  24                  0.00000     3.52922   
   972. RY*(  37) O  24                  0.00000     6.25991   
   973. RY*(  38) O  24                  0.00000     4.38956   
   974. RY*(  39) O  24                  0.00000     6.75910   
   975. RY*(  40) O  24                  0.00001     3.72627   
   976. RY*(  41) O  24                  0.00000     6.78549   
   977. RY*(   1) C  25                  0.01839     1.67426   
   978. RY*(   2) C  25                  0.00999     1.66708   
   979. RY*(   3) C  25                  0.00445     2.32963   
   980. RY*(   4) C  25                  0.00232     2.96997   
   981. RY*(   5) C  25                  0.00142     3.28866   
   982. RY*(   6) C  25                  0.00093     1.71743   
   983. RY*(   7) C  25                  0.00040     1.40396   
   984. RY*(   8) C  25                  0.00031     2.39780   
   985. RY*(   9) C  25                  0.00011     1.92950   
   986. RY*(  10) C  25                  0.00006     2.08656   
   987. RY*(  11) C  25                  0.00007     1.43126   
   988. RY*(  12) C  25                  0.00004     2.13375   
   989. RY*(  13) C  25                  0.00001     2.40221   
   990. RY*(  14) C  25                  0.00002     1.29710   
   991. RY*(  15) C  25                  0.00000     3.99875   
   992. RY*(  16) C  25                  0.00000     1.92106   
   993. RY*(  17) C  25                  0.00000     1.50586   
   994. RY*(  18) C  25                  0.00000     3.39062   
   995. RY*(  19) C  25                  0.00000     2.34341   
   996. RY*(  20) C  25                  0.00000     2.75516   
   997. RY*(  21) C  25                  0.00000     2.70300   
   998. RY*(  22) C  25                  0.00000     2.18358   
   999. RY*(  23) C  25                  0.00001     3.13476   
  1000. RY*(  24) C  25                  0.00000     3.59309   
  1001. RY*(  25) C  25                  0.00001     2.11892   
  1002. RY*(  26) C  25                  0.00000     4.38138   
  1003. RY*(  27) C  25                  0.00000     2.84125   
  1004. RY*(  28) C  25                  0.00000     3.52569   
  1005. RY*(  29) C  25                  0.00000     3.13323   
  1006. RY*(  30) C  25                  0.00001     3.47740   
  1007. RY*(  31) C  25                  0.00000     3.59724   
  1008. RY*(  32) C  25                  0.00000     3.63075   
  1009. RY*(  33) C  25                  0.00000     3.59413   
  1010. RY*(  34) C  25                  0.00000     3.65757   
  1011. RY*(  35) C  25                  0.00000     3.16492   
  1012. RY*(  36) C  25                  0.00000     3.40039   
  1013. RY*(  37) C  25                  0.00000     3.54354   
  1014. RY*(  38) C  25                  0.00000     4.98738   
  1015. RY*(  39) C  25                  0.00000     7.05147   
  1016. RY*(  40) C  25                  0.00000     4.69009   
  1017. RY*(  41) C  25                  0.00000     6.41369   
  1018. RY*(   1) C  26                  0.00294     1.80826   
  1019. RY*(   2) C  26                  0.00180     2.24427   
  1020. RY*(   3) C  26                  0.00180     1.63405   
  1021. RY*(   4) C  26                  0.00095     1.48579   
  1022. RY*(   5) C  26                  0.00046     1.40187   
  1023. RY*(   6) C  26                  0.00032     1.93087   
  1024. RY*(   7) C  26                  0.00029     1.87200   
  1025. RY*(   8) C  26                  0.00019     1.92563   
  1026. RY*(   9) C  26                  0.00011     2.06608   
  1027. RY*(  10) C  26                  0.00010     2.37861   
  1028. RY*(  11) C  26                  0.00000     2.20018   
  1029. RY*(  12) C  26                  0.00000     1.70207   
  1030. RY*(  13) C  26                  0.00001     2.28113   
  1031. RY*(  14) C  26                  0.00001     3.46119   
  1032. RY*(  15) C  26                  0.00000     1.86603   
  1033. RY*(  16) C  26                  0.00000     1.72429   
  1034. RY*(  17) C  26                  0.00000     1.74878   
  1035. RY*(  18) C  26                  0.00000     3.27377   
  1036. RY*(  19) C  26                  0.00000     1.39763   
  1037. RY*(  20) C  26                  0.00000     3.68151   
  1038. RY*(  21) C  26                  0.00000     6.43736   
  1039. RY*(  22) C  26                  0.00001     2.10484   
  1040. RY*(  23) C  26                  0.00001     3.82940   
  1041. RY*(  24) C  26                  0.00000     2.10612   
  1042. RY*(  25) C  26                  0.00000     1.14518   
  1043. RY*(  26) C  26                  0.00000     3.60101   
  1044. RY*(  27) C  26                  0.00000     1.76781   
  1045. RY*(  28) C  26                  0.00000     4.22816   
  1046. RY*(  29) C  26                  0.00000     2.64008   
  1047. RY*(  30) C  26                  0.00000     4.25236   
  1048. RY*(  31) C  26                  0.00000     3.53978   
  1049. RY*(  32) C  26                  0.00000     4.54915   
  1050. RY*(  33) C  26                  0.00000     3.13866   
  1051. RY*(  34) C  26                  0.00000     4.21372   
  1052. RY*(  35) C  26                  0.00000     2.95923   
  1053. RY*(  36) C  26                  0.00000     4.26672   
  1054. RY*(  37) C  26                  0.00000     2.79583   
  1055. RY*(  38) C  26                  0.00000     4.32653   
  1056. RY*(  39) C  26                  0.00000     3.19352   
  1057. RY*(  40) C  26                  0.00000     4.31675   
  1058. RY*(  41) C  26                  0.00000     3.47792   
  1059. RY*(   1) C  27                  0.00190     1.61632   
  1060. RY*(   2) C  27                  0.00074     1.94358   
  1061. RY*(   3) C  27                  0.00034     1.97751   
  1062. RY*(   4) C  27                  0.00016     2.00661   
  1063. RY*(   5) C  27                  0.00011     1.37943   
  1064. RY*(   6) C  27                  0.00005     2.12606   
  1065. RY*(   7) C  27                  0.00006     1.80294   
  1066. RY*(   8) C  27                  0.00004     1.69671   
  1067. RY*(   9) C  27                  0.00003     3.02033   
  1068. RY*(  10) C  27                  0.00001     2.05223   
  1069. RY*(  11) C  27                  0.00000     1.86131   
  1070. RY*(  12) C  27                  0.00000     1.47736   
  1071. RY*(  13) C  27                  0.00000     1.48941   
  1072. RY*(  14) C  27                  0.00001     3.11786   
  1073. RY*(  15) C  27                  0.00000     1.95056   
  1074. RY*(  16) C  27                  0.00000     1.90767   
  1075. RY*(  17) C  27                  0.00000     3.09821   
  1076. RY*(  18) C  27                  0.00000     2.01927   
  1077. RY*(  19) C  27                  0.00000     5.52681   
  1078. RY*(  20) C  27                  0.00000     3.22701   
  1079. RY*(  21) C  27                  0.00000     1.80578   
  1080. RY*(  22) C  27                  0.00001     1.78376   
  1081. RY*(  23) C  27                  0.00000     2.89115   
  1082. RY*(  24) C  27                  0.00000     2.14450   
  1083. RY*(  25) C  27                  0.00000     1.47662   
  1084. RY*(  26) C  27                  0.00000     3.36807   
  1085. RY*(  27) C  27                  0.00000     1.94673   
  1086. RY*(  28) C  27                  0.00000     4.11093   
  1087. RY*(  29) C  27                  0.00000     2.35212   
  1088. RY*(  30) C  27                  0.00000     4.18464   
  1089. RY*(  31) C  27                  0.00000     2.67309   
  1090. RY*(  32) C  27                  0.00000     4.37183   
  1091. RY*(  33) C  27                  0.00000     2.68486   
  1092. RY*(  34) C  27                  0.00000     4.18605   
  1093. RY*(  35) C  27                  0.00000     2.57464   
  1094. RY*(  36) C  27                  0.00000     4.21866   
  1095. RY*(  37) C  27                  0.00000     2.26824   
  1096. RY*(  38) C  27                  0.00000     4.25263   
  1097. RY*(  39) C  27                  0.00000     2.58869   
  1098. RY*(  40) C  27                  0.00000     4.28236   
  1099. RY*(  41) C  27                  0.00000     2.41236   
  1100. RY*(   1) H  28                  0.00107     0.84097   
  1101. RY*(   2) H  28                  0.00039     0.88081   
  1102. RY*(   3) H  28                  0.00033     1.18727   
  1103. RY*(   4) H  28                  0.00014     1.79106   
  1104. RY*(   5) H  28                  0.00014     2.84653   
  1105. RY*(   6) H  28                  0.00008     2.15388   
  1106. RY*(   7) H  28                  0.00002     1.71153   
  1107. RY*(   8) H  28                  0.00001     4.19402   
  1108. RY*(   9) H  28                  0.00001     2.58187   
  1109. RY*(  10) H  28                  0.00001     2.85717   
  1110. RY*(  11) H  28                  0.00001     4.87415   
  1111. RY*(  12) H  28                  0.00001     3.18194   
  1112. RY*(  13) H  28                  0.00001     2.09182   
  1113. RY*(  14) H  28                  0.00000     3.95003   
  1114. RY*(  15) H  28                  0.00000     3.27351   
  1115. RY*(  16) H  28                  0.00000     4.14086   
  1116. RY*(  17) H  28                  0.00001     2.46299   
  1117. RY*(  18) H  28                  0.00001     4.52938   
  1118. RY*(  19) H  28                  0.00001     2.33075   
  1119. RY*(  20) H  28                  0.00000     3.81810   
  1120. RY*(  21) H  28                  0.00000     2.33347   
  1121. RY*(  22) H  28                  0.00001     4.26104   
  1122. RY*(   1) H  29                  0.00107     0.84064   
  1123. RY*(   2) H  29                  0.00037     0.89787   
  1124. RY*(   3) H  29                  0.00034     1.16208   
  1125. RY*(   4) H  29                  0.00015     2.13910   
  1126. RY*(   5) H  29                  0.00013     2.50273   
  1127. RY*(   6) H  29                  0.00009     2.12612   
  1128. RY*(   7) H  29                  0.00003     2.82849   
  1129. RY*(   8) H  29                  0.00001     4.19657   
  1130. RY*(   9) H  29                  0.00001     2.55686   
  1131. RY*(  10) H  29                  0.00000     3.59508   
  1132. RY*(  11) H  29                  0.00001     3.82367   
  1133. RY*(  12) H  29                  0.00001     3.24279   
  1134. RY*(  13) H  29                  0.00000     2.33301   
  1135. RY*(  14) H  29                  0.00000     4.17215   
  1136. RY*(  15) H  29                  0.00000     2.58759   
  1137. RY*(  16) H  29                  0.00000     3.88810   
  1138. RY*(  17) H  29                  0.00000     2.59481   
  1139. RY*(  18) H  29                  0.00000     4.42503   
  1140. RY*(  19) H  29                  0.00001     2.51791   
  1141. RY*(  20) H  29                  0.00000     3.95652   
  1142. RY*(  21) H  29                  0.00000     2.33354   
  1143. RY*(  22) H  29                  0.00001     3.57360   
  1144. RY*(   1) H  30                  0.00098     0.73527   
  1145. RY*(   2) H  30                  0.00040     1.11348   
  1146. RY*(   3) H  30                  0.00021     1.44260   
  1147. RY*(   4) H  30                  0.00020     1.90677   
  1148. RY*(   5) H  30                  0.00010     2.23769   
  1149. RY*(   6) H  30                  0.00007     2.40798   
  1150. RY*(   7) H  30                  0.00003     2.01311   
  1151. RY*(   8) H  30                  0.00001     2.27913   
  1152. RY*(   9) H  30                  0.00000     3.19731   
  1153. RY*(  10) H  30                  0.00001     3.74717   
  1154. RY*(  11) H  30                  0.00001     2.86678   
  1155. RY*(  12) H  30                  0.00000     2.83523   
  1156. RY*(  13) H  30                  0.00000     2.01859   
  1157. RY*(  14) H  30                  0.00000     4.12298   
  1158. RY*(  15) H  30                  0.00001     2.14774   
  1159. RY*(  16) H  30                  0.00000     4.14252   
  1160. RY*(  17) H  30                  0.00000     2.67197   
  1161. RY*(  18) H  30                  0.00000     5.10709   
  1162. RY*(  19) H  30                  0.00000     4.26221   
  1163. RY*(  20) H  30                  0.00000     4.06109   
  1164. RY*(  21) H  30                  0.00000     2.01541   
  1165. RY*(  22) H  30                  0.00000     4.54650   
  1166. RY*(   1) H  31                  0.00095     0.70081   
  1167. RY*(   2) H  31                  0.00032     1.31774   
  1168. RY*(   3) H  31                  0.00016     1.64925   
  1169. RY*(   4) H  31                  0.00013     2.13881   
  1170. RY*(   5) H  31                  0.00007     2.30050   
  1171. RY*(   6) H  31                  0.00004     1.33071   
  1172. RY*(   7) H  31                  0.00001     1.23476   
  1173. RY*(   8) H  31                  0.00001     3.97754   
  1174. RY*(   9) H  31                  0.00000     3.78643   
  1175. RY*(  10) H  31                  0.00001     3.33096   
  1176. RY*(  11) H  31                  0.00001     3.30410   
  1177. RY*(  12) H  31                  0.00000     3.73938   
  1178. RY*(  13) H  31                  0.00001     2.21146   
  1179. RY*(  14) H  31                  0.00000     4.64419   
  1180. RY*(  15) H  31                  0.00000     1.76057   
  1181. RY*(  16) H  31                  0.00000     3.95155   
  1182. RY*(  17) H  31                  0.00000     1.89196   
  1183. RY*(  18) H  31                  0.00000     4.35605   
  1184. RY*(  19) H  31                  0.00001     2.11301   
  1185. RY*(  20) H  31                  0.00000     4.72845   
  1186. RY*(  21) H  31                  0.00000     1.96245   
  1187. RY*(  22) H  31                  0.00000     4.32666   
  1188. RY*(   1) H  32                  0.00102     0.68836   
  1189. RY*(   2) H  32                  0.00042     1.12547   
  1190. RY*(   3) H  32                  0.00021     1.40291   
  1191. RY*(   4) H  32                  0.00021     1.86098   
  1192. RY*(   5) H  32                  0.00010     2.20013   
  1193. RY*(   6) H  32                  0.00007     2.49325   
  1194. RY*(   7) H  32                  0.00003     2.03079   
  1195. RY*(   8) H  32                  0.00001     3.76561   
  1196. RY*(   9) H  32                  0.00001     2.20788   
  1197. RY*(  10) H  32                  0.00000     1.92549   
  1198. RY*(  11) H  32                  0.00000     5.06367   
  1199. RY*(  12) H  32                  0.00000     3.71290   
  1200. RY*(  13) H  32                  0.00000     2.25382   
  1201. RY*(  14) H  32                  0.00000     4.06688   
  1202. RY*(  15) H  32                  0.00000     2.23586   
  1203. RY*(  16) H  32                  0.00001     2.10261   
  1204. RY*(  17) H  32                  0.00000     2.33949   
  1205. RY*(  18) H  32                  0.00000     4.90627   
  1206. RY*(  19) H  32                  0.00000     4.33460   
  1207. RY*(  20) H  32                  0.00000     4.26753   
  1208. RY*(  21) H  32                  0.00000     2.16485   
  1209. RY*(  22) H  32                  0.00000     4.61149   
  1513. BD*(   1) O  23 - C  25          0.03945     1.86784   
  1514. BD*(   1) O  24 - C  25          0.05230     6.89355   
  1515. BD*(   1) C  25 - C  26          0.08141     1.86130   
  1516. BD*(   1) C  26 - C  27          0.00680     2.81445   
  1517. BD*(   1) C  26 - H  28          0.01140    16.83914   
  1518. BD*(   1) C  26 - H  29          0.01140     2.12139   
  1519. BD*(   1) C  27 - H  30          0.00776     2.29660   
  1520. BD*(   1) C  27 - H  31          0.00759    14.80982   
  1521. BD*(   1) C  27 - H  32          0.00772    -5.54807   
       -------------------------------
              Total Lewis   38.92844  ( 97.5638%)
        Valence non-Lewis    0.90241  (  2.2616%)
        Rydberg non-Lewis    0.06964  (  0.1745%)
       -------------------------------
            Total unit  2   39.90048  (100.0000%)
           Charge unit  2   -0.90048
 Unable to Open any file for archive entry.
 1\1\GINC-GADI-HMEM-CLX-0038\SP\RDSDPBEP86-FC\Aug-CC-pVTZ\C14H17F3N1O6S
 1(1-)\HIO507\28-Apr-2021\0\\# DSDPBEP86/AUG-cc-PVTZ SCF=Tight INT(grid
 =ultrafine) Pop=NBO MaxDisk=1400000MB\\CP21CA_carboxy.DSDPBEP86_AUG-cc
 -PVTZ\\-1,1\C,0,-5.0665981484,0.5989137587,-0.592093485\N,0,-3.8555857
 733,0.0225004312,-0.9333666791\C,0,-2.6490894415,0.6504156366,-0.93394
 41561\O,0,-2.4125678438,1.8065943589,-0.6465531483\O,0,-1.6908826696,-
 0.2216585543,-1.3102250781\C,0,-5.2163830562,1.9368114266,-0.176139125
 \C,0,-6.4721920904,2.4216221733,0.1447381542\C,0,-7.5792392879,1.57997
 97694,0.0602204382\C,0,-7.447540517,0.2488615936,-0.3500915753\C,0,-6.
 1995158075,-0.2391111909,-0.6747090228\H,0,-3.8690611431,-0.9989906972
 ,-1.2305616508\H,0,-4.352686214,2.5785381125,-0.1045139776\C,0,-9.7493
 439704,2.8088070132,-1.2657470181\H,0,-8.3173632348,-0.395953026,-0.40
 32266654\H,0,-6.0867585743,-1.2769757616,-0.9926433752\F,0,-9.80844551
 31,1.7970360652,-2.1214336746\F,0,-10.9625045863,3.3369460508,-1.14147
 38796\F,0,-8.9299461152,3.7343475853,-1.752655464\S,0,-9.1605377362,2.
 2251474114,0.4069439347\O,0,-9.0605667827,3.4456287189,1.1878773478\O,
 0,-10.0913775815,1.17049635,0.7607670122\H,0,-6.5985882444,3.447110785
 4,0.4724499731\O,0,-5.9411181149,-3.2290392525,-1.6283684362\O,0,-3.80
 99884374,-2.530572891,-1.7081481077\C,0,-4.7291741598,-3.385675773,-1.
 8529327443\C,0,-4.294915466,-4.7744982092,-2.3612883587\C,0,-2.8067702
 926,-4.9067642346,-2.6559709139\H,0,-4.8952188704,-4.991264466,-3.2505
 497353\H,0,-4.6132581578,-5.5022721232,-1.6077899413\H,0,-2.4977877664
 ,-4.1849180103,-3.414009956\H,0,-2.5560768119,-5.912380497,-3.00953029
 52\H,0,-2.2167426647,-4.6940775667,-1.7630794033\C,0,-0.3720950922,0.3
 014476952,-1.4085631954\C,0,-0.1537506075,1.0406196334,-2.7188895248\C
 ,0,1.2872075641,1.5282238555,-2.8395796583\H,0,0.2769122648,-0.5740653
 923,-1.3454500859\H,0,-0.1708232886,0.9569636616,-0.5576864599\H,0,-0.
 8455415601,1.8848885137,-2.7643183349\H,0,-0.4025456961,0.3675409095,-
 3.5441792051\H,0,1.5376913749,2.2185454387,-2.0295192605\H,0,1.4522505
 21,2.0519421732,-3.7831341984\H,0,1.993569593,0.6941185243,-2.79571107
 02\\Version=ES64L-G16RevC.01\State=1-A\HF=-1743.261994\MP2=-1745.72367
 26\RMSD=4.624e-09\PG=C01 [X(C14H17F3N1O6S1)]\\@
 The archive entry for this job was punched.


 ACCORDING TO HEN3RY, LIFE IS MUCH LIKE A SEWER........
 YOU GET OUT OF IT JUST WHAT YOU PUT INTO IT...........
                         TOM LEHRER - (THE 3 IS SILENT)
 Job cpu time:      10 days 21 hours 51 minutes  9.1 seconds.
 Elapsed time:       0 days  8 hours 13 minutes 23.4 seconds.
 File lengths (MBytes):  RWF=   1228 Int=      0 D2E=      0 Chk=    156 Scr=      1
 Normal termination of Gaussian 16 at Wed Apr 28 20:10:46 2021.
