 Entering Gaussian System, Link 0=/apps/gaussian/g09e01/g09/g09
 Initial command:
 /apps/gaussian/g09e01/g09/l1.exe "/jobfs/local/3588727.r-man2/Gau-30199.inp" -scrdir="/jobfs/local/3588727.r-man2/"
 Entering Link 1 = /apps/gaussian/g09e01/g09/l1.exe PID=     30224.
  
 Copyright (c) 1988,1990,1992,1993,1995,1998,2003,2009,2015,
            Gaussian, Inc.  All Rights Reserved.
  
 This is part of the Gaussian(R) 09 program.  It is based on
 the Gaussian(R) 03 system (copyright 2003, Gaussian, Inc.),
 the Gaussian(R) 98 system (copyright 1998, Gaussian, Inc.),
 the Gaussian(R) 94 system (copyright 1995, Gaussian, Inc.),
 the Gaussian 92(TM) system (copyright 1992, Gaussian, Inc.),
 the Gaussian 90(TM) system (copyright 1990, Gaussian, Inc.),
 the Gaussian 88(TM) system (copyright 1988, Gaussian, Inc.),
 the Gaussian 86(TM) system (copyright 1986, Carnegie Mellon
 University), and the Gaussian 82(TM) system (copyright 1983,
 Carnegie Mellon University). Gaussian is a federally registered
 trademark of Gaussian, Inc.
  
 This software contains proprietary and confidential information,
 including trade secrets, belonging to Gaussian, Inc.
  
 This software is provided under written license and may be
 used, copied, transmitted, or stored only in accord with that
 written license.
  
 The following legend is applicable only to US Government
 contracts under FAR:
  
                    RESTRICTED RIGHTS LEGEND
  
 Use, reproduction and disclosure by the US Government is
 subject to restrictions as set forth in subparagraphs (a)
 and (c) of the Commercial Computer Software - Restricted
 Rights clause in FAR 52.227-19.
  
 Gaussian, Inc.
 340 Quinnipiac St., Bldg. 40, Wallingford CT 06492
  
  
 ---------------------------------------------------------------
 Warning -- This program may not be used in any manner that
 competes with the business of Gaussian, Inc. or will provide
 assistance to any competitor of Gaussian, Inc.  The licensee
 of this program is prohibited from giving any competitor of
 Gaussian, Inc. access to this program.  By using this program,
 the user acknowledges that Gaussian, Inc. is engaged in the
 business of creating and licensing software in the field of
 computational chemistry and represents and warrants to the
 licensee that it is not a competitor of Gaussian, Inc. and that
 it will not use this program in any manner prohibited above.
 ---------------------------------------------------------------
  

 Cite this work as:
 Gaussian 09, Revision E.01,
 M. J. Frisch, G. W. Trucks, H. B. Schlegel, G. E. Scuseria, 
 M. A. Robb, J. R. Cheeseman, G. Scalmani, V. Barone, B. Mennucci, 
 G. A. Petersson, H. Nakatsuji, M. Caricato, X. Li, H. P. Hratchian, 
 A. F. Izmaylov, J. Bloino, G. Zheng, J. L. Sonnenberg, M. Hada, 
 M. Ehara, K. Toyota, R. Fukuda, J. Hasegawa, M. Ishida, T. Nakajima, 
 Y. Honda, O. Kitao, H. Nakai, T. Vreven, J. A. Montgomery, Jr., 
 J. E. Peralta, F. Ogliaro, M. Bearpark, J. J. Heyd, E. Brothers, 
 K. N. Kudin, V. N. Staroverov, T. Keith, R. Kobayashi, J. Normand, 
 K. Raghavachari, A. Rendell, J. C. Burant, S. S. Iyengar, J. Tomasi, 
 M. Cossi, N. Rega, J. M. Millam, M. Klene, J. E. Knox, J. B. Cross, 
 V. Bakken, C. Adamo, J. Jaramillo, R. Gomperts, R. E. Stratmann, 
 O. Yazyev, A. J. Austin, R. Cammi, C. Pomelli, J. W. Ochterski, 
 R. L. Martin, K. Morokuma, V. G. Zakrzewski, G. A. Voth, 
 P. Salvador, J. J. Dannenberg, S. Dapprich, A. D. Daniels, 
 O. Farkas, J. B. Foresman, J. V. Ortiz, J. Cioslowski, 
 and D. J. Fox, Gaussian, Inc., Wallingford CT, 2013.
 
 ******************************************
 Gaussian 09:  ES64L-G09RevE.01 30-Nov-2015
                14-Nov-2019 
 ******************************************
 %chk=CP22CA.M062X_6-311pGd_opt_GD3.chk
 %mem=196608000
 %nproc=4
 Will use up to    4 processors via shared memory.
 ----------------------------------------------------------------------
 # M062X/6-311+G* SCF=Tight INT(grid=ultrafine) OPT IOP(2/17=4) Empiric
 alDispersion=GD3 maxdisk=2684354560
 ----------------------------------------------------------------------
 1/14=-1,18=20,19=15,26=4,38=1/1,3;
 2/9=110,12=2,17=4,18=5,40=1/2;
 3/5=4,6=6,7=11,11=2,16=1,25=1,30=1,71=1,74=-55,75=-5,124=31/1,2,3;
 4//1;
 5/5=2,32=2,38=5/2;
 6/7=2,8=2,9=2,10=2,28=1/1;
 7//1,2,3,16;
 1/14=-1,18=20,19=15,26=4/3(2);
 2/9=110,17=4/2;
 99//99;
 2/9=110,17=4/2;
 3/5=4,6=6,7=11,11=2,16=1,25=1,30=1,71=1,74=-55,75=-5,124=31/1,2,3;
 4/5=5,16=3,69=1/1;
 5/5=2,32=2,38=5/2;
 7//1,2,3,16;
 1/14=-1,18=20,19=15,26=4/3(-5);
 2/9=110,17=4/2;
 6/7=2,8=2,9=2,10=2,19=2,28=1/1;
 99/9=1/99;
 -----------------------------
 CP22CA.M062X_6-311pGd_opt_GD3
 -----------------------------
 Symbolic Z-matrix:
 Charge =  0 Multiplicity = 1
 C                    -5.88507   1.24853   0.21696 
 N                    -4.61484   0.6713    0.14428 
 C                    -3.40423   1.32291   0.10619 
 O                    -3.23637   2.5134    0.12946 
 O                    -2.42372   0.41075   0.03797 
 C                    -1.08935   0.94383  -0.00884 
 C                    -0.13018  -0.22401  -0.08343 
 C                     1.31562   0.26237  -0.13655 
 C                    -6.09361   2.63005   0.26279 
 C                    -7.39957   3.08435   0.33396 
 C                    -8.50889   2.25625   0.36245 
 C                    -8.26571   0.89069   0.31546 
 C                    -6.9812    0.3811    0.24381 
 H                    -4.56246  -0.33621   0.11557 
 H                    -0.92245   1.5507    0.88424 
 H                    -1.00293   1.59729  -0.88019 
 H                    -0.36426  -0.82131  -0.9688 
 H                    -0.28415  -0.86767   0.78687 
 H                     1.49032   0.89314  -1.01147 
 H                     2.00895  -0.57772  -0.19047 
 H                     1.57079   0.84645   0.75092 
 H                    -5.25829   3.3124    0.24287 
 Cl                   -9.60876  -0.21114   0.34734 
 H                    -6.83443  -0.69261   0.20888 
 S                    -7.67132   4.87652   0.39351 
 H                    -9.51715   2.64167   0.41831 
 F                    -6.61004   5.14625  -0.78963 
 F                    -8.86243   4.79592  -0.69545 
 F                    -6.50638   5.08629   1.48795 
 F                    -8.75884   4.73598   1.58036 
 F                    -7.91814   6.46183   0.44648 
 

 GradGradGradGradGradGradGradGradGradGradGradGradGradGradGradGradGradGrad
 Berny optimization.
 Initialization pass.
                           ----------------------------
                           !    Initial Parameters    !
                           ! (Angstroms and Degrees)  !
 --------------------------                            --------------------------
 ! Name  Definition              Value          Derivative Info.                !
 --------------------------------------------------------------------------------
 ! R1    R(1,2)                  1.3971         estimate D2E/DX2                !
 ! R2    R(1,9)                  1.3979         estimate D2E/DX2                !
 ! R3    R(1,13)                 1.3981         estimate D2E/DX2                !
 ! R4    R(2,3)                  1.3754         estimate D2E/DX2                !
 ! R5    R(2,14)                 1.0093         estimate D2E/DX2                !
 ! R6    R(3,4)                  1.2025         estimate D2E/DX2                !
 ! R7    R(3,5)                  1.3409         estimate D2E/DX2                !
 ! R8    R(5,6)                  1.4377         estimate D2E/DX2                !
 ! R9    R(6,7)                  1.5131         estimate D2E/DX2                !
 ! R10   R(6,15)                 1.0926         estimate D2E/DX2                !
 ! R11   R(6,16)                 1.0926         estimate D2E/DX2                !
 ! R12   R(7,8)                  1.5263         estimate D2E/DX2                !
 ! R13   R(7,17)                 1.0934         estimate D2E/DX2                !
 ! R14   R(7,18)                 1.0934         estimate D2E/DX2                !
 ! R15   R(8,19)                 1.0926         estimate D2E/DX2                !
 ! R16   R(8,20)                 1.0906         estimate D2E/DX2                !
 ! R17   R(8,21)                 1.0926         estimate D2E/DX2                !
 ! R18   R(9,10)                 1.3845         estimate D2E/DX2                !
 ! R19   R(9,22)                 1.0788         estimate D2E/DX2                !
 ! R20   R(10,11)                1.3846         estimate D2E/DX2                !
 ! R21   R(10,25)                1.8136         estimate D2E/DX2                !
 ! R22   R(11,12)                1.3878         estimate D2E/DX2                !
 ! R23   R(11,26)                1.0809         estimate D2E/DX2                !
 ! R24   R(12,13)                1.3838         estimate D2E/DX2                !
 ! R25   R(12,23)                1.7375         estimate D2E/DX2                !
 ! R26   R(13,24)                1.0843         estimate D2E/DX2                !
 ! R27   R(25,27)                1.6121         estimate D2E/DX2                !
 ! R28   R(25,28)                1.6159         estimate D2E/DX2                !
 ! R29   R(25,29)                1.6121         estimate D2E/DX2                !
 ! R30   R(25,30)                1.6159         estimate D2E/DX2                !
 ! R31   R(25,31)                1.6053         estimate D2E/DX2                !
 ! A1    A(2,1,9)              123.0689         estimate D2E/DX2                !
 ! A2    A(2,1,13)             117.2243         estimate D2E/DX2                !
 ! A3    A(9,1,13)             119.7068         estimate D2E/DX2                !
 ! A4    A(1,2,3)              127.298          estimate D2E/DX2                !
 ! A5    A(1,2,14)             117.4574         estimate D2E/DX2                !
 ! A6    A(3,2,14)             115.2446         estimate D2E/DX2                !
 ! A7    A(2,3,4)              126.2551         estimate D2E/DX2                !
 ! A8    A(2,3,5)              108.8292         estimate D2E/DX2                !
 ! A9    A(4,3,5)              124.9157         estimate D2E/DX2                !
 ! A10   A(3,5,6)              115.3472         estimate D2E/DX2                !
 ! A11   A(5,6,7)              107.6853         estimate D2E/DX2                !
 ! A12   A(5,6,15)             108.7311         estimate D2E/DX2                !
 ! A13   A(5,6,16)             108.7324         estimate D2E/DX2                !
 ! A14   A(7,6,15)             111.8493         estimate D2E/DX2                !
 ! A15   A(7,6,16)             111.8491         estimate D2E/DX2                !
 ! A16   A(15,6,16)            107.9143         estimate D2E/DX2                !
 ! A17   A(6,7,8)              110.8693         estimate D2E/DX2                !
 ! A18   A(6,7,17)             109.0167         estimate D2E/DX2                !
 ! A19   A(6,7,18)             109.0176         estimate D2E/DX2                !
 ! A20   A(8,7,17)             110.4077         estimate D2E/DX2                !
 ! A21   A(8,7,18)             110.4072         estimate D2E/DX2                !
 ! A22   A(17,7,18)            107.0267         estimate D2E/DX2                !
 ! A23   A(7,8,19)             111.3012         estimate D2E/DX2                !
 ! A24   A(7,8,20)             111.0051         estimate D2E/DX2                !
 ! A25   A(7,8,21)             111.3018         estimate D2E/DX2                !
 ! A26   A(19,8,20)            107.6658         estimate D2E/DX2                !
 ! A27   A(19,8,21)            107.7245         estimate D2E/DX2                !
 ! A28   A(20,8,21)            107.6661         estimate D2E/DX2                !
 ! A29   A(1,9,10)             117.8183         estimate D2E/DX2                !
 ! A30   A(1,9,22)             120.596          estimate D2E/DX2                !
 ! A31   A(10,9,22)            121.5857         estimate D2E/DX2                !
 ! A32   A(9,10,11)            124.0918         estimate D2E/DX2                !
 ! A33   A(9,10,25)            117.8564         estimate D2E/DX2                !
 ! A34   A(11,10,25)           118.0518         estimate D2E/DX2                !
 ! A35   A(10,11,12)           116.5763         estimate D2E/DX2                !
 ! A36   A(10,11,26)           122.3554         estimate D2E/DX2                !
 ! A37   A(12,11,26)           121.0683         estimate D2E/DX2                !
 ! A38   A(11,12,13)           121.7868         estimate D2E/DX2                !
 ! A39   A(11,12,23)           119.2034         estimate D2E/DX2                !
 ! A40   A(13,12,23)           119.0098         estimate D2E/DX2                !
 ! A41   A(1,13,12)            120.0199         estimate D2E/DX2                !
 ! A42   A(1,13,24)            120.5076         estimate D2E/DX2                !
 ! A43   A(12,13,24)           119.4725         estimate D2E/DX2                !
 ! A44   A(10,25,27)            92.441          estimate D2E/DX2                !
 ! A45   A(10,25,28)            92.2368         estimate D2E/DX2                !
 ! A46   A(10,25,29)            92.4413         estimate D2E/DX2                !
 ! A47   A(10,25,30)            92.2361         estimate D2E/DX2                !
 ! A48   A(27,25,28)            89.944          estimate D2E/DX2                !
 ! A49   A(27,25,29)            90.043          estimate D2E/DX2                !
 ! A50   A(27,25,31)            87.7195         estimate D2E/DX2                !
 ! A51   A(28,25,30)            89.6875         estimate D2E/DX2                !
 ! A52   A(28,25,31)            87.6024         estimate D2E/DX2                !
 ! A53   A(29,25,30)            89.9437         estimate D2E/DX2                !
 ! A54   A(29,25,31)            87.719          estimate D2E/DX2                !
 ! A55   A(30,25,31)            87.6029         estimate D2E/DX2                !
 ! A56   L(10,25,31,27,-1)     180.1605         estimate D2E/DX2                !
 ! A57   L(27,25,30,10,-1)     184.6771         estimate D2E/DX2                !
 ! A58   L(28,25,29,10,-1)     184.6781         estimate D2E/DX2                !
 ! A59   L(10,25,31,27,-2)     179.8392         estimate D2E/DX2                !
 ! A60   L(27,25,30,10,-2)     180.1863         estimate D2E/DX2                !
 ! A61   L(28,25,29,10,-2)     180.1865         estimate D2E/DX2                !
 ! D1    D(9,1,2,3)             -0.024          estimate D2E/DX2                !
 ! D2    D(9,1,2,14)           179.9873         estimate D2E/DX2                !
 ! D3    D(13,1,2,3)           179.9796         estimate D2E/DX2                !
 ! D4    D(13,1,2,14)           -0.0091         estimate D2E/DX2                !
 ! D5    D(2,1,9,10)          -179.9952         estimate D2E/DX2                !
 ! D6    D(2,1,9,22)             0.0048         estimate D2E/DX2                !
 ! D7    D(13,1,9,10)            0.0011         estimate D2E/DX2                !
 ! D8    D(13,1,9,22)         -179.9988         estimate D2E/DX2                !
 ! D9    D(2,1,13,12)          179.9953         estimate D2E/DX2                !
 ! D10   D(2,1,13,24)           -0.0041         estimate D2E/DX2                !
 ! D11   D(9,1,13,12)           -0.0013         estimate D2E/DX2                !
 ! D12   D(9,1,13,24)          179.9993         estimate D2E/DX2                !
 ! D13   D(1,2,3,4)             -0.0003         estimate D2E/DX2                !
 ! D14   D(1,2,3,5)           -179.9999         estimate D2E/DX2                !
 ! D15   D(14,2,3,4)           179.9887         estimate D2E/DX2                !
 ! D16   D(14,2,3,5)            -0.011          estimate D2E/DX2                !
 ! D17   D(2,3,5,6)            179.9991         estimate D2E/DX2                !
 ! D18   D(4,3,5,6)             -0.0006         estimate D2E/DX2                !
 ! D19   D(3,5,6,7)           -179.9719         estimate D2E/DX2                !
 ! D20   D(3,5,6,15)            58.6559         estimate D2E/DX2                !
 ! D21   D(3,5,6,16)           -58.5992         estimate D2E/DX2                !
 ! D22   D(5,6,7,8)           -179.9998         estimate D2E/DX2                !
 ! D23   D(5,6,7,17)            58.2564         estimate D2E/DX2                !
 ! D24   D(5,6,7,18)           -58.2561         estimate D2E/DX2                !
 ! D25   D(15,6,7,8)           -60.5938         estimate D2E/DX2                !
 ! D26   D(15,6,7,17)          177.6625         estimate D2E/DX2                !
 ! D27   D(15,6,7,18)           61.15           estimate D2E/DX2                !
 ! D28   D(16,6,7,8)            60.5926         estimate D2E/DX2                !
 ! D29   D(16,6,7,17)          -61.1511         estimate D2E/DX2                !
 ! D30   D(16,6,7,18)         -177.6636         estimate D2E/DX2                !
 ! D31   D(6,7,8,19)           -60.0858         estimate D2E/DX2                !
 ! D32   D(6,7,8,20)          -179.9941         estimate D2E/DX2                !
 ! D33   D(6,7,8,21)            60.0969         estimate D2E/DX2                !
 ! D34   D(17,7,8,19)           60.8394         estimate D2E/DX2                !
 ! D35   D(17,7,8,20)          -59.069          estimate D2E/DX2                !
 ! D36   D(17,7,8,21)         -178.978          estimate D2E/DX2                !
 ! D37   D(18,7,8,19)          178.9883         estimate D2E/DX2                !
 ! D38   D(18,7,8,20)           59.08           estimate D2E/DX2                !
 ! D39   D(18,7,8,21)          -60.8291         estimate D2E/DX2                !
 ! D40   D(1,9,10,11)           -0.0003         estimate D2E/DX2                !
 ! D41   D(1,9,10,25)          179.9981         estimate D2E/DX2                !
 ! D42   D(22,9,10,11)         179.9997         estimate D2E/DX2                !
 ! D43   D(22,9,10,25)          -0.002          estimate D2E/DX2                !
 ! D44   D(9,10,11,12)          -0.0004         estimate D2E/DX2                !
 ! D45   D(9,10,11,26)         179.9996         estimate D2E/DX2                !
 ! D46   D(25,10,11,12)       -179.9987         estimate D2E/DX2                !
 ! D47   D(25,10,11,26)          0.0012         estimate D2E/DX2                !
 ! D48   D(9,10,25,27)          45.0843         estimate D2E/DX2                !
 ! D49   D(9,10,25,28)         135.1236         estimate D2E/DX2                !
 ! D50   D(9,10,25,29)         -45.0629         estimate D2E/DX2                !
 ! D51   D(9,10,25,30)        -135.1019         estimate D2E/DX2                !
 ! D52   D(11,10,25,27)       -134.9172         estimate D2E/DX2                !
 ! D53   D(11,10,25,28)        -44.8779         estimate D2E/DX2                !
 ! D54   D(11,10,25,29)        134.9356         estimate D2E/DX2                !
 ! D55   D(11,10,25,30)         44.8965         estimate D2E/DX2                !
 ! D56   D(10,11,12,13)          0.0002         estimate D2E/DX2                !
 ! D57   D(10,11,12,23)       -179.9998         estimate D2E/DX2                !
 ! D58   D(26,11,12,13)       -179.9998         estimate D2E/DX2                !
 ! D59   D(26,11,12,23)          0.0003         estimate D2E/DX2                !
 ! D60   D(11,12,13,1)           0.0006         estimate D2E/DX2                !
 ! D61   D(11,12,13,24)       -180.0            estimate D2E/DX2                !
 ! D62   D(23,12,13,1)        -179.9994         estimate D2E/DX2                !
 ! D63   D(23,12,13,24)          0.0            estimate D2E/DX2                !
 --------------------------------------------------------------------------------
 Trust Radius=3.00D-01 FncErr=1.00D-07 GrdErr=1.00D-06
 Number of steps in this run=    165 maximum allowed number of steps=    186.
 GradGradGradGradGradGradGradGradGradGradGradGradGradGradGradGradGradGrad

                          Input orientation:                          
 ---------------------------------------------------------------------
 Center     Atomic      Atomic             Coordinates (Angstroms)
 Number     Number       Type             X           Y           Z
 ---------------------------------------------------------------------
      1          6           0       -5.885065    1.248528    0.216964
      2          7           0       -4.614837    0.671297    0.144275
      3          6           0       -3.404229    1.322909    0.106189
      4          8           0       -3.236373    2.513396    0.129457
      5          8           0       -2.423723    0.410750    0.037968
      6          6           0       -1.089354    0.943825   -0.008839
      7          6           0       -0.130178   -0.224014   -0.083431
      8          6           0        1.315625    0.262366   -0.136551
      9          6           0       -6.093613    2.630049    0.262786
     10          6           0       -7.399571    3.084346    0.333956
     11          6           0       -8.508889    2.256252    0.362448
     12          6           0       -8.265709    0.890693    0.315463
     13          6           0       -6.981198    0.381105    0.243806
     14          1           0       -4.562464   -0.336209    0.115570
     15          1           0       -0.922449    1.550701    0.884242
     16          1           0       -1.002929    1.597293   -0.880191
     17          1           0       -0.364262   -0.821307   -0.968797
     18          1           0       -0.284152   -0.867671    0.786871
     19          1           0        1.490321    0.893141   -1.011465
     20          1           0        2.008954   -0.577722   -0.190467
     21          1           0        1.570790    0.846450    0.750923
     22          1           0       -5.258294    3.312403    0.242874
     23         17           0       -9.608755   -0.211141    0.347338
     24          1           0       -6.834429   -0.692606    0.208877
     25         16           0       -7.671324    4.876522    0.393507
     26          1           0       -9.517153    2.641666    0.418315
     27          9           0       -6.610037    5.146246   -0.789632
     28          9           0       -8.862427    4.795917   -0.695452
     29          9           0       -6.506375    5.086293    1.487947
     30          9           0       -8.758839    4.735985    1.580358
     31          9           0       -7.918139    6.461827    0.446480
 ---------------------------------------------------------------------
                    Distance matrix (angstroms):
                    1          2          3          4          5
     1  C    0.000000
     2  N    1.397126   0.000000
     3  C    2.484422   1.375362   0.000000
     4  O    2.936515   2.300807   1.202488   0.000000
     5  O    3.565782   2.209109   1.340925   2.256079   0.000000
     6  C    4.810684   3.539314   2.348528   2.663150   1.437672
     7  C    5.947886   4.578820   3.626064   4.145743   2.382858
     8  C    7.276498   5.951173   4.843624   5.085133   3.746358
     9  C    1.397925   2.457140   2.994315   2.862727   4.294639
    10  C    2.382780   3.689652   4.372332   4.207139   5.656393
    11  C    2.814449   4.209908   5.195608   5.283922   6.367135
    12  C    2.409400   3.661462   4.885139   5.287909   5.868232
    13  C    1.398088   2.386165   3.701437   4.310853   4.562217
    14  H    2.066627   1.009274   2.023430   3.143082   2.266756
    15  H    5.016387   3.867122   2.610841   2.617390   2.066276
    16  H    5.016038   3.866895   2.610455   2.616659   2.066291
    17  H    6.014110   4.640494   3.872294   4.536015   2.602484
    18  H    6.014426   4.640708   3.872577   4.536454   2.602495
    19  H    7.485430   6.217547   5.038896   5.125287   4.080901
    20  H    8.112751   6.748830   5.744820   6.096788   4.547295
    21  H    7.485757   6.217771   5.039197   5.125792   4.080965
    22  H    2.157103   2.720147   2.722925   2.177025   4.061572
    23  Cl   4.001687   5.075348   6.395905   6.933818   7.218528
    24  H    2.160869   2.605954   3.979839   4.819830   4.549828
    25  S    4.047744   5.204628   5.560469   5.032184   6.899771
    26  H    3.895310   5.290573   6.261340   6.288727   7.445697
    27  F    4.090358   4.987803   5.069281   4.377012   6.374564
    28  F    4.720293   5.979939   6.518922   6.127223   7.824609
    29  F    4.090216   4.987541   5.069085   4.377009   6.374260
    30  F    4.720146   5.979698   6.518750   6.127206   7.824341
    31  F    5.600407   6.673333   6.848332   6.132662   8.183582
                    6          7          8          9         10
     6  C    0.000000
     7  C    1.513086   0.000000
     8  C    2.502922   1.526347   0.000000
     9  C    5.287697   6.620280   7.788594   0.000000
    10  C    6.672194   7.997720   9.172763   1.384549   0.000000
    11  C    7.543859   8.749475  10.037213   2.446060   1.384608
    12  C    7.183875   8.221225   9.612547   2.783187   2.358527
    13  C    5.924045   6.885472   8.306386   2.417833   2.736910
    14  H    3.703575   4.438170   5.913864   3.341374   4.449389
    15  H    1.092589   2.171105   2.776832   5.319036   6.678921
    16  H    1.092586   2.171101   2.776819   5.318651   6.678510
    17  H    2.136111   1.093356   2.165410   6.801038   8.151494
    18  H    2.136123   1.093356   2.165405   6.801364   8.151855
    19  H    2.768131   2.176074   1.092644   7.883947   9.254280
    20  H    3.456531   2.170818   1.090579   8.726215  10.109703
    21  H    2.768227   2.176081   1.092644   7.884325   9.254696
    22  H    4.801414   6.237811   7.256934   1.078778   2.155313
    23  Cl   8.604709   9.488369  10.945339   4.520590   3.967482
    24  H    5.977558   6.726961   8.213079   3.404666   3.821046
    25  S    7.677911   9.116568  10.116158   2.748254   1.813641
    26  H    8.607725   9.827470  11.104865   3.427090   2.165003
    27  F    6.981971   8.445531   9.332466   2.775883   2.477346
    28  F    8.702340  10.090910  11.156084   3.643561   2.475703
    29  F    6.981728   8.445382   9.332360   2.775702   2.477354
    30  F    8.702128  10.090767  11.155979   3.643404   2.475690
    31  F    8.791357  10.277821  11.137128   4.247959   3.418911
                   11         12         13         14         15
    11  C    0.000000
    12  C    1.387838   0.000000
    13  C    2.421588   1.383756   0.000000
    14  H    4.728220   3.906311   2.526115   0.000000
    15  H    7.637025   7.394768   6.203754   4.171451   0.000000
    16  H    7.636609   7.394379   6.203401   4.171362   1.766883
    17  H    8.807867   8.186155   6.833743   4.363035   3.061332
    18  H    8.808253   8.186532   6.834090   4.363147   2.503084
    19  H   10.184787   9.845854   8.579307   6.278353   3.138080
    20  H   10.906977  10.391386   9.051562   6.582973   3.778665
    21  H   10.185203   9.846232   8.579639   6.278468   2.594221
    22  H    3.419959   3.861929   3.400134   3.716552   4.723823
    23  Cl   2.701474   1.737478   2.695465   5.053159   8.879430
    24  H    3.394578   2.136997   1.084258   2.301640   6.359250
    25  S    2.751054   4.030660   4.550545   6.075757   7.539842
    26  H    1.080862   2.154669   3.401714   5.788639   8.676188
    27  F    3.644858   4.698107   4.890023   5.921931   6.933864
    28  F    2.773814   4.077842   4.889969   6.744343   8.721819
    29  F    3.644988   4.698194   4.890004   5.921633   6.636648
    30  F    2.773960   4.077917   4.889924   6.744058   8.487616
    31  F    4.247694   5.583503   6.155820   7.588369   8.558649
                   16         17         18         19         20
    16  H    0.000000
    17  H    2.503073   0.000000
    18  H    3.061337   1.758106   0.000000
    19  H    2.594101   2.525990   3.079485   0.000000
    20  H    3.778605   2.509439   2.509501   1.762515   0.000000
    21  H    3.138205   3.079492   2.525928   1.764842   1.762518
    22  H    4.723452   6.519758   6.520048   7.278049   8.254317
    23  Cl   8.879049   9.357627   9.358015  11.236337  11.635927
    24  H    6.358938   6.577731   6.578058   8.561851   8.853141
    25  S    7.539439   9.365590   9.365938  10.088459  11.126437
    26  H    8.675762   9.883910   9.884310  11.236818  11.982747
    27  F    6.636484   8.640226   8.869576   9.151716  10.363871
    28  F    8.487463  10.190522  10.385582  11.068465  12.137461
    29  F    6.933189   8.869097   8.640443   9.368924  10.363830
    30  F    8.721229  10.385115  10.190726  11.248568  12.137408
    31  F    8.558263  10.588112  10.588444  11.029732  12.186391
                   21         22         23         24         25
    21  H    0.000000
    22  H    7.278421   0.000000
    23  Cl  11.236708   5.599357   0.000000
    24  H    8.562138   4.304121   2.819196   0.000000
    25  S   10.088899   2.879561   5.444272   5.634685   0.000000
    26  H   11.237255   4.314922   2.855160   4.284652   2.898669
    27  F    9.369498   2.501252   6.243926   5.927863   1.612110
    28  F   11.249103   4.008871   5.168661   5.920682   1.615876
    29  F    9.152052   2.500920   6.244082   5.927842   1.612113
    30  F   11.068770   4.008649   5.168825   5.920634   1.615877
    31  F   11.030182   4.127360   6.884513   7.239944   1.605277
                   26         27         28         29         30
    26  H    0.000000
    27  F    4.022857   0.000000
    28  F    2.511959   2.281416   0.000000
    29  F    4.023070   2.280725   3.225295   0.000000
    30  F    2.512280   3.225294   2.278954   2.281414   0.000000
    31  F    4.141408   2.229317   2.229561   2.229310   2.229571
                   31
    31  F    0.000000
 Stoichiometry    C10H11ClF5NO2S
 Framework group  C1[X(C10H11ClF5NO2S)]
 Deg. of freedom    87
 Full point group                 C1      NOp   1
 Largest Abelian subgroup         C1      NOp   1
 Largest concise Abelian subgroup C1      NOp   1
                         Standard orientation:                         
 ---------------------------------------------------------------------
 Center     Atomic      Atomic             Coordinates (Angstroms)
 Number     Number       Type             X           Y           Z
 ---------------------------------------------------------------------
      1          6           0        0.509254    1.098254   -0.000146
      2          7           0        1.906379    1.099830   -0.000352
      3          6           0        2.741028    0.006678   -0.000087
      4          8           0        2.401871   -1.146990    0.000377
      5          8           0        4.012411    0.432900   -0.000424
      6          6           0        5.008944   -0.603354   -0.000181
      7          6           0        6.366629    0.064570    0.000087
      8          6           0        7.484100   -0.975138    0.000351
      9          6           0       -0.252198   -0.074087   -0.000108
     10          6           0       -1.631079    0.051061    0.000002
     11          6           0       -2.300359    1.263168    0.000082
     12          6           0       -1.513922    2.406676    0.000055
     13          6           0       -0.131737    2.340744   -0.000050
     14          1           0        2.370735    1.995937   -0.000562
     15          1           0        4.864067   -1.229659   -0.883642
     16          1           0        4.863705   -1.229625    0.883241
     17          1           0        6.446047    0.709847    0.879141
     18          1           0        6.446434    0.709804   -0.878965
     19          1           0        7.428694   -1.617173    0.882730
     20          1           0        8.463809   -0.496044    0.000650
     21          1           0        7.429192   -1.617101   -0.882112
     22          1           0        0.227459   -1.040364   -0.000162
     23         17           0       -2.283170    3.964587    0.000157
     24          1           0        0.446095    3.258200   -0.000068
     25         16           0       -2.619983   -1.469256   -0.000001
     26          1           0       -3.379262    1.328203    0.000160
     27          9           0       -1.704039   -2.146951    1.140469
     28          9           0       -3.613420   -0.898302    1.139362
     29          9           0       -1.703856   -2.147075   -1.140256
     30          9           0       -3.613220   -0.898404   -1.139592
     31          9           0       -3.500602   -2.811427   -0.000009
 ---------------------------------------------------------------------
 Rotational constants (GHZ):      0.3799363      0.1349909      0.1038363
 Standard basis: 6-311+G(d) (5D, 7F)
 There are   509 symmetry adapted cartesian basis functions of A   symmetry.
 There are   489 symmetry adapted basis functions of A   symmetry.
   489 basis functions,   806 primitive gaussians,   509 cartesian basis functions
    86 alpha electrons       86 beta electrons
       nuclear repulsion energy      2027.3286052258 Hartrees.
 NAtoms=   31 NActive=   31 NUniq=   31 SFac= 1.00D+00 NAtFMM=   60 NAOKFM=F Big=F
 Integral buffers will be    131072 words long.
 Raffenetti 2 integral format.
 Two-electron integral symmetry is turned on.
 Nuclear repulsion after empirical dispersion term =     2027.3270104273 Hartrees.
 One-electron integrals computed using PRISM.
 NBasis=   489 RedAO= T EigKep=  1.15D-06  NBF=   489
 NBsUse=   487 1.00D-06 EigRej=  5.95D-07 NBFU=   487
 ExpMin= 4.05D-02 ExpMax= 1.06D+05 ExpMxC= 3.62D+03 IAcc=3 IRadAn=         5 AccDes= 0.00D+00
 Harris functional with IExCor= 1009 and IRadAn=       5 diagonalized for initial guess.
 HarFok:  IExCor= 1009 AccDes= 0.00D+00 IRadAn=         5 IDoV= 1 UseB2=F ITyADJ=14
 ICtDFT=  3500011 ScaDFX=  1.000000  1.000000  1.000000  1.000000
 FoFCou: FMM=F IPFlag=           0 FMFlag=      100000 FMFlg1=           0
         NFxFlg=           0 DoJE=T BraDBF=F KetDBF=T FulRan=T
         wScrn=  0.000000 ICntrl=     500 IOpCl=  0 I1Cent=   200000004 NGrid=           0
         NMat0=    1 NMatS0=      1 NMatT0=    0 NMatD0=    1 NMtDS0=    0 NMtDT0=    0
 Petite list used in FoFCou.
 Requested convergence on RMS density matrix=1.00D-08 within 128 cycles.
 Requested convergence on MAX density matrix=1.00D-06.
 Requested convergence on             energy=1.00D-06.
 No special actions if energy rises.
 SCF Done:  E(RM062X) =  -1950.29200780     A.U. after   15 cycles
            NFock= 15  Conv=0.74D-08     -V/T= 2.0024

 **********************************************************************

            Population analysis using the SCF density.

 **********************************************************************

 Orbital symmetries:
       Occupied  (A) (A) (A) (A) (A) (A) (A) (A) (A) (A) (A) (A)
                 (A) (A) (A) (A) (A) (A) (A) (A) (A) (A) (A) (A)
                 (A) (A) (A) (A) (A) (A) (A) (A) (A) (A) (A) (A)
                 (A) (A) (A) (A) (A) (A) (A) (A) (A) (A) (A) (A)
                 (A) (A) (A) (A) (A) (A) (A) (A) (A) (A) (A) (A)
                 (A) (A) (A) (A) (A) (A) (A) (A) (A) (A) (A) (A)
                 (A) (A) (A) (A) (A) (A) (A) (A) (A) (A) (A) (A)
                 (A) (A)
       Virtual   (A) (A) (A) (A) (A) (A) (A) (A) (A) (A) (A) (A)
                 (A) (A) (A) (A) (A) (A) (A) (A) (A) (A) (A) (A)
                 (A) (A) (A) (A) (A) (A) (A) (A) (A) (A) (A) (A)
                 (A) (A) (A) (A) (A) (A) (A) (A) (A) (A) (A) (A)
                 (A) (A) (A) (A) (A) (A) (A) (A) (A) (A) (A) (A)
                 (A) (A) (A) (A) (A) (A) (A) (A) (A) (A) (A) (A)
                 (A) (A) (A) (A) (A) (A) (A) (A) (A) (A) (A) (A)
                 (A) (A) (A) (A) (A) (A) (A) (A) (A) (A) (A) (A)
                 (A) (A) (A) (A) (A) (A) (A) (A) (A) (A) (A) (A)
                 (A) (A) (A) (A) (A) (A) (A) (A) (A) (A) (A) (A)
                 (A) (A) (A) (A) (A) (A) (A) (A) (A) (A) (A) (A)
                 (A) (A) (A) (A) (A) (A) (A) (A) (A) (A) (A) (A)
                 (A) (A) (A) (A) (A) (A) (A) (A) (A) (A) (A) (A)
                 (A) (A) (A) (A) (A) (A) (A) (A) (A) (A) (A) (A)
                 (A) (A) (A) (A) (A) (A) (A) (A) (A) (A) (A) (A)
                 (A) (A) (A) (A) (A) (A) (A) (A) (A) (A) (A) (A)
                 (A) (A) (A) (A) (A) (A) (A) (A) (A) (A) (A) (A)
                 (A) (A) (A) (A) (A) (A) (A) (A) (A) (A) (A) (A)
                 (A) (A) (A) (A) (A) (A) (A) (A) (A) (A) (A) (A)
                 (A) (A) (A) (A) (A) (A) (A) (A) (A) (A) (A) (A)
                 (A) (A) (A) (A) (A) (A) (A) (A) (A) (A) (A) (A)
                 (A) (A) (A) (A) (A) (A) (A) (A) (A) (A) (A) (A)
                 (A) (A) (A) (A) (A) (A) (A) (A) (A) (A) (A) (A)
                 (A) (A) (A) (A) (A) (A) (A) (A) (A) (A) (A) (A)
                 (A) (A) (A) (A) (A) (A) (A) (A) (A) (A) (A) (A)
                 (A) (A) (A) (A) (A) (A) (A) (A) (A) (A) (A) (A)
                 (A) (A) (A) (A) (A) (A) (A) (A) (A) (A) (A) (A)
                 (A) (A) (A) (A) (A) (A) (A) (A) (A) (A) (A) (A)
                 (A) (A) (A) (A) (A) (A) (A) (A) (A) (A) (A) (A)
                 (A) (A) (A) (A) (A) (A) (A) (A) (A) (A) (A) (A)
                 (A) (A) (A) (A) (A) (A) (A) (A) (A) (A) (A) (A)
                 (A) (A) (A) (A) (A) (A) (A) (A) (A) (A) (A) (A)
                 (A) (A) (A) (A) (A) (A) (A) (A) (A) (A) (A) (A)
                 (A) (A) (A) (A) (A)
 The electronic state is 1-A.
 Alpha  occ. eigenvalues -- -102.69837 -90.28206 -25.28496 -25.28495 -25.28492
 Alpha  occ. eigenvalues --  -25.28491 -25.28363 -19.68906 -19.62902 -14.82025
 Alpha  occ. eigenvalues --  -10.72531 -10.64146 -10.63981 -10.62164 -10.61084
 Alpha  occ. eigenvalues --  -10.59014 -10.58935 -10.58380 -10.55400 -10.54294
 Alpha  occ. eigenvalues --   -9.84104  -8.60500  -7.56623  -7.55933  -7.55923
 Alpha  occ. eigenvalues --   -6.52931  -6.52921  -6.52490  -1.50487  -1.40342
 Alpha  occ. eigenvalues --   -1.40267  -1.37374  -1.35813  -1.27046  -1.17143
 Alpha  occ. eigenvalues --   -1.09703  -1.03194  -0.98267  -0.94100  -0.91469
 Alpha  occ. eigenvalues --   -0.88425  -0.86655  -0.81779  -0.77225  -0.75705
 Alpha  occ. eigenvalues --   -0.73802  -0.73764  -0.70282  -0.70027  -0.68679
 Alpha  occ. eigenvalues --   -0.65774  -0.64379  -0.62465  -0.62385  -0.62083
 Alpha  occ. eigenvalues --   -0.60885  -0.60738  -0.58317  -0.57733  -0.56062
 Alpha  occ. eigenvalues --   -0.55768  -0.55561  -0.55442  -0.55372  -0.55127
 Alpha  occ. eigenvalues --   -0.53591  -0.52827  -0.52549  -0.51763  -0.51592
 Alpha  occ. eigenvalues --   -0.51115  -0.50713  -0.48710  -0.48265  -0.47107
 Alpha  occ. eigenvalues --   -0.45542  -0.44938  -0.44595  -0.42311  -0.42129
 Alpha  occ. eigenvalues --   -0.40690  -0.40237  -0.39622  -0.38680  -0.33885
 Alpha  occ. eigenvalues --   -0.31037
 Alpha virt. eigenvalues --   -0.03151  -0.01885  -0.01343  -0.00880   0.01021
 Alpha virt. eigenvalues --    0.01725   0.02346   0.02549   0.03029   0.04012
 Alpha virt. eigenvalues --    0.04133   0.04335   0.05164   0.05381   0.05765
 Alpha virt. eigenvalues --    0.06275   0.06444   0.06538   0.06999   0.07333
 Alpha virt. eigenvalues --    0.07663   0.08573   0.08657   0.09057   0.09417
 Alpha virt. eigenvalues --    0.10844   0.11063   0.11456   0.11857   0.12015
 Alpha virt. eigenvalues --    0.12408   0.12512   0.12702   0.12828   0.13744
 Alpha virt. eigenvalues --    0.14142   0.14252   0.15086   0.16268   0.16814
 Alpha virt. eigenvalues --    0.16948   0.16973   0.17606   0.17821   0.18850
 Alpha virt. eigenvalues --    0.19313   0.19540   0.19978   0.19983   0.20351
 Alpha virt. eigenvalues --    0.20418   0.21086   0.21597   0.22227   0.22452
 Alpha virt. eigenvalues --    0.22999   0.23212   0.23609   0.23772   0.24549
 Alpha virt. eigenvalues --    0.25198   0.25551   0.25654   0.26140   0.26326
 Alpha virt. eigenvalues --    0.26932   0.26954   0.27357   0.28111   0.28475
 Alpha virt. eigenvalues --    0.28879   0.29251   0.29591   0.30738   0.31077
 Alpha virt. eigenvalues --    0.31640   0.32054   0.32451   0.32622   0.32888
 Alpha virt. eigenvalues --    0.33423   0.33947   0.34384   0.34407   0.35488
 Alpha virt. eigenvalues --    0.35771   0.36446   0.37135   0.37315   0.38100
 Alpha virt. eigenvalues --    0.38484   0.38972   0.39256   0.39744   0.40610
 Alpha virt. eigenvalues --    0.41034   0.42140   0.42468   0.43522   0.44462
 Alpha virt. eigenvalues --    0.44683   0.46251   0.46443   0.46853   0.47228
 Alpha virt. eigenvalues --    0.47785   0.47905   0.48968   0.49003   0.49319
 Alpha virt. eigenvalues --    0.50022   0.51104   0.51662   0.52323   0.54188
 Alpha virt. eigenvalues --    0.54432   0.54620   0.56632   0.57569   0.58227
 Alpha virt. eigenvalues --    0.58229   0.59063   0.59505   0.59547   0.60205
 Alpha virt. eigenvalues --    0.61860   0.62405   0.62778   0.63069   0.63288
 Alpha virt. eigenvalues --    0.63980   0.66526   0.67203   0.67476   0.67480
 Alpha virt. eigenvalues --    0.68827   0.68842   0.69125   0.70615   0.71065
 Alpha virt. eigenvalues --    0.71629   0.71739   0.72019   0.72958   0.73280
 Alpha virt. eigenvalues --    0.74990   0.75743   0.76132   0.76959   0.77503
 Alpha virt. eigenvalues --    0.79636   0.80273   0.82832   0.84802   0.86269
 Alpha virt. eigenvalues --    0.87421   0.88213   0.90585   0.91124   0.91285
 Alpha virt. eigenvalues --    0.91688   0.92459   0.93270   0.93464   0.95457
 Alpha virt. eigenvalues --    0.97560   0.98360   0.99883   1.00053   1.00159
 Alpha virt. eigenvalues --    1.02671   1.03529   1.04520   1.05529   1.05945
 Alpha virt. eigenvalues --    1.06213   1.09531   1.10606   1.12287   1.13596
 Alpha virt. eigenvalues --    1.13629   1.15564   1.18877   1.18954   1.20180
 Alpha virt. eigenvalues --    1.20303   1.21399   1.22751   1.24805   1.24865
 Alpha virt. eigenvalues --    1.26150   1.28913   1.30310   1.30379   1.32623
 Alpha virt. eigenvalues --    1.34442   1.35772   1.36677   1.37930   1.38399
 Alpha virt. eigenvalues --    1.38839   1.39576   1.42490   1.42768   1.44264
 Alpha virt. eigenvalues --    1.45762   1.48549   1.49065   1.49475   1.51436
 Alpha virt. eigenvalues --    1.52067   1.52283   1.54090   1.55447   1.56637
 Alpha virt. eigenvalues --    1.57306   1.58078   1.59816   1.60800   1.61528
 Alpha virt. eigenvalues --    1.62254   1.63330   1.64318   1.66551   1.68440
 Alpha virt. eigenvalues --    1.69384   1.71909   1.73389   1.73825   1.76814
 Alpha virt. eigenvalues --    1.76991   1.77342   1.78393   1.82205   1.82957
 Alpha virt. eigenvalues --    1.84970   1.86507   1.88940   1.89593   1.89780
 Alpha virt. eigenvalues --    1.90269   1.90935   1.92879   1.97014   1.97823
 Alpha virt. eigenvalues --    1.99701   2.02635   2.02900   2.05540   2.06934
 Alpha virt. eigenvalues --    2.07738   2.08110   2.11551   2.13337   2.16957
 Alpha virt. eigenvalues --    2.17415   2.21327   2.25400   2.25657   2.27201
 Alpha virt. eigenvalues --    2.29286   2.32528   2.34492   2.38192   2.40234
 Alpha virt. eigenvalues --    2.41641   2.44981   2.49417   2.49955   2.51095
 Alpha virt. eigenvalues --    2.53696   2.55132   2.58734   2.58780   2.59555
 Alpha virt. eigenvalues --    2.60137   2.64103   2.64878   2.69134   2.70610
 Alpha virt. eigenvalues --    2.72411   2.73493   2.78889   2.81893   2.84571
 Alpha virt. eigenvalues --    2.84945   2.91966   2.92101   2.95785   2.96626
 Alpha virt. eigenvalues --    3.00456   3.01869   3.03265   3.05706   3.09859
 Alpha virt. eigenvalues --    3.10884   3.16679   3.17072   3.18484   3.20090
 Alpha virt. eigenvalues --    3.24832   3.26061   3.28023   3.28342   3.28757
 Alpha virt. eigenvalues --    3.33369   3.35128   3.38520   3.40550   3.43816
 Alpha virt. eigenvalues --    3.45627   3.54566   3.61382   3.67751   3.70281
 Alpha virt. eigenvalues --    3.73898   3.79535   3.80015   3.80524   3.80538
 Alpha virt. eigenvalues --    3.81171   3.83203   3.83760   3.84001   3.84282
 Alpha virt. eigenvalues --    3.84754   3.85933   3.87192   3.88775   3.89105
 Alpha virt. eigenvalues --    3.89504   3.89755   3.91383   3.91881   3.92136
 Alpha virt. eigenvalues --    3.94367   3.96301   3.98467   4.00401   4.02778
 Alpha virt. eigenvalues --    4.07788   4.09704   4.10619   4.17819   4.28572
 Alpha virt. eigenvalues --    4.30410   4.31067   4.33565   4.37858   4.55327
 Alpha virt. eigenvalues --    4.77197   5.06578   5.09171   5.15216   5.36864
 Alpha virt. eigenvalues --    5.49491   5.79441   5.95579   6.35721   6.37277
 Alpha virt. eigenvalues --    6.39524   6.41343   6.42638   6.44116   6.48297
 Alpha virt. eigenvalues --    6.52307   6.52886   6.54553   6.55937   6.63957
 Alpha virt. eigenvalues --    6.65151   6.65942   6.71415   8.23350   9.95626
 Alpha virt. eigenvalues --   17.51702  17.56507  17.61324  23.45913  23.56097
 Alpha virt. eigenvalues --   23.70958  23.80394  23.90839  23.92292  23.95868
 Alpha virt. eigenvalues --   24.07643  24.09881  24.18661  25.92382  26.22278
 Alpha virt. eigenvalues --   26.72746  35.64064  50.00974  50.12945  66.89711
 Alpha virt. eigenvalues --   66.91503  66.96924  66.98862  67.07464 189.47048
 Alpha virt. eigenvalues --  216.05687
          Condensed to atoms (all electrons):
               1          2          3          4          5          6
     1  C   32.493962  -0.605419  -1.104537  -0.243054  -0.301079  -0.607657
     2  N   -0.605419   7.726400   0.208241   0.007040  -0.235443  -0.376232
     3  C   -1.104537   0.208241   9.122981   0.464749   0.354467  -0.709817
     4  O   -0.243054   0.007040   0.464749   8.035947  -0.194120  -0.139068
     5  O   -0.301079  -0.235443   0.354467  -0.194120   8.337744   0.352068
     6  C   -0.607657  -0.376232  -0.709817  -0.139068   0.352068   8.542479
     7  C   -0.009397   0.040393   0.118431   0.028333  -0.175341  -0.993078
     8  C   -0.015064  -0.006997  -0.245631   0.000724   0.030920   0.328570
     9  C   -5.606427   0.221105  -0.001528   0.374481   0.018564  -0.331178
    10  C   -4.036032   0.350249   0.943001   0.044035   0.037867   0.021461
    11  C   -6.424878   0.018914  -0.738421  -0.019329  -0.017096  -0.046810
    12  C   -1.032533   0.011108  -0.476692   0.028887   0.017132  -0.059178
    13  C   -4.509920  -0.098866  -2.019390  -0.114039  -0.118620  -0.240224
    14  H    0.002131   0.253007   0.030889   0.000368   0.024217   0.004291
    15  H    0.007338   0.005488   0.046947  -0.003361  -0.044005   0.347205
    16  H    0.007347   0.005519   0.046747  -0.003358  -0.044017   0.347328
    17  H   -0.000062  -0.000801   0.007596  -0.000314   0.000874  -0.064582
    18  H   -0.000080  -0.000800   0.007383  -0.000314   0.000872  -0.064417
    19  H   -0.000068  -0.000042  -0.000764  -0.000071  -0.000444  -0.048812
    20  H    0.000075   0.000045   0.006787   0.000034  -0.000654   0.089794
    21  H   -0.000067  -0.000042  -0.000697  -0.000071  -0.000444  -0.048753
    22  H    0.053740  -0.024549   0.101895   0.005351   0.002870   0.008677
    23  Cl  -0.034116  -0.014827  -0.076202   0.000277  -0.000162  -0.003263
    24  H    0.163562  -0.021644   0.004593   0.000151  -0.000582  -0.000132
    25  S   -0.578209   0.022132  -0.034977  -0.000529   0.000403   0.003976
    26  H    0.003877   0.001585   0.005408  -0.000022   0.000004   0.000054
    27  F   -0.215602   0.001914   0.005353   0.000203   0.000033   0.000044
    28  F    0.133319  -0.000260  -0.002132   0.000034  -0.000002  -0.000044
    29  F   -0.215627   0.001915   0.005367   0.000200   0.000033   0.000045
    30  F    0.133320  -0.000261  -0.002130   0.000034  -0.000002  -0.000043
    31  F   -0.015737  -0.000196  -0.002530   0.000044  -0.000001  -0.000046
               7          8          9         10         11         12
     1  C   -0.009397  -0.015064  -5.606427  -4.036032  -6.424878  -1.032533
     2  N    0.040393  -0.006997   0.221105   0.350249   0.018914   0.011108
     3  C    0.118431  -0.245631  -0.001528   0.943001  -0.738421  -0.476692
     4  O    0.028333   0.000724   0.374481   0.044035  -0.019329   0.028887
     5  O   -0.175341   0.030920   0.018564   0.037867  -0.017096   0.017132
     6  C   -0.993078   0.328570  -0.331178   0.021461  -0.046810  -0.059178
     7  C    6.560172  -0.154970  -0.023048  -0.016115   0.002516  -0.003033
     8  C   -0.154970   6.072575  -0.008926   0.001175  -0.000185  -0.001313
     9  C   -0.023048  -0.008926  17.229289   2.737791  -3.088182  -4.195973
    10  C   -0.016115   0.001175   2.737791  31.814049  -2.980124  -6.021465
    11  C    0.002516  -0.000185  -3.088182  -2.980124  20.174008  -1.407865
    12  C   -0.003033  -0.001313  -4.195973  -6.021465  -1.407865  26.038573
    13  C    0.044204  -0.004781  -2.075722 -13.756008  -0.612266  -5.665676
    14  H   -0.003385  -0.000476   0.087280   0.044103  -0.023679   0.034332
    15  H   -0.023958  -0.014434  -0.000330   0.000163   0.000109  -0.000103
    16  H   -0.023904  -0.014390  -0.000373   0.000158   0.000110  -0.000103
    17  H    0.442145  -0.045248   0.000341   0.000011   0.000000   0.000008
    18  H    0.442117  -0.045142   0.000340   0.000011   0.000000   0.000008
    19  H    0.015237   0.378974  -0.000017  -0.000007   0.000000   0.000000
    20  H   -0.135915   0.392270   0.000042   0.000000  -0.000000   0.000001
    21  H    0.015224   0.378867  -0.000017  -0.000007   0.000000   0.000000
    22  H   -0.000711   0.000031   0.307116  -0.057484  -0.040562   0.000068
    23  Cl  -0.000020  -0.000006   0.116031  -0.081182   0.178361  -1.441716
    24  H   -0.000026   0.000000  -0.041218   0.068914  -0.034562   0.188463
    25  S    0.000131  -0.000015   0.160492  -2.879112   0.896861  -0.127856
    26  H   -0.000001   0.000000  -0.006956  -0.132860   0.271615   0.122926
    27  F   -0.000001   0.000004  -0.134426  -0.074576   0.294078   0.094344
    28  F    0.000001  -0.000000   0.115980   0.438117  -0.336281  -0.191826
    29  F   -0.000001   0.000004  -0.134400  -0.074246   0.293911   0.094311
    30  F    0.000001  -0.000000   0.115976   0.438282  -0.336357  -0.191853
    31  F    0.000000  -0.000000  -0.045492   0.097620   0.027797  -0.024464
              13         14         15         16         17         18
     1  C   -4.509920   0.002131   0.007338   0.007347  -0.000062  -0.000080
     2  N   -0.098866   0.253007   0.005488   0.005519  -0.000801  -0.000800
     3  C   -2.019390   0.030889   0.046947   0.046747   0.007596   0.007383
     4  O   -0.114039   0.000368  -0.003361  -0.003358  -0.000314  -0.000314
     5  O   -0.118620   0.024217  -0.044005  -0.044017   0.000874   0.000872
     6  C   -0.240224   0.004291   0.347205   0.347328  -0.064582  -0.064417
     7  C    0.044204  -0.003385  -0.023958  -0.023904   0.442145   0.442117
     8  C   -0.004781  -0.000476  -0.014434  -0.014390  -0.045248  -0.045142
     9  C   -2.075722   0.087280  -0.000330  -0.000373   0.000341   0.000340
    10  C  -13.756008   0.044103   0.000163   0.000158   0.000011   0.000011
    11  C   -0.612266  -0.023679   0.000109   0.000110   0.000000   0.000000
    12  C   -5.665676   0.034332  -0.000103  -0.000103   0.000008   0.000008
    13  C   34.091930  -0.194716   0.000624   0.000636  -0.000005  -0.000006
    14  H   -0.194716   0.323900  -0.000026  -0.000026   0.000003   0.000003
    15  H    0.000624  -0.000026   0.446997  -0.039663   0.005414  -0.007791
    16  H    0.000636  -0.000026  -0.039663   0.446982  -0.007790   0.005412
    17  H   -0.000005   0.000003   0.005414  -0.007790   0.445224  -0.036893
    18  H   -0.000006   0.000003  -0.007791   0.005412  -0.036893   0.445224
    19  H    0.000022  -0.000000  -0.000535   0.003743  -0.008075   0.006133
    20  H   -0.000009  -0.000000  -0.000212  -0.000212  -0.003245  -0.003244
    21  H    0.000022  -0.000000   0.003743  -0.000534   0.006133  -0.008076
    22  H   -0.045212   0.000119  -0.000045  -0.000045  -0.000000  -0.000000
    23  Cl   0.409955  -0.000193   0.000001   0.000001   0.000000   0.000000
    24  H    0.003381   0.007552  -0.000001  -0.000001  -0.000000  -0.000000
    25  S    1.010686   0.000712   0.000005   0.000004   0.000000   0.000000
    26  H    0.014387   0.000008  -0.000000  -0.000000   0.000000   0.000000
    27  F    0.038361   0.000011   0.000001   0.000001   0.000000   0.000000
    28  F   -0.061038  -0.000001   0.000000   0.000000  -0.000000   0.000000
    29  F    0.038286   0.000011   0.000001   0.000001   0.000000   0.000000
    30  F   -0.061060  -0.000001   0.000000   0.000000   0.000000  -0.000000
    31  F    0.009008  -0.000000   0.000000   0.000000  -0.000000  -0.000000
              19         20         21         22         23         24
     1  C   -0.000068   0.000075  -0.000067   0.053740  -0.034116   0.163562
     2  N   -0.000042   0.000045  -0.000042  -0.024549  -0.014827  -0.021644
     3  C   -0.000764   0.006787  -0.000697   0.101895  -0.076202   0.004593
     4  O   -0.000071   0.000034  -0.000071   0.005351   0.000277   0.000151
     5  O   -0.000444  -0.000654  -0.000444   0.002870  -0.000162  -0.000582
     6  C   -0.048812   0.089794  -0.048753   0.008677  -0.003263  -0.000132
     7  C    0.015237  -0.135915   0.015224  -0.000711  -0.000020  -0.000026
     8  C    0.378974   0.392270   0.378867   0.000031  -0.000006   0.000000
     9  C   -0.000017   0.000042  -0.000017   0.307116   0.116031  -0.041218
    10  C   -0.000007   0.000000  -0.000007  -0.057484  -0.081182   0.068914
    11  C    0.000000  -0.000000   0.000000  -0.040562   0.178361  -0.034562
    12  C    0.000000   0.000001   0.000000   0.000068  -1.441716   0.188463
    13  C    0.000022  -0.000009   0.000022  -0.045212   0.409955   0.003381
    14  H   -0.000000  -0.000000  -0.000000   0.000119  -0.000193   0.007552
    15  H   -0.000535  -0.000212   0.003743  -0.000045   0.000001  -0.000001
    16  H    0.003743  -0.000212  -0.000534  -0.000045   0.000001  -0.000001
    17  H   -0.008075  -0.003245   0.006133  -0.000000   0.000000  -0.000000
    18  H    0.006133  -0.003244  -0.008076  -0.000000   0.000000  -0.000000
    19  H    0.456390  -0.024773  -0.037492  -0.000000  -0.000000  -0.000000
    20  H   -0.024773   0.429103  -0.024775   0.000000  -0.000000   0.000000
    21  H   -0.037492  -0.024775   0.456378  -0.000000  -0.000000  -0.000000
    22  H   -0.000000   0.000000  -0.000000   0.335267  -0.000210   0.000029
    23  Cl  -0.000000  -0.000000  -0.000000  -0.000210  17.576725  -0.017509
    24  H   -0.000000   0.000000  -0.000000   0.000029  -0.017509   0.419131
    25  S    0.000000   0.000000   0.000000   0.008947  -0.024358   0.000175
    26  H   -0.000000  -0.000000  -0.000000   0.000028  -0.019162  -0.000205
    27  F   -0.000000  -0.000000  -0.000000  -0.001185  -0.000500  -0.000005
    28  F   -0.000000   0.000000  -0.000000  -0.000647  -0.000083   0.000002
    29  F   -0.000000  -0.000000  -0.000000  -0.001176  -0.000501  -0.000005
    30  F   -0.000000   0.000000  -0.000000  -0.000647  -0.000083   0.000002
    31  F   -0.000000   0.000000  -0.000000  -0.000832   0.000254   0.000000
              25         26         27         28         29         30
     1  C   -0.578209   0.003877  -0.215602   0.133319  -0.215627   0.133320
     2  N    0.022132   0.001585   0.001914  -0.000260   0.001915  -0.000261
     3  C   -0.034977   0.005408   0.005353  -0.002132   0.005367  -0.002130
     4  O   -0.000529  -0.000022   0.000203   0.000034   0.000200   0.000034
     5  O    0.000403   0.000004   0.000033  -0.000002   0.000033  -0.000002
     6  C    0.003976   0.000054   0.000044  -0.000044   0.000045  -0.000043
     7  C    0.000131  -0.000001  -0.000001   0.000001  -0.000001   0.000001
     8  C   -0.000015   0.000000   0.000004  -0.000000   0.000004  -0.000000
     9  C    0.160492  -0.006956  -0.134426   0.115980  -0.134400   0.115976
    10  C   -2.879112  -0.132860  -0.074576   0.438117  -0.074246   0.438282
    11  C    0.896861   0.271615   0.294078  -0.336281   0.293911  -0.336357
    12  C   -0.127856   0.122926   0.094344  -0.191826   0.094311  -0.191853
    13  C    1.010686   0.014387   0.038361  -0.061038   0.038286  -0.061060
    14  H    0.000712   0.000008   0.000011  -0.000001   0.000011  -0.000001
    15  H    0.000005  -0.000000   0.000001   0.000000   0.000001   0.000000
    16  H    0.000004  -0.000000   0.000001   0.000000   0.000001   0.000000
    17  H    0.000000   0.000000   0.000000  -0.000000   0.000000   0.000000
    18  H    0.000000   0.000000   0.000000   0.000000   0.000000  -0.000000
    19  H    0.000000  -0.000000  -0.000000  -0.000000  -0.000000  -0.000000
    20  H    0.000000  -0.000000  -0.000000   0.000000  -0.000000   0.000000
    21  H    0.000000  -0.000000  -0.000000  -0.000000  -0.000000  -0.000000
    22  H    0.008947   0.000028  -0.001185  -0.000647  -0.001176  -0.000647
    23  Cl  -0.024358  -0.019162  -0.000500  -0.000083  -0.000501  -0.000083
    24  H    0.000175  -0.000205  -0.000005   0.000002  -0.000005   0.000002
    25  S   17.196941   0.047302   0.044981  -0.037179   0.044917  -0.037172
    26  H    0.047302   0.377762   0.000230  -0.001380   0.000230  -0.001385
    27  F    0.044981   0.000230   8.954450  -0.024726  -0.019500  -0.050071
    28  F   -0.037179  -0.001380  -0.024726   8.967128  -0.050056  -0.016471
    29  F    0.044917   0.000230  -0.019500  -0.050056   8.954463  -0.024729
    30  F   -0.037172  -0.001385  -0.050071  -0.016471  -0.024729   8.967104
    31  F   -0.231362  -0.001063   0.008157   0.012153   0.008158   0.012148
              31
     1  C   -0.015737
     2  N   -0.000196
     3  C   -0.002530
     4  O    0.000044
     5  O   -0.000001
     6  C   -0.000046
     7  C    0.000000
     8  C   -0.000000
     9  C   -0.045492
    10  C    0.097620
    11  C    0.027797
    12  C   -0.024464
    13  C    0.009008
    14  H   -0.000000
    15  H    0.000000
    16  H    0.000000
    17  H   -0.000000
    18  H   -0.000000
    19  H   -0.000000
    20  H    0.000000
    21  H   -0.000000
    22  H   -0.000832
    23  Cl   0.000254
    24  H    0.000000
    25  S   -0.231362
    26  H   -0.001063
    27  F    0.008157
    28  F    0.012153
    29  F    0.008158
    30  F    0.012148
    31  F    9.106125
 Mulliken charges:
               1
     1  C   -1.443109
     2  N   -0.488675
     3  C   -0.065386
     4  O   -0.273243
     5  O   -0.046057
     6  C   -0.312659
     7  C   -0.146002
     8  C   -1.026536
     9  C    0.209386
    10  C   -0.927790
    11  C   -0.051686
    12  C    0.211489
    13  C   -0.083945
    14  H    0.409567
    15  H    0.270426
    16  H    0.270425
    17  H    0.259266
    18  H    0.259260
    19  H    0.260600
    20  H    0.274889
    21  H    0.260606
    22  H    0.349168
    23  Cl   0.432488
    24  H    0.259934
    25  S    0.512103
    26  H    0.317616
    27  F    0.078426
    28  F    0.055393
    29  F    0.078386
    30  F    0.055400
    31  F    0.040258
 Sum of Mulliken charges =  -0.00000
 Mulliken charges with hydrogens summed into heavy atoms:
               1
     1  C   -1.443109
     2  N   -0.079108
     3  C   -0.065386
     4  O   -0.273243
     5  O   -0.046057
     6  C    0.228192
     7  C    0.372524
     8  C   -0.230440
     9  C    0.558553
    10  C   -0.927790
    11  C    0.265930
    12  C    0.211489
    13  C    0.175989
    23  Cl   0.432488
    25  S    0.512103
    27  F    0.078426
    28  F    0.055393
    29  F    0.078386
    30  F    0.055400
    31  F    0.040258
 Electronic spatial extent (au):  <R**2>=           9660.5489
 Charge=              0.0000 electrons
 Dipole moment (field-independent basis, Debye):
    X=              5.6783    Y=              3.8057    Z=             -0.0007  Tot=              6.8357
 Quadrupole moment (field-independent basis, Debye-Ang):
   XX=           -114.5045   YY=           -132.7736   ZZ=           -132.3608
   XY=             -2.2030   XZ=             -0.0014   YZ=              0.0008
 Traceless Quadrupole moment (field-independent basis, Debye-Ang):
   XX=             12.0418   YY=             -6.2273   ZZ=             -5.8145
   XY=             -2.2030   XZ=             -0.0014   YZ=              0.0008
 Octapole moment (field-independent basis, Debye-Ang**2):
  XXX=             90.3307  YYY=            -28.6799  ZZZ=             -0.0002  XYY=             -0.3441
  XXY=             -5.3736  XXZ=              0.0023  XZZ=            -11.9513  YZZ=            -19.4937
  YYZ=             -0.0044  XYZ=              0.0031
 Hexadecapole moment (field-independent basis, Debye-Ang**3):
 XXXX=          -8229.6534 YYYY=          -2757.5491 ZZZZ=           -306.5424 XXXY=            -16.5886
 XXXZ=              0.0041 YYYX=            153.6065 YYYZ=             -0.0058 ZZZX=             -0.0086
 ZZZY=              0.0017 XXYY=          -1996.3296 XXZZ=          -1561.0565 YYZZ=           -525.4591
 XXYZ=              0.0195 YYXZ=             -0.0147 ZZXY=             36.0904
 N-N= 2.027327010427D+03 E-N=-8.664911771193D+03  KE= 1.945670775002D+03
 Calling FoFJK, ICntrl=      2127 FMM=F ISym2X=0 I1Cent= 0 IOpClX= 0 NMat=1 NMatS=1 NMatT=0.
 ***** Axes restored to original set *****
 -------------------------------------------------------------------
 Center     Atomic                   Forces (Hartrees/Bohr)
 Number     Number              X              Y              Z
 -------------------------------------------------------------------
      1        6           0.000005652   -0.000000848    0.000000984
      2        7          -0.000009381    0.000000872   -0.000002613
      3        6          -0.000004756    0.000004564    0.000000328
      4        8           0.000001350   -0.000002298    0.000002471
      5        8          -0.000000482   -0.000005083   -0.000002804
      6        6           0.000009314    0.000000423   -0.000000969
      7        6          -0.000000594   -0.000002858    0.000001862
      8        6          -0.000001072   -0.000002639   -0.000000848
      9        6          -0.000000710    0.000005351   -0.000000615
     10        6          -0.000000401   -0.000001558    0.000000160
     11        6          -0.000000824    0.000003542    0.000000508
     12        6           0.000000042    0.000000897   -0.000000154
     13        6          -0.000001088   -0.000000357    0.000000663
     14        1          -0.000000844    0.000000732    0.000001667
     15        1           0.000000171   -0.000000097   -0.000000226
     16        1          -0.000000368   -0.000001591    0.000000300
     17        1          -0.000001362   -0.000001774    0.000000098
     18        1          -0.000001882   -0.000002080   -0.000000679
     19        1           0.000000212   -0.000002128    0.000000062
     20        1          -0.000000276   -0.000002137    0.000000674
     21        1          -0.000000549   -0.000002120   -0.000000589
     22        1           0.000001338   -0.000001266   -0.000000026
     23       17          -0.000000573    0.000001956    0.000000110
     24        1          -0.000001246    0.000000687    0.000000079
     25       16           0.000002694   -0.000004526    0.000000402
     26        1           0.000000205    0.000001661    0.000000050
     27        9           0.000001671    0.000000529    0.000000006
     28        9           0.000001401    0.000001512    0.000001421
     29        9           0.000000880    0.000000559   -0.000000240
     30        9           0.000001105    0.000002171   -0.000002414
     31        9           0.000000368    0.000007904    0.000000334
 -------------------------------------------------------------------
 Cartesian Forces:  Max     0.000009381 RMS     0.000002403

 GradGradGradGradGradGradGradGradGradGradGradGradGradGradGradGradGradGrad
 Berny optimization.
 FormGI is forming the generalized inverse of G from B-inverse, IUseBI=4.
 GSVD:  received Info=                   1 from GESDD.
 Internal  Forces:  Max     0.000009019 RMS     0.000001696
 Search for a local minimum.
 Step number   1 out of a maximum of  165
 All quantities printed in internal units (Hartrees-Bohrs-Radians)
 Mixed Optimization -- En-DIIS/RFO-DIIS
 Second derivative matrix not updated -- first step.
 ITU=  0
     Eigenvalues ---    0.00230   0.00417   0.00593   0.01193   0.01377
     Eigenvalues ---    0.01730   0.01871   0.02006   0.02018   0.02137
     Eigenvalues ---    0.02166   0.02197   0.02213   0.02259   0.02269
     Eigenvalues ---    0.02281   0.02287   0.02473   0.03817   0.04970
     Eigenvalues ---    0.05389   0.05502   0.05539   0.05709   0.08115
     Eigenvalues ---    0.09083   0.09100   0.11296   0.12014   0.13577
     Eigenvalues ---    0.13608   0.13615   0.13651   0.13662   0.16000
     Eigenvalues ---    0.16000   0.16000   0.16000   0.16000   0.16000
     Eigenvalues ---    0.16000   0.16725   0.21882   0.21942   0.22000
     Eigenvalues ---    0.23487   0.23508   0.23521   0.25000   0.25000
     Eigenvalues ---    0.25000   0.25000   0.25000   0.25000   0.25000
     Eigenvalues ---    0.25000   0.25071   0.29763   0.31042   0.31733
     Eigenvalues ---    0.34428   0.34428   0.34509   0.34509   0.34515
     Eigenvalues ---    0.34515   0.34746   0.35485   0.35890   0.36142
     Eigenvalues ---    0.39906   0.42686   0.43226   0.46094   0.46100
     Eigenvalues ---    0.46518   0.47141   0.48120   0.48266   0.48266
     Eigenvalues ---    0.48356   0.48945   0.48946   0.49960   0.50211
     Eigenvalues ---    0.56998   1.03583
 RFO step:  Lambda= 0.00000000D+00 EMin= 2.30000000D-03
 Linear search not attempted -- first point.
 Iteration  1 RMS(Cart)=  0.00012997 RMS(Int)=  0.00000001
 Iteration  2 RMS(Cart)=  0.00000001 RMS(Int)=  0.00000000
 Variable       Old X    -DE/DX   Delta X   Delta X   Delta X     New X
                                 (Linear)    (Quad)   (Total)
    R1        2.64019  -0.00000   0.00000  -0.00001  -0.00001   2.64018
    R2        2.64169   0.00000   0.00000   0.00000   0.00000   2.64170
    R3        2.64200   0.00000   0.00000   0.00000   0.00000   2.64201
    R4        2.59906   0.00001   0.00000   0.00001   0.00001   2.59907
    R5        1.90725  -0.00000   0.00000  -0.00000  -0.00000   1.90725
    R6        2.27237  -0.00000   0.00000  -0.00000  -0.00000   2.27237
    R7        2.53398   0.00001   0.00000   0.00002   0.00002   2.53400
    R8        2.71681   0.00001   0.00000   0.00002   0.00002   2.71683
    R9        2.85932   0.00000   0.00000   0.00000   0.00000   2.85932
   R10        2.06469   0.00000   0.00000   0.00000   0.00000   2.06469
   R11        2.06469  -0.00000   0.00000  -0.00000  -0.00000   2.06469
   R12        2.88438   0.00000   0.00000   0.00000   0.00000   2.88438
   R13        2.06614   0.00000   0.00000   0.00000   0.00000   2.06614
   R14        2.06614  -0.00000   0.00000  -0.00000  -0.00000   2.06614
   R15        2.06480   0.00000   0.00000   0.00000   0.00000   2.06480
   R16        2.06089   0.00000   0.00000   0.00000   0.00000   2.06089
   R17        2.06480  -0.00000   0.00000  -0.00000  -0.00000   2.06480
   R18        2.61642   0.00000   0.00000   0.00000   0.00000   2.61642
   R19        2.03860  -0.00000   0.00000  -0.00000  -0.00000   2.03859
   R20        2.61653   0.00000   0.00000   0.00000   0.00000   2.61653
   R21        3.42728   0.00000   0.00000   0.00000   0.00000   3.42729
   R22        2.62263   0.00000   0.00000   0.00000   0.00000   2.62264
   R23        2.04253   0.00000   0.00000   0.00000   0.00000   2.04253
   R24        2.61492  -0.00000   0.00000  -0.00000  -0.00000   2.61492
   R25        3.28336  -0.00000   0.00000  -0.00000  -0.00000   3.28336
   R26        2.04895   0.00000   0.00000   0.00000   0.00000   2.04895
   R27        3.04645   0.00000   0.00000   0.00000   0.00000   3.04645
   R28        3.05356  -0.00000   0.00000  -0.00000  -0.00000   3.05356
   R29        3.04645  -0.00000   0.00000  -0.00000  -0.00000   3.04645
   R30        3.05356  -0.00000   0.00000  -0.00000  -0.00000   3.05356
   R31        3.03353   0.00001   0.00000   0.00001   0.00001   3.03355
    A1        2.14796   0.00000   0.00000   0.00001   0.00001   2.14797
    A2        2.04595  -0.00000   0.00000  -0.00001  -0.00001   2.04594
    A3        2.08928  -0.00000   0.00000  -0.00000  -0.00000   2.08928
    A4        2.22177   0.00000   0.00000   0.00002   0.00002   2.22179
    A5        2.05002  -0.00000   0.00000  -0.00001  -0.00001   2.05001
    A6        2.01140  -0.00000   0.00000  -0.00001  -0.00001   2.01139
    A7        2.20357   0.00000   0.00000   0.00000   0.00000   2.20357
    A8        1.89943   0.00000   0.00000   0.00000   0.00000   1.89943
    A9        2.18019  -0.00000   0.00000  -0.00001  -0.00001   2.18018
   A10        2.01319   0.00001   0.00000   0.00003   0.00003   2.01322
   A11        1.87946  -0.00000   0.00000  -0.00001  -0.00001   1.87946
   A12        1.89772   0.00000   0.00000   0.00000   0.00000   1.89772
   A13        1.89774   0.00000   0.00000   0.00000   0.00000   1.89774
   A14        1.95214  -0.00000   0.00000  -0.00000  -0.00000   1.95214
   A15        1.95214   0.00000   0.00000   0.00001   0.00001   1.95215
   A16        1.88346  -0.00000   0.00000  -0.00000  -0.00000   1.88346
   A17        1.93503  -0.00000   0.00000  -0.00000  -0.00000   1.93503
   A18        1.90270   0.00000   0.00000   0.00000   0.00000   1.90270
   A19        1.90272  -0.00000   0.00000  -0.00000  -0.00000   1.90271
   A20        1.92698   0.00000   0.00000   0.00000   0.00000   1.92698
   A21        1.92697   0.00000   0.00000   0.00001   0.00001   1.92698
   A22        1.86797  -0.00000   0.00000  -0.00001  -0.00001   1.86796
   A23        1.94257   0.00000   0.00000   0.00001   0.00001   1.94258
   A24        1.93741   0.00000   0.00000   0.00001   0.00001   1.93741
   A25        1.94258  -0.00000   0.00000  -0.00000  -0.00000   1.94258
   A26        1.87912  -0.00000   0.00000   0.00000   0.00000   1.87912
   A27        1.88015  -0.00000   0.00000  -0.00001  -0.00001   1.88014
   A28        1.87913  -0.00000   0.00000  -0.00000  -0.00000   1.87912
   A29        2.05632  -0.00000   0.00000  -0.00000  -0.00000   2.05631
   A30        2.10480  -0.00000   0.00000  -0.00001  -0.00001   2.10479
   A31        2.12207   0.00000   0.00000   0.00001   0.00001   2.12208
   A32        2.16581   0.00000   0.00000   0.00001   0.00001   2.16582
   A33        2.05698  -0.00000   0.00000  -0.00000  -0.00000   2.05698
   A34        2.06039  -0.00000   0.00000  -0.00000  -0.00000   2.06039
   A35        2.03464  -0.00000   0.00000  -0.00000  -0.00000   2.03464
   A36        2.13550   0.00000   0.00000   0.00000   0.00000   2.13551
   A37        2.11304  -0.00000   0.00000  -0.00000  -0.00000   2.11304
   A38        2.12558   0.00000   0.00000   0.00000   0.00000   2.12558
   A39        2.08049   0.00000   0.00000   0.00000   0.00000   2.08049
   A40        2.07711  -0.00000   0.00000  -0.00000  -0.00000   2.07711
   A41        2.09474   0.00000   0.00000   0.00000   0.00000   2.09474
   A42        2.10325   0.00000   0.00000   0.00000   0.00000   2.10326
   A43        2.08519  -0.00000   0.00000  -0.00000  -0.00000   2.08518
   A44        1.61340  -0.00000   0.00000  -0.00000  -0.00000   1.61340
   A45        1.60984  -0.00000   0.00000  -0.00000  -0.00000   1.60983
   A46        1.61341  -0.00000   0.00000   0.00000   0.00000   1.61341
   A47        1.60982   0.00000   0.00000   0.00000   0.00000   1.60983
   A48        1.56982   0.00000   0.00000   0.00000   0.00000   1.56982
   A49        1.57155  -0.00000   0.00000   0.00000   0.00000   1.57155
   A50        1.53099   0.00000   0.00000   0.00000   0.00000   1.53100
   A51        1.56534  -0.00000   0.00000  -0.00001  -0.00001   1.56533
   A52        1.52895  -0.00000   0.00000  -0.00000  -0.00000   1.52895
   A53        1.56981   0.00000   0.00000   0.00000   0.00000   1.56982
   A54        1.53099   0.00000   0.00000   0.00000   0.00000   1.53099
   A55        1.52896  -0.00000   0.00000  -0.00000  -0.00000   1.52896
   A56        3.14439   0.00000   0.00000   0.00000   0.00000   3.14439
   A57        3.22322   0.00000   0.00000   0.00000   0.00000   3.22322
   A58        3.22324  -0.00000   0.00000  -0.00000  -0.00000   3.22324
   A59        3.13879  -0.00000   0.00000  -0.00000  -0.00000   3.13878
   A60        3.14484   0.00000   0.00000   0.00001   0.00001   3.14485
   A61        3.14485   0.00000   0.00000   0.00001   0.00001   3.14485
    D1       -0.00042   0.00000   0.00000   0.00007   0.00007  -0.00034
    D2        3.14137   0.00000   0.00000   0.00003   0.00003   3.14140
    D3        3.14124   0.00000   0.00000   0.00005   0.00005   3.14128
    D4       -0.00016  -0.00000   0.00000   0.00000   0.00000  -0.00016
    D5       -3.14151  -0.00000   0.00000  -0.00004  -0.00004  -3.14155
    D6        0.00008  -0.00000   0.00000  -0.00002  -0.00002   0.00006
    D7        0.00002  -0.00000   0.00000  -0.00002  -0.00002   0.00000
    D8       -3.14157   0.00000   0.00000   0.00001   0.00001  -3.14156
    D9        3.14151   0.00000   0.00000   0.00004   0.00004   3.14155
   D10       -0.00007   0.00000   0.00000   0.00002   0.00002  -0.00005
   D11       -0.00002   0.00000   0.00000   0.00001   0.00001  -0.00001
   D12        3.14158  -0.00000   0.00000  -0.00000  -0.00000   3.14158
   D13       -0.00000   0.00000   0.00000   0.00007   0.00007   0.00006
   D14       -3.14159   0.00000   0.00000   0.00001   0.00001  -3.14158
   D15        3.14139   0.00000   0.00000   0.00011   0.00011   3.14151
   D16       -0.00019   0.00000   0.00000   0.00005   0.00005  -0.00014
   D17        3.14158   0.00000   0.00000   0.00001   0.00001   3.14158
   D18       -0.00001  -0.00000   0.00000  -0.00005  -0.00005  -0.00006
   D19       -3.14110  -0.00000   0.00000  -0.00015  -0.00015  -3.14126
   D20        1.02374  -0.00000   0.00000  -0.00015  -0.00015   1.02359
   D21       -1.02275  -0.00000   0.00000  -0.00014  -0.00014  -1.02289
   D22       -3.14159   0.00000   0.00000   0.00002   0.00002  -3.14157
   D23        1.01677  -0.00000   0.00000   0.00001   0.00001   1.01678
   D24       -1.01676   0.00000   0.00000   0.00002   0.00002  -1.01674
   D25       -1.05756  -0.00000   0.00000   0.00001   0.00001  -1.05755
   D26        3.10080  -0.00000   0.00000   0.00001   0.00001   3.10081
   D27        1.06727   0.00000   0.00000   0.00002   0.00002   1.06729
   D28        1.05754   0.00000   0.00000   0.00002   0.00002   1.05756
   D29       -1.06729  -0.00000   0.00000   0.00001   0.00001  -1.06728
   D30       -3.10082   0.00000   0.00000   0.00002   0.00002  -3.10080
   D31       -1.04869  -0.00000   0.00000  -0.00005  -0.00005  -1.04875
   D32       -3.14149  -0.00000   0.00000  -0.00006  -0.00006  -3.14155
   D33        1.04889  -0.00000   0.00000  -0.00006  -0.00006   1.04883
   D34        1.06185   0.00000   0.00000  -0.00005  -0.00005   1.06180
   D35       -1.03095  -0.00000   0.00000  -0.00006  -0.00006  -1.03101
   D36       -3.12376  -0.00000   0.00000  -0.00006  -0.00006  -3.12381
   D37        3.12393   0.00000   0.00000  -0.00005  -0.00005   3.12388
   D38        1.03114  -0.00000   0.00000  -0.00006  -0.00006   1.03108
   D39       -1.06167  -0.00000   0.00000  -0.00006  -0.00006  -1.06172
   D40       -0.00000   0.00000   0.00000   0.00001   0.00001   0.00001
   D41        3.14156   0.00000   0.00000   0.00003   0.00003  -3.14159
   D42        3.14159  -0.00000   0.00000  -0.00001  -0.00001   3.14157
   D43       -0.00003   0.00000   0.00000   0.00001   0.00001  -0.00003
   D44       -0.00001  -0.00000   0.00000   0.00000   0.00000  -0.00001
   D45        3.14159   0.00000   0.00000   0.00000   0.00000   3.14159
   D46       -3.14157  -0.00000   0.00000  -0.00002  -0.00002  -3.14159
   D47        0.00002  -0.00000   0.00000  -0.00002  -0.00002   0.00000
   D48        0.78687  -0.00000   0.00000  -0.00020  -0.00020   0.78667
   D49        2.35835   0.00000   0.00000  -0.00020  -0.00020   2.35815
   D50       -0.78650  -0.00000   0.00000  -0.00021  -0.00021  -0.78670
   D51       -2.35797  -0.00000   0.00000  -0.00021  -0.00021  -2.35819
   D52       -2.35475  -0.00000   0.00000  -0.00018  -0.00018  -2.35493
   D53       -0.78327   0.00000   0.00000  -0.00018  -0.00018  -0.78345
   D54        2.35507  -0.00000   0.00000  -0.00019  -0.00019   2.35488
   D55        0.78359  -0.00000   0.00000  -0.00019  -0.00019   0.78340
   D56        0.00000  -0.00000   0.00000  -0.00001  -0.00001  -0.00001
   D57       -3.14159   0.00000   0.00000   0.00000   0.00000  -3.14159
   D58       -3.14159  -0.00000   0.00000  -0.00001  -0.00001   3.14159
   D59        0.00001  -0.00000   0.00000  -0.00000  -0.00000   0.00000
   D60        0.00001   0.00000   0.00000   0.00000   0.00000   0.00001
   D61       -3.14159   0.00000   0.00000   0.00002   0.00002  -3.14158
   D62       -3.14158  -0.00000   0.00000  -0.00001  -0.00001  -3.14159
   D63       -0.00000   0.00000   0.00000   0.00001   0.00001   0.00001
         Item               Value     Threshold  Converged?
 Maximum Force            0.000009     0.000450     YES
 RMS     Force            0.000002     0.000300     YES
 Maximum Displacement     0.000574     0.001800     YES
 RMS     Displacement     0.000130     0.001200     YES
 Predicted change in Energy=-1.835224D-09
 Optimization completed.
    -- Stationary point found.
                           ----------------------------
                           !   Optimized Parameters   !
                           ! (Angstroms and Degrees)  !
 --------------------------                            --------------------------
 ! Name  Definition              Value          Derivative Info.                !
 --------------------------------------------------------------------------------
 ! R1    R(1,2)                  1.3971         -DE/DX =    0.0                 !
 ! R2    R(1,9)                  1.3979         -DE/DX =    0.0                 !
 ! R3    R(1,13)                 1.3981         -DE/DX =    0.0                 !
 ! R4    R(2,3)                  1.3754         -DE/DX =    0.0                 !
 ! R5    R(2,14)                 1.0093         -DE/DX =    0.0                 !
 ! R6    R(3,4)                  1.2025         -DE/DX =    0.0                 !
 ! R7    R(3,5)                  1.3409         -DE/DX =    0.0                 !
 ! R8    R(5,6)                  1.4377         -DE/DX =    0.0                 !
 ! R9    R(6,7)                  1.5131         -DE/DX =    0.0                 !
 ! R10   R(6,15)                 1.0926         -DE/DX =    0.0                 !
 ! R11   R(6,16)                 1.0926         -DE/DX =    0.0                 !
 ! R12   R(7,8)                  1.5263         -DE/DX =    0.0                 !
 ! R13   R(7,17)                 1.0934         -DE/DX =    0.0                 !
 ! R14   R(7,18)                 1.0934         -DE/DX =    0.0                 !
 ! R15   R(8,19)                 1.0926         -DE/DX =    0.0                 !
 ! R16   R(8,20)                 1.0906         -DE/DX =    0.0                 !
 ! R17   R(8,21)                 1.0926         -DE/DX =    0.0                 !
 ! R18   R(9,10)                 1.3845         -DE/DX =    0.0                 !
 ! R19   R(9,22)                 1.0788         -DE/DX =    0.0                 !
 ! R20   R(10,11)                1.3846         -DE/DX =    0.0                 !
 ! R21   R(10,25)                1.8136         -DE/DX =    0.0                 !
 ! R22   R(11,12)                1.3878         -DE/DX =    0.0                 !
 ! R23   R(11,26)                1.0809         -DE/DX =    0.0                 !
 ! R24   R(12,13)                1.3838         -DE/DX =    0.0                 !
 ! R25   R(12,23)                1.7375         -DE/DX =    0.0                 !
 ! R26   R(13,24)                1.0843         -DE/DX =    0.0                 !
 ! R27   R(25,27)                1.6121         -DE/DX =    0.0                 !
[...]
 0.00000108,0.00000019,-0.00000006,-0.00000113,0.00000037,0.00000007,-0
 .00000022,0.00000078,-0.00000018,0.00000230,-0.00000075,-0.00000011,-0
 .00000028,0.00000070,0.00000017,-0.00040760,0.00060341,0.00007024,0.00
 093032,-0.00077365,-0.00018371,0.00018556,-0.00007306,0.00000164,-0.00
 368902,-0.00064718,0.00019448,0.33323236,-0.00036978,-0.00138641,0.000
 01115,-0.00011149,0.00030672,0.00002598,0.00015707,-0.00020991,-0.0000
 0949,-0.00018703,0.00015125,0.00001448,-0.00011794,0.00009965,0.000005
 63,0.00005310,0.00001287,-0.00000278,-0.00000094,-0.00000539,-0.000000
 15,0.00000011,0.00000570,0.00000016,-0.00337204,-0.00290061,-0.0000796
 4,-0.01713368,0.01169967,0.00106092,0.09956891,-0.09388386,-0.00613189
 ,0.02843721,-0.00666177,-0.00153375,-0.00034231,-0.00526939,-0.0002714
 0,-0.00012825,-0.00002329,0.00000324,-0.00000322,-0.00000208,0.0000005
 1,-0.00000304,-0.00000237,-0.00000007,-0.00000009,0.00000086,-0.000000
 10,-0.00000005,0.00000075,0.00000020,0.00000039,-0.00000104,0.00000074
 ,-0.00000315,0.00000062,0.00000015,0.00000036,-0.00000096,-0.00000079,
 -0.00072842,0.00065820,0.00002938,0.00053344,0.00096813,0.00007165,0.0
 0138565,-0.00025784,-0.00007653,-0.00552874,-0.00035620,0.00021539,-0.
 10553044,0.09984830,-0.00006379,-0.00000121,-0.00117096,-0.00005412,0.
 00002065,-0.00048585,0.00001465,0.00001808,-0.00011611,-0.00000306,-0.
 00000714,-0.00007526,-0.00000331,-0.00000070,0.00008794,0.00000393,-0.
 00000014,0.00002640,-0.00000009,-0.00000042,0.00000183,-0.00000003,0.0
 0000032,-0.00000059,0.00022338,-0.00005591,0.00592173,0.00030994,-0.00
 011301,0.00090556,0.01557682,-0.00614194,-0.03334321,0.00085253,-0.000
 21318,0.00257554,0.00019177,-0.00027575,0.00561148,0.00000042,-0.00000
 367,0.00007347,0.00000317,-0.00000594,-0.00000553,-0.00000439,0.000006
 09,-0.00000475,0.00000053,-0.00000193,-0.00000121,-0.00000054,0.000002
 01,-0.00000106,0.00000083,0.00000076,-0.00000074,-0.00000017,0.0000000
 4,0.00000040,-0.00000086,-0.00000084,-0.00000077,0.00003533,-0.0000308
 8,0.00078993,-0.00014923,0.00013099,-0.00266227,0.00004010,-0.00001046
 ,0.00026194,0.00006594,-0.00000599,0.00097150,-0.01682782,0.00679661,0
 .02431851,0.00048507,0.00036742,-0.00067932,0.00151849,0.00007030,-0.0
 0021470,-0.00142107,-0.00229714,0.00010869,0.00027311,0.00151789,-0.00
 026222,0.00025866,0.00036490,-0.00000720,-0.00006558,-0.00011529,0.000
 05421,0.00003459,0.00000729,-0.00000542,-0.00000450,-0.00000409,0.0000
 0801,-0.00205973,-0.00090066,-0.00126065,-0.00660324,0.00413725,0.0093
 6705,0.00240590,-0.00255420,0.00042914,-0.00037890,0.00037799,-0.00054
 327,0.00030936,-0.00016477,0.00012297,0.00002505,-0.00000988,0.0000633
 1,0.00002685,-0.00001132,0.00001564,0.00004276,-0.00000704,-0.00003903
 ,-0.00000580,0.00000104,0.00000961,-0.00000914,0.00001777,-0.00001459,
 0.00001170,-0.00000067,-0.00001424,-0.00000508,0.00001177,0.00000057,0
 .00000605,-0.00000660,0.00000590,0.00117782,0.00007077,0.00086165,-0.0
 0002355,-0.00038204,-0.00007178,0.00015067,0.00001322,0.00008136,-0.11
 707736,-0.02284439,0.06376701,0.00030406,0.00069922,0.00012855,0.17046
 622,-0.00201696,0.00270288,-0.00017105,0.00252089,-0.00012010,-0.00013
 000,-0.00286060,-0.00120555,0.00015020,0.00096074,0.00092110,-0.000089
 97,0.00143127,-0.00026546,-0.00008496,-0.00060455,-0.00020268,0.000037
 35,0.00004409,0.00006966,-0.00000178,-0.00000597,-0.00006393,0.0000025
 7,0.00101323,-0.00541761,0.00273082,-0.02122298,-0.00891934,0.01945739
 ,0.00468307,-0.00269069,0.00198311,0.00058596,-0.00070808,-0.00160589,
 -0.00102864,-0.00098828,0.00037337,-0.00002045,0.00009673,0.00000877,0
 .00005983,0.00002255,0.00000977,0.00006475,0.00002167,-0.00001960,-0.0
 0001017,-0.00000375,0.00001088,-0.00001287,0.00000284,-0.00001213,0.00
 000098,0.00001306,-0.00001481,0.00003653,-0.00000416,-0.00000169,0.000
 00036,0.00001030,0.00001254,-0.00073696,-0.00228182,0.00050084,-0.0008
 0017,-0.00104637,-0.00011173,-0.00000068,-0.00006979,-0.00002782,-0.02
 375244,-0.08062789,0.02987092,0.00002388,0.00007335,0.00042913,0.01644
 950,0.09433906,0.00055305,-0.00054193,0.00016058,-0.00144806,0.0000720
 1,0.00026422,0.00156691,0.00129244,-0.00029026,-0.00047158,-0.00092518
 ,0.00046577,-0.00061381,-0.00002334,0.00005361,0.00023229,0.00011238,-
 0.00011899,-0.00002812,-0.00002982,0.00000317,0.00000359,0.00002250,-0
 .00001346,-0.00024221,0.00266092,0.00050186,0.01527035,-0.00401264,-0.
 00629429,-0.00344717,0.00478124,-0.00043913,0.00096109,-0.00035282,0.0
 0038682,-0.00024699,0.00037503,-0.00004947,-0.00003207,-0.00001575,-0.
 00010303,-0.00002028,-0.00000317,0.00000666,-0.00005076,-0.00001016,0.
 00003101,0.00000376,0.00001299,-0.00000154,0.00000962,-0.00001883,0.00
 001432,-0.00000968,-0.00000870,0.00001505,-0.00001002,-0.00000372,-0.0
 0000029,0.00000170,0.00000378,0.,-0.00004752,0.00130220,-0.00141826,0.
 00034589,0.00079049,0.00011095,-0.00006742,0.00004754,-0.00005987,0.06
 352666,0.02794957,-0.13527009,-0.00012442,-0.00031763,-0.00037813,-0.1
 0105712,-0.02334386,0.19080046,-0.00043775,-0.00038207,0.00087425,-0.0
 0025369,0.00065416,0.00025053,0.00118591,-0.00077550,-0.00010594,-0.00
 058080,0.00048088,0.00003693,-0.00097401,0.00049083,0.00007317,0.00042
 471,0.00008382,-0.00002566,-0.00001786,-0.00005163,-0.00000511,-0.0000
 0167,0.00004951,-0.00000052,0.00234676,0.00453174,-0.00123566,-0.01386
 412,-0.00601143,-0.01420958,-0.00287342,0.00210855,0.00053236,0.000341
 41,-0.00048731,0.00091272,-0.00006655,0.00055760,-0.00024050,-0.000112
 18,-0.00003989,-0.00001333,-0.00002397,-0.00002654,0.00001149,-0.00002
 689,-0.00002869,-0.00000692,0.00000259,0.00001143,0.00000450,0.0000030
 4,0.00000648,-0.00000108,0.00000597,-0.00001541,0.00000011,-0.00003528
 ,0.00001422,0.00000106,0.00000788,-0.00001230,0.00000121,0.00072959,-0
 .00061220,-0.00035609,0.00078336,0.00077312,0.00004292,0.00010577,0.00
 003340,-0.00010754,-0.13545838,0.00803853,-0.06658762,0.00104055,0.000
 92232,-0.00114874,-0.04235169,-0.00373668,-0.00901675,0.18664723,-0.00
 105612,-0.00073765,-0.00103669,0.00212883,-0.00024215,-0.00030333,-0.0
 0241269,-0.00095667,0.00013568,0.00074484,0.00070145,-0.00006163,0.001
 24312,-0.00026915,-0.00005046,-0.00052349,-0.00016331,0.00002781,0.000
 03563,0.00006092,-0.00000104,-0.00000467,-0.00005497,0.00000081,-0.002
 72737,-0.00263747,0.00180431,0.02146402,-0.00375548,0.01393927,0.00025
 855,-0.00517935,0.00292218,0.00071306,0.00257854,0.00012110,0.00173261
 ,-0.00055529,0.00012898,0.00003025,0.00008653,-0.00001562,0.00005196,0
 .00002088,0.00000689,0.00005264,0.00002161,-0.00001308,-0.00000852,-0.
 00000336,0.00000822,-0.00000902,-0.00000113,-0.00000798,-0.00000144,0.
 00001234,-0.00000969,0.00003401,-0.00000641,-0.00000165,-0.00000118,0.
 00001100,0.00000929,-0.00011460,-0.00015582,0.00041884,-0.00053846,-0.
 00052633,0.00003884,0.00009716,-0.00004079,-0.00008718,0.00921187,-0.0
 7023961,0.00814266,0.00132673,-0.00165956,0.00001688,-0.01183425,0.006
 43262,-0.00133564,0.01021315,0.09173984,-0.00087218,-0.00060565,0.0002
 2194,-0.00052805,0.00057677,0.00023514,0.00105506,-0.00005748,-0.00014
 273,-0.00042577,-0.00000238,0.00017530,-0.00068304,0.00024167,0.000074
 29,0.00028338,0.00008080,-0.00007369,-0.00001620,-0.00003677,-0.000004
 99,0.00000003,0.00003266,-0.00000461,0.00139448,0.00510532,-0.00047553
 ,-0.01298508,-0.00810094,-0.00409855,-0.00055144,0.00266661,0.00032242
 ,-0.00026095,-0.00036168,0.00027402,0.00008253,0.00040744,-0.00007272,
 -0.00011455,-0.00002856,-0.00003595,-0.00001793,-0.00001389,0.00001066
 ,-0.00002966,-0.00001980,0.00000667,0.00000245,0.00001284,0.00000372,0
 .00000449,-0.00000375,0.00000508,0.00000014,-0.00001197,0.00000534,-0.
 00002135,0.00000627,-0.00000021,0.00000583,-0.00000386,0.00000204,0.00
 036273,-0.00019835,-0.00042253,0.00046356,0.00051487,0.00002008,0.0000
 1712,0.00005764,-0.00005883,-0.06618708,0.00629837,-0.12137107,-0.0002
 5877,0.00101847,-0.00123559,0.01323472,0.00173329,0.00889033,0.1006366
 5,0.00850733,0.17147325,0.00049040,0.00038665,0.00067067,0.00166455,0.
 00005439,0.00009045,-0.00157535,-0.00240095,-0.00011744,0.00034692,0.0
 0158028,0.00035616,0.00031730,0.00036436,0.00000235,-0.00009363,-0.000
 12214,-0.00006303,0.00003751,0.00000990,0.00000280,-0.00000565,-0.0000
 0576,-0.00000904,-0.00190569,-0.00122161,0.00141091,-0.00887296,0.0049
 5982,-0.00892955,0.00265971,-0.00294881,-0.00087265,-0.00040801,0.0003
 7436,0.00063972,0.00031431,-0.00019255,-0.00016730,0.00002111,-0.00000
 432,-0.00007493,0.00005093,-0.00000809,0.00003692,0.00002723,-0.000010
 10,-0.00001811,-0.00000847,0.00001854,0.00001771,-0.00000700,0.0000003
 5,-0.00000913,0.00000530,-0.00000656,-0.00000678,-0.00000407,0.0000120
 5,0.00000042,0.00001390,-0.00000065,0.00001436,0.00108127,0.00000440,-
 0.00108980,-0.00005014,-0.00045848,0.00006265,0.00014779,0.00001362,-0
 .00009950,-0.12885478,-0.02175477,-0.06565839,0.00029993,0.00073354,-0
 .00015252,0.00714151,-0.00011963,0.00805712,-0.00016709,0.00033752,-0.
 00415125,0.18899332,-0.00195527,0.00265426,0.00048195,0.00244531,-0.00
 011619,-0.00011177,-0.00278137,-0.00113953,0.00005799,0.00093954,0.000
 87248,0.00002627,0.00139879,-0.00026607,-0.00005879,-0.00059255,-0.000
 19627,0.00001232,0.00004277,0.00006794,0.00000135,-0.00000608,-0.00006
 250,-0.00000464,0.00073083,-0.00512100,-0.00310337,-0.02208112,-0.0081
 3864,-0.01764222,0.00430042,-0.00232636,-0.00248336,0.00077290,-0.0008
 0523,0.00148002,-0.00107071,-0.00094912,-0.00032522,-0.00002200,0.0000
 9575,0.00000353,0.00006359,0.00002027,0.00001344,0.00005758,0.00002295
 ,-0.00001421,-0.00001129,0.00000127,0.00001256,-0.00001091,-0.00000252
 ,-0.00000999,-0.00000067,0.00001111,-0.00001196,0.00003594,-0.00000432
 ,-0.00000180,0.00000181,0.00001183,0.00001458,-0.00077671,-0.00219048,
 -0.00047649,-0.00077066,-0.00101055,0.00012324,-0.00000126,-0.00006876
 ,0.00002746,-0.02284286,-0.07784314,-0.02502964,-0.00001884,0.00007967
 ,-0.00040506,0.00082110,0.00892719,0.00570895,-0.00289723,0.00853840,-
 0.00151332,0.01292729,0.09221858,-0.00068602,0.00063885,0.00020408,0.0
 0145102,-0.00009395,0.00011424,-0.00160134,-0.00112686,-0.00020131,0.0
 0053480,0.00080722,0.00044006,0.00066446,-0.00002540,-0.00000441,-0.00
 026646,-0.00010633,-0.00009735,0.00002737,0.00003252,0.00000201,-0.000
 00469,-0.00002464,-0.00001372,0.00049425,-0.00285683,0.00004678,-0.016
 21216,0.00344378,-0.00480617,0.00338510,-0.00462367,-0.00105664,-0.000
 84882,0.00025522,0.00051219,0.00015713,-0.00040584,-0.00009379,0.00001
 966,0.00002673,-0.00009811,0.00005245,0.00001050,0.00002430,0.00002147
 ,0.00000499,0.00000587,-0.00000811,0.00001652,0.00001525,-0.00000387,-
 0.00001313,-0.00000158,-0.00000223,-0.00000262,-0.00000007,0.00001228,
 0.00000245,-0.00000114,0.00000993,0.00000864,0.00001408,-0.00022356,-0
 .00135067,-0.00141770,-0.00037413,-0.00081189,0.00010145,0.00004845,-0
 .00004927,-0.00005791,-0.06546996,-0.02320069,-0.12627033,0.00006271,0
 .00027658,-0.00037983,-0.01265313,-0.00297864,-0.04340227,-0.00460153,
 0.00073392,-0.00055984,0.10209701,0.01729995,0.17439912,-0.00043496,-0
 .00028322,-0.00082891,-0.00021794,0.00060915,-0.00017663,0.00108169,-0
 .00077062,-0.00004598,-0.00053651,0.00047996,0.00005331,-0.00090623,0.
 00046691,0.00004053,0.00039627,0.00007562,-0.00001330,-0.00001587,-0.0
 0004816,0.00000355,-0.00000155,0.00004614,0.00000269,0.00231129,0.0039
 7966,0.00118974,-0.01128917,-0.00600359,0.01453540,-0.00284025,0.00186
 343,-0.00015366,0.00028215,-0.00039783,-0.00093622,-0.00004690,0.00050
 412,0.00026473,-0.00010003,-0.00003764,0.00001740,-0.00002330,-0.00002
 714,0.00000825,-0.00002300,-0.00002459,-0.00000976,0.00000276,0.000006
 69,0.00000166,0.00000197,0.00001043,-0.00000382,0.00000717,-0.00001178
 ,-0.00000233,-0.00003304,0.00001354,0.00000266,0.00000590,-0.00001422,
 -0.00000090,0.00071763,-0.00060625,0.00022003,0.00073171,0.00072484,-0
 .00006953,0.00011283,0.00002281,0.00009353,-0.12329711,0.00404362,0.06
 704803,0.00115318,0.00077005,0.00097428,0.00061536,-0.00296061,0.00434
 277,0.00762388,-0.00042049,-0.01344233,-0.04234817,-0.00447591,0.01347
 325,0.16836690,-0.00100701,-0.00082516,0.00107510,0.00211441,-0.000219
 85,0.00008741,-0.00235521,-0.00095770,0.00003614,0.00072354,0.00069946
 ,0.00002301,0.00120182,-0.00025413,-0.00007619,-0.00050733,-0.00015839
 ,0.00001389,0.00003481,0.00005871,0.00000126,-0.00000482,-0.00005297,-
 0.00000291,-0.00280029,-0.00226299,-0.00164869,0.01938337,-0.00341884,
 -0.01569601,-0.00005474,-0.00486254,-0.00320418,0.00068908,0.00256057,
 -0.00006518,0.00171519,-0.00052030,-0.00030858,0.00002563,0.00008386,0
 .00001971,0.00005199,0.00001991,0.00000913,0.00005001,0.00002054,-0.00
 001097,-0.00000804,-0.00000172,0.00000840,-0.00000910,-0.00000224,-0.0
 0000774,-0.00000168,0.00001123,-0.00000869,0.00003276,-0.00000603,-0.0
 0000165,-0.00000053,0.00001114,0.00001009,-0.00012945,-0.00014677,-0.0
 0039352,-0.00051420,-0.00049516,-0.00001957,0.00010580,-0.00004205,0.0
 0007903,0.00506716,-0.06959546,-0.00574611,0.00130765,-0.00159497,-0.0
 0015036,0.00007533,0.00846496,-0.00025612,-0.00090728,0.00856354,0.002
 47616,-0.01108203,0.00642313,0.00224385,0.01447157,0.09291559,0.000881
 17,0.00058017,0.00030719,0.00068062,-0.00065755,0.00017763,-0.00129265
 ,0.00008261,-0.00003756,0.00052955,-0.00001273,0.00013273,0.00083648,-
 0.00030109,-0.00000826,-0.00035368,-0.00009320,-0.00005012,0.00001914,
 0.00004472,-0.00000480,-0.00000065,-0.00003956,-0.00000674,-0.00181090
 ,-0.00558705,-0.00081395,0.01470345,0.00874857,-0.00701131,0.00083154,
 -0.00312050,-0.00002400,0.00029751,0.00052135,0.00035117,0.00000520,-0
 .00047896,-0.00012711,0.00012200,0.00003871,-0.00004553,0.00003527,0.0
 0002314,0.00000476,0.00002368,0.00001675,0.00001007,-0.00000471,0.0000
 0279,0.00000599,-0.00000280,-0.00001417,0.00000320,-0.00000639,0.00000
 542,0.00000253,0.00002609,-0.00000779,-0.00000283,-0.00000018,0.000013
 62,0.00000661,-0.00047343,0.00026813,-0.00042018,-0.00055752,-0.000611
 54,0.00004035,-0.00002729,-0.00005912,-0.00006470,0.06670537,-0.003799
 74,-0.13416718,0.00010793,-0.00110897,-0.00140891,0.00405753,0.0022763
 5,-0.00126870,0.00870224,0.00035566,-0.04391030,-0.00916520,-0.0014943
 1,0.00889536,-0.09974746,-0.01425487,0.18855937,0.00026184,-0.00041696
 ,-0.00000124,0.00026710,0.00012054,-0.00000827,-0.00004323,-0.00086812
 ,-0.00002997,-0.00006482,0.00057253,0.00002716,-0.00022426,0.00026269,
 0.00001775,0.00011342,-0.00000245,-0.00000667,0.00000457,-0.00001360,-
 0.00000052,-0.00000175,0.00001436,0.00000015,-0.00032183,-0.00081169,-
 0.00000362,0.00327080,0.00048714,-0.00002132,-0.00068402,0.00075836,0.
 00004199,-0.00004610,0.00031277,0.00003219,0.00030580,0.00008843,-0.00
 003466,0.00000350,-0.00002515,-0.00000191,0.00000350,-0.00001042,0.000
 00901,0.00000210,-0.00001004,-0.00000916,-0.00000133,0.00000551,0.0000
 0481,-0.00000168,0.00000517,-0.00000412,0.00000470,-0.00000575,-0.0000
 0314,-0.00001284,0.00000836,0.00000078,0.00000518,-0.00000565,0.000002
 68,0.00034772,-0.00033854,-0.00003960,0.00025508,0.00019537,-0.0000074
 2,0.00004713,0.00001416,-0.00000330,-0.06554943,0.02042499,0.00072416,
 0.00019344,0.00029923,-0.00001348,-0.01524761,0.03201528,0.02205919,-0
 .00400331,-0.03002365,-0.01699752,-0.01931197,0.03577756,-0.01955537,-
 0.00129666,-0.02766838,0.01487809,0.10172498,-0.00137655,0.00064499,0.
 00006685,0.00178962,-0.00018559,-0.00008647,-0.00206929,-0.00011139,0.
 00009638,0.00073819,0.00016185,-0.00003472,0.00127906,-0.00043151,-0.0
 0006975,-0.00056754,-0.00015307,0.00002265,0.00002694,0.00006198,0.000
 00038,-0.00000422,-0.00006299,-0.00000129,-0.00017031,-0.00048620,-0.0
 0000697,0.00054782,0.00036025,-0.00008167,0.00008253,-0.00029646,-0.00
 000621,0.00064039,0.00096685,-0.00001634,0.00030600,-0.00035646,-0.000
 00989,-0.00001660,0.00008672,0.00000367,0.00004283,0.00002481,0.000004
 38,0.00004257,0.00002517,-0.00000730,-0.00000628,-0.00000427,0.0000060
 2,-0.00000684,-0.00000363,-0.00000579,-0.00000435,0.00001386,-0.000010
 30,0.00003949,-0.00001054,-0.00000207,-0.00000349,0.00001315,0.0000112
 1,-0.00041875,0.00014451,0.00003141,-0.00048855,-0.00054576,0.00000838
 ,0.00002630,-0.00006215,-0.00000193,0.02076063,-0.19251749,-0.00439583
 ,0.00027565,0.00030993,0.00000297,0.01612956,-0.01748245,-0.01393272,-
 0.01298558,-0.03158317,-0.01877811,0.01855938,-0.01970416,0.01186872,-
 0.01200651,-0.03441537,0.01866317,-0.03116209,0.29559859,-0.00002643,0
 .00002348,0.00047885,0.00003556,-0.00001077,0.00001068,-0.00006185,0.0
 0004203,-0.00020187,0.00003164,-0.00002717,0.00020122,0.00004464,-0.00
 002378,0.00001362,-0.00002155,-0.00000309,-0.00003068,0.00000056,0.000
 00222,0.00000119,-0.00000034,-0.00000213,-0.00000682,0.00001312,0.0000
 2220,0.00006661,-0.00001993,-0.00007885,0.00251334,0.00002414,-0.00003
 701,-0.00020095,0.00004090,-0.00000153,0.00047986,-0.00002892,0.000000
 01,-0.00050695,-0.00000166,0.00000405,-0.00002322,0.00000773,0.0000020
 6,0.00000650,-0.00000508,-0.00000018,0.00000754,-0.00000067,0.00000598
 ,0.00000323,0.00000074,-0.00000683,0.00000292,-0.00000266,-0.00000224,
 0.00000322,0.00000160,-0.00000064,-0.00000068,0.00000231,0.00000329,0.
 00000344,-0.00004154,0.00002774,-0.00032342,-0.00002548,-0.00002264,-0
 .00002200,-0.00000296,-0.00000139,-0.00003353,0.00073329,-0.00438054,-
 0.06159864,-0.00001401,0.00000194,-0.00027546,0.02450680,-0.03099337,-
 0.01259702,-0.01441761,-0.03439470,-0.00925314,-0.02287465,0.02742254,
 -0.00631262,0.01315901,0.03576816,-0.00912477,-0.00105669,0.00666115,0
 .09671954\\-0.00000566,0.00000081,-0.00000098,0.00000937,-0.00000087,0
 .00000261,0.00000477,-0.00000458,-0.00000033,-0.00000135,0.00000230,-0
 .00000247,0.00000048,0.00000509,0.00000280,-0.00000931,-0.00000043,0.0
 0000097,0.00000059,0.00000286,-0.00000186,0.00000107,0.00000264,0.0000
 0085,0.00000069,-0.00000533,0.00000062,0.00000042,0.00000156,-0.000000
 16,0.00000082,-0.00000356,-0.00000051,-0.00000005,-0.00000089,0.000000
 15,0.00000110,0.00000037,-0.00000066,0.00000084,-0.00000073,-0.0000016
 7,-0.00000017,0.00000010,0.00000023,0.00000037,0.00000159,-0.00000030,
 0.00000136,0.00000177,-0.00000010,0.00000188,0.00000208,0.00000068,-0.
 00000021,0.00000213,-0.00000006,0.00000028,0.00000214,-0.00000067,0.00
 000055,0.00000212,0.00000059,-0.00000134,0.00000127,0.00000003,0.00000
 057,-0.00000196,-0.00000011,0.00000125,-0.00000069,-0.00000008,-0.0000
 0269,0.00000452,-0.00000040,-0.00000021,-0.00000166,-0.00000005,-0.000
 00167,-0.00000053,0.,-0.00000141,-0.00000151,-0.00000142,-0.00000088,-
 0.00000056,0.00000024,-0.00000111,-0.00000217,0.00000242,-0.00000037,-
 0.00000790,-0.00000033\\\@


 A ROPE OVER THE TOP OF A FENCE HAS THE SAME LENGTH ON EACH SIDE.
 WEIGHS 1/3 POUND PER FOOT.  ON ONE END HANGS A MONKEY HOLDING A
 BANANA, AND ON THE OTHER END A WEIGHT EQUAL TO THE WEIGHT
 OF THE MONKEY.  THE BANANA WEIGHS TWO OUNCES PER INCH.
 THE ROPE IS AS LONG AS THE AGE OF THE MONKEY, 
 AND THE WEIGHT OF THE MONKEY (IN OUNCES) IS AS MUCH
 AS THE AGE OF THE MONKEY'S MOTHER.  THE COMBINED AGES OF MONKEY
 AND MOTHER ARE THIRTY YEARS.  HALF THE WEIGHT OF THE MONKEY,
  PLUS THE WEIGHT OF THE BANANA, IS ONE FOURTH AS MUCH AS THE WEIGHT
 OF THE WEIGHT AND THE ROPE.
 THE MONKEY'S MOTHER IS HALF AS OLD AS THE MONKEY WILL BE
 WHEN IT IS 3 TIMES AS OLD AS ITS MOTHER WAS WHEN
 SHE WAS HALF AS OLD AS THE MONKEY WILL BE WHEN IT IS
 AS OLD AS ITS MOTHER WILL BE WHEN SHE IS 4 TIMES AS
 OLD AS THE MONKEY WAS WHEN IT WAS TWICE AS OLD AS 
 ITS MOTHER WAS WHEN SHE WAS ONE THIRD AS OLD AS THE
 MONKEY WAS WHEN IT WAS AS OLD AS ITS MOTHER WAS WHEN 
 SHE WAS 3 TIMES AS OLD AS THE MONKEY WAS WHEN IT WAS AS OLD AS ITS
 MOTHER WAS WHEN SHE WAS 3 TIMES AS OLD AS THE MONKEY 
 WAS WHEN IT WAS ONE FOURTH WAS OLD AS IT IS NOW.

 HOW LONG IS THE BANANA?
 Job cpu time:       0 days  5 hours 28 minutes 22.4 seconds.
 File lengths (MBytes):  RWF=    801 Int=      0 D2E=      0 Chk=     18 Scr=      1
 Normal termination of Gaussian 09 at Thu Nov 14 18:54:26 2019.
pbs_rusage has been removed.
Please contact help@nci.org.au if you require this functionality.
