 Entering Gaussian System, Link 0=/apps/gaussian/g09e01/g09/g09
 Initial command:
 /apps/gaussian/g09e01/g09/l1.exe "/jobfs/local/3588730.r-man2/Gau-30222.inp" -scrdir="/jobfs/local/3588730.r-man2/"
 Entering Link 1 = /apps/gaussian/g09e01/g09/l1.exe PID=     30223.
  
 Copyright (c) 1988,1990,1992,1993,1995,1998,2003,2009,2015,
            Gaussian, Inc.  All Rights Reserved.
  
 This is part of the Gaussian(R) 09 program.  It is based on
 the Gaussian(R) 03 system (copyright 2003, Gaussian, Inc.),
 the Gaussian(R) 98 system (copyright 1998, Gaussian, Inc.),
 the Gaussian(R) 94 system (copyright 1995, Gaussian, Inc.),
 the Gaussian 92(TM) system (copyright 1992, Gaussian, Inc.),
 the Gaussian 90(TM) system (copyright 1990, Gaussian, Inc.),
 the Gaussian 88(TM) system (copyright 1988, Gaussian, Inc.),
 the Gaussian 86(TM) system (copyright 1986, Carnegie Mellon
 University), and the Gaussian 82(TM) system (copyright 1983,
 Carnegie Mellon University). Gaussian is a federally registered
 trademark of Gaussian, Inc.
  
 This software contains proprietary and confidential information,
 including trade secrets, belonging to Gaussian, Inc.
  
 This software is provided under written license and may be
 used, copied, transmitted, or stored only in accord with that
 written license.
  
 The following legend is applicable only to US Government
 contracts under FAR:
  
                    RESTRICTED RIGHTS LEGEND
  
 Use, reproduction and disclosure by the US Government is
 subject to restrictions as set forth in subparagraphs (a)
 and (c) of the Commercial Computer Software - Restricted
 Rights clause in FAR 52.227-19.
  
 Gaussian, Inc.
 340 Quinnipiac St., Bldg. 40, Wallingford CT 06492
  
  
 ---------------------------------------------------------------
 Warning -- This program may not be used in any manner that
 competes with the business of Gaussian, Inc. or will provide
 assistance to any competitor of Gaussian, Inc.  The licensee
 of this program is prohibited from giving any competitor of
 Gaussian, Inc. access to this program.  By using this program,
 the user acknowledges that Gaussian, Inc. is engaged in the
 business of creating and licensing software in the field of
 computational chemistry and represents and warrants to the
 licensee that it is not a competitor of Gaussian, Inc. and that
 it will not use this program in any manner prohibited above.
 ---------------------------------------------------------------
  

 Cite this work as:
 Gaussian 09, Revision E.01,
 M. J. Frisch, G. W. Trucks, H. B. Schlegel, G. E. Scuseria, 
 M. A. Robb, J. R. Cheeseman, G. Scalmani, V. Barone, B. Mennucci, 
 G. A. Petersson, H. Nakatsuji, M. Caricato, X. Li, H. P. Hratchian, 
 A. F. Izmaylov, J. Bloino, G. Zheng, J. L. Sonnenberg, M. Hada, 
 M. Ehara, K. Toyota, R. Fukuda, J. Hasegawa, M. Ishida, T. Nakajima, 
 Y. Honda, O. Kitao, H. Nakai, T. Vreven, J. A. Montgomery, Jr., 
 J. E. Peralta, F. Ogliaro, M. Bearpark, J. J. Heyd, E. Brothers, 
 K. N. Kudin, V. N. Staroverov, T. Keith, R. Kobayashi, J. Normand, 
 K. Raghavachari, A. Rendell, J. C. Burant, S. S. Iyengar, J. Tomasi, 
 M. Cossi, N. Rega, J. M. Millam, M. Klene, J. E. Knox, J. B. Cross, 
 V. Bakken, C. Adamo, J. Jaramillo, R. Gomperts, R. E. Stratmann, 
 O. Yazyev, A. J. Austin, R. Cammi, C. Pomelli, J. W. Ochterski, 
 R. L. Martin, K. Morokuma, V. G. Zakrzewski, G. A. Voth, 
 P. Salvador, J. J. Dannenberg, S. Dapprich, A. D. Daniels, 
 O. Farkas, J. B. Foresman, J. V. Ortiz, J. Cioslowski, 
 and D. J. Fox, Gaussian, Inc., Wallingford CT, 2013.
 
 ******************************************
 Gaussian 09:  ES64L-G09RevE.01 30-Nov-2015
                14-Nov-2019 
 ******************************************
 %chk=CP22CA_c2.M062X_6-311pGd_opt_Pentadecane_GD3.chk
 %mem=196608000
 %nproc=4
 Will use up to    4 processors via shared memory.
 ----------------------------------------------------------------------
 # M062X/6-311+G* SCF=Tight INT(grid=ultrafine) OPT IOP(2/17=4) Empiric
 alDispersion=GD3 SCRF=(SMD,Solvent=n-Pentadecane) maxdisk=2684354560
 ----------------------------------------------------------------------
 1/14=-1,18=20,19=15,26=4,38=1/1,3;
 2/9=110,12=2,17=4,18=5,40=1/2;
 3/5=4,6=6,7=11,11=2,16=1,25=1,30=1,70=32201,71=1,72=151,74=-55,75=-5,124=31/1,2,3;
 4//1;
 5/5=2,32=2,38=5,53=151/2;
 6/7=2,8=2,9=2,10=2,28=1/1;
 7//1,2,3,16;
 1/14=-1,18=20,19=15,26=4/3(2);
 2/9=110,17=4/2;
 99//99;
 2/9=110,17=4/2;
 3/5=4,6=6,7=11,11=2,16=1,25=1,30=1,70=32205,71=1,72=151,74=-55,75=-5,124=31/1,2,3;
 4/5=5,16=3,69=1/1;
 5/5=2,32=2,38=5,53=151/2;
 7//1,2,3,16;
 1/14=-1,18=20,19=15,26=4/3(-5);
 2/9=110,17=4/2;
 6/7=2,8=2,9=2,10=2,19=2,28=1/1;
 99/9=1/99;
 --------------------------------------------
 CP22CA_c2.M062X_6-311pGd_opt_Pentadecane_GD3
 --------------------------------------------
 Symbolic Z-matrix:
 Charge =  0 Multiplicity = 1
 C                    -5.89213   1.46796   0.31679 
 N                    -4.65766   0.83275   0.17767 
 C                    -3.41199   1.41135   0.20672 
 O                    -3.17612   2.58288   0.36031 
 O                    -2.48817   0.45939   0.03564 
 C                    -1.11928   0.90461   0.04092 
 C                    -0.24198  -0.31036  -0.16519 
 C                     1.23233   0.0805   -0.17184 
 C                    -7.03157   0.65805   0.24986 
 C                    -8.27394   1.24544   0.38253 
 C                    -8.45698   2.60495   0.58012 
 C                    -7.30698   3.3777    0.64148 
 C                    -6.03212   2.84438   0.51504 
 H                    -4.66812  -0.16821   0.03833 
 H                    -0.91344   1.3952    0.99523 
 H                    -0.98622   1.63975  -0.75634 
 H                    -0.51253  -0.78965  -1.11008 
 H                    -0.44019  -1.03286   0.63131 
 H                     1.45256   0.78925  -0.97422 
 H                     1.86698  -0.79457  -0.32038 
 H                     1.5251    0.54525   0.77312 
 H                    -6.93237  -0.40979   0.09642 
 Cl                   -7.46885   5.09281   0.88799 
 H                    -5.16516   3.48487   0.56933 
 S                    -9.73774   0.18514   0.2936 
 H                    -9.43745   3.04927   0.68212 
 F                    -9.0812   -0.92924   1.26363 
 F                    -10.41936   0.89451   1.57304 
 F                    -9.17236  -0.61411  -0.99304 
 F                    -10.51056   1.20985  -0.68492 
 F                    -11.03869  -0.75866   0.21434 
 

 GradGradGradGradGradGradGradGradGradGradGradGradGradGradGradGradGradGrad
 Berny optimization.
 Initialization pass.
                           ----------------------------
                           !    Initial Parameters    !
                           ! (Angstroms and Degrees)  !
 --------------------------                            --------------------------
 ! Name  Definition              Value          Derivative Info.                !
 --------------------------------------------------------------------------------
 ! R1    R(1,2)                  1.3953         estimate D2E/DX2                !
 ! R2    R(1,9)                  1.3996         estimate D2E/DX2                !
 ! R3    R(1,13)                 1.3977         estimate D2E/DX2                !
 ! R4    R(2,3)                  1.3738         estimate D2E/DX2                !
 ! R5    R(2,14)                 1.0107         estimate D2E/DX2                !
 ! R6    R(3,4)                  1.2049         estimate D2E/DX2                !
 ! R7    R(3,5)                  1.3375         estimate D2E/DX2                !
 ! R8    R(5,6)                  1.4395         estimate D2E/DX2                !
 ! R9    R(6,7)                  1.5127         estimate D2E/DX2                !
 ! R10   R(6,15)                 1.0926         estimate D2E/DX2                !
 ! R11   R(6,16)                 1.0926         estimate D2E/DX2                !
 ! R12   R(7,8)                  1.5253         estimate D2E/DX2                !
 ! R13   R(7,17)                 1.0935         estimate D2E/DX2                !
 ! R14   R(7,18)                 1.0935         estimate D2E/DX2                !
 ! R15   R(8,19)                 1.093          estimate D2E/DX2                !
 ! R16   R(8,20)                 1.0911         estimate D2E/DX2                !
 ! R17   R(8,21)                 1.093          estimate D2E/DX2                !
 ! R18   R(9,10)                 1.3806         estimate D2E/DX2                !
 ! R19   R(9,22)                 1.0834         estimate D2E/DX2                !
 ! R20   R(10,11)                1.3859         estimate D2E/DX2                !
 ! R21   R(10,25)                1.8097         estimate D2E/DX2                !
 ! R22   R(11,12)                1.3869         estimate D2E/DX2                !
 ! R23   R(11,26)                1.0813         estimate D2E/DX2                !
 ! R24   R(12,13)                1.3877         estimate D2E/DX2                !
 ! R25   R(12,23)                1.7403         estimate D2E/DX2                !
 ! R26   R(13,24)                1.0793         estimate D2E/DX2                !
 ! R27   R(25,27)                1.6167         estimate D2E/DX2                !
 ! R28   R(25,28)                1.6139         estimate D2E/DX2                !
 ! R29   R(25,29)                1.6168         estimate D2E/DX2                !
 ! R30   R(25,30)                1.6139         estimate D2E/DX2                !
 ! R31   R(25,31)                1.6092         estimate D2E/DX2                !
 ! A1    A(2,1,9)              116.8781         estimate D2E/DX2                !
 ! A2    A(2,1,13)             123.4431         estimate D2E/DX2                !
 ! A3    A(9,1,13)             119.6788         estimate D2E/DX2                !
 ! A4    A(1,2,3)              127.4733         estimate D2E/DX2                !
 ! A5    A(1,2,14)             117.0961         estimate D2E/DX2                !
 ! A6    A(3,2,14)             115.4306         estimate D2E/DX2                !
 ! A7    A(2,3,4)              126.1365         estimate D2E/DX2                !
 ! A8    A(2,3,5)              108.8941         estimate D2E/DX2                !
 ! A9    A(4,3,5)              124.9695         estimate D2E/DX2                !
 ! A10   A(3,5,6)              115.863          estimate D2E/DX2                !
 ! A11   A(5,6,7)              107.6133         estimate D2E/DX2                !
 ! A12   A(5,6,15)             108.7378         estimate D2E/DX2                !
 ! A13   A(5,6,16)             108.7384         estimate D2E/DX2                !
 ! A14   A(7,6,15)             111.7391         estimate D2E/DX2                !
 ! A15   A(7,6,16)             111.7372         estimate D2E/DX2                !
 ! A16   A(15,6,16)            108.1974         estimate D2E/DX2                !
 ! A17   A(6,7,8)              110.8149         estimate D2E/DX2                !
 ! A18   A(6,7,17)             109.0434         estimate D2E/DX2                !
 ! A19   A(6,7,18)             109.0446         estimate D2E/DX2                !
 ! A20   A(8,7,17)             110.3475         estimate D2E/DX2                !
 ! A21   A(8,7,18)             110.3469         estimate D2E/DX2                !
 ! A22   A(17,7,18)            107.1558         estimate D2E/DX2                !
 ! A23   A(7,8,19)             111.3542         estimate D2E/DX2                !
 ! A24   A(7,8,20)             110.9338         estimate D2E/DX2                !
 ! A25   A(7,8,21)             111.353          estimate D2E/DX2                !
 ! A26   A(19,8,20)            107.6319         estimate D2E/DX2                !
 ! A27   A(19,8,21)            107.7573         estimate D2E/DX2                !
 ! A28   A(20,8,21)            107.6317         estimate D2E/DX2                !
 ! A29   A(1,9,10)             118.8041         estimate D2E/DX2                !
 ! A30   A(1,9,22)             120.1737         estimate D2E/DX2                !
 ! A31   A(10,9,22)            121.0222         estimate D2E/DX2                !
 ! A32   A(9,10,11)            123.3592         estimate D2E/DX2                !
 ! A33   A(9,10,25)            118.2867         estimate D2E/DX2                !
 ! A34   A(11,10,25)           118.354          estimate D2E/DX2                !
 ! A35   A(10,11,12)           116.3185         estimate D2E/DX2                !
 ! A36   A(10,11,26)           122.4315         estimate D2E/DX2                !
 ! A37   A(12,11,26)           121.25           estimate D2E/DX2                !
 ! A38   A(11,12,13)           122.93           estimate D2E/DX2                !
 ! A39   A(11,12,23)           118.5723         estimate D2E/DX2                !
 ! A40   A(13,12,23)           118.4977         estimate D2E/DX2                !
 ! A41   A(1,13,12)            118.9093         estimate D2E/DX2                !
 ! A42   A(1,13,24)            120.7383         estimate D2E/DX2                !
 ! A43   A(12,13,24)           120.3524         estimate D2E/DX2                !
 ! A44   A(10,25,27)            92.6303         estimate D2E/DX2                !
 ! A45   A(10,25,28)            92.5872         estimate D2E/DX2                !
 ! A46   A(10,25,29)            92.6303         estimate D2E/DX2                !
 ! A47   A(10,25,30)            92.5861         estimate D2E/DX2                !
 ! A48   A(27,25,28)            89.9325         estimate D2E/DX2                !
 ! A49   A(27,25,29)            89.6979         estimate D2E/DX2                !
 ! A50   A(27,25,31)            87.3399         estimate D2E/DX2                !
 ! A51   A(28,25,30)            89.9623         estimate D2E/DX2                !
 ! A52   A(28,25,31)            87.4433         estimate D2E/DX2                !
 ! A53   A(29,25,30)            89.9326         estimate D2E/DX2                !
 ! A54   A(29,25,31)            87.3391         estimate D2E/DX2                !
 ! A55   A(30,25,31)            87.4436         estimate D2E/DX2                !
 ! A56   L(10,25,31,27,-1)     179.9702         estimate D2E/DX2                !
 ! A57   L(27,25,30,10,-1)     185.2164         estimate D2E/DX2                !
 ! A58   L(28,25,29,10,-1)     185.2175         estimate D2E/DX2                !
 ! A59   L(10,25,31,27,-2)     180.0305         estimate D2E/DX2                !
 ! A60   L(27,25,30,10,-2)     179.8695         estimate D2E/DX2                !
 ! A61   L(28,25,29,10,-2)     179.8695         estimate D2E/DX2                !
 ! D1    D(9,1,2,3)            179.9381         estimate D2E/DX2                !
 ! D2    D(9,1,2,14)            -0.017          estimate D2E/DX2                !
 ! D3    D(13,1,2,3)            -0.0615         estimate D2E/DX2                !
 ! D4    D(13,1,2,14)          179.9834         estimate D2E/DX2                !
 ! D5    D(2,1,9,10)          -179.996          estimate D2E/DX2                !
 ! D6    D(2,1,9,22)            -0.0007         estimate D2E/DX2                !
 ! D7    D(13,1,9,10)            0.0036         estimate D2E/DX2                !
 ! D8    D(13,1,9,22)          179.9989         estimate D2E/DX2                !
 ! D9    D(2,1,13,12)          179.9964         estimate D2E/DX2                !
 ! D10   D(2,1,13,24)            0.0012         estimate D2E/DX2                !
 ! D11   D(9,1,13,12)           -0.0032         estimate D2E/DX2                !
 ! D12   D(9,1,13,24)         -179.9983         estimate D2E/DX2                !
 ! D13   D(1,2,3,4)              0.0326         estimate D2E/DX2                !
 ! D14   D(1,2,3,5)           -179.9665         estimate D2E/DX2                !
 ! D15   D(14,2,3,4)           179.9884         estimate D2E/DX2                !
 ! D16   D(14,2,3,5)            -0.0107         estimate D2E/DX2                !
 ! D17   D(2,3,5,6)            179.9973         estimate D2E/DX2                !
 ! D18   D(4,3,5,6)             -0.0018         estimate D2E/DX2                !
 ! D19   D(3,5,6,7)           -179.9882         estimate D2E/DX2                !
 ! D20   D(3,5,6,15)            58.811          estimate D2E/DX2                !
 ! D21   D(3,5,6,16)           -58.7893         estimate D2E/DX2                !
 ! D22   D(5,6,7,8)           -179.9979         estimate D2E/DX2                !
 ! D23   D(5,6,7,17)            58.3506         estimate D2E/DX2                !
 ! D24   D(5,6,7,18)           -58.3464         estimate D2E/DX2                !
 ! D25   D(15,6,7,8)           -60.6947         estimate D2E/DX2                !
 ! D26   D(15,6,7,17)          177.6538         estimate D2E/DX2                !
 ! D27   D(15,6,7,18)           60.9568         estimate D2E/DX2                !
 ! D28   D(16,6,7,8)            60.6991         estimate D2E/DX2                !
 ! D29   D(16,6,7,17)          -60.9523         estimate D2E/DX2                !
 ! D30   D(16,6,7,18)         -177.6493         estimate D2E/DX2                !
 ! D31   D(6,7,8,19)           -60.1484         estimate D2E/DX2                !
 ! D32   D(6,7,8,20)           179.9986         estimate D2E/DX2                !
 ! D33   D(6,7,8,21)            60.1466         estimate D2E/DX2                !
 ! D34   D(17,7,8,19)           60.7343         estimate D2E/DX2                !
 ! D35   D(17,7,8,20)          -59.1187         estimate D2E/DX2                !
 ! D36   D(17,7,8,21)         -178.9706         estimate D2E/DX2                !
 ! D37   D(18,7,8,19)          178.9678         estimate D2E/DX2                !
 ! D38   D(18,7,8,20)           59.1148         estimate D2E/DX2                !
 ! D39   D(18,7,8,21)          -60.7372         estimate D2E/DX2                !
 ! D40   D(1,9,10,11)           -0.0014         estimate D2E/DX2                !
 ! D41   D(1,9,10,25)          179.9936         estimate D2E/DX2                !
 ! D42   D(22,9,10,11)        -179.9967         estimate D2E/DX2                !
 ! D43   D(22,9,10,25)          -0.0017         estimate D2E/DX2                !
 ! D44   D(9,10,11,12)          -0.0011         estimate D2E/DX2                !
 ! D45   D(9,10,11,26)         179.9992         estimate D2E/DX2                !
 ! D46   D(25,10,11,12)       -179.9961         estimate D2E/DX2                !
 ! D47   D(25,10,11,26)          0.0042         estimate D2E/DX2                !
 ! D48   D(9,10,25,27)          44.93           estimate D2E/DX2                !
 ! D49   D(9,10,25,28)         134.9813         estimate D2E/DX2                !
 ! D50   D(9,10,25,29)         -44.8882         estimate D2E/DX2                !
 ! D51   D(9,10,25,30)        -134.9395         estimate D2E/DX2                !
 ! D52   D(11,10,25,27)       -135.0748         estimate D2E/DX2                !
 ! D53   D(11,10,25,28)        -45.0234         estimate D2E/DX2                !
 ! D54   D(11,10,25,29)        135.1071         estimate D2E/DX2                !
 ! D55   D(11,10,25,30)         45.0558         estimate D2E/DX2                !
 ! D56   D(10,11,12,13)          0.0015         estimate D2E/DX2                !
 ! D57   D(10,11,12,23)       -179.9986         estimate D2E/DX2                !
 ! D58   D(26,11,12,13)       -179.9988         estimate D2E/DX2                !
 ! D59   D(26,11,12,23)          0.0011         estimate D2E/DX2                !
 ! D60   D(11,12,13,1)           0.0006         estimate D2E/DX2                !
 ! D61   D(11,12,13,24)        179.9958         estimate D2E/DX2                !
 ! D62   D(23,12,13,1)        -179.9993         estimate D2E/DX2                !
 ! D63   D(23,12,13,24)         -0.0041         estimate D2E/DX2                !
 --------------------------------------------------------------------------------
 Trust Radius=3.00D-01 FncErr=1.00D-07 GrdErr=1.00D-06
 Number of steps in this run=    165 maximum allowed number of steps=    186.
 GradGradGradGradGradGradGradGradGradGradGradGradGradGradGradGradGradGrad

                          Input orientation:                          
 ---------------------------------------------------------------------
 Center     Atomic      Atomic             Coordinates (Angstroms)
 Number     Number       Type             X           Y           Z
 ---------------------------------------------------------------------
      1          6           0       -5.892130    1.467959    0.316787
      2          7           0       -4.657662    0.832747    0.177667
      3          6           0       -3.411986    1.411346    0.206715
      4          8           0       -3.176121    2.582880    0.360312
      5          8           0       -2.488166    0.459388    0.035644
      6          6           0       -1.119281    0.904615    0.040920
      7          6           0       -0.241979   -0.310361   -0.165195
      8          6           0        1.232328    0.080503   -0.171838
      9          6           0       -7.031569    0.658048    0.249863
     10          6           0       -8.273937    1.245438    0.382530
     11          6           0       -8.456976    2.604951    0.580124
     12          6           0       -7.306979    3.377699    0.641476
     13          6           0       -6.032119    2.844378    0.515042
     14          1           0       -4.668118   -0.168208    0.038326
     15          1           0       -0.913440    1.395195    0.995229
     16          1           0       -0.986216    1.639748   -0.756337
     17          1           0       -0.512529   -0.789645   -1.110078
     18          1           0       -0.440191   -1.032855    0.631313
     19          1           0        1.452561    0.789253   -0.974223
     20          1           0        1.866981   -0.794566   -0.320380
     21          1           0        1.525101    0.545251    0.773119
     22          1           0       -6.932367   -0.409788    0.096419
     23         17           0       -7.468855    5.092811    0.887986
     24          1           0       -5.165155    3.484874    0.569330
     25         16           0       -9.737737    0.185141    0.293599
     26          1           0       -9.437452    3.049268    0.682119
     27          9           0       -9.081199   -0.929236    1.263628
     28          9           0      -10.419364    0.894514    1.573043
     29          9           0       -9.172361   -0.614111   -0.993040
     30          9           0      -10.510559    1.209847   -0.684923
     31          9           0      -11.038693   -0.758662    0.214343
 ---------------------------------------------------------------------
                    Distance matrix (angstroms):
                    1          2          3          4          5
     1  C    0.000000
     2  N    1.395263   0.000000
     3  C    2.483231   1.373802   0.000000
     4  O    2.936264   2.300280   1.204872   0.000000
     5  O    3.561351   2.205965   1.337509   2.255640   0.000000
     6  C    4.813891   3.541752   2.353882   2.673795   1.439480
     7  C    5.942973   4.574113   3.626504   4.154057   2.382899
     8  C    7.274729   5.948110   4.846039   5.097009   3.745488
     9  C    1.399556   2.381421   3.697392   4.310645   4.552787
    10  C    2.393082   3.645507   4.867957   5.270386   5.849217
    11  C    2.817895   4.211587   5.197697   5.285474   6.366050
    12  C    2.398818   3.702806   4.384807   4.216014   5.666085
    13  C    1.397653   2.459596   3.002290   2.872116   4.298558
    14  H    2.062229   1.010662   2.025146   3.146143   2.268496
    15  H    5.025230   3.873495   2.620066   2.633143   2.067923
    16  H    5.024848   3.873388   2.619923   2.632886   2.067931
    17  H    6.006066   4.633851   3.871067   4.542103   2.603057
    18  H    6.006383   4.633933   3.871171   4.542279   2.603040
    19  H    7.488112   6.218004   5.044346   5.140309   4.081418
    20  H    8.107329   6.742934   5.745551   6.107648   4.546038
    21  H    7.488321   6.218021   5.044379   5.140412   4.081367
    22  H    2.157913   2.593217   3.965070   4.809894   4.528806
    23  Cl   3.993981   5.153203   5.520462   5.000575   6.855826
    24  H    2.158753   2.728502   2.739454   2.193978   4.074881
    25  S    4.053993   5.122499   6.444088   6.986302   7.259341
    26  H    3.899144   5.292810   6.262192   6.286919   7.444326
    27  F    4.100392   4.883807   6.223774   6.929710   6.848672
    28  F    4.733167   5.928583   7.158025   7.535640   8.090540
    29  F    4.100070   4.883283   6.222846   6.928723   6.847558
    30  F    4.732857   5.928125   7.157190   7.534701   8.089573
    31  F    5.608515   6.576585   7.929417   8.544427   8.638697
                    6          7          8          9         10
     6  C    0.000000
     7  C    1.512716   0.000000
     8  C    2.500898   1.525254   0.000000
     9  C    5.921115   6.870853   8.294780   0.000000
    10  C    7.170911   8.199564   9.593407   1.380618   0.000000
    11  C    7.551401   8.748755  10.040961   2.435424   1.385938
    12  C    6.690621   8.010413   9.189817   2.761469   2.355546
    13  C    5.303155   6.628788   7.802756   2.418525   2.756794
    14  H    3.707452   4.433095   5.909424   2.512637   3.888290
    15  H    1.092587   2.169416   2.773947   6.207291   7.387472
    16  H    1.092587   2.169393   2.773954   6.206647   7.386703
    17  H    2.136226   1.093487   2.163787   6.814921   8.161427
    18  H    2.136239   1.093485   2.163778   6.815491   8.162113
    19  H    2.767344   2.176038   1.093001   8.572984   9.831258
    20  H    3.454781   2.169389   1.091144   9.034348  10.367927
    21  H    2.767312   2.176024   1.093001   8.573397   9.831784
    22  H    5.960093   6.696239   8.183800   1.083355   2.149754
    23  Cl   7.653469   9.084668  10.097378   4.501727   3.963070
    24  H    4.827634   6.259472   7.284700   3.402426   3.835947
    25  S    8.652126   9.519739  10.980433   2.747526   1.809655
    26  H    8.614096   9.826585  11.107971   3.419511   2.167332
    27  F    8.261366   8.975319  10.461786   2.783554   2.481373
    28  F    9.425447  10.394824  11.809706   3.644706   2.478574
    29  F    8.260006   8.973812  10.460134   2.783197   2.481386
    30  F    9.424231  10.393502  11.808221   3.644404   2.478548
    31  F   10.059388  10.812680  12.305742   4.250337   3.418856
                   11         12         13         14         15
    11  C    0.000000
    12  C    1.386866   0.000000
    13  C    2.437517   1.387690   0.000000
    14  H    4.726458   4.461035   3.341173   0.000000
    15  H    7.651194   6.703194   5.341497   4.178218   0.000000
    16  H    7.650490   6.702716   5.341225   4.178110   1.770053
    17  H    8.803085   8.160836   6.805367   4.355909   3.060486
    18  H    8.803698   8.161242   6.805595   4.355986   2.500366
    19  H   10.193707   9.275778   7.903283   6.277316   3.137494
    20  H   10.906498  10.123956   8.737026   6.574839   3.775794
    21  H   10.194189   9.276084   7.903428   6.277333   2.591953
    22  H    3.412778   3.844799   3.402248   2.277840   6.347701
    23  Cl   2.694552   1.740282   2.694206   6.020330   7.527106
    24  H    3.407413   2.145716   1.079263   3.724784   4.756599
    25  S    2.752804   4.027658   4.566419   5.088326   8.934470
    26  H    1.081275   2.156023   3.415580   5.789056   8.688659
    27  F    3.653397   4.699427   4.908913   4.642823   8.496312
    28  F    2.786118   4.089128   4.916223   6.046616   9.536622
    29  F    3.653626   4.699557   4.908826   4.642278   8.729279
    30  F    2.786371   4.089235   4.916099   6.046176   9.744843
    31  F    4.255931   5.587272   6.175605   6.400300  10.381215
                   16         17         18         19         20
    16  H    0.000000
    17  H    2.500293   0.000000
    18  H    3.060478   1.759780   0.000000
    19  H    2.591997   2.524470   3.079015   0.000000
    20  H    3.775801   2.507132   2.507098   1.762877   0.000000
    21  H    3.137495   3.079012   2.524461   1.765787   1.762876
    22  H    6.347007   6.543260   6.543903   8.537622   8.817612
    23  Cl   7.526755   9.326630   9.326939  10.078695  11.103115
    24  H    4.756618   6.537496   6.537508   7.310478   8.279862
    25  S    8.933498   9.382164   9.383067  11.278080  11.662173
    26  H    8.687883   9.879448   9.880133  11.244711  11.982081
    27  F    8.729759   8.892473   8.664732  10.905103  11.062995
    28  F    9.745033  10.401006  10.207130  12.142580  12.545609
    29  F    8.494050   8.662402   8.891831  10.717217  11.061288
    30  F    9.534308  10.204869  10.400698  11.974007  12.544085
    31  F   10.380120  10.609203  10.610244  12.642790  12.916796
                   21         22         23         24         25
    21  H    0.000000
    22  H    8.538079   0.000000
    23  Cl  10.078925   5.585069   0.000000
    24  H    7.310434   4.302914   2.827372   0.000000
    25  S   11.278792   2.874530   5.439334   5.645598   0.000000
    26  H   11.245264   4.310867   2.844965   4.295928   2.905916
    27  F   10.719530   2.499936   6.245464   5.941533   1.616736
    28  F   11.976315   4.005093   5.176921   5.943409   1.613940
    29  F   10.904088   2.499249   6.245731   5.941411   1.616755
    30  F   12.141858   4.004645   5.177202   5.943252   1.613934
    31  F   12.643629   4.122806   6.887472   7.254795   1.609201
                   26         27         28         29         30
    26  H    0.000000
    27  F    4.036529   0.000000
    28  F    2.529992   2.283088   0.000000
    29  F    4.036927   2.280387   3.227344   0.000000
    30  F    2.530579   3.227321   2.281701   2.283098   0.000000
    31  F    4.157297   2.227527   2.227695   2.227524   2.227697
                   31
    31  F    0.000000
 Stoichiometry    C10H11ClF5NO2S
 Framework group  C1[X(C10H11ClF5NO2S)]
 Deg. of freedom    87
 Full point group                 C1      NOp   1
 Largest Abelian subgroup         C1      NOp   1
 Largest concise Abelian subgroup C1      NOp   1
                         Standard orientation:                         
 ---------------------------------------------------------------------
 Center     Atomic      Atomic             Coordinates (Angstroms)
 Number     Number       Type             X           Y           Z
 ---------------------------------------------------------------------
      1          6           0       -0.594802    0.244547   -0.000964
      2          7           0       -1.837008   -0.390811   -0.001448
      3          6           0       -3.077620    0.199285   -0.000527
      4          8           0       -3.301291    1.383213    0.000322
      5          8           0       -4.012294   -0.757437   -0.000700
      6          6           0       -5.377632   -0.301419    0.000257
      7          6           0       -6.268543   -1.523951    0.000186
      8          6           0       -7.739966   -1.122313    0.001123
      9          6           0        0.536985   -0.578749   -0.000783
     10          6           0        1.786588    0.008275   -0.000222
     11          6           0        1.984182    1.380055    0.000147
     12          6           0        0.841437    2.165886   -0.000100
     13          6           0       -0.440112    1.633613   -0.000652
     14          1           0       -1.837140   -1.401473   -0.001903
     15          1           0       -5.541216    0.318570   -0.884390
     16          1           0       -5.540268    0.317735    0.885662
     17          1           0       -6.039861   -2.132129    0.879696
     18          1           0       -6.040788   -2.131376   -0.880083
     19          1           0       -7.990032   -0.529082    0.884409
     20          1           0       -8.384422   -2.002807    0.001048
     21          1           0       -7.990918   -0.528287   -0.881378
     22          1           0        0.426385   -1.656444   -0.001004
     23         17           0        1.021620    3.896816    0.000302
     24          1           0       -1.300997    2.284524   -0.000759
     25         16           0        3.240340   -1.069434    0.000186
     26          1           0        2.970164    1.823895    0.000598
     27          9           0        2.619450   -2.031983   -1.140792
     28          9           0        3.978027   -0.197110   -1.139846
     29          9           0        2.618073   -2.032982    1.139595
     30          9           0        3.976629   -0.198083    1.141855
     31          9           0        4.532348   -2.028727    0.000562
 ---------------------------------------------------------------------
 Rotational constants (GHZ):      0.4449008      0.1175317      0.0966539
 Standard basis: 6-311+G(d) (5D, 7F)
 There are   509 symmetry adapted cartesian basis functions of A   symmetry.
 There are   489 symmetry adapted basis functions of A   symmetry.
   489 basis functions,   806 primitive gaussians,   509 cartesian basis functions
    86 alpha electrons       86 beta electrons
       nuclear repulsion energy      2007.0092339330 Hartrees.
 NAtoms=   31 NActive=   31 NUniq=   31 SFac= 1.00D+00 NAtFMM=   60 NAOKFM=F Big=F
 Integral buffers will be    131072 words long.
 Raffenetti 2 integral format.
 Two-electron integral symmetry is turned on.
 Nuclear repulsion after empirical dispersion term =     2007.0076861306 Hartrees.
 ------------------------------------------------------------------------------
 Polarizable Continuum Model (PCM)
 =================================
 Model                : PCM (using non-symmetric T matrix).
 Atomic radii         : SMD-Coulomb.
 Polarization charges : Total charges.
 Charge compensation  : None.
 Solution method      : On-the-fly selection.
 Cavity type          : VdW (van der Waals Surface) (Alpha=1.000).
 Cavity algorithm     : GePol (No added spheres)
                        Default sphere list used, NSphG=   31.
                        Lebedev-Laikov grids with approx.  5.0 points / Ang**2.
                        Smoothing algorithm: York/Karplus (Gamma=1.0000).
                        Polarization charges: spherical gaussians, with
                                              point-specific exponents (IZeta= 3).
                        Self-potential: point-specific (ISelfS= 7).
                        Self-field    : sphere-specific E.n sum rule (ISelfD= 2).
 1st derivatives      : Analytical E(r).r(x)/FMM algorithm (CHGder, D1EAlg=3).
                        Cavity 1st derivative terms included.
 Solvent              : n-Pentadecane, Eps=   2.033300 Eps(inf)=   2.049192
 ------------------------------------------------------------------------------
 ------------------------------------------------------------------------------
 Atomic radii for non-electrostatic terms: SMD-CDS.
 ------------------------------------------------------------------------------
 Nuclear repulsion after PCM non-electrostatic terms =     2007.0034473889 Hartrees.
 One-electron integrals computed using PRISM.
 NBasis=   489 RedAO= T EigKep=  1.36D-06  NBF=   489
 NBsUse=   487 1.00D-06 EigRej=  6.72D-07 NBFU=   487
 ExpMin= 4.05D-02 ExpMax= 1.06D+05 ExpMxC= 3.62D+03 IAcc=3 IRadAn=         5 AccDes= 0.00D+00
 Harris functional with IExCor= 1009 and IRadAn=       5 diagonalized for initial guess.
 HarFok:  IExCor= 1009 AccDes= 0.00D+00 IRadAn=         5 IDoV= 1 UseB2=F ITyADJ=14
 ICtDFT=  3500011 ScaDFX=  1.000000  1.000000  1.000000  1.000000
 FoFCou: FMM=F IPFlag=           0 FMFlag=      100000 FMFlg1=           0
         NFxFlg=           0 DoJE=T BraDBF=F KetDBF=T FulRan=T
         wScrn=  0.000000 ICntrl=     500 IOpCl=  0 I1Cent=   200000004 NGrid=           0
         NMat0=    1 NMatS0=      1 NMatT0=    0 NMatD0=    1 NMtDS0=    0 NMtDT0=    0
 Petite list used in FoFCou.
 Requested convergence on RMS density matrix=1.00D-08 within 128 cycles.
 Requested convergence on MAX density matrix=1.00D-06.
 Requested convergence on             energy=1.00D-06.
 No special actions if energy rises.
 Inv3:  Mode=1 IEnd=    20782272.
 Iteration    1 A*A^-1 deviation from unit magnitude is 5.77D-15 for   2614.
 Iteration    1 A*A^-1 deviation from orthogonality  is 3.16D-15 for   1640    314.
 Iteration    1 A^-1*A deviation from unit magnitude is 5.77D-15 for   2614.
 Iteration    1 A^-1*A deviation from orthogonality  is 2.37D-15 for   2612    625.
 Error on total polarization charges =  0.01601
 SCF Done:  E(RM062X) =  -1950.30351214     A.U. after   15 cycles
            NFock= 15  Conv=0.57D-08     -V/T= 2.0024
 SMD-CDS (non-electrostatic) energy       (kcal/mol) =      -2.66
 (included in total energy above)

 **********************************************************************

            Population analysis using the SCF density.

 **********************************************************************

 Orbital symmetries:
       Occupied  (A) (A) (A) (A) (A) (A) (A) (A) (A) (A) (A) (A)
                 (A) (A) (A) (A) (A) (A) (A) (A) (A) (A) (A) (A)
                 (A) (A) (A) (A) (A) (A) (A) (A) (A) (A) (A) (A)
                 (A) (A) (A) (A) (A) (A) (A) (A) (A) (A) (A) (A)
                 (A) (A) (A) (A) (A) (A) (A) (A) (A) (A) (A) (A)
                 (A) (A) (A) (A) (A) (A) (A) (A) (A) (A) (A) (A)
                 (A) (A) (A) (A) (A) (A) (A) (A) (A) (A) (A) (A)
                 (A) (A)
       Virtual   (A) (A) (A) (A) (A) (A) (A) (A) (A) (A) (A) (A)
                 (A) (A) (A) (A) (A) (A) (A) (A) (A) (A) (A) (A)
                 (A) (A) (A) (A) (A) (A) (A) (A) (A) (A) (A) (A)
                 (A) (A) (A) (A) (A) (A) (A) (A) (A) (A) (A) (A)
                 (A) (A) (A) (A) (A) (A) (A) (A) (A) (A) (A) (A)
                 (A) (A) (A) (A) (A) (A) (A) (A) (A) (A) (A) (A)
                 (A) (A) (A) (A) (A) (A) (A) (A) (A) (A) (A) (A)
                 (A) (A) (A) (A) (A) (A) (A) (A) (A) (A) (A) (A)
                 (A) (A) (A) (A) (A) (A) (A) (A) (A) (A) (A) (A)
                 (A) (A) (A) (A) (A) (A) (A) (A) (A) (A) (A) (A)
                 (A) (A) (A) (A) (A) (A) (A) (A) (A) (A) (A) (A)
                 (A) (A) (A) (A) (A) (A) (A) (A) (A) (A) (A) (A)
                 (A) (A) (A) (A) (A) (A) (A) (A) (A) (A) (A) (A)
                 (A) (A) (A) (A) (A) (A) (A) (A) (A) (A) (A) (A)
                 (A) (A) (A) (A) (A) (A) (A) (A) (A) (A) (A) (A)
                 (A) (A) (A) (A) (A) (A) (A) (A) (A) (A) (A) (A)
                 (A) (A) (A) (A) (A) (A) (A) (A) (A) (A) (A) (A)
                 (A) (A) (A) (A) (A) (A) (A) (A) (A) (A) (A) (A)
                 (A) (A) (A) (A) (A) (A) (A) (A) (A) (A) (A) (A)
                 (A) (A) (A) (A) (A) (A) (A) (A) (A) (A) (A) (A)
                 (A) (A) (A) (A) (A) (A) (A) (A) (A) (A) (A) (A)
                 (A) (A) (A) (A) (A) (A) (A) (A) (A) (A) (A) (A)
                 (A) (A) (A) (A) (A) (A) (A) (A) (A) (A) (A) (A)
                 (A) (A) (A) (A) (A) (A) (A) (A) (A) (A) (A) (A)
                 (A) (A) (A) (A) (A) (A) (A) (A) (A) (A) (A) (A)
                 (A) (A) (A) (A) (A) (A) (A) (A) (A) (A) (A) (A)
                 (A) (A) (A) (A) (A) (A) (A) (A) (A) (A) (A) (A)
                 (A) (A) (A) (A) (A) (A) (A) (A) (A) (A) (A) (A)
                 (A) (A) (A) (A) (A) (A) (A) (A) (A) (A) (A) (A)
                 (A) (A) (A) (A) (A) (A) (A) (A) (A) (A) (A) (A)
                 (A) (A) (A) (A) (A) (A) (A) (A) (A) (A) (A) (A)
                 (A) (A) (A) (A) (A) (A) (A) (A) (A) (A) (A) (A)
                 (A) (A) (A) (A) (A) (A) (A) (A) (A) (A) (A) (A)
                 (A) (A) (A) (A) (A)
 The electronic state is 1-A.
 Alpha  occ. eigenvalues -- -102.69107 -90.28928 -25.29299 -25.29298 -25.29295
 Alpha  occ. eigenvalues --  -25.29294 -25.29150 -19.68179 -19.62342 -14.81228
 Alpha  occ. eigenvalues --  -10.71951 -10.63526 -10.63473 -10.62256 -10.60135
 Alpha  occ. eigenvalues --  -10.58870 -10.58587 -10.57654 -10.54297 -10.53154
 Alpha  occ. eigenvalues --   -9.83375  -8.61234  -7.55892  -7.55209  -7.55193
 Alpha  occ. eigenvalues --   -6.53663  -6.53652  -6.53211  -1.51208  -1.41115
 Alpha  occ. eigenvalues --   -1.41034  -1.38097  -1.36611  -1.26383  -1.16460
 Alpha  occ. eigenvalues --   -1.09023  -1.02715  -0.98174  -0.94112  -0.90688
 Alpha  occ. eigenvalues --   -0.87936  -0.86473  -0.80964  -0.77364  -0.75155
 Alpha  occ. eigenvalues --   -0.74597  -0.73808  -0.71389  -0.68742  -0.66980
 Alpha  occ. eigenvalues --   -0.65931  -0.65018  -0.63170  -0.62565  -0.61868
 Alpha  occ. eigenvalues --   -0.60419  -0.60105  -0.59155  -0.57234  -0.56353
 Alpha  occ. eigenvalues --   -0.56325  -0.56234  -0.55954  -0.55567  -0.54621
 Alpha  occ. eigenvalues --   -0.53465  -0.53435  -0.52432  -0.52359  -0.51698
 Alpha  occ. eigenvalues --   -0.50576  -0.50513  -0.47858  -0.47848  -0.46289
 Alpha  occ. eigenvalues --   -0.45388  -0.44071  -0.43895  -0.41246  -0.41214
 Alpha  occ. eigenvalues --   -0.40109  -0.39513  -0.38863  -0.38122  -0.33448
 Alpha  occ. eigenvalues --   -0.30499
 Alpha virt. eigenvalues --   -0.02751  -0.02707  -0.01146   0.00237   0.01812
 Alpha virt. eigenvalues --    0.01995   0.03004   0.03143   0.03824   0.04167
 Alpha virt. eigenvalues --    0.04191   0.04695   0.04885   0.05171   0.05992
 Alpha virt. eigenvalues --    0.06332   0.06836   0.06864   0.07664   0.07921
 Alpha virt. eigenvalues --    0.08164   0.08501   0.09197   0.09282   0.09860
 Alpha virt. eigenvalues --    0.10765   0.11075   0.11239   0.11597   0.11686
 Alpha virt. eigenvalues --    0.12643   0.12857   0.13003   0.13680   0.13885
 Alpha virt. eigenvalues --    0.14250   0.14709   0.15450   0.16358   0.17107
 Alpha virt. eigenvalues --    0.17224   0.17577   0.18235   0.18515   0.19644
 Alpha virt. eigenvalues --    0.20051   0.20256   0.20288   0.20412   0.20480
 Alpha virt. eigenvalues --    0.21034   0.21601   0.22006   0.22606   0.23064
 Alpha virt. eigenvalues --    0.23366   0.23602   0.23954   0.24530   0.24762
 Alpha virt. eigenvalues --    0.24874   0.25737   0.25809   0.26688   0.26998
 Alpha virt. eigenvalues --    0.27137   0.27521   0.27940   0.27979   0.28490
 Alpha virt. eigenvalues --    0.28916   0.29615   0.30307   0.30607   0.30985
 Alpha virt. eigenvalues --    0.31366   0.31718   0.31924   0.32340   0.32644
 Alpha virt. eigenvalues --    0.33465   0.33638   0.34250   0.34991   0.35236
 Alpha virt. eigenvalues --    0.35964   0.36197   0.37440   0.37779   0.38028
 Alpha virt. eigenvalues --    0.38491   0.38498   0.38933   0.39367   0.41001
 Alpha virt. eigenvalues --    0.41681   0.42842   0.43263   0.43727   0.43932
 Alpha virt. eigenvalues --    0.45136   0.45392   0.46316   0.47290   0.47840
 Alpha virt. eigenvalues --    0.47848   0.48310   0.48662   0.48733   0.49172
 Alpha virt. eigenvalues --    0.49742   0.51020   0.51893   0.53659   0.53929
 Alpha virt. eigenvalues --    0.54784   0.54968   0.56070   0.57012   0.57247
 Alpha virt. eigenvalues --    0.58668   0.58808   0.59738   0.60986   0.61107
 Alpha virt. eigenvalues --    0.61368   0.62582   0.63352   0.63741   0.63948
 Alpha virt. eigenvalues --    0.64055   0.66512   0.67474   0.67571   0.68313
 Alpha virt. eigenvalues --    0.68962   0.69117   0.70180   0.70883   0.71389
 Alpha virt. eigenvalues --    0.72467   0.73142   0.73269   0.73667   0.75023
 Alpha virt. eigenvalues --    0.75296   0.76432   0.77077   0.77439   0.78052
 Alpha virt. eigenvalues --    0.80227   0.80829   0.81957   0.84693   0.85634
 Alpha virt. eigenvalues --    0.88492   0.88687   0.90467   0.91073   0.91821
 Alpha virt. eigenvalues --    0.92155   0.92923   0.93033   0.94651   0.95300
 Alpha virt. eigenvalues --    0.98344   0.99182   0.99515   0.99698   1.02666
 Alpha virt. eigenvalues --    1.03396   1.03784   1.04526   1.05851   1.06271
 Alpha virt. eigenvalues --    1.07310   1.09315   1.11313   1.12345   1.12816
 Alpha virt. eigenvalues --    1.14214   1.16073   1.18752   1.18811   1.20886
 Alpha virt. eigenvalues --    1.21758   1.21810   1.23363   1.24644   1.25918
 Alpha virt. eigenvalues --    1.26141   1.28249   1.30619   1.30737   1.33057
 Alpha virt. eigenvalues --    1.33599   1.36058   1.36627   1.37284   1.38226
 Alpha virt. eigenvalues --    1.39130   1.39831   1.42001   1.43575   1.44426
 Alpha virt. eigenvalues --    1.44657   1.47820   1.49724   1.49728   1.50641
 Alpha virt. eigenvalues --    1.51639   1.51675   1.54093   1.54268   1.56068
 Alpha virt. eigenvalues --    1.57620   1.58313   1.60914   1.61618   1.62434
 Alpha virt. eigenvalues --    1.62684   1.63304   1.65202   1.67729   1.68636
 Alpha virt. eigenvalues --    1.68869   1.71361   1.73658   1.74325   1.76542
 Alpha virt. eigenvalues --    1.78132   1.78408   1.79195   1.83429   1.84033
 Alpha virt. eigenvalues --    1.84864   1.86056   1.88620   1.88667   1.90616
 Alpha virt. eigenvalues --    1.91667   1.92352   1.93085   1.96840   1.98494
 Alpha virt. eigenvalues --    1.99454   2.02204   2.03038   2.05939   2.06494
 Alpha virt. eigenvalues --    2.07099   2.08839   2.11152   2.15665   2.17448
 Alpha virt. eigenvalues --    2.17696   2.22271   2.24608   2.24843   2.27817
 Alpha virt. eigenvalues --    2.29866   2.34052   2.34929   2.36857   2.39971
 Alpha virt. eigenvalues --    2.42424   2.45972   2.50095   2.50343   2.52205
 Alpha virt. eigenvalues --    2.54780   2.56114   2.58184   2.59171   2.59809
 Alpha virt. eigenvalues --    2.61084   2.64792   2.65560   2.70208   2.71058
 Alpha virt. eigenvalues --    2.73227   2.73766   2.79746   2.81709   2.83497
 Alpha virt. eigenvalues --    2.86649   2.92735   2.92854   2.94250   2.97960
 Alpha virt. eigenvalues --    3.00949   3.02631   3.04121   3.06689   3.10183
 Alpha virt. eigenvalues --    3.11558   3.16001   3.18028   3.19539   3.21140
 Alpha virt. eigenvalues --    3.24722   3.27326   3.28873   3.29407   3.29741
 Alpha virt. eigenvalues --    3.34186   3.35468   3.38650   3.41024   3.44141
 Alpha virt. eigenvalues --    3.46304   3.55009   3.61480   3.68531   3.70906
 Alpha virt. eigenvalues --    3.74454   3.78718   3.79205   3.79703   3.80283
 Alpha virt. eigenvalues --    3.81031   3.82388   3.82948   3.83157   3.83466
 Alpha virt. eigenvalues --    3.83950   3.85062   3.86063   3.87902   3.87917
 Alpha virt. eigenvalues --    3.88696   3.90076   3.90907   3.91040   3.91230
 Alpha virt. eigenvalues --    3.93747   3.96886   3.97159   4.01720   4.02912
 Alpha virt. eigenvalues --    4.07444   4.10280   4.10786   4.18462   4.27644
 Alpha virt. eigenvalues --    4.29323   4.29995   4.32813   4.37254   4.55950
 Alpha virt. eigenvalues --    4.77424   5.07472   5.09826   5.15593   5.36600
 Alpha virt. eigenvalues --    5.50100   5.80333   5.95897   6.34887   6.36660
 Alpha virt. eigenvalues --    6.38070   6.40549   6.41971   6.43219   6.46905
 Alpha virt. eigenvalues --    6.52133   6.52433   6.53483   6.54979   6.63090
 Alpha virt. eigenvalues --    6.64412   6.64841   6.70031   8.22312   9.96208
 Alpha virt. eigenvalues --   17.50843  17.55419  17.60605  23.46402  23.57164
 Alpha virt. eigenvalues --   23.71971  23.81560  23.91202  23.92763  23.96330
 Alpha virt. eigenvalues --   24.07840  24.10259  24.18897  25.93135  26.23708
 Alpha virt. eigenvalues --   26.71227  35.65010  50.01567  50.13362  66.88820
 Alpha virt. eigenvalues --   66.90933  66.96044  66.98002  67.06558 189.46130
 Alpha virt. eigenvalues --  216.06274
          Condensed to atoms (all electrons):
               1          2          3          4          5          6
     1  C   44.239321  -0.589936  -0.634365  -0.495298  -0.354355  -0.869788
     2  N   -0.589936   7.711574   0.062608   0.011463  -0.249809  -0.378385
     3  C   -0.634365   0.062608   9.864191   0.553721   0.259638  -0.587623
     4  O   -0.495298   0.011463   0.553721   8.050717  -0.196409  -0.122108
     5  O   -0.354355  -0.249809   0.259638  -0.196409   8.358286   0.485354
     6  C   -0.869788  -0.378385  -0.587623  -0.122108   0.485354   8.525247
     7  C   -0.043857   0.046105   0.153249   0.026555  -0.181434  -1.018391
     8  C   -0.023563  -0.006911  -0.263499   0.002000   0.039954   0.348148
     9  C   -8.672628   0.411695  -2.646289  -0.214437  -0.252842  -0.495739
    10  C   -6.688526   0.505124  -1.668160  -0.006357   0.022558  -0.142320
    11  C  -13.722921   0.032460  -0.510538  -0.020206  -0.024465  -0.045591
    12  C   -6.059428   0.114614   0.371850   0.178693   0.056616   0.055165
    13  C    2.185339  -0.416522   0.870483   0.526341   0.151315   0.037826
    14  H    0.025805   0.254638   0.012457   0.001076   0.026725  -0.000588
    15  H    0.010465   0.005193   0.043364  -0.001809  -0.044236   0.347819
    16  H    0.010574   0.005194   0.043368  -0.001806  -0.044229   0.347754
    17  H    0.000456  -0.000943   0.007314  -0.000287   0.000979  -0.065115
    18  H    0.000480  -0.000944   0.007376  -0.000287   0.000977  -0.065150
    19  H   -0.000086  -0.000047  -0.001014  -0.000071  -0.000388  -0.048497
    20  H    0.000176   0.000031   0.008542   0.000028  -0.000675   0.090412
    21  H   -0.000090  -0.000047  -0.001060  -0.000071  -0.000387  -0.048482
    22  H    0.262639  -0.024742   0.011464  -0.000033  -0.000402   0.000542
    23  Cl  -0.019921   0.002061  -0.011717   0.000539   0.000501   0.001143
    24  H   -0.024244  -0.026946   0.146128   0.004955   0.002657   0.017294
    25  S   -1.079034   0.023056  -0.125023  -0.000363   0.001019  -0.006089
    26  H    0.008017   0.001235   0.000832   0.000007   0.000004   0.000013
    27  F   -0.412467   0.001749  -0.009666   0.000002   0.000026  -0.000096
    28  F    0.175675   0.000277   0.001288  -0.000001   0.000002   0.000010
    29  F   -0.412063   0.001754  -0.009643   0.000002   0.000026  -0.000096
    30  F    0.175876   0.000279   0.001296  -0.000001   0.000002   0.000010
    31  F   -0.047828  -0.000292   0.000011  -0.000000  -0.000001   0.000001
               7          8          9         10         11         12
     1  C   -0.043857  -0.023563  -8.672628  -6.688526 -13.722921  -6.059428
     2  N    0.046105  -0.006911   0.411695   0.505124   0.032460   0.114614
     3  C    0.153249  -0.263499  -2.646289  -1.668160  -0.510538   0.371850
     4  O    0.026555   0.002000  -0.214437  -0.006357  -0.020206   0.178693
     5  O   -0.181434   0.039954  -0.252842   0.022558  -0.024465   0.056616
     6  C   -1.018391   0.348148  -0.495739  -0.142320  -0.045591   0.055165
     7  C    6.582445  -0.172485   0.078284  -0.007667   0.004818  -0.014373
     8  C   -0.172485   6.106632  -0.010140  -0.002224  -0.000036   0.001419
     9  C    0.078284  -0.010140  40.126428 -10.624816   7.803251 -11.886856
    10  C   -0.007667  -0.002224 -10.624816  48.673914 -11.708288  -1.315185
    11  C    0.004818  -0.000036   7.803251 -11.708288  31.326666  -5.973876
    12  C   -0.014373   0.001419 -11.886856  -1.315185  -5.973876  27.135296
    13  C   -0.042562   0.000044  -8.157228  -6.715439  -3.316252   3.486556
    14  H   -0.002772  -0.000369  -0.152654  -0.033281  -0.016387   0.029555
    15  H   -0.021202  -0.015225   0.002578  -0.000050   0.000150  -0.000608
    16  H   -0.021222  -0.015208   0.002583  -0.000046   0.000149  -0.000616
    17  H    0.443592  -0.045412   0.000045   0.000023   0.000001   0.000007
    18  H    0.443547  -0.045411   0.000042   0.000024   0.000001   0.000007
    19  H    0.014095   0.380069   0.000020  -0.000000   0.000000  -0.000004
    20  H   -0.134920   0.387901  -0.000011   0.000002  -0.000000   0.000001
    21  H    0.014105   0.380089   0.000020  -0.000000   0.000000  -0.000003
    22  H   -0.000113   0.000003   0.134979  -0.018737  -0.113710   0.003196
    23  Cl  -0.000089   0.000021   0.227205  -0.340252   0.295712  -1.169455
    24  H   -0.000550   0.000107  -0.054445  -0.005006   0.015091  -0.083604
    25  S   -0.000091  -0.000042   0.230187  -2.773090   1.335094   0.448713
    26  H   -0.000000  -0.000000  -0.122408   0.049822   0.171804   0.158675
    27  F   -0.000002  -0.000000  -0.325191   0.210322   0.414933   0.134079
    28  F   -0.000000   0.000000   0.373267   0.170039  -0.372104  -0.237658
    29  F   -0.000002  -0.000000  -0.324907   0.210208   0.414617   0.133881
    30  F   -0.000000   0.000000   0.373504   0.169931  -0.372305  -0.237888
    31  F    0.000000  -0.000000   0.072252   0.002923   0.078297  -0.042391
              13         14         15         16         17         18
     1  C    2.185339   0.025805   0.010465   0.010574   0.000456   0.000480
     2  N   -0.416522   0.254638   0.005193   0.005194  -0.000943  -0.000944
     3  C    0.870483   0.012457   0.043364   0.043368   0.007314   0.007376
     4  O    0.526341   0.001076  -0.001809  -0.001806  -0.000287  -0.000287
     5  O    0.151315   0.026725  -0.044236  -0.044229   0.000979   0.000977
     6  C    0.037826  -0.000588   0.347819   0.347754  -0.065115  -0.065150
     7  C   -0.042562  -0.002772  -0.021202  -0.021222   0.443592   0.443547
     8  C    0.000044  -0.000369  -0.015225  -0.015208  -0.045412  -0.045411
     9  C   -8.157228  -0.152654   0.002578   0.002583   0.000045   0.000042
    10  C   -6.715439  -0.033281  -0.000050  -0.000046   0.000023   0.000024
    11  C   -3.316252  -0.016387   0.000150   0.000149   0.000001   0.000001
    12  C    3.486556   0.029555  -0.000608  -0.000616   0.000007   0.000007
    13  C   17.081614   0.119359  -0.004061  -0.004107   0.000080   0.000080
    14  H    0.119359   0.292666  -0.000026  -0.000026   0.000003   0.000003
    15  H   -0.004061  -0.000026   0.440452  -0.039255   0.005233  -0.007657
    16  H   -0.004107  -0.000026  -0.039255   0.440447  -0.007659   0.005233
    17  H    0.000080   0.000003   0.005233  -0.007659   0.439613  -0.036526
    18  H    0.000080   0.000003  -0.007657   0.005233  -0.036526   0.439614
    19  H   -0.000026  -0.000000  -0.000455   0.003512  -0.007912   0.005964
    20  H    0.000036  -0.000000  -0.000179  -0.000179  -0.003191  -0.003191
    21  H   -0.000026  -0.000000   0.003512  -0.000455   0.005964  -0.007912
    22  H    0.038070   0.007331  -0.000001  -0.000001  -0.000000  -0.000000
    23  Cl   0.196571   0.000387   0.000005   0.000005   0.000000   0.000000
    24  H    0.340090   0.000121  -0.000035  -0.000035  -0.000000  -0.000000
    25  S    0.126452   0.002393   0.000000   0.000000   0.000001   0.000001
    26  H    0.007088  -0.000007  -0.000000  -0.000000   0.000000   0.000000
    27  F   -0.038651  -0.000251  -0.000000  -0.000000   0.000000   0.000000
    28  F    0.000902   0.000016  -0.000000  -0.000000   0.000000  -0.000000
    29  F   -0.038659  -0.000252  -0.000000  -0.000000   0.000000   0.000000
    30  F    0.000875   0.000016  -0.000000  -0.000000  -0.000000   0.000000
    31  F   -0.004030  -0.000004  -0.000000  -0.000000  -0.000000  -0.000000
              19         20         21         22         23         24
     1  C   -0.000086   0.000176  -0.000090   0.262639  -0.019921  -0.024244
     2  N   -0.000047   0.000031  -0.000047  -0.024742   0.002061  -0.026946
     3  C   -0.001014   0.008542  -0.001060   0.011464  -0.011717   0.146128
     4  O   -0.000071   0.000028  -0.000071  -0.000033   0.000539   0.004955
     5  O   -0.000388  -0.000675  -0.000387  -0.000402   0.000501   0.002657
     6  C   -0.048497   0.090412  -0.048482   0.000542   0.001143   0.017294
     7  C    0.014095  -0.134920   0.014105  -0.000113  -0.000089  -0.000550
     8  C    0.380069   0.387901   0.380089   0.000003   0.000021   0.000107
     9  C    0.000020  -0.000011   0.000020   0.134979   0.227205  -0.054445
    10  C   -0.000000   0.000002  -0.000000  -0.018737  -0.340252  -0.005006
    11  C    0.000000  -0.000000   0.000000  -0.113710   0.295712   0.015091
    12  C   -0.000004   0.000001  -0.000003   0.003196  -1.169455  -0.083604
    13  C   -0.000026   0.000036  -0.000026   0.038070   0.196571   0.340090
    14  H   -0.000000  -0.000000  -0.000000   0.007331   0.000387   0.000121
    15  H   -0.000455  -0.000179   0.003512  -0.000001   0.000005  -0.000035
    16  H    0.003512  -0.000179  -0.000455  -0.000001   0.000005  -0.000035
    17  H   -0.007912  -0.003191   0.005964  -0.000000   0.000000  -0.000000
    18  H    0.005964  -0.003191  -0.007912  -0.000000   0.000000  -0.000000
    19  H    0.451696  -0.024560  -0.037218  -0.000000  -0.000000  -0.000000
    20  H   -0.024560   0.425186  -0.024561   0.000000   0.000000   0.000000
    21  H   -0.037218  -0.024561   0.451706  -0.000000  -0.000000  -0.000000
    22  H   -0.000000   0.000000  -0.000000   0.385180   0.000190   0.000029
    23  Cl  -0.000000   0.000000  -0.000000   0.000190  17.431074  -0.013891
    24  H   -0.000000   0.000000  -0.000000   0.000029  -0.013891   0.346735
    25  S   -0.000000   0.000000  -0.000000   0.026965  -0.013114  -0.001653
    26  H    0.000000   0.000000   0.000000  -0.000041  -0.015270  -0.000264
    27  F    0.000000   0.000000   0.000000  -0.001286  -0.000088  -0.000018
    28  F   -0.000000   0.000000   0.000000  -0.000205  -0.000720   0.000007
    29  F    0.000000   0.000000   0.000000  -0.001284  -0.000088  -0.000018
    30  F    0.000000   0.000000  -0.000000  -0.000205  -0.000718   0.000007
    31  F    0.000000   0.000000   0.000000  -0.001121   0.000230   0.000000
              25         26         27         28         29         30
     1  C   -1.079034   0.008017  -0.412467   0.175675  -0.412063   0.175876
     2  N    0.023056   0.001235   0.001749   0.000277   0.001754   0.000279
     3  C   -0.125023   0.000832  -0.009666   0.001288  -0.009643   0.001296
     4  O   -0.000363   0.000007   0.000002  -0.000001   0.000002  -0.000001
     5  O    0.001019   0.000004   0.000026   0.000002   0.000026   0.000002
     6  C   -0.006089   0.000013  -0.000096   0.000010  -0.000096   0.000010
     7  C   -0.000091  -0.000000  -0.000002  -0.000000  -0.000002  -0.000000
     8  C   -0.000042  -0.000000  -0.000000   0.000000  -0.000000   0.000000
     9  C    0.230187  -0.122408  -0.325191   0.373267  -0.324907   0.373504
    10  C   -2.773090   0.049822   0.210322   0.170039   0.210208   0.169931
    11  C    1.335094   0.171804   0.414933  -0.372104   0.414617  -0.372305
    12  C    0.448713   0.158675   0.134079  -0.237658   0.133881  -0.237888
    13  C    0.126452   0.007088  -0.038651   0.000902  -0.038659   0.000875
    14  H    0.002393  -0.000007  -0.000251   0.000016  -0.000252   0.000016
    15  H    0.000000  -0.000000  -0.000000  -0.000000  -0.000000  -0.000000
    16  H    0.000000  -0.000000  -0.000000  -0.000000  -0.000000  -0.000000
    17  H    0.000001   0.000000   0.000000   0.000000   0.000000  -0.000000
    18  H    0.000001   0.000000   0.000000  -0.000000   0.000000   0.000000
    19  H   -0.000000   0.000000   0.000000  -0.000000   0.000000   0.000000
    20  H    0.000000   0.000000   0.000000   0.000000   0.000000   0.000000
    21  H   -0.000000   0.000000   0.000000   0.000000   0.000000  -0.000000
    22  H    0.026965  -0.000041  -0.001286  -0.000205  -0.001284  -0.000205
    23  Cl  -0.013114  -0.015270  -0.000088  -0.000720  -0.000088  -0.000718
    24  H   -0.001653  -0.000264  -0.000018   0.000007  -0.000018   0.000007
    25  S   17.398641   0.043487   0.066369  -0.041004   0.066282  -0.040880
    26  H    0.043487   0.363173   0.000285  -0.001551   0.000285  -0.001563
    27  F    0.066369   0.000285   8.964784  -0.030232  -0.006979  -0.052579
    28  F   -0.041004  -0.001551  -0.030232   8.962354  -0.052544  -0.013841
    29  F    0.066282   0.000285  -0.006979  -0.052544   8.964826  -0.030220
    30  F   -0.040880  -0.001563  -0.052579  -0.013841  -0.030220   8.962394
    31  F   -0.275453  -0.001179   0.014226   0.013686   0.014229   0.013680
              31
     1  C   -0.047828
     2  N   -0.000292
     3  C    0.000011
     4  O   -0.000000
     5  O   -0.000001
     6  C    0.000001
     7  C    0.000000
     8  C   -0.000000
     9  C    0.072252
    10  C    0.002923
    11  C    0.078297
    12  C   -0.042391
    13  C   -0.004030
    14  H   -0.000004
    15  H   -0.000000
    16  H   -0.000000
    17  H   -0.000000
    18  H   -0.000000
    19  H    0.000000
    20  H    0.000000
    21  H    0.000000
    22  H   -0.001121
    23  Cl   0.000230
    24  H    0.000000
    25  S   -0.275453
    26  H   -0.001179
    27  F    0.014226
    28  F    0.013686
    29  F    0.014229
    30  F    0.013680
    31  F    9.141323
 Mulliken charges:
               1
     1  C   -0.944427
     2  N   -0.495588
     3  C    0.049417
     4  O   -0.296551
     5  O   -0.057009
     6  C   -0.362683
     7  C   -0.145058
     8  C   -1.045864
     9  C    0.104250
    10  C   -1.965444
    11  C    0.303636
    12  C    0.713623
    13  C   -0.431556
    14  H    0.434067
    15  H    0.276027
    16  H    0.276027
    17  H    0.263734
    18  H    0.263731
    19  H    0.264923
    20  H    0.279153
    21  H    0.264918
    22  H    0.291293
    23  Cl   0.429678
    24  H    0.337488
    25  S    0.587173
    26  H    0.337556
    27  F    0.070731
    28  F    0.052337
    29  F    0.070646
    30  F    0.052333
    31  F    0.021440
 Sum of Mulliken charges =  -0.00000
 Mulliken charges with hydrogens summed into heavy atoms:
               1
     1  C   -0.944427
     2  N   -0.061521
     3  C    0.049417
     4  O   -0.296551
     5  O   -0.057009
     6  C    0.189371
     7  C    0.382407
     8  C   -0.236870
     9  C    0.395543
    10  C   -1.965444
    11  C    0.641192
    12  C    0.713623
    13  C   -0.094068
    23  Cl   0.429678
    25  S    0.587173
    27  F    0.070731
    28  F    0.052337
    29  F    0.070646
    30  F    0.052333
    31  F    0.021440
 Electronic spatial extent (au):  <R**2>=          10327.2348
 Charge=             -0.0000 electrons
 Dipole moment (field-independent basis, Debye):
    X=             -5.6803    Y=             -1.7860    Z=             -0.0019  Tot=              5.9545
 Quadrupole moment (field-independent basis, Debye-Ang):
   XX=           -122.6344   YY=           -134.5345   ZZ=           -132.5007
   XY=             15.2792   XZ=              0.0012   YZ=              0.0008
 Traceless Quadrupole moment (field-independent basis, Debye-Ang):
   XX=              7.2554   YY=             -4.6446   ZZ=             -2.6108
   XY=             15.2792   XZ=              0.0012   YZ=              0.0008
 Octapole moment (field-independent basis, Debye-Ang**2):
  XXX=           -113.2490  YYY=            -44.1776  ZZZ=              0.0142  XYY=             23.2982
  XXY=            -21.1408  XXZ=              0.0091  XZZ=             15.6725  YZZ=            -10.7416
  YYZ=             -0.0062  XYZ=              0.0148
 Hexadecapole moment (field-independent basis, Debye-Ang**3):
 XXXX=          -9377.7045 YYYY=          -2387.4214 ZZZZ=           -307.4269 XXXY=            180.7937
 XXXZ=              0.0225 YYYX=            -70.4585 YYYZ=              0.0236 ZZZX=              0.0198
 ZZZY=             -0.0030 XXYY=          -2128.1157 XXZZ=          -1737.2931 YYZZ=           -461.8847
 XXYZ=             -0.0393 YYXZ=              0.0385 ZZXY=            -43.2357
 N-N= 2.007003447389D+03 E-N=-8.623953923187D+03  KE= 1.945656056283D+03
 D1PCM: PCM CHGder 1st derivatives, ID1Alg=3 FixD1E=F DoIter=F DoCFld=F I1PDM=0.
 Calling FoFJK, ICntrl=      2127 FMM=F ISym2X=0 I1Cent= 0 IOpClX= 0 NMat=1 NMatS=1 NMatT=0.
 ***** Axes restored to original set *****
 -------------------------------------------------------------------
 Center     Atomic                   Forces (Hartrees/Bohr)
 Number     Number              X              Y              Z
 -------------------------------------------------------------------
      1        6           0.000007417   -0.000006998   -0.000004130
      2        7           0.000015459    0.000014831   -0.000000179
      3        6          -0.000019331   -0.000008695   -0.000002230
      4        8           0.000003287    0.000003750    0.000001337
      5        8          -0.000002521    0.000000416   -0.000000492
      6        6          -0.000003386    0.000008342    0.000000715
      7        6           0.000003045    0.000010622    0.000001293
      8        6           0.000001493    0.000009456    0.000002183
      9        6           0.000004276   -0.000002406    0.000000826
     10        6          -0.000008974   -0.000010833   -0.000002071
     11        6           0.000003161   -0.000005230   -0.000000202
     12        6          -0.000005916   -0.000001036   -0.000000016
     13        6          -0.000006996   -0.000003525   -0.000002388
     14        1           0.000001933   -0.000000242    0.000001841
     15        1           0.000003166    0.000006163    0.000003747
     16        1           0.000000723    0.000006995   -0.000000804
     17        1           0.000003714    0.000006463   -0.000001603
     18        1           0.000003080    0.000005836    0.000003876
     19        1          -0.000000109    0.000011643   -0.000000634
     20        1           0.000003814    0.000008291    0.000000671
     21        1           0.000000844    0.000011103    0.000003802
     22        1           0.000000387   -0.000002679    0.000000050
     23       17          -0.000006655   -0.000001917   -0.000000024
     24        1          -0.000007336    0.000000124    0.000002092
     25       16           0.000007692    0.000002738   -0.000001037
     26        1          -0.000003223   -0.000007657   -0.000001032
     27        9           0.000004156   -0.000007559   -0.000000825
     28        9           0.000002861   -0.000012410   -0.000008682
     29        9           0.000000115   -0.000004554    0.000003724
     30        9           0.000002423   -0.000012361    0.000002403
     31        9          -0.000008598   -0.000018673   -0.000002209
 -------------------------------------------------------------------
 Cartesian Forces:  Max     0.000019331 RMS     0.000006154

 GradGradGradGradGradGradGradGradGradGradGradGradGradGradGradGradGradGrad
 Berny optimization.
 FormGI is forming the generalized inverse of G from B-inverse, IUseBI=4.
 Internal  Forces:  Max     0.000017021 RMS     0.000003260
 Search for a local minimum.
 Step number   1 out of a maximum of  165
 All quantities printed in internal units (Hartrees-Bohrs-Radians)
 Mixed Optimization -- En-DIIS/RFO-DIIS
 Second derivative matrix not updated -- first step.
 ITU=  0
     Eigenvalues ---    0.00243   0.00432   0.00598   0.01170   0.01380
     Eigenvalues ---    0.01754   0.01894   0.02008   0.02038   0.02130
     Eigenvalues ---    0.02183   0.02195   0.02220   0.02247   0.02257
     Eigenvalues ---    0.02269   0.02300   0.02518   0.03835   0.04984
     Eigenvalues ---    0.05410   0.05501   0.05556   0.05725   0.08105
     Eigenvalues ---    0.09073   0.09086   0.11270   0.12006   0.13572
     Eigenvalues ---    0.13601   0.13602   0.13625   0.13640   0.16000
     Eigenvalues ---    0.16000   0.16000   0.16000   0.16000   0.16000
     Eigenvalues ---    0.16000   0.16725   0.21886   0.21953   0.22000
     Eigenvalues ---    0.23487   0.23512   0.23520   0.25000   0.25000
     Eigenvalues ---    0.25000   0.25000   0.25000   0.25000   0.25000
     Eigenvalues ---    0.25000   0.25371   0.29866   0.31079   0.31448
     Eigenvalues ---    0.34413   0.34413   0.34468   0.34468   0.34515
     Eigenvalues ---    0.34515   0.34681   0.35592   0.35841   0.36084
     Eigenvalues ---    0.39657   0.42618   0.43166   0.45862   0.46397
     Eigenvalues ---    0.46415   0.47139   0.47871   0.48110   0.48113
     Eigenvalues ---    0.48614   0.48615   0.48618   0.49479   0.50253
     Eigenvalues ---    0.57767   1.02413
 RFO step:  Lambda= 0.00000000D+00 EMin= 2.42586171D-03
 Linear search not attempted -- first point.
 Iteration  1 RMS(Cart)=  0.00023861 RMS(Int)=  0.00000001
 Iteration  2 RMS(Cart)=  0.00000003 RMS(Int)=  0.00000000
 Variable       Old X    -DE/DX   Delta X   Delta X   Delta X     New X
                                 (Linear)    (Quad)   (Total)
    R1        2.63666   0.00000   0.00000   0.00000   0.00000   2.63666
    R2        2.64478   0.00000   0.00000   0.00001   0.00001   2.64479
    R3        2.64118   0.00000   0.00000   0.00001   0.00001   2.64119
    R4        2.59611  -0.00002   0.00000  -0.00003  -0.00003   2.59608
    R5        1.90987   0.00000   0.00000   0.00000   0.00000   1.90987
    R6        2.27688   0.00000   0.00000   0.00000   0.00000   2.27688
    R7        2.52753   0.00000   0.00000   0.00000   0.00000   2.52753
    R8        2.72022   0.00000   0.00000   0.00001   0.00001   2.72023
    R9        2.85862   0.00000   0.00000   0.00000   0.00000   2.85862
   R10        2.06469   0.00000   0.00000   0.00001   0.00001   2.06470
   R11        2.06469   0.00000   0.00000   0.00001   0.00001   2.06470
   R12        2.88231  -0.00000   0.00000  -0.00000  -0.00000   2.88231
   R13        2.06639   0.00000   0.00000   0.00001   0.00001   2.06640
   R14        2.06639   0.00000   0.00000   0.00001   0.00001   2.06640
   R15        2.06547   0.00000   0.00000   0.00001   0.00001   2.06548
   R16        2.06196   0.00000   0.00000   0.00001   0.00001   2.06197
   R17        2.06547   0.00000   0.00000   0.00001   0.00001   2.06548
   R18        2.60899   0.00000   0.00000   0.00001   0.00001   2.60900
   R19        2.04725  -0.00000   0.00000  -0.00000  -0.00000   2.04724
   R20        2.61904   0.00000   0.00000   0.00001   0.00001   2.61905
   R21        3.41975   0.00000   0.00000   0.00001   0.00001   3.41976
   R22        2.62080  -0.00000   0.00000  -0.00000  -0.00000   2.62079
   R23        2.04331  -0.00000   0.00000  -0.00000  -0.00000   2.04331
   R24        2.62235   0.00000   0.00000   0.00000   0.00000   2.62235
   R25        3.28866   0.00000   0.00000   0.00001   0.00001   3.28866
   R26        2.03951  -0.00000   0.00000  -0.00001  -0.00001   2.03951
   R27        3.05519   0.00000   0.00000   0.00000   0.00000   3.05519
   R28        3.04990  -0.00001   0.00000  -0.00002  -0.00002   3.04989
   R29        3.05522  -0.00001   0.00000  -0.00001  -0.00001   3.05521
   R30        3.04989  -0.00001   0.00000  -0.00001  -0.00001   3.04988
   R31        3.04095   0.00001   0.00000   0.00003   0.00003   3.04098
    A1        2.03991  -0.00000   0.00000  -0.00002  -0.00002   2.03989
    A2        2.15449   0.00001   0.00000   0.00004   0.00004   2.15453
    A3        2.08879  -0.00000   0.00000  -0.00002  -0.00002   2.08877
    A4        2.22483   0.00002   0.00000   0.00008   0.00008   2.22491
    A5        2.04371  -0.00001   0.00000  -0.00004  -0.00004   2.04367
    A6        2.01464  -0.00001   0.00000  -0.00004  -0.00004   2.01461
    A7        2.20150   0.00001   0.00000   0.00004   0.00004   2.20153
    A8        1.90056  -0.00001   0.00000  -0.00002  -0.00002   1.90054
    A9        2.18113  -0.00000   0.00000  -0.00001  -0.00001   2.18111
   A10        2.02219   0.00000   0.00000   0.00000   0.00000   2.02219
   A11        1.87821  -0.00000   0.00000  -0.00001  -0.00001   1.87820
   A12        1.89783   0.00000   0.00000   0.00002   0.00002   1.89786
   A13        1.89784   0.00000   0.00000   0.00002   0.00002   1.89786
   A14        1.95022  -0.00000   0.00000  -0.00003  -0.00003   1.95019
   A15        1.95018  -0.00000   0.00000  -0.00001  -0.00001   1.95017
   A16        1.88840   0.00000   0.00000   0.00001   0.00001   1.88841
   A17        1.93408   0.00000   0.00000   0.00001   0.00001   1.93409
   A18        1.90317  -0.00000   0.00000   0.00000   0.00000   1.90317
   A19        1.90319  -0.00000   0.00000  -0.00000  -0.00000   1.90318
   A20        1.92593  -0.00000   0.00000  -0.00001  -0.00001   1.92592
   A21        1.92592  -0.00000   0.00000  -0.00001  -0.00001   1.92591
   A22        1.87022   0.00000   0.00000   0.00001   0.00001   1.87023
   A23        1.94350  -0.00000   0.00000  -0.00001  -0.00001   1.94349
   A24        1.93616  -0.00000   0.00000  -0.00001  -0.00001   1.93615
   A25        1.94348  -0.00000   0.00000   0.00000   0.00000   1.94348
   A26        1.87853   0.00000   0.00000   0.00000   0.00000   1.87853
   A27        1.88072   0.00000   0.00000   0.00001   0.00001   1.88073
   A28        1.87853   0.00000   0.00000   0.00001   0.00001   1.87853
   A29        2.07352   0.00000   0.00000   0.00002   0.00002   2.07354
   A30        2.09743  -0.00000   0.00000   0.00000   0.00000   2.09743
   A31        2.11224  -0.00000   0.00000  -0.00002  -0.00002   2.11221
   A32        2.15303  -0.00000   0.00000  -0.00002  -0.00002   2.15301
   A33        2.06449   0.00000   0.00000   0.00001   0.00001   2.06450
   A34        2.06567   0.00000   0.00000   0.00001   0.00001   2.06568
   A35        2.03014   0.00000   0.00000   0.00001   0.00001   2.03015
   A36        2.13683  -0.00000   0.00000  -0.00001  -0.00001   2.13683
   A37        2.11621  -0.00000   0.00000  -0.00001  -0.00001   2.11620
   A38        2.14553  -0.00000   0.00000  -0.00001  -0.00001   2.14553
   A39        2.06948   0.00000   0.00000   0.00001   0.00001   2.06948
   A40        2.06818  -0.00000   0.00000   0.00000   0.00000   2.06818
   A41        2.07536   0.00000   0.00000   0.00001   0.00001   2.07537
   A42        2.10728   0.00000   0.00000   0.00001   0.00001   2.10729
   A43        2.10055  -0.00000   0.00000  -0.00002  -0.00002   2.10052
   A44        1.61670  -0.00000   0.00000  -0.00000  -0.00000   1.61670
   A45        1.61595  -0.00000   0.00000  -0.00000  -0.00000   1.61595
   A46        1.61670   0.00000   0.00000   0.00001   0.00001   1.61671
   A47        1.61593   0.00000   0.00000  -0.00000  -0.00000   1.61593
   A48        1.56962   0.00000   0.00000   0.00001   0.00001   1.56963
   A49        1.56552  -0.00000   0.00000   0.00000   0.00000   1.56552
   A50        1.52437   0.00000   0.00000   0.00000   0.00000   1.52437
   A51        1.57014  -0.00000   0.00000  -0.00001  -0.00001   1.57013
   A52        1.52617  -0.00000   0.00000  -0.00000  -0.00000   1.52617
   A53        1.56962   0.00000   0.00000  -0.00000  -0.00000   1.56962
   A54        1.52436  -0.00000   0.00000  -0.00000  -0.00000   1.52435
   A55        1.52618   0.00000   0.00000   0.00000   0.00000   1.52618
   A56        3.14107  -0.00000   0.00000  -0.00000  -0.00000   3.14107
   A57        3.23264  -0.00000   0.00000  -0.00001  -0.00001   3.23263
   A58        3.23265   0.00000   0.00000   0.00001   0.00001   3.23266
   A59        3.14213  -0.00000   0.00000  -0.00000  -0.00000   3.14212
   A60        3.13931   0.00000   0.00000   0.00000   0.00000   3.13932
   A61        3.13932   0.00000   0.00000   0.00001   0.00001   3.13932
    D1        3.14051   0.00000   0.00000   0.00013   0.00013   3.14064
    D2       -0.00030   0.00000   0.00000   0.00002   0.00002  -0.00028
    D3       -0.00107   0.00000   0.00000   0.00004   0.00004  -0.00103
    D4        3.14130  -0.00000   0.00000  -0.00007  -0.00007   3.14124
    D5       -3.14152  -0.00000   0.00000  -0.00008  -0.00008   3.14159
    D6       -0.00001  -0.00000   0.00000  -0.00004  -0.00004  -0.00005
    D7        0.00006  -0.00000   0.00000   0.00000   0.00000   0.00007
    D8        3.14157   0.00000   0.00000   0.00004   0.00004  -3.14157
    D9        3.14153   0.00000   0.00000   0.00008   0.00008  -3.14157
   D10        0.00002   0.00000   0.00000   0.00002   0.00002   0.00004
   D11       -0.00006  -0.00000   0.00000  -0.00001  -0.00001  -0.00006
   D12       -3.14156  -0.00000   0.00000  -0.00007  -0.00007   3.14155
   D13        0.00057   0.00000   0.00000   0.00000   0.00000   0.00057
   D14       -3.14101  -0.00000   0.00000  -0.00011  -0.00011  -3.14112
   D15        3.14139   0.00000   0.00000   0.00011   0.00011   3.14150
   D16       -0.00019  -0.00000   0.00000   0.00000   0.00000  -0.00019
   D17        3.14155   0.00000   0.00000   0.00013   0.00013  -3.14152
   D18       -0.00003   0.00000   0.00000   0.00002   0.00002  -0.00002
   D19       -3.14139  -0.00000   0.00000   0.00002   0.00002  -3.14137
   D20        1.02644   0.00000   0.00000   0.00004   0.00004   1.02649
   D21       -1.02607  -0.00000   0.00000   0.00001   0.00001  -1.02605
   D22       -3.14156  -0.00000   0.00000   0.00001   0.00001  -3.14154
   D23        1.01841   0.00000   0.00000   0.00002   0.00002   1.01843
   D24       -1.01834  -0.00000   0.00000   0.00001   0.00001  -1.01833
   D25       -1.05932   0.00000   0.00000   0.00002   0.00002  -1.05930
   D26        3.10064   0.00000   0.00000   0.00003   0.00003   3.10067
   D27        1.06390   0.00000   0.00000   0.00002   0.00002   1.06392
   D28        1.05940  -0.00000   0.00000   0.00001   0.00001   1.05941
   D29       -1.06382  -0.00000   0.00000   0.00001   0.00001  -1.06381
   D30       -3.10057  -0.00000   0.00000   0.00000   0.00000  -3.10056
   D31       -1.04979  -0.00000   0.00000   0.00003   0.00003  -1.04976
   D32        3.14157   0.00000   0.00000   0.00004   0.00004  -3.14158
   D33        1.04976   0.00000   0.00000   0.00003   0.00003   1.04979
   D34        1.06001   0.00000   0.00000   0.00003   0.00003   1.06004
   D35       -1.03182   0.00000   0.00000   0.00004   0.00004  -1.03178
   D36       -3.12363   0.00000   0.00000   0.00003   0.00003  -3.12359
   D37        3.12358  -0.00000   0.00000   0.00003   0.00003   3.12361
   D38        1.03175   0.00000   0.00000   0.00004   0.00004   1.03178
   D39       -1.06006   0.00000   0.00000   0.00003   0.00003  -1.06003
   D40       -0.00002   0.00000   0.00000  -0.00000  -0.00000  -0.00003
   D41        3.14148   0.00000   0.00000   0.00005   0.00005   3.14153
   D42       -3.14154  -0.00000   0.00000  -0.00004  -0.00004  -3.14157
   D43       -0.00003   0.00000   0.00000   0.00001   0.00001  -0.00002
   D44       -0.00002  -0.00000   0.00000   0.00000   0.00000  -0.00002
   D45        3.14158   0.00000   0.00000   0.00002   0.00002  -3.14159
   D46       -3.14152  -0.00000   0.00000  -0.00005  -0.00005  -3.14157
   D47        0.00007  -0.00000   0.00000  -0.00003  -0.00003   0.00005
   D48        0.78418  -0.00000   0.00000  -0.00007  -0.00007   0.78411
   D49        2.35587   0.00000   0.00000  -0.00006  -0.00006   2.35581
   D50       -0.78345  -0.00000   0.00000  -0.00007  -0.00007  -0.78351
   D51       -2.35514  -0.00000   0.00000  -0.00007  -0.00007  -2.35521
   D52       -2.35750  -0.00000   0.00000  -0.00002  -0.00002  -2.35752
   D53       -0.78581   0.00000   0.00000  -0.00001  -0.00001  -0.78582
   D54        2.35806   0.00000   0.00000  -0.00002  -0.00002   2.35804
   D55        0.78637  -0.00000   0.00000  -0.00002  -0.00002   0.78635
   D56        0.00003   0.00000   0.00000  -0.00000  -0.00000   0.00002
   D57       -3.14157   0.00000   0.00000   0.00003   0.00003  -3.14154
   D58       -3.14157  -0.00000   0.00000  -0.00002  -0.00002   3.14159
   D59        0.00002   0.00000   0.00000   0.00001   0.00001   0.00003
   D60        0.00001   0.00000   0.00000   0.00000   0.00000   0.00001
   D61        3.14152   0.00000   0.00000   0.00007   0.00007   3.14159
   D62       -3.14158  -0.00000   0.00000  -0.00003  -0.00003   3.14158
   D63       -0.00007   0.00000   0.00000   0.00004   0.00004  -0.00004
         Item               Value     Threshold  Converged?
 Maximum Force            0.000017     0.000450     YES
 RMS     Force            0.000003     0.000300     YES
 Maximum Displacement     0.000689     0.001800     YES
 RMS     Displacement     0.000239     0.001200     YES
 Predicted change in Energy=-3.873436D-09
 Optimization completed.
    -- Stationary point found.
                           ----------------------------
                           !   Optimized Parameters   !
                           ! (Angstroms and Degrees)  !
 --------------------------                            --------------------------
 ! Name  Definition              Value          Derivative Info.                !
 --------------------------------------------------------------------------------
[...]
 .00025652,0.00011478,-0.00000093,0.00084828,-0.00001394,-0.00002588,-0
 .00003784,0.00002822,0.00004083,-0.00001941,0.00000755,-0.00003425,-0.
 00004627,-0.00000607,0.00003817,-0.00001756,0.00001587,0.00002730,-0.0
 0000951,0.00000906,-0.00000349,0.00001475,-0.00002349,-0.00002138,-0.0
 0002209,0.00079729,-0.00022998,0.00008749,-0.00001835,-0.00004235,0.00
 004920,-0.00002142,-0.00005088,-0.00013338,-0.00064055,0.00378556,0.58
 375022,-0.00055155,-0.00084417,-0.00014551,0.00077850,0.00001937,-0.00
 004899,-0.00046933,-0.00045006,-0.00004839,-0.00006590,0.00030680,0.00
 004397,0.00014662,-0.00000617,-0.00000345,-0.00005123,-0.00000639,0.00
 000284,0.00000515,0.00000813,0.00000103,0.00000019,-0.00000551,-0.0000
 0086,0.00176158,-0.00082508,0.00004831,0.00270828,0.00049719,-0.000007
 37,-0.30288781,0.11205111,0.02665561,-0.01686585,0.01091631,0.00232819
 ,-0.00180626,-0.00327668,-0.00015873,-0.00001857,0.00003994,0.00000927
 ,0.00000827,0.00000081,0.00000035,0.00000793,0.00000155,-0.00000114,-0
 .00000104,-0.00000017,-0.00000008,-0.00000106,-0.00000001,0.00000004,-
 0.00000039,0.00000124,-0.00000016,0.00000359,-0.00000120,-0.00000030,-
 0.00000045,0.00000108,0.00000045,0.00024682,-0.00018543,-0.00000116,0.
 00106659,0.00123902,0.00002649,-0.00045914,0.00056627,0.00010668,0.000
 64830,-0.00006332,-0.00002649,0.31811250,-0.00040351,-0.00086911,0.000
 06669,-0.00004743,0.00026549,0.00010718,0.00005064,-0.00021633,-0.0000
 1539,-0.00014000,0.00015575,0.00003336,-0.00004934,0.00008081,0.000001
 41,0.00002505,0.00000451,-0.00000580,0.00000018,-0.00000286,-0.0000007
 6,0.00000025,0.00000193,0.00000052,-0.00133196,-0.00501170,-0.00145701
 ,0.02615581,-0.00679885,-0.00212653,0.11243602,-0.10703595,-0.01497809
 ,-0.01751720,0.01057024,0.00179248,-0.00324571,-0.00229952,-0.00096872
 ,-0.00011324,-0.00000974,-0.00000671,-0.00000156,-0.00000015,0.0000017
 8,-0.00000072,-0.00000168,-0.00000040,-0.00000052,0.00000086,0.0000006
 1,-0.00000050,0.00000035,-0.00000005,0.00000008,-0.00000049,0.00000031
 ,-0.00000115,-0.00000007,0.,0.00000035,-0.00000015,-0.00000018,0.00130
 413,-0.00021162,-0.00020243,-0.00051369,0.00121080,0.00054784,-0.00065
 426,0.00068532,0.00009181,0.00336169,-0.00436098,-0.00077695,-0.116796
 38,0.11119095,-0.00008429,0.00008391,-0.00121274,-0.00005798,0.0001040
 8,-0.00047122,0.00002099,0.00000444,-0.00012053,-0.00001885,0.00001533
 ,-0.00003805,-0.00000924,-0.00000029,0.00008545,0.00000719,-0.00000451
 ,0.00003770,-0.00000007,-0.00000108,0.00000240,-0.00000005,0.00000075,
 -0.00000176,-0.00002066,-0.00147772,0.00558641,0.00358114,-0.00108275,
 0.00050987,0.02671059,-0.01496433,-0.03581942,-0.00164853,0.00063727,0
 .00300126,-0.00015522,-0.00096707,0.00543911,-0.00001219,-0.00001287,0
 .00006978,0.00000256,-0.00000584,-0.00000631,-0.00000399,0.00000702,-0
 .00000445,0.00000010,-0.00000185,-0.00000145,-0.00000026,0.00000237,-0
 .00000093,0.00000105,0.00000097,-0.00000074,-0.00000029,0.,0.00000035,
 -0.00000102,-0.00000091,-0.00000102,0.00020716,-0.00014200,0.00082848,
 -0.00021880,0.00047681,-0.00248579,-0.00006394,0.00004233,0.00022720,0
 .00045317,-0.00063952,0.00011621,-0.02832182,0.01705604,0.02675659,0.0
 0222101,-0.00024477,0.00017402,-0.00086760,-0.00001207,0.00012833,0.00
 110000,0.00034448,0.00001446,-0.00032592,-0.00030294,-0.00000645,-0.00
 054368,0.00014551,0.00008150,0.00025388,0.00006025,-0.00001174,-0.0000
 1812,-0.00002170,-0.00001272,0.00000244,0.00002242,0.00000400,-0.00320
 636,-0.00103024,0.00290091,-0.00003316,-0.01394439,0.00426318,-0.00054
 791,0.00097980,0.00134265,-0.00113249,0.00008658,-0.00043464,0.0002621
 2,-0.00102480,-0.00013174,0.00014646,0.00001096,-0.00012321,-0.0000218
 7,-0.00000878,-0.00000036,-0.00002475,-0.00001569,0.00000329,0.0000037
 2,0.00000599,-0.00000304,0.00000738,-0.00000176,0.00000895,-0.00000229
 ,-0.00000899,0.00000427,-0.00001553,0.00000607,0.00000018,0.00000078,-
 0.00000423,-0.00000374,-0.00012758,-0.00218994,-0.00052725,0.00006603,
 -0.00060273,-0.00013032,0.00009857,-0.00007588,-0.00011572,-0.07409642
 ,0.02538460,-0.02173174,-0.00010822,-0.00040381,0.00005642,0.12276017,
 0.00200950,0.00041032,-0.00085634,-0.00256310,0.00005197,-0.00008433,0
 .00214015,0.00005716,0.00001654,-0.00068479,-0.00006673,-0.00002949,-0
 .00126806,0.00062864,0.00010017,0.00044323,0.00008367,0.00002235,-0.00
 003608,-0.00008524,0.00000627,-0.00000901,0.00005827,0.00000565,-0.002
 36671,-0.00457388,0.00058360,0.01553902,-0.01989108,0.01693410,-0.0072
 4443,0.00047453,0.00271712,-0.00022823,0.00026817,-0.00154246,-0.00024
 295,-0.00101194,0.00022692,-0.00006271,-0.00033835,0.00011350,-0.00004
 668,-0.00002701,0.00000819,-0.00004294,-0.00001241,-0.00001835,0.00000
 053,0.00000173,0.00001284,-0.00000381,0.00001765,-0.00002099,0.0000105
 7,-0.00000262,-0.00000897,-0.00003596,0.00000746,0.00000508,0.00000488
 ,-0.00001197,0.00000157,-0.00142210,-0.00023962,0.00092021,-0.00037994
 ,-0.00140650,-0.00034301,0.00016492,0.00007373,0.00008933,0.02478760,-
 0.13280346,0.05709531,0.00021960,0.00050859,0.00050848,-0.05168466,0.1
 6906859,-0.00067857,0.00020883,0.00015473,0.00102683,0.00002275,0.0001
 9411,-0.00086783,-0.00010620,-0.00005865,0.00026447,0.00005164,0.00006
 739,0.00050839,-0.00023309,-0.00000433,-0.00017762,-0.00003046,-0.0000
 5244,0.00001260,0.00003679,-0.00001876,0.00000277,-0.00002424,0.000000
 81,0.00197230,0.00136605,0.00034442,-0.01237702,0.00675912,-0.00157379
 ,0.00510218,0.00095680,-0.00074694,-0.00090184,0.00030390,0.00048070,0
 .00042430,0.00005176,-0.00013786,-0.00000761,0.00012656,-0.00020761,0.
 00002288,0.00001723,0.00000367,0.00001490,-0.00000088,0.00000992,-0.00
 000201,0.00000422,0.00000367,0.00000224,-0.00001399,0.00001087,-0.0000
 0665,-0.00000363,0.00000532,0.00001341,-0.00000198,-0.00000457,0.00000
 240,0.00000860,0.00000298,0.00061007,0.00074470,-0.00089779,0.00026775
 ,0.00077392,0.00017816,-0.00005308,-0.00000287,-0.00006213,-0.02211715
 ,0.05728378,-0.10278782,-0.00009865,-0.00014287,-0.00028739,0.05058451
 ,-0.08114285,0.14951324,0.00000690,-0.00073503,-0.00155778,-0.00246384
 ,-0.00045040,-0.00023111,0.00237355,0.00061462,-0.00002178,-0.00071724
 ,-0.00041988,-0.00005251,-0.00140405,0.00047163,0.00013478,0.00056312,
 0.00013757,0.00001150,-0.00004512,-0.00007377,-0.00000713,0.00000093,0
 .00005853,0.00000830,-0.00028614,-0.00660320,0.00135577,-0.01443699,0.
 01458959,0.02343519,-0.00469330,-0.00217276,0.00169246,0.00129834,0.00
 189475,-0.00025625,-0.00148392,0.00044118,0.00034160,0.00012990,-0.000
 16572,0.00001918,-0.00005350,-0.00002831,-0.00000119,-0.00005349,-0.00
 002669,-0.00000550,0.00000669,0.00000595,-0.00000321,0.00000699,0.0000
 0866,0.00000217,0.00000312,-0.00001201,0.00000186,-0.00003752,0.000010
 46,0.00000354,0.00000134,-0.00001302,-0.00000709,0.00045038,0.00000055
 ,0.00045766,-0.00002534,-0.00127147,-0.00020745,0.00018418,0.00000711,
 0.00004834,-0.09817555,0.02054434,0.05355368,-0.00097217,-0.00099455,0
 .00047142,-0.01061624,0.01989182,0.01005942,0.11597941,-0.00005133,-0.
 00107163,-0.00023969,-0.00069314,0.00034076,0.00005169,0.00047729,-0.0
 0003852,-0.00011555,-0.00011021,0.00002290,0.00002785,-0.00024992,0.00
 017871,0.00004745,0.00008077,0.00000545,0.00001211,-0.00000487,-0.0000
 2024,-0.00000192,-0.00000351,0.00001210,0.,0.00068076,-0.00005021,0.00
 052748,-0.00912844,0.00119686,0.00145876,-0.00055135,-0.00302135,0.001
 80944,0.00057648,0.00138993,0.00079551,-0.00079889,0.00065151,0.000150
 50,-0.00008965,-0.00010125,0.00000606,-0.00000758,-0.00000368,0.000005
 22,-0.00000887,-0.00000211,-0.00000372,-0.00000110,0.00000171,0.000008
 70,-0.00000192,0.00000266,-0.00000755,0.00000253,-0.00000061,-0.000003
 40,-0.00000812,0.00000176,0.00000047,0.00000342,-0.00000124,0.00000350
 ,-0.00051080,0.00004859,0.00009828,0.00003133,0.00007822,0.00006867,-0
 .00004963,0.00010845,-0.00010590,0.02143407,-0.07830211,-0.03681436,-0
 .00189814,0.00056479,-0.00022608,0.02798790,-0.02565110,-0.01470578,-0
 .03044053,0.12543679,0.00004149,-0.00106810,0.00028970,0.00149493,0.00
 058251,0.00029561,-0.00126834,-0.00050388,-0.00005888,0.00040254,0.000
 29731,0.00008673,0.00078573,-0.00020799,-0.00003298,-0.00030455,-0.000
 08604,-0.00004538,0.00002960,0.00004281,-0.00000754,-0.00000051,-0.000
 03388,-0.00000464,0.00254843,0.00582050,-0.00018928,0.00293214,-0.0159
 2544,-0.00868882,0.00270212,0.00116240,0.00041076,-0.00018949,-0.00053
 258,0.00028448,0.00031270,0.00034950,-0.00003433,-0.00012246,0.0000835
 6,-0.00011377,0.00003320,0.00002073,0.00000758,0.00002697,0.00000983,0
 .00000557,-0.00000477,0.00000142,0.00000978,-0.00000332,-0.00001163,0.
 00000006,-0.00000362,0.00000231,0.00000039,0.00001937,-0.00000444,-0.0
 0000403,0.00000372,0.00001026,0.00000783,-0.00042754,0.00000151,-0.000
 35401,0.00006700,0.00085996,0.00016741,-0.00010521,0.00005174,-0.00009
 187,0.05337775,-0.03649941,-0.13856490,0.00048123,0.00076386,-0.000914
 63,-0.00188920,0.00340184,0.00714546,-0.06474790,0.07309169,0.20520463
 ,0.00226855,-0.00018092,-0.00040063,-0.00098098,0.00000652,-0.00003176
 ,0.00118807,0.00035807,-0.00001847,-0.00035489,-0.00030275,-0.00004352
 ,-0.00059946,0.00017994,0.00001561,0.00027263,0.00006210,0.00000229,-0
 .00001880,-0.00002778,0.00000527,0.00000205,0.00002510,0.00000282,-0.0
 0361675,-0.00039070,-0.00280858,0.00059243,-0.01283291,-0.00846881,-0.
 00113107,0.00124937,-0.00103765,-0.00101569,-0.00008259,0.00056963,0.0
 0022130,-0.00102651,-0.00018791,0.00015409,-0.00002986,0.00008835,-0.0
 0002662,-0.00001478,-0.00000435,-0.00002414,-0.00001047,-0.00000033,0.
 00000645,0.00000177,-0.00000823,0.00000420,0.00000463,0.00000427,0.000
 00091,-0.00000591,0.00000237,-0.00001687,0.00000602,0.00000253,-0.0000
 0204,-0.00000737,-0.00000583,-0.00017952,-0.00228511,-0.00017472,0.000
 04447,-0.00069219,-0.00004725,0.00011189,-0.00010076,0.00007608,-0.070
 38535,0.01425287,0.02333078,-0.00010822,-0.00034869,-0.00017900,0.0072
 3636,0.00126962,-0.00591266,0.00529730,0.00221443,0.00176916,0.1139781
 6,0.00183381,0.00023897,0.00072753,-0.00218415,0.00002209,0.00021709,0
 .00182726,0.00004942,-0.00014100,-0.00058765,-0.00006075,0.00004290,-0
 .00108451,0.00053576,0.00014452,0.00037940,0.00007622,-0.00001768,-0.0
 0003224,-0.00006956,-0.00001795,-0.00000776,0.00004925,0.00000877,-0.0
 0186757,-0.00371260,-0.00162367,0.01007274,-0.01229335,-0.02092817,-0.
 00574715,0.00130292,-0.00168078,-0.00036489,-0.00004889,0.00143100,-0.
 00013897,-0.00088547,-0.00042833,-0.00006795,-0.00026639,-0.00012335,-
 0.00003631,-0.00001634,0.00001397,-0.00003970,-0.00001859,-0.00001118,
 -0.00000142,0.00000792,0.00002024,-0.00000106,0.00000642,-0.00001198,0
 .00000505,-0.00000817,-0.00000514,-0.00003120,0.00000709,0.00000086,0.
 00000883,-0.00000532,0.00000518,-0.00124788,0.00011180,-0.00052159,-0.
 00028090,-0.00118463,-0.00002023,0.00014005,0.00008676,-0.00005732,0.0
 1358602,-0.10006703,-0.05737555,0.00015451,0.00054300,-0.00028582,0.00
 095507,0.00663461,0.01694970,0.00520545,0.00328806,-0.00421306,-0.0299
 7212,0.12412039,0.00105154,-0.00016396,0.00027846,-0.00159393,-0.00008
 446,0.00033837,0.00132228,0.00011791,-0.00014009,-0.00040835,-0.000066
 56,0.00009088,-0.00078634,0.00036732,0.00014506,0.00026628,0.00006429,
 -0.00006428,-0.00002279,-0.00004928,-0.00003378,-0.00000491,0.00003604
 ,0.00001026,-0.00227264,-0.00251670,-0.00010945,0.01548862,-0.00863527
 ,-0.00979928,-0.00692535,-0.00053728,-0.00099052,0.00095469,-0.0004388
 2,0.00067948,-0.00051182,-0.00018480,-0.00022377,-0.00004307,-0.000141
 19,-0.00028686,-0.00002280,-0.00000555,0.00001579,-0.00003301,-0.00002
 306,-0.00000248,-0.00000217,0.00001304,0.00002152,0.00000171,-0.000003
 80,-0.00000148,-0.00000099,-0.00001136,-0.00000094,-0.00002182,0.00000
 465,-0.00000283,0.00001010,0.00000130,0.00000777,-0.00105771,-0.000275
 55,-0.00119221,-0.00035652,-0.00111109,-0.00002266,0.00008080,0.000054
 37,-0.00008838,0.02353457,-0.05761628,-0.13924300,0.00013347,0.0004104
 4,-0.00032097,0.00202864,-0.00270698,-0.04361461,0.00444698,-0.0025435
 9,-0.00309937,-0.05727842,0.07605236,0.20325832,0.00012166,-0.00106900
 ,0.00133232,-0.00255835,-0.00057107,0.00031670,0.00247223,0.00065010,-
 0.00000587,-0.00074592,-0.00044942,-0.00000338,-0.00146544,0.00049101,
 0.00012055,0.00058483,0.00014934,-0.00002284,-0.00004757,-0.00007654,-
 0.00001101,0.00000092,0.00006121,0.00000838,-0.00066206,-0.00640003,-0
 .00320684,-0.01641034,0.02162771,-0.01757748,-0.00503936,-0.00179624,-
 0.00184283,0.00135468,0.00181235,0.00068763,-0.00153123,0.00048127,-0.
 00009553,0.00013356,-0.00015713,-0.00008489,-0.00005520,-0.00002860,0.
 00000275,-0.00005605,-0.00002991,-0.00000196,0.00000710,0.00000985,0.0
 0000003,0.00000743,0.00000467,0.00000473,0.00000155,-0.00001537,0.0000
 0348,-0.00003909,0.00001100,0.00000243,0.00000312,-0.00001117,-0.00000
 530,0.00043684,0.00013946,-0.00050353,-0.00002759,-0.00134396,-0.00015
 300,0.00018653,0.00002109,-0.00006633,-0.10632710,0.03801629,-0.047080
 63,-0.00108205,-0.00087126,-0.00072466,0.00484135,0.00667356,-0.003345
 54,0.00796295,-0.00000932,0.00620889,-0.01061427,0.02097072,-0.0028442
 9,0.12595360,-0.00004033,-0.00132719,-0.00019977,-0.00028816,0.0004954
 6,0.00003177,0.00014570,-0.00019540,0.00006548,-0.00000658,0.00010879,
 -0.00002062,-0.00004227,0.00012552,-0.00000039,0.00000036,-0.00001633,
 -0.00000400,0.00000314,-0.00000928,0.00000122,-0.00000337,0.00000252,0
 .00000223,0.00132441,0.00155846,-0.00015604,-0.00809000,-0.00321224,0.
 00049641,-0.00001972,-0.00199252,-0.00252018,0.00046422,0.00140058,-0.
 00051368,-0.00070011,0.00073065,0.00012083,-0.00011679,-0.00008155,0.0
 0001243,-0.00000155,-0.00000024,0.00000227,0.00000066,0.00000369,-0.00
 000639,-0.00000208,-0.00000251,0.00000701,-0.00000316,0.00000499,-0.00
 000979,0.00000388,0.00000295,-0.00000516,-0.00000285,0.00000037,0.0000
 0098,0.00000173,-0.00000092,0.00000287,-0.00060110,0.00003918,0.000058
 55,0.00004263,0.00031565,-0.00002761,-0.00006270,0.00007846,0.00015957
 ,0.03883891,-0.10134321,0.04374439,-0.00165219,0.00056609,0.00078219,0
 .00294402,0.00113082,0.00346483,0.00171103,0.00583474,-0.00009709,0.02
 689598,-0.02563482,0.00306500,-0.05396386,0.16882995,-0.00002813,0.000
 69644,0.00043155,-0.00140786,-0.00049790,0.00023802,0.00115766,0.00042
 827,-0.00000402,-0.00035518,-0.00025989,0.00003067,-0.00070866,0.00020
 423,0.00008270,0.00026569,0.00008593,-0.00004590,-0.00002712,-0.000037
 51,-0.00001601,-0.00000050,0.00003101,0.00000493,-0.00229944,-0.004840
 90,-0.00142139,-0.00454006,0.01572117,-0.00230832,-0.00237906,-0.00173
 571,-0.00026578,0.00024784,0.00070542,0.00021756,-0.00040607,-0.000175
 06,-0.00006584,0.00007245,-0.00006032,-0.00013683,-0.00002358,-0.00000
 947,0.00000549,-0.00002932,-0.00001986,0.00000282,0.00000240,0.0000101
 7,0.00000508,0.00000428,-0.00000309,0.00000577,-0.00000235,-0.00001047
 ,0.00000346,-0.00001801,0.00000457,-0.00000104,0.00000400,-0.00000173,
 0.00000069,0.00020731,0.00010456,-0.00033225,-0.00005142,-0.00071033,-
 0.00006813,0.00006784,-0.00000370,-0.00006445,-0.04666206,0.04350268,-
 0.10737605,-0.00096792,-0.00027848,-0.00081137,-0.00160729,0.00486253,
 -0.00048588,-0.01022819,0.01414910,-0.04366202,0.01106281,-0.01447627,
 0.00712698,0.05763786,-0.07852459,0.15184308,0.00116126,-0.00039526,-0
 .00008047,-0.00132816,-0.00010837,0.00004035,0.00143514,0.00035609,-0.
 00001435,-0.00042449,-0.00030836,-0.00002378,-0.00078010,0.00025890,0.
 00006944,0.00034790,0.00007263,-0.00000485,-0.00002250,-0.00003652,-0.
 00000452,0.00000299,0.00003195,0.00000435,0.00010125,-0.00004721,-0.00
 001940,0.00129365,-0.00123670,-0.00012269,-0.00089722,-0.00002497,0.00
 002459,0.00003867,0.00061118,0.00009573,-0.00028938,-0.00018832,-0.000
 03056,0.00012344,-0.00003595,-0.00001343,-0.00003148,-0.00001594,-0.00
 000055,-0.00003170,-0.00001620,-0.00000102,0.00000569,0.00000378,-0.00
 000362,0.00000610,0.00000234,0.00000428,0.00000090,-0.00000914,0.00000
 267,-0.00002299,0.00000854,0.00000207,0.00000076,-0.00000782,-0.000004
 94,0.00047456,-0.00017973,-0.00005173,-0.00000011,-0.00069079,-0.00009
 649,0.00007559,-0.00001099,-0.00000541,-0.13840688,-0.05839807,-0.0048
 8181,-0.00004509,0.00010129,0.00000907,-0.04731211,-0.00483287,-0.0243
 4516,0.00119930,-0.00887165,-0.00417005,-0.04230418,-0.01144548,0.0248
 6726,0.00259328,-0.00677984,0.00101207,0.22303592,0.00045885,-0.000460
 70,-0.00015722,-0.00112317,0.00007081,0.00005225,0.00098528,0.00010872
 ,-0.00000971,-0.00028571,-0.00009483,-0.00000711,-0.00057083,0.0002599
 3,0.00005615,0.00021587,0.00003819,-0.00000169,-0.00001723,-0.00003380
 ,-0.00000277,-0.00000357,0.00002585,0.00000372,-0.00038785,-0.00102370
 ,-0.00010075,-0.00136587,0.00229863,0.00002387,0.00039956,-0.00000418,
 0.00001166,0.00033918,0.00086745,0.00006683,-0.00042382,0.00011822,0.0
 0008797,0.00000683,-0.00010411,-0.00000236,-0.00002078,-0.00001068,0.0
 0000316,-0.00002038,-0.00000847,-0.00000510,0.00000124,0.00000201,0.00
 000576,0.00000055,0.00000491,-0.00000597,0.00000328,-0.00000358,-0.000
 00260,-0.00001724,0.00000530,0.00000173,0.00000277,-0.00000489,0.00000
 062,-0.00007411,0.00002624,0.00003185,-0.00005451,-0.00030371,-0.00004
 064,0.00004301,0.00003237,0.00000537,-0.05818889,-0.10106994,-0.003750
 46,-0.00001203,0.00046973,0.00009065,0.01264373,0.00664601,0.00727765,
 -0.02218588,-0.03089995,-0.02737023,0.00178500,0.00719126,-0.00307116,
 -0.02432675,-0.04741266,0.02113921,0.09219348,0.16326955,0.00003855,-0
 .00012139,0.00050449,-0.00010212,0.00001033,0.00003391,0.00007505,0.00
 001651,-0.00011342,-0.00002109,-0.00000650,0.00004073,-0.00004714,0.00
 002214,0.00003182,0.00001551,0.00000436,-0.00001396,-0.00000187,-0.000
 00200,-0.00000913,-0.00000061,0.00000229,0.00000061,-0.00006612,-0.000
 11484,-0.00020274,-0.00014096,0.00001863,0.00253335,0.00008426,0.00002
 836,-0.00019970,0.00005728,0.00005631,0.00029256,-0.00006317,0.0000779
 2,-0.00037096,-0.00000769,-0.00000066,-0.00008877,0.00000123,0.0000025
 1,0.00000442,-0.00000414,-0.00000487,0.00000243,-0.00000064,0.00000407
 ,0.00000552,0.00000074,-0.00000444,0.00000225,-0.00000185,-0.00000354,
 0.00000115,-0.00000156,0.00000067,-0.00000180,0.00000279,0.00000249,0.
 00000260,-0.00003707,0.00003629,-0.00017405,-0.00000747,-0.00001489,0.
 00000141,0.00000218,0.00000761,-0.00001770,-0.00485366,-0.00374213,-0.
 05770399,-0.00000690,0.00008604,-0.00016204,-0.03486610,-0.00087782,-0
 .00717488,-0.01871676,-0.03754498,-0.01804956,0.03967616,0.00632491,-0
 .01273595,0.01125019,0.03006731,-0.00293356,0.00774297,0.00566931,0.09
 649497\\-0.00000740,0.00000698,0.00000413,-0.00001547,-0.00001483,0.00
 000018,0.00001934,0.00000869,0.00000223,-0.00000329,-0.00000375,-0.000
 00134,0.00000251,-0.00000041,0.00000049,0.00000339,-0.00000835,-0.0000
 0072,-0.00000305,-0.00001062,-0.00000129,-0.00000150,-0.00000946,-0.00
 000218,-0.00000426,0.00000240,-0.00000083,0.00000897,0.00001085,0.0000
 0207,-0.00000317,0.00000521,0.00000020,0.00000594,0.00000104,0.0000000
 2,0.00000697,0.00000354,0.00000239,-0.00000193,0.00000024,-0.00000184,
 -0.00000317,-0.00000616,-0.00000375,-0.00000072,-0.00000699,0.00000080
 ,-0.00000371,-0.00000646,0.00000160,-0.00000308,-0.00000584,-0.0000038
 8,0.00000011,-0.00001164,0.00000063,-0.00000381,-0.00000829,-0.0000006
 7,-0.00000084,-0.00001110,-0.00000380,-0.00000039,0.00000268,-0.000000
 05,0.00000665,0.00000192,0.00000002,0.00000734,-0.00000012,-0.00000209
 ,-0.00000768,-0.00000274,0.00000104,0.00000322,0.00000766,0.00000103,-
 0.00000416,0.00000756,0.00000083,-0.00000286,0.00001241,0.00000868,-0.
 00000011,0.00000455,-0.00000373,-0.00000243,0.00001236,-0.00000241,0.0
 0000859,0.00001867,0.00000221\\\@


 TOWERING GENIUS DISDAINS A BEATEN PATH.  IT SEEKS 
 REGIONS HITHERTO UNEXPLORED.

                                -- ABRAHAM LINCOLN
 Job cpu time:       0 days  5 hours 35 minutes 18.7 seconds.
 File lengths (MBytes):  RWF=    918 Int=      0 D2E=      0 Chk=     27 Scr=      1
 Normal termination of Gaussian 09 at Thu Nov 14 18:56:45 2019.
pbs_rusage has been removed.
Please contact help@nci.org.au if you require this functionality.
