Process 0 of 1 is on r4249 - thread support 0
initial socket setup ...start
initial socket setup ...done 
now start server 0 ... 
r4249 10.9.72
Q-Chem Developer Version! Running on 10.9.72.*
                  Welcome to Q-Chem
     A Quantum Leap Into The Future Of Chemistry


 Q-Chem 5.0, Q-Chem, Inc., Pleasanton, CA (2017)

 Yihan Shao,  Zhengting Gan,  E. Epifanovsky,  A. T. B. Gilbert,  M. Wormit,  
 J. Kussmann,  A. W. Lange,  A. Behn,  Jia Deng,  Xintian Feng,  D. Ghosh,  
 M. Goldey,  P. R. Horn,  L. D. Jacobson,  I. Kaliman,  T. Kus,  A. Landau,  
 Jie Liu,  E. I. Proynov,  R. M. Richard,  R. P. Steele,  E. J. Sundstrom,  
 H. L. Woodcock III,  P. M. Zimmerman,  D. Zuev,  B. Albrecht,  E. Alguire,  
 S. A. Baeppler,  Z. Benda,  Y. A. Bernard,  E. J. Berquist,  K. B. Bravaya,  
 D. Casanova,  Chun-Min Chang,  Yunqing Chen,  A. Chien,  K. D. Closser,  
 M. P. Coons,  S. Dasgupta,  M. Diedenhofen,  Hainam Do,  R. G. Edgar,  
 Po-Tung Fang,  S. Fatehi,  Qingguo Feng,  Qinghui Ge,  A. Ghysels,  
 J. Gomes,  J. Gonthier,  A. Gunina,  M. W. D. Hanson-Heine,  
 P. H. P. Harbach,  A. W. Hauser,  J. E. Herr,  E. G. Hohenstein,  
 Z. C. Holden,  Kerwin Hui,  T.-C. Jagau,  Hyunjun Ji,  B. Kaduk,  
 K. Khistyaev,  Jaehoon Kim,  P. Klunzinger,  K. Koh,  D. Kosenkov,  
 T. Kowalczyk,  C. M. Krauter,  A. Kunitsa,  Ka Un Lao,  A. Laurent,  
 K. V. Lawler,  Joonho Lee,  D. Lefrancois,  S. Lehtola,  D. S. Levine,  
 Yi-Pei Li,  You-Sheng Lin,  Fenglai Liu,  E. Livshits,  A. Luenser,  
 P. Manohar,  E. Mansoor,  S. F. Manzer,  Shan-Ping Mao,  Yuezhi Mao,  
 N. Mardirossian,  A. V. Marenich,  L. A. Martinez-Martinez,  S. A. Maurer,  
 N. J. Mayhall,  S. C. McKenzie,  J.-M. Mewes,  A. F. Morrison,  K. Nanda,  
 T. S. Nguyen-Beck,  R. Olivares-Amaya,  J. A. Parkhill,  T. M. Perrine,  
 F. Plasser,  S. Prager,  A. Prociuk,  D. R. Rehn,  F. Rob,  M. Schneider,  
 N. Sergueev,  S. M. Sharada,  S. Sharma,  D. W. Small,  T. Stauch,  
 T. Stein,  Yu-Chuan Su,  A. J. W. Thom,  T. Tsuchimochi,  L. Vogt,  
 O. Vydrov,  M. A. Watson,  J. Wenzel,  M. de Wergifosse,  T. A. Wesolowski,  
 A. White,  J. Witte,  A. Yamada,  Jun Yang,  K. Yao,  S. Yeganeh,  
 S. R. Yost,  Zhi-Qiang You,  A. Zech,  Igor Ying Zhang,  Xing Zhang,  
 Yan Zhao,  Ying Zhu,  B. R. Brooks,  G. K. L. Chan,  C. J. Cramer,  
 M. S. Gordon,  W. J. Hehre,  A. Klamt,  M. W. Schmidt,  C. D. Sherrill,  
 D. G. Truhlar,  A. Aspuru-Guzik,  R. Baer,  A. T. Bell,  N. A. Besley,  
 Jeng-Da Chai,  A. Dreuw,  B. D. Dunietz,  T. R. Furlani,  Chao-Ping Hsu,  
 Yousung Jung,  Jing Kong,  D. S. Lambrecht,  WanZhen Liang,  C. Ochsenfeld,  
 V. A. Rassolov,  L. V. Slipchenko,  J. E. Subotnik,  T. Van Voorhis,  
 J. M. Herbert,  A. I. Krylov,  P. M. W. Gill,  M. Head-Gordon

 Contributors to earlier versions of Q-Chem not listed above: 
 R. D. Adamson,  B. Austin,  J. Baker,  G. J. O. Beran,  K. Brandhorst,  
 S. T. Brown,  E. F. C. Byrd,  A. K. Chakraborty,  C.-L. Cheng,  
 Siu Hung Chien,  D. M. Chipman,  D. L. Crittenden,  H. Dachsel,  
 R. A. DiStasio Jr.,  R. J. Doerksen,  A. D. Dutoi,  L. Fusti-Molnar,  
 W. A. Goddard III,  A. Golubeva-Zadorozhnaya,  S. R. Gwaltney,  G. Hawkins,  
 A. Heyden,  S. Hirata,  G. Kedziora,  F. J. Keil,  C. Kelley,  Jihan Kim,  
 R. A. King,  R. Z. Khaliullin,  P. P. Korambath,  W. Kurlancheek,  
 A. M. Lee,  M. S. Lee,  S. V. Levchenko,  Ching Yeh Lin,  D. Liotard,  
 R. C. Lochan,  I. Lotan,  P. E. Maslen,  N. Nair,  D. P. O'Neill,  
 D. Neuhauser,  E. Neuscamman,  C. M. Oana,  R. Olson,  B. Peters,  
 R. Peverati,  P. A. Pieniazek,  Y. M. Rhee,  J. Ritchie,  M. A. Rohrdanz,  
 E. Rosta,  N. J. Russ,  H. F. Schaefer III,  N. E. Schultz,  N. Shenvi,  
 A. C. Simmonett,  A. Sodt,  D. Stuck,  K. S. Thanthiriwatte,  V. Vanovschi,  
 Tao Wang,  A. Warshel,  C. F. Williams,  Q. Wu,  X. Xu,  W. Zhang

 Please cite Q-Chem as follows:
 Y. Shao et al., Mol. Phys. 113, 184-215 (2015)
 DOI: 10.1080/00268976.2014.952696

 Q-Chem 5.0.0 for Intel X86 EM64T Linux

 Parts of Q-Chem use Armadillo 5.200.1 (Boston Tea Smuggler).
 http://arma.sourceforge.net/

 Q-Chem begins on Mon Dec  9 11:57:29 2019  

Host: r4249
0

     Scratch files written to /jobfs/local/4046968.r-man2/CP22CA_c2.CCSD-T_6-31pGd.mo//
 Parallel job on  1  processors
Core orbitals will be frozen

Checking the input file for inconsistencies... 	...done.

--------------------------------------------------------------
User input:
--------------------------------------------------------------
$molecule
  0 1
    C     -5.8940239804    1.4635161989    0.3189639789
    N     -4.6594855421    0.8254275662    0.1730376319
    C     -3.4122119662    1.4023360648    0.2091219875
    O     -3.1720913642    2.5694633119    0.3743487039
    O     -2.4887978145    0.4470406578    0.0286777470
    C     -1.1237193586    0.8970771249    0.0408317856
    C     -0.2399912050   -0.3118800069   -0.1761589355
    C      1.2340452897    0.0840806412   -0.1762463744
    C     -7.0360316265    0.6595944673    0.2449778788
    C     -8.2776379407    1.2478343724    0.3837260774
    C     -8.4509943785    2.6060487216    0.5943447109
    C     -7.2989183539    3.3760994629    0.6628236785
    C     -6.0262012185    2.8384081578    0.5303896033
    H     -4.6672105204   -0.1728828439    0.0238277888
    H     -0.9221230549    1.3812924602    0.9993340851
    H     -0.9928490604    1.6430150960   -0.7467473938
    H     -0.5082709494   -0.7832474478   -1.1254840387
    H     -0.4381818893   -1.0437549107    0.6115329100
    H      1.4523221500    0.8020611361   -0.9704554868
    H      1.8722993985   -0.7863014253   -0.3325192805
    H      1.5226671703    0.5405161214    0.7736342134
    H     -6.9462737672   -0.4071204358    0.0814633848
    Cl    -7.4553129216    5.0863581386    0.9255099387
    H     -5.1557731760    3.4738102772    0.5901799913
    S     -9.7457090521    0.1927922133    0.2854387875
    H     -9.4293866429    3.0529060674    0.7011751512
    F     -9.0853678520   -0.9292163806    1.2433591642
    F    -10.4180189339    0.8952389484    1.5722339982
    F     -9.1774166082   -0.5913163642   -1.0086847237
    F    -10.5101477616    1.2333123687   -0.6811152286
    F    -11.0453570694   -0.7440897599    0.1979982650

$end

$rem

    JOBTYPE               sp
    METHOD                CCSD(T)
    BASIS                 6-31+G*
    CC_BACKEND            XM

    MEM_TOTAL             60000
$end
--------------------------------------------------------------
 ----------------------------------------------------------------
             Standard Nuclear Orientation (Angstroms)
    I     Atom           X                Y                Z
 ----------------------------------------------------------------
    1      C       0.5923961582    -0.2398940308     0.0003440085
    2      N       1.8357067886     0.3978483827     0.0005628507
    3      C       3.0769489729    -0.1930277562     0.0002497710
    4      O       3.3030477905    -1.3745619634     0.0000941569
    5      O       4.0127313024     0.7672610267     0.0001107998
    6      C       5.3734237929     0.3039731573    -0.0000607484
    7      C       6.2725830099     1.5209984122    -0.0000386922
    8      C       7.7429679529     1.1116863718    -0.0004894368
    9      C      -0.5407471693     0.5798204032     0.0002855832
   10      C      -1.7905245688    -0.0074784059     0.0000652567
   11      C      -1.9805615010    -1.3797192111    -0.0000711931
   12      C      -0.8369282990    -2.1652443681     0.0000118466
   13      C       0.4433693623    -1.6292429847     0.0002263424
   14      H       1.8401287525     1.4072677077     0.0005535853
   15      H       5.5322136490    -0.3188431976    -0.8836431093
   16      H       5.5323856480    -0.3190273827     0.8833603920
   17      H       6.0467111146     2.1305558632     0.8790523372
   18      H       6.0462713197     2.1308842766    -0.8787884387
   19      H       7.9897012717     0.5162622253     0.8818379674
   20      H       8.3923319398     1.9878603742    -0.0005035494
   21      H       7.9892301466     0.5165694084    -0.8831557387
   22      H      -0.4379268867     1.6578288118     0.0003754793
   23      Cl     -1.0142765634    -3.8935370623    -0.0001493665
   24      H       1.3067650391    -2.2769339795     0.0002662583
   25      S      -3.2469399875     1.0680964395    -0.0000656914
   26      H      -2.9651893408    -1.8256492978    -0.0002392589
   27      F      -2.6202048243     2.0283501317    -1.1392237643
   28      F      -3.9762025285     0.1914987815    -1.1406912213
   29      F      -2.6208127341     2.0277883147     1.1398879886
   30      F      -3.9768373512     0.1909591636     1.1397393087
   31      F      -4.5362345404     2.0231871092    -0.0001836079
 ----------------------------------------------------------------
 Molecular Point Group                 C1    NOp =  1
 Largest Abelian Subgroup              C1    NOp =  1
 Nuclear Repulsion Energy =  2007.5868346272 hartrees
 There are       86 alpha and       86 beta electrons
 Requested basis set is 6-31+G(d)
 There are 124 shells and 410 basis functions
 Total memory of 50485MB is distributed as follows: 
   QALLOC including MEM_STATIC uses 30062MB
   MEM_STATIC is set to 62MB
   CCMAN JOB total memory use is  50423MB
 Warning: actual memory use might exceed 50485MB

 Total QAlloc Memory Limit  30062 MB
 Mega-Array Size        61 MB
 MEM_STATIC part        62 MB
 A cutoff of  1.0D-14 yielded   5531 shell pairs
 There are     65184 function pairs
 
 -------------------------------------------------------
 OpenMP Integral Computing Module                       
 Release: version 1.0, May 2013, Q-Chem Inc. Pittsburgh 
 -------------------------------------------------------
 Integral Job Info:
 Integral job number is                      11
 Integral operator is                         1
 short-range coefficients                     0
 long-range coefficients              100000000
 Omega coefficients                           0
 if combine SR and LR in K                    0
 Integral screening is                        0
 Integral computing path is                   2
 max size of driver memory is            800000
 size of driver memory is                593474
 size of scratch memory is             15166112
 max col of scratch BK array               1296
 max len of scratch array in speh3          155
 max len of scratch index in speh4           18
 max int batch size is                      520
 min int batch size is                       52
 fixed nKL is                                52
 max L of basis functions is                  2
 order of int derivative is                   0
 number of shells is                        124
 number of basis is                         410
 number of cartesian basis is               410
 number of contracted shell pairs          5531
 number of primitive shell pairs          17990
 maxK2 (contraction) of shell pair           36
 max number of K2 of shell pair               1
 max number of CS2 of shell pair            836
 max number of PS2 of shell pair           4692
 mem total for path MDJ                  164010
 -------------------------------------------------------
 Smallest overlap matrix eigenvalue = 6.10E-07
 Linear dependence detected in AO basis
 Number of orthogonalized atomic orbitals = 409
 Maximum deviation from orthogonality = 2.623E-10

 Scale SEOQF with 1.000000e-02/1.000000e-01/1.000000e-01

 Standard Electronic Orientation quadrupole field applied
 Nucleus-field energy     =     0.0000000393 hartrees
 Guess from superposition of atomic densities
 Warning:  Energy on first SCF cycle will be non-variational
 A restricted Hartree-Fock SCF calculation will be
 performed using Pulay DIIS extrapolation
 SCF converges when DIIS error is below 1.0E-08
 -------------------------------------------------------
 OpenMP Integral computing Module                
 Release: version 1.0, May 2013, Q-Chem Inc. Pittsburgh 
 -------------------------------------------------------
 ---------------------------------------
  Cycle       Energy         DIIS Error
 ---------------------------------------
    1   -1949.9104967851      3.66E-02
    2   -1942.8635971526      4.98E-03
    3   -1943.1954116640      3.22E-03
    4   -1943.3475001743      4.68E-04
    5   -1943.3529886604      1.88E-04
    6   -1943.3538025303      4.87E-05
    7   -1943.3538878058      2.09E-05
    8   -1943.3539112312      6.98E-06
    9   -1943.3539152260      3.26E-06
   10   -1943.3539160336      1.45E-06
   11   -1943.3539162257      6.45E-07
   12   -1943.3539162683      2.81E-07
   13   -1943.3539162746      1.02E-07
   14   -1943.3539162754      3.88E-08
   15   -1943.3539162755      1.22E-08
   16   -1943.3539162755      4.15E-09 Convergence criterion met
 ---------------------------------------
 SCF time:  CPU 323.65 s  wall 81.96 s
 SCF   energy in the final basis set = -1943.3539162755
 Total energy in the final basis set = -1943.3539162755


 ------------------------------------------------------------------------------

   CCMAN2: suite of methods based on coupled cluster
           and equation of motion theories.

   Components:
   * libvmm-1.3-trunk
     by Evgeny Epifanovsky, Ilya Kaliman.
   * libtensor-2.5-release
     by Evgeny Epifanovsky, Michael Wormit, Dmitry Zuev, Sam Manzer, 
        Ilya Kaliman.
   * libcc-2.5-trunk
     by Evgeny Epifanovsky, Arik Landau, Tomasz Kus, Kirill Khistyaev, 
        Dmitry Zuev, Prashant Manohar, Xintian Feng, Anna Krylov, 
        Matthew Goldey, Alec White, Thomas Jagau, Kaushik Nanda, 
        Anastasia Gunina, Alexander Kunitsa, Joonho Lee.

   CCMAN original authors:
   Anna I. Krylov, C. David Sherrill, Steven R. Gwaltney,
   Edward F. C. Byrd (2000)
   Sergey V. Levchenko, Lyudmila V. Slipchenko, Tao Wang,
   Ana-Maria C. Cristian (2003)
   Piotr A. Pieniazek, C. Melania Oana, Evgeny Epifanovsky (2007)
   Prashant Manohar (2009)

 ------------------------------------------------------------------------------


================================================================================
This program uses libxm tensor contraction code.
See https://github.com/ilyak/libxm for more info.
libxm is (c) Ilya Kaliman 2014-2016.
================================================================================

 Calculation will run on 4 cores using libxm for tensor contractions

 
 Alpha MOs, Restricted
 -- Occupied --                  
-104.85  -92.41  -26.36  -26.36  -26.36  -26.36  -26.36  -20.64
  1 A     2 A     3 A     4 A     5 A     6 A     7 A     8 A                  
-20.572 -15.642 -11.441 -11.336 -11.335 -11.321 -11.306 -11.288
  9 A    10 A    11 A    12 A    13 A    14 A    15 A    16 A                  
-11.284 -11.274 -11.245 -11.235 -10.578  -9.351  -8.048  -8.044
 17 A    18 A    19 A    20 A    21 A    22 A    23 A    24 A                  
 -8.044  -7.040  -7.040  -7.036  -1.764  -1.665  -1.664  -1.635
 25 A    26 A    27 A    28 A    29 A    30 A    31 A    32 A                  
 -1.620  -1.500  -1.392  -1.299  -1.222  -1.161  -1.109  -1.086
 33 A    34 A    35 A    36 A    37 A    38 A    39 A    40 A                  
 -1.048  -1.032  -0.969  -0.914  -0.888  -0.870  -0.869  -0.846
 41 A    42 A    43 A    44 A    45 A    46 A    47 A    48 A                  
 -0.831  -0.801  -0.786  -0.782  -0.765  -0.756  -0.730  -0.723
 49 A    50 A    51 A    52 A    53 A    54 A    55 A    56 A                  
 -0.715  -0.698  -0.693  -0.689  -0.687  -0.686  -0.677  -0.667
 57 A    58 A    59 A    60 A    61 A    62 A    63 A    64 A                  
 -0.661  -0.655  -0.652  -0.648  -0.626  -0.622  -0.606  -0.596
 65 A    66 A    67 A    68 A    69 A    70 A    71 A    72 A                  
 -0.575  -0.567  -0.564  -0.543  -0.533  -0.520  -0.506  -0.503
 73 A    74 A    75 A    76 A    77 A    78 A    79 A    80 A                  
 -0.482  -0.480  -0.471  -0.471  -0.375  -0.344
 81 A    82 A    83 A    84 A    85 A    86 A                                  
 -- Virtual --                   
  0.051   0.071   0.072   0.075   0.080   0.085   0.088   0.091
 87 A    88 A    89 A    90 A    91 A    92 A    93 A    94 A                  
  0.097   0.104   0.105   0.106   0.117   0.120   0.123   0.128
 95 A    96 A    97 A    98 A    99 A   100 A   101 A   102 A                  
  0.137   0.138   0.142   0.144   0.149   0.155   0.155   0.157
103 A   104 A   105 A   106 A   107 A   108 A   109 A   110 A                  
  0.177   0.178   0.184   0.185   0.197   0.199   0.206   0.206
111 A   112 A   113 A   114 A   115 A   116 A   117 A   118 A                  
  0.208   0.224   0.230   0.237   0.241   0.245   0.249   0.252
119 A   120 A   121 A   122 A   123 A   124 A   125 A   126 A                  
  0.265   0.268   0.273   0.281   0.282   0.285   0.296   0.298
127 A   128 A   129 A   130 A   131 A   132 A   133 A   134 A                  
  0.299   0.310   0.315   0.327   0.328   0.330   0.335   0.336
135 A   136 A   137 A   138 A   139 A   140 A   141 A   142 A                  
  0.350   0.353   0.354   0.361   0.363   0.364   0.369   0.385
143 A   144 A   145 A   146 A   147 A   148 A   149 A   150 A                  
  0.385   0.388   0.395   0.408   0.410   0.413   0.414   0.418
151 A   152 A   153 A   154 A   155 A   156 A   157 A   158 A                  
  0.424   0.425   0.430   0.438   0.439   0.443   0.448   0.452
159 A   160 A   161 A   162 A   163 A   164 A   165 A   166 A                  
  0.462   0.464   0.465   0.468   0.471   0.477   0.485   0.488
167 A   168 A   169 A   170 A   171 A   172 A   173 A   174 A                  
  0.492   0.505   0.515   0.516   0.525   0.529   0.533   0.547
175 A   176 A   177 A   178 A   179 A   180 A   181 A   182 A                  
  0.552   0.574   0.585   0.599   0.611   0.613   0.616   0.627
183 A   184 A   185 A   186 A   187 A   188 A   189 A   190 A                  
  0.636   0.672   0.675   0.689   0.705   0.723   0.749   0.750
191 A   192 A   193 A   194 A   195 A   196 A   197 A   198 A                  
  0.757   0.781   0.790   0.809   0.813   0.840   0.847   0.865
199 A   200 A   201 A   202 A   203 A   204 A   205 A   206 A                  
  0.875   0.881   0.905   0.919   0.921   0.927   0.934   0.934
207 A   208 A   209 A   210 A   211 A   212 A   213 A   214 A                  
  0.945   0.964   0.966   0.973   0.975   0.985   1.003   1.014
215 A   216 A   217 A   218 A   219 A   220 A   221 A   222 A                  
  1.042   1.047   1.066   1.069   1.085   1.091   1.096   1.139
223 A   224 A   225 A   226 A   227 A   228 A   229 A   230 A                  
  1.141   1.154   1.162   1.169   1.179   1.182   1.195   1.197
231 A   232 A   233 A   234 A   235 A   236 A   237 A   238 A                  
  1.208   1.217   1.218   1.223   1.240   1.253   1.266   1.287
239 A   240 A   241 A   242 A   243 A   244 A   245 A   246 A                  
  1.295   1.298   1.315   1.344   1.351   1.365   1.370   1.386
247 A   248 A   249 A   250 A   251 A   252 A   253 A   254 A                  
  1.404   1.421   1.437   1.447   1.465   1.467   1.473   1.495
255 A   256 A   257 A   258 A   259 A   260 A   261 A   262 A                  
  1.510   1.516   1.547   1.561   1.595   1.597   1.625   1.636
263 A   264 A   265 A   266 A   267 A   268 A   269 A   270 A                  
  1.642   1.666   1.673   1.687   1.703   1.705   1.715   1.721
271 A   272 A   273 A   274 A   275 A   276 A   277 A   278 A                  
  1.764   1.771   1.777   1.791   1.803   1.810   1.840   1.842
279 A   280 A   281 A   282 A   283 A   284 A   285 A   286 A                  
  1.850   1.866   1.889   1.896   1.936   1.964   1.964   1.968
287 A   288 A   289 A   290 A   291 A   292 A   293 A   294 A                  
  1.998   2.016   2.022   2.027   2.032   2.045   2.057   2.065
295 A   296 A   297 A   298 A   299 A   300 A   301 A   302 A                  
  2.067   2.069   2.079   2.082   2.098   2.112   2.117   2.123
303 A   304 A   305 A   306 A   307 A   308 A   309 A   310 A                  
  2.129   2.135   2.151   2.153   2.172   2.180   2.186   2.210
311 A   312 A   313 A   314 A   315 A   316 A   317 A   318 A                  
  2.217   2.220   2.258   2.264   2.267   2.276   2.283   2.289
319 A   320 A   321 A   322 A   323 A   324 A   325 A   326 A                  
  2.298   2.299   2.306   2.317   2.319   2.326   2.327   2.330
327 A   328 A   329 A   330 A   331 A   332 A   333 A   334 A                  
  2.356   2.363   2.370   2.389   2.391   2.430   2.431   2.441
335 A   336 A   337 A   338 A   339 A   340 A   341 A   342 A                  
  2.456   2.475   2.484   2.494   2.518   2.538   2.544   2.563
343 A   344 A   345 A   346 A   347 A   348 A   349 A   350 A                  
  2.572   2.595   2.595   2.596   2.666   2.676   2.688   2.700
351 A   352 A   353 A   354 A   355 A   356 A   357 A   358 A                  
  2.716   2.724   2.734   2.735   2.798   2.842   2.850   2.944
359 A   360 A   361 A   362 A   363 A   364 A   365 A   366 A                  
  2.952   2.960   2.966   3.031   3.058   3.082   3.099   3.107
367 A   368 A   369 A   370 A   371 A   372 A   373 A   374 A                  
  3.157   3.159   3.200   3.208   3.263   3.304   3.314   3.375
375 A   376 A   377 A   378 A   379 A   380 A   381 A   382 A                  
  3.391   3.452   3.507   3.604   3.689   3.749   3.818   4.601
383 A   384 A   385 A   386 A   387 A   388 A   389 A   390 A                  
  4.657   4.681   4.704   4.736   4.752   4.782   4.816   4.847
391 A   392 A   393 A   394 A   395 A   396 A   397 A   398 A                  
  4.878   4.914   4.973   5.032   5.089   5.183   6.318   6.409
399 A   400 A   401 A   402 A   403 A   404 A   405 A   406 A                  
  6.588   7.715   9.415
407 A   408 A   409 A                                                          
 
 Beta MOs, Restricted
 -- Occupied --                  
-104.85  -92.41  -26.36  -26.36  -26.36  -26.36  -26.36  -20.64
  1 A     2 A     3 A     4 A     5 A     6 A     7 A     8 A                  
-20.572 -15.642 -11.441 -11.336 -11.335 -11.321 -11.306 -11.288
  9 A    10 A    11 A    12 A    13 A    14 A    15 A    16 A                  
-11.284 -11.274 -11.245 -11.235 -10.578  -9.351  -8.048  -8.044
 17 A    18 A    19 A    20 A    21 A    22 A    23 A    24 A                  
 -8.044  -7.040  -7.040  -7.036  -1.764  -1.665  -1.664  -1.635
 25 A    26 A    27 A    28 A    29 A    30 A    31 A    32 A                  
 -1.620  -1.500  -1.392  -1.299  -1.222  -1.161  -1.109  -1.086
 33 A    34 A    35 A    36 A    37 A    38 A    39 A    40 A                  
 -1.048  -1.032  -0.969  -0.914  -0.888  -0.870  -0.869  -0.846
 41 A    42 A    43 A    44 A    45 A    46 A    47 A    48 A                  
 -0.831  -0.801  -0.786  -0.782  -0.765  -0.756  -0.730  -0.723
 49 A    50 A    51 A    52 A    53 A    54 A    55 A    56 A                  
 -0.715  -0.698  -0.693  -0.689  -0.687  -0.686  -0.677  -0.667
 57 A    58 A    59 A    60 A    61 A    62 A    63 A    64 A                  
 -0.661  -0.655  -0.652  -0.648  -0.626  -0.622  -0.606  -0.596
 65 A    66 A    67 A    68 A    69 A    70 A    71 A    72 A                  
 -0.575  -0.567  -0.564  -0.543  -0.533  -0.520  -0.506  -0.503
 73 A    74 A    75 A    76 A    77 A    78 A    79 A    80 A                  
 -0.482  -0.480  -0.471  -0.471  -0.375  -0.344
 81 A    82 A    83 A    84 A    85 A    86 A                                  
 -- Virtual --                   
  0.051   0.071   0.072   0.075   0.080   0.085   0.088   0.091
 87 A    88 A    89 A    90 A    91 A    92 A    93 A    94 A                  
  0.097   0.104   0.105   0.106   0.117   0.120   0.123   0.128
 95 A    96 A    97 A    98 A    99 A   100 A   101 A   102 A                  
  0.137   0.138   0.142   0.144   0.149   0.155   0.155   0.157
103 A   104 A   105 A   106 A   107 A   108 A   109 A   110 A                  
  0.177   0.178   0.184   0.185   0.197   0.199   0.206   0.206
111 A   112 A   113 A   114 A   115 A   116 A   117 A   118 A                  
  0.208   0.224   0.230   0.237   0.241   0.245   0.249   0.252
119 A   120 A   121 A   122 A   123 A   124 A   125 A   126 A                  
  0.265   0.268   0.273   0.281   0.282   0.285   0.296   0.298
127 A   128 A   129 A   130 A   131 A   132 A   133 A   134 A                  
  0.299   0.310   0.315   0.327   0.328   0.330   0.335   0.336
135 A   136 A   137 A   138 A   139 A   140 A   141 A   142 A                  
  0.350   0.353   0.354   0.361   0.363   0.364   0.369   0.385
143 A   144 A   145 A   146 A   147 A   148 A   149 A   150 A                  
  0.385   0.388   0.395   0.408   0.410   0.413   0.414   0.418
151 A   152 A   153 A   154 A   155 A   156 A   157 A   158 A                  
  0.424   0.425   0.430   0.438   0.439   0.443   0.448   0.452
159 A   160 A   161 A   162 A   163 A   164 A   165 A   166 A                  
  0.462   0.464   0.465   0.468   0.471   0.477   0.485   0.488
167 A   168 A   169 A   170 A   171 A   172 A   173 A   174 A                  
  0.492   0.505   0.515   0.516   0.525   0.529   0.533   0.547
175 A   176 A   177 A   178 A   179 A   180 A   181 A   182 A                  
  0.552   0.574   0.585   0.599   0.611   0.613   0.616   0.627
183 A   184 A   185 A   186 A   187 A   188 A   189 A   190 A                  
  0.636   0.672   0.675   0.689   0.705   0.723   0.749   0.750
191 A   192 A   193 A   194 A   195 A   196 A   197 A   198 A                  
  0.757   0.781   0.790   0.809   0.813   0.840   0.847   0.865
199 A   200 A   201 A   202 A   203 A   204 A   205 A   206 A                  
  0.875   0.881   0.905   0.919   0.921   0.927   0.934   0.934
207 A   208 A   209 A   210 A   211 A   212 A   213 A   214 A                  
  0.945   0.964   0.966   0.973   0.975   0.985   1.003   1.014
215 A   216 A   217 A   218 A   219 A   220 A   221 A   222 A                  
  1.042   1.047   1.066   1.069   1.085   1.091   1.096   1.139
223 A   224 A   225 A   226 A   227 A   228 A   229 A   230 A                  
  1.141   1.154   1.162   1.169   1.179   1.182   1.195   1.197
231 A   232 A   233 A   234 A   235 A   236 A   237 A   238 A                  
  1.208   1.217   1.218   1.223   1.240   1.253   1.266   1.287
239 A   240 A   241 A   242 A   243 A   244 A   245 A   246 A                  
  1.295   1.298   1.315   1.344   1.351   1.365   1.370   1.386
247 A   248 A   249 A   250 A   251 A   252 A   253 A   254 A                  
  1.404   1.421   1.437   1.447   1.465   1.467   1.473   1.495
255 A   256 A   257 A   258 A   259 A   260 A   261 A   262 A                  
  1.510   1.516   1.547   1.561   1.595   1.597   1.625   1.636
263 A   264 A   265 A   266 A   267 A   268 A   269 A   270 A                  
  1.642   1.666   1.673   1.687   1.703   1.705   1.715   1.721
271 A   272 A   273 A   274 A   275 A   276 A   277 A   278 A                  
  1.764   1.771   1.777   1.791   1.803   1.810   1.840   1.842
279 A   280 A   281 A   282 A   283 A   284 A   285 A   286 A                  
  1.850   1.866   1.889   1.896   1.936   1.964   1.964   1.968
287 A   288 A   289 A   290 A   291 A   292 A   293 A   294 A                  
  1.998   2.016   2.022   2.027   2.032   2.045   2.057   2.065
295 A   296 A   297 A   298 A   299 A   300 A   301 A   302 A                  
  2.067   2.069   2.079   2.082   2.098   2.112   2.117   2.123
303 A   304 A   305 A   306 A   307 A   308 A   309 A   310 A                  
  2.129   2.135   2.151   2.153   2.172   2.180   2.186   2.210
311 A   312 A   313 A   314 A   315 A   316 A   317 A   318 A                  
  2.217   2.220   2.258   2.264   2.267   2.276   2.283   2.289
319 A   320 A   321 A   322 A   323 A   324 A   325 A   326 A                  
  2.298   2.299   2.306   2.317   2.319   2.326   2.327   2.330
327 A   328 A   329 A   330 A   331 A   332 A   333 A   334 A                  
  2.356   2.363   2.370   2.389   2.391   2.430   2.431   2.441
335 A   336 A   337 A   338 A   339 A   340 A   341 A   342 A                  
  2.456   2.475   2.484   2.494   2.518   2.538   2.544   2.563
343 A   344 A   345 A   346 A   347 A   348 A   349 A   350 A                  
  2.572   2.595   2.595   2.596   2.666   2.676   2.688   2.700
351 A   352 A   353 A   354 A   355 A   356 A   357 A   358 A                  
  2.716   2.724   2.734   2.735   2.798   2.842   2.850   2.944
359 A   360 A   361 A   362 A   363 A   364 A   365 A   366 A                  
  2.952   2.960   2.966   3.031   3.058   3.082   3.099   3.107
367 A   368 A   369 A   370 A   371 A   372 A   373 A   374 A                  
  3.157   3.159   3.200   3.208   3.263   3.304   3.314   3.375
375 A   376 A   377 A   378 A   379 A   380 A   381 A   382 A                  
  3.391   3.452   3.507   3.604   3.689   3.749   3.818   4.601
383 A   384 A   385 A   386 A   387 A   388 A   389 A   390 A                  
  4.657   4.681   4.704   4.736   4.752   4.782   4.816   4.847
391 A   392 A   393 A   394 A   395 A   396 A   397 A   398 A                  
  4.878   4.914   4.973   5.032   5.089   5.183   6.318   6.409
399 A   400 A   401 A   402 A   403 A   404 A   405 A   406 A                  
  6.588   7.715   9.415
407 A   408 A   409 A                                                          

 Occupation and symmetry of molecular orbitals

 Point group: C1 (1 irreducible representation).

                           A     All 
 -------------------------------------
 All molecular orbitals:
  - Alpha                  409   409 
  - Beta                   409   409 
 -------------------------------------
 Alpha orbitals:
  - Frozen occupied        28    28  
  - Active occupied        58    58  
  - Active virtual         323   323 
  - Frozen virtual         0     0   
 -------------------------------------
 Beta orbitals:
  - Frozen occupied        28    28  
  - Active occupied        58    58  
  - Active virtual         323   323 
  - Frozen virtual         0     0   
 -------------------------------------

 Import integrals:   CPU 0.00 s  wall 0.00 s

 Import integrals:   CPU 2203.45 s  wall 1030.88 s

 MP2 amplitudes:   CPU 34.71 s  wall 107.83 s

           CCSD T amplitudes will be solved using DIIS.

           Start     Size      MaxIter   EConv     TConv     
           3         7         100       1.00e-06  1.00e-04  
 ------------------------------------------------------------------------------
           Energy (a.u.)   Ediff      Tdiff       Comment
 ------------------------------------------------------------------------------
         -1946.36558195                           
     1   -1946.33095594   3.46e-02   1.57e+00     Step took 1:29.15.
     2   -1946.42488993   9.39e-02   2.16e-01     
     3   -1946.42141447   3.48e-03   8.18e-02     
     4   -1946.43069222   9.28e-03   2.73e-02     Switched to DIIS steps.
     5   -1946.43366351   2.97e-03   1.74e-02     
     6   -1946.43384487   1.81e-04   3.61e-03     
     7   -1946.43382972   1.52e-05   1.75e-03     
     8   -1946.43381943   1.03e-05   4.83e-04     
     9   -1946.43382029   8.51e-07   1.77e-04     
    10   -1946.43382030   1.49e-08   5.20e-05     
 ------------------------------------------------------------------------------
         -1946.43382030                           CCSD T converged.


 ------------------------------------------------------------------------------
 == (T) code is based on LIBPT ==
 == Author: Ilya Kaliman, 2016 ==

 Starting (T) calculation...
 (T) calculation completed in 154176 sec
 ------------------------------------------------------------------------------

 SCF energy                 = -1943.35391628
 MP2 energy                 = -1946.36558195
 CCSD correlation energy     =    -3.07990402
 CCSD total energy           = -1946.43382030
 CCSD(T) correlation energy =    -0.11275077
 CCSD(T) total energy       = -1946.54657107

 CCSD  T1^2 = 0.0438  T2^2 = 0.9955  Leading amplitudes:

 Amplitude    Orbitals with energies
 -0.0213       68 (A) A                  ->    120 (A) A                  
              -0.6475                          0.2244                     
 -0.0213       68 (A) B                  ->    120 (A) B                  
              -0.6475                          0.2244                     
 -0.0210       57 (A) A                  ->    120 (A) A                  
              -0.7149                          0.2244                     
 -0.0210       57 (A) B                  ->    120 (A) B                  
              -0.7149                          0.2244                     

 Amplitude    Orbitals with energies
 -0.0626       85 (A) A      85 (A) B    ->    89 (A) A      89 (A) B     
              -0.3752       -0.3752            0.0716        0.0716       
  0.0626       85 (A) A      85 (A) B    ->    89 (A) B      89 (A) A     
              -0.3752       -0.3752            0.0716        0.0716       
  0.0626       85 (A) B      85 (A) A    ->    89 (A) A      89 (A) B     
              -0.3752       -0.3752            0.0716        0.0716       
 -0.0626       85 (A) B      85 (A) A    ->    89 (A) B      89 (A) A     
              -0.3752       -0.3752            0.0716        0.0716       

 CCSD calculation:   CPU 732754.14 s  wall 211177.31 s

 Total ccman2 time:   CPU 735046.63 s  wall 212345.41 s

 
 --------------------------------------------------------------
 
                    Orbital Energies (a.u.)
 --------------------------------------------------------------
 
 Alpha MOs
 -- Occupied --
******* -92.411 -26.365 -26.365 -26.365 -26.365 -26.365 -20.636
-20.572 -15.642 -11.441 -11.336 -11.335 -11.321 -11.306 -11.288
-11.284 -11.274 -11.245 -11.235 -10.578  -9.351  -8.048  -8.044
 -8.044  -7.040  -7.040  -7.036  -1.764  -1.665  -1.664  -1.635
 -1.620  -1.500  -1.392  -1.299  -1.222  -1.161  -1.109  -1.086
 -1.048  -1.032  -0.969  -0.914  -0.888  -0.870  -0.869  -0.846
 -0.831  -0.801  -0.786  -0.782  -0.765  -0.756  -0.730  -0.723
 -0.715  -0.698  -0.693  -0.689  -0.687  -0.686  -0.677  -0.667
 -0.661  -0.655  -0.652  -0.648  -0.626  -0.622  -0.606  -0.596
 -0.575  -0.567  -0.564  -0.543  -0.533  -0.520  -0.506  -0.503
 -0.482  -0.480  -0.471  -0.471  -0.375  -0.344
 -- Virtual --
  0.051   0.071   0.072   0.075   0.080   0.085   0.088   0.091
  0.097   0.104   0.105   0.106   0.117   0.120   0.123   0.128
  0.137   0.138   0.142   0.144   0.149   0.155   0.155   0.157
  0.177   0.178   0.184   0.185   0.197   0.199   0.206   0.206
  0.208   0.224   0.230   0.237   0.241   0.245   0.249   0.252
  0.265   0.268   0.273   0.281   0.282   0.285   0.296   0.298
  0.299   0.310   0.315   0.327   0.328   0.330   0.335   0.336
  0.350   0.353   0.354   0.361   0.363   0.364   0.369   0.385
  0.385   0.388   0.395   0.408   0.410   0.413   0.414   0.418
  0.424   0.425   0.430   0.438   0.439   0.443   0.448   0.452
  0.462   0.464   0.465   0.468   0.471   0.477   0.485   0.488
  0.492   0.505   0.515   0.516   0.525   0.529   0.533   0.547
  0.552   0.574   0.585   0.599   0.611   0.613   0.616   0.627
  0.636   0.672   0.675   0.689   0.705   0.723   0.749   0.750
  0.757   0.781   0.790   0.809   0.813   0.840   0.847   0.865
  0.875   0.881   0.905   0.919   0.921   0.927   0.934   0.934
  0.945   0.964   0.966   0.973   0.975   0.985   1.003   1.014
  1.042   1.047   1.066   1.069   1.085   1.091   1.096   1.139
  1.141   1.154   1.162   1.169   1.179   1.182   1.195   1.197
  1.208   1.217   1.218   1.223   1.240   1.253   1.266   1.287
  1.295   1.298   1.315   1.344   1.351   1.365   1.370   1.386
  1.404   1.421   1.437   1.447   1.465   1.467   1.473   1.495
  1.510   1.516   1.547   1.561   1.595   1.597   1.625   1.636
  1.642   1.666   1.673   1.687   1.703   1.705   1.715   1.721
  1.764   1.771   1.777   1.791   1.803   1.810   1.840   1.842
  1.850   1.866   1.889   1.896   1.936   1.964   1.964   1.968
  1.998   2.016   2.022   2.027   2.032   2.045   2.057   2.065
  2.067   2.069   2.079   2.082   2.098   2.112   2.117   2.123
  2.129   2.135   2.151   2.153   2.172   2.180   2.186   2.210
  2.217   2.220   2.258   2.264   2.267   2.276   2.283   2.289
  2.298   2.299   2.306   2.317   2.319   2.326   2.327   2.330
  2.356   2.363   2.370   2.389   2.391   2.430   2.431   2.441
  2.456   2.475   2.484   2.494   2.518   2.538   2.544   2.563
  2.572   2.595   2.595   2.596   2.666   2.676   2.688   2.700
  2.716   2.724   2.734   2.735   2.798   2.842   2.850   2.944
  2.952   2.960   2.966   3.031   3.058   3.082   3.099   3.107
  3.157   3.159   3.200   3.208   3.263   3.304   3.314   3.375
  3.391   3.452   3.507   3.604   3.689   3.749   3.818   4.601
  4.657   4.681   4.704   4.736   4.752   4.782   4.816   4.847
  4.878   4.914   4.973   5.032   5.089   5.183   6.318   6.409
  6.588   7.715   9.415
 --------------------------------------------------------------
 
          Ground-State Mulliken Net Atomic Charges

     Atom                 Charge (a.u.)
  ----------------------------------------
      1 C                     0.341483
      2 N                    -0.926970
      3 C                     0.756450
      4 O                    -0.581946
      5 O                    -0.481205
      6 C                     0.030786
      7 C                    -0.274781
      8 C                    -0.691984
      9 C                    -0.614883
     10 C                    -0.799474
     11 C                    -0.159422
     12 C                     0.339078
     13 C                     0.118247
     14 H                     0.502469
     15 H                     0.212613
     16 H                     0.212620
     17 H                     0.205076
     18 H                     0.205080
     19 H                     0.196723
     20 H                     0.205118
     21 H                     0.196723
     22 H                     0.270671
     23 Cl                    0.262994
     24 H                     0.335253
     25 S                     3.057167
     26 H                     0.301349
     27 F                    -0.652460
     28 F                    -0.641540
     29 F                    -0.652424
     30 F                    -0.641563
     31 F                    -0.631246
  ----------------------------------------
  Sum of atomic charges =     0.000000

 -----------------------------------------------------------------
                    Cartesian Multipole Moments
 -----------------------------------------------------------------
    Charge (ESU x 10^10)
                 0.0000
    Dipole Moment (Debye)
         X       4.9327      Y       1.9133      Z       0.0003
       Tot       5.2908
    Quadrupole Moments (Debye-Ang)
        XX    -122.3833     XY      13.8974     YY    -135.4019
        XZ       0.0002     YZ       0.0006     ZZ    -132.3619
    Octopole Moments (Debye-Ang^2)
       XXX      84.9650    XXY      22.7945    XYY     -28.1428
       YYY      51.3234    XXZ      -0.0022    XYZ      -0.0026
       YYZ       0.0007    XZZ     -18.7825    YZZ      11.9481
       ZZZ      -0.0048
    Hexadecapole Moments (Debye-Ang^3)
      XXXX   -9415.2054   XXXY     133.3753   XXYY   -2127.4277
      XYYY     -92.3478   YYYY   -2389.0376   XXXZ       0.0262
      XXYZ      -0.0031   XYYZ       0.0092   YYYZ       0.0085
      XXZZ   -1734.8984   XYZZ     -46.9384   YYZZ    -459.8680
      XZZZ       0.0099   YZZZ      -0.0028   ZZZZ    -301.7526
 -----------------------------------------------------------------
Archival summary:
1\1\r4249\SP\ProcedureUnspecified\6-31+G*\l115211011\hio507\WedDec1122:57:592019WedDec1122:57:592019\0\\#,ProcedureUnspecified,6-31+G*,\\0,1\S\F,1,1.60452\F,1,1.61285,2,87.7159\F,1,1.61285,2,87.7151,3,-90.0671,0\F,1,1.61633,2,87.5869,3,179.848,0\F,1,1.61634,2,87.5864,3,90.0844,0\C,1,1.81053,2,179.916,3,134.901,0\C,7,1.38089,1,118.384,2,0.053476,0\H,8,1.0829,7,120.618,1,-0,0\C,7,1.38534,1,118.562,2,-179.946,0\H,10,1.0809,7,122.25,1,-0.000817038,0\C,10,1.38742,7,116.599,1,179.999,0\C,12,1.38797,10,122.799,7,0,0\H,13,1.07933,12,120.407,10,-179.999,0\C,13,1.39732,12,118.839,10,-0.000994242,0\N,15,1.39733,13,123.277,12,180,0\H,16,1.00943,15,117.406,13,179.995,0\C,16,1.37471,15,127.389,13,0.0233992,0\O,18,1.20297,16,126.289,15,-0.0216526,0\O,18,1.34084,16,108.803,15,179.977,0\C,20,1.4374,18,115.457,16,179.993,0\H,21,1.09263,20,108.748,18,-58.6321,0\H,21,1.09263,20,108.747,18,58.6466,0\C,21,1.51315,20,107.655,18,-179.994,0\H,24,1.09333,21,109.004,20,-58.2271,0\H,24,1.09333,21,109.006,20,58.2478,0\C,24,1.52629,21,110.902,20,-179.989,0\H,27,1.09058,24,110.988,21,179.998,0\H,27,1.09266,24,111.311,21,-60.1065,0\H,27,1.09266,24,111.311,21,60.103,0\Cl,12,1.73737,10,118.625,7,180,0\\HF=-1943.35392\\@

 Total job time:  212430.60s(wall), 735372.83s(cpu) 
 Wed Dec 11 22:58:00 2019

        *************************************************************
        *                                                           *
        *  Thank you very much for using Q-Chem.  Have a nice day.  *
        *                                                           *
        *************************************************************


0 sent ACK to 0 
now end server 0 ... 
