 Entering Gaussian System, Link 0=/apps/gaussian/g09e01/g09/g09
 Initial command:
 /apps/gaussian/g09e01/g09/l1.exe "/jobfs/local/3588738.r-man2/Gau-11299.inp" -scrdir="/jobfs/local/3588738.r-man2/"
 Entering Link 1 = /apps/gaussian/g09e01/g09/l1.exe PID=     11303.
  
 Copyright (c) 1988,1990,1992,1993,1995,1998,2003,2009,2015,
            Gaussian, Inc.  All Rights Reserved.
  
 This is part of the Gaussian(R) 09 program.  It is based on
 the Gaussian(R) 03 system (copyright 2003, Gaussian, Inc.),
 the Gaussian(R) 98 system (copyright 1998, Gaussian, Inc.),
 the Gaussian(R) 94 system (copyright 1995, Gaussian, Inc.),
 the Gaussian 92(TM) system (copyright 1992, Gaussian, Inc.),
 the Gaussian 90(TM) system (copyright 1990, Gaussian, Inc.),
 the Gaussian 88(TM) system (copyright 1988, Gaussian, Inc.),
 the Gaussian 86(TM) system (copyright 1986, Carnegie Mellon
 University), and the Gaussian 82(TM) system (copyright 1983,
 Carnegie Mellon University). Gaussian is a federally registered
 trademark of Gaussian, Inc.
  
 This software contains proprietary and confidential information,
 including trade secrets, belonging to Gaussian, Inc.
  
 This software is provided under written license and may be
 used, copied, transmitted, or stored only in accord with that
 written license.
  
 The following legend is applicable only to US Government
 contracts under FAR:
  
                    RESTRICTED RIGHTS LEGEND
  
 Use, reproduction and disclosure by the US Government is
 subject to restrictions as set forth in subparagraphs (a)
 and (c) of the Commercial Computer Software - Restricted
 Rights clause in FAR 52.227-19.
  
 Gaussian, Inc.
 340 Quinnipiac St., Bldg. 40, Wallingford CT 06492
  
  
 ---------------------------------------------------------------
 Warning -- This program may not be used in any manner that
 competes with the business of Gaussian, Inc. or will provide
 assistance to any competitor of Gaussian, Inc.  The licensee
 of this program is prohibited from giving any competitor of
 Gaussian, Inc. access to this program.  By using this program,
 the user acknowledges that Gaussian, Inc. is engaged in the
 business of creating and licensing software in the field of
 computational chemistry and represents and warrants to the
 licensee that it is not a competitor of Gaussian, Inc. and that
 it will not use this program in any manner prohibited above.
 ---------------------------------------------------------------
  

 Cite this work as:
 Gaussian 09, Revision E.01,
 M. J. Frisch, G. W. Trucks, H. B. Schlegel, G. E. Scuseria, 
 M. A. Robb, J. R. Cheeseman, G. Scalmani, V. Barone, B. Mennucci, 
 G. A. Petersson, H. Nakatsuji, M. Caricato, X. Li, H. P. Hratchian, 
 A. F. Izmaylov, J. Bloino, G. Zheng, J. L. Sonnenberg, M. Hada, 
 M. Ehara, K. Toyota, R. Fukuda, J. Hasegawa, M. Ishida, T. Nakajima, 
 Y. Honda, O. Kitao, H. Nakai, T. Vreven, J. A. Montgomery, Jr., 
 J. E. Peralta, F. Ogliaro, M. Bearpark, J. J. Heyd, E. Brothers, 
 K. N. Kudin, V. N. Staroverov, T. Keith, R. Kobayashi, J. Normand, 
 K. Raghavachari, A. Rendell, J. C. Burant, S. S. Iyengar, J. Tomasi, 
 M. Cossi, N. Rega, J. M. Millam, M. Klene, J. E. Knox, J. B. Cross, 
 V. Bakken, C. Adamo, J. Jaramillo, R. Gomperts, R. E. Stratmann, 
 O. Yazyev, A. J. Austin, R. Cammi, C. Pomelli, J. W. Ochterski, 
 R. L. Martin, K. Morokuma, V. G. Zakrzewski, G. A. Voth, 
 P. Salvador, J. J. Dannenberg, S. Dapprich, A. D. Daniels, 
 O. Farkas, J. B. Foresman, J. V. Ortiz, J. Cioslowski, 
 and D. J. Fox, Gaussian, Inc., Wallingford CT, 2013.
 
 ******************************************
 Gaussian 09:  ES64L-G09RevE.01 30-Nov-2015
                14-Nov-2019 
 ******************************************
 %chk=CP22CA_c2.M062X_6-311pGd_opt_GD3.chk
 %mem=196608000
 %nproc=4
 Will use up to    4 processors via shared memory.
 ----------------------------------------------------------------------
 # M062X/6-311+G* SCF=Tight INT(grid=ultrafine) OPT IOP(2/17=4) Empiric
 alDispersion=GD3 maxdisk=2684354560
 ----------------------------------------------------------------------
 1/14=-1,18=20,19=15,26=4,38=1/1,3;
 2/9=110,12=2,17=4,18=5,40=1/2;
 3/5=4,6=6,7=11,11=2,16=1,25=1,30=1,71=1,74=-55,75=-5,124=31/1,2,3;
 4//1;
 5/5=2,32=2,38=5/2;
 6/7=2,8=2,9=2,10=2,28=1/1;
 7//1,2,3,16;
 1/14=-1,18=20,19=15,26=4/3(2);
 2/9=110,17=4/2;
 99//99;
 2/9=110,17=4/2;
 3/5=4,6=6,7=11,11=2,16=1,25=1,30=1,71=1,74=-55,75=-5,124=31/1,2,3;
 4/5=5,16=3,69=1/1;
 5/5=2,32=2,38=5/2;
 7//1,2,3,16;
 1/14=-1,18=20,19=15,26=4/3(-5);
 2/9=110,17=4/2;
 6/7=2,8=2,9=2,10=2,19=2,28=1/1;
 99/9=1/99;
 --------------------------------
 CP22CA_c2.M062X_6-311pGd_opt_GD3
 --------------------------------
 Symbolic Z-matrix:
 Charge =  0 Multiplicity = 1
 C                    -5.89402   1.46352   0.31896 
 N                    -4.65949   0.82543   0.17304 
 C                    -3.41221   1.40234   0.20912 
 O                    -3.17209   2.56946   0.37435 
 O                    -2.4888    0.44704   0.02868 
 C                    -1.12372   0.89708   0.04083 
 C                    -0.23999  -0.31188  -0.17616 
 C                     1.23405   0.08408  -0.17625 
 C                    -7.03603   0.65959   0.24498 
 C                    -8.27764   1.24783   0.38373 
 C                    -8.45099   2.60605   0.59434 
 C                    -7.29892   3.3761    0.66282 
 C                    -6.0262    2.83841   0.53039 
 H                    -4.66721  -0.17288   0.02383 
 H                    -0.92212   1.38129   0.99933 
 H                    -0.99285   1.64302  -0.74675 
 H                    -0.50827  -0.78325  -1.12548 
 H                    -0.43818  -1.04375   0.61153 
 H                     1.45232   0.80206  -0.97046 
 H                     1.8723   -0.7863   -0.33252 
 H                     1.52267   0.54052   0.77363 
 H                    -6.94627  -0.40712   0.08146 
 Cl                   -7.45531   5.08636   0.92551 
 H                    -5.15577   3.47381   0.59018 
 S                    -9.74571   0.19279   0.28544 
 H                    -9.42939   3.05291   0.70118 
 F                    -9.08537  -0.92922   1.24336 
 F                    -10.41802   0.89524   1.57223 
 F                    -9.17742  -0.59132  -1.00868 
 F                    -10.51015   1.23331  -0.68112 
 F                    -11.04536  -0.74409   0.198 
 

 GradGradGradGradGradGradGradGradGradGradGradGradGradGradGradGradGradGrad
 Berny optimization.
 Initialization pass.
                           ----------------------------
                           !    Initial Parameters    !
                           ! (Angstroms and Degrees)  !
 --------------------------                            --------------------------
 ! Name  Definition              Value          Derivative Info.                !
 --------------------------------------------------------------------------------
 ! R1    R(1,2)                  1.3973         estimate D2E/DX2                !
 ! R2    R(1,9)                  1.3986         estimate D2E/DX2                !
 ! R3    R(1,13)                 1.3973         estimate D2E/DX2                !
 ! R4    R(2,3)                  1.3747         estimate D2E/DX2                !
 ! R5    R(2,14)                 1.0094         estimate D2E/DX2                !
 ! R6    R(3,4)                  1.203          estimate D2E/DX2                !
 ! R7    R(3,5)                  1.3408         estimate D2E/DX2                !
 ! R8    R(5,6)                  1.4374         estimate D2E/DX2                !
 ! R9    R(6,7)                  1.5132         estimate D2E/DX2                !
 ! R10   R(6,15)                 1.0926         estimate D2E/DX2                !
 ! R11   R(6,16)                 1.0926         estimate D2E/DX2                !
 ! R12   R(7,8)                  1.5263         estimate D2E/DX2                !
 ! R13   R(7,17)                 1.0933         estimate D2E/DX2                !
 ! R14   R(7,18)                 1.0933         estimate D2E/DX2                !
 ! R15   R(8,19)                 1.0927         estimate D2E/DX2                !
 ! R16   R(8,20)                 1.0906         estimate D2E/DX2                !
 ! R17   R(8,21)                 1.0927         estimate D2E/DX2                !
 ! R18   R(9,10)                 1.3809         estimate D2E/DX2                !
 ! R19   R(9,22)                 1.0829         estimate D2E/DX2                !
 ! R20   R(10,11)                1.3853         estimate D2E/DX2                !
 ! R21   R(10,25)                1.8105         estimate D2E/DX2                !
 ! R22   R(11,12)                1.3874         estimate D2E/DX2                !
 ! R23   R(11,26)                1.0809         estimate D2E/DX2                !
 ! R24   R(12,13)                1.388          estimate D2E/DX2                !
 ! R25   R(12,23)                1.7374         estimate D2E/DX2                !
 ! R26   R(13,24)                1.0793         estimate D2E/DX2                !
 ! R27   R(25,27)                1.6163         estimate D2E/DX2                !
 ! R28   R(25,28)                1.6128         estimate D2E/DX2                !
 ! R29   R(25,29)                1.6163         estimate D2E/DX2                !
 ! R30   R(25,30)                1.6128         estimate D2E/DX2                !
 ! R31   R(25,31)                1.6045         estimate D2E/DX2                !
 ! A1    A(2,1,9)              116.963          estimate D2E/DX2                !
 ! A2    A(2,1,13)             123.2774         estimate D2E/DX2                !
 ! A3    A(9,1,13)             119.7596         estimate D2E/DX2                !
 ! A4    A(1,2,3)              127.3888         estimate D2E/DX2                !
 ! A5    A(1,2,14)             117.406          estimate D2E/DX2                !
 ! A6    A(3,2,14)             115.2051         estimate D2E/DX2                !
 ! A7    A(2,3,4)              126.2893         estimate D2E/DX2                !
 ! A8    A(2,3,5)              108.8034         estimate D2E/DX2                !
 ! A9    A(4,3,5)              124.9073         estimate D2E/DX2                !
 ! A10   A(3,5,6)              115.4568         estimate D2E/DX2                !
 ! A11   A(5,6,7)              107.655          estimate D2E/DX2                !
 ! A12   A(5,6,15)             108.7471         estimate D2E/DX2                !
 ! A13   A(5,6,16)             108.7477         estimate D2E/DX2                !
 ! A14   A(7,6,15)             111.8462         estimate D2E/DX2                !
 ! A15   A(7,6,16)             111.8474         estimate D2E/DX2                !
 ! A16   A(15,6,16)            107.9195         estimate D2E/DX2                !
 ! A17   A(6,7,8)              110.902          estimate D2E/DX2                !
 ! A18   A(6,7,17)             109.0057         estimate D2E/DX2                !
 ! A19   A(6,7,18)             109.0045         estimate D2E/DX2                !
 ! A20   A(8,7,17)             110.4123         estimate D2E/DX2                !
 ! A21   A(8,7,18)             110.4119         estimate D2E/DX2                !
 ! A22   A(17,7,18)            107.0064         estimate D2E/DX2                !
 ! A23   A(7,8,19)             111.3114         estimate D2E/DX2                !
 ! A24   A(7,8,20)             110.9878         estimate D2E/DX2                !
 ! A25   A(7,8,21)             111.3105         estimate D2E/DX2                !
 ! A26   A(19,8,20)            107.6593         estimate D2E/DX2                !
 ! A27   A(19,8,21)            107.7355         estimate D2E/DX2                !
 ! A28   A(20,8,21)            107.6599         estimate D2E/DX2                !
 ! A29   A(1,9,10)             118.9482         estimate D2E/DX2                !
 ! A30   A(1,9,22)             120.4335         estimate D2E/DX2                !
 ! A31   A(10,9,22)            120.6183         estimate D2E/DX2                !
 ! A32   A(9,10,11)            123.0544         estimate D2E/DX2                !
 ! A33   A(9,10,25)            118.3839         estimate D2E/DX2                !
 ! A34   A(11,10,25)           118.5616         estimate D2E/DX2                !
 ! A35   A(10,11,12)           116.5994         estimate D2E/DX2                !
 ! A36   A(10,11,26)           122.2499         estimate D2E/DX2                !
 ! A37   A(12,11,26)           121.1507         estimate D2E/DX2                !
 ! A38   A(11,12,13)           122.7993         estimate D2E/DX2                !
 ! A39   A(11,12,23)           118.625          estimate D2E/DX2                !
 ! A40   A(13,12,23)           118.5757         estimate D2E/DX2                !
 ! A41   A(1,13,12)            118.8392         estimate D2E/DX2                !
 ! A42   A(1,13,24)            120.7537         estimate D2E/DX2                !
 ! A43   A(12,13,24)           120.4072         estimate D2E/DX2                !
 ! A44   A(10,25,27)            92.3538         estimate D2E/DX2                !
 ! A45   A(10,25,28)            92.3437         estimate D2E/DX2                !
 ! A46   A(10,25,29)            92.3534         estimate D2E/DX2                !
 ! A47   A(10,25,30)            92.3446         estimate D2E/DX2                !
 ! A48   A(27,25,28)            89.9881         estimate D2E/DX2                !
 ! A49   A(27,25,29)            89.6628         estimate D2E/DX2                !
 ! A50   A(27,25,31)            87.5864         estimate D2E/DX2                !
 ! A51   A(28,25,30)            89.9759         estimate D2E/DX2                !
 ! A52   A(28,25,31)            87.7159         estimate D2E/DX2                !
 ! A53   A(29,25,30)            89.9882         estimate D2E/DX2                !
 ! A54   A(29,25,31)            87.5869         estimate D2E/DX2                !
 ! A55   A(30,25,31)            87.7151         estimate D2E/DX2                !
 ! A56   L(10,25,31,27,-1)     179.9402         estimate D2E/DX2                !
 ! A57   L(27,25,30,10,-1)     184.6983         estimate D2E/DX2                !
 ! A58   L(28,25,29,10,-1)     184.6971         estimate D2E/DX2                !
 ! A59   L(10,25,31,27,-2)     180.0595         estimate D2E/DX2                !
 ! A60   L(27,25,30,10,-2)     179.8436         estimate D2E/DX2                !
 ! A61   L(28,25,29,10,-2)     179.8435         estimate D2E/DX2                !
 ! D1    D(9,1,2,3)           -179.9786         estimate D2E/DX2                !
 ! D2    D(9,1,2,14)            -0.0071         estimate D2E/DX2                !
 ! D3    D(13,1,2,3)             0.0234         estimate D2E/DX2                !
 ! D4    D(13,1,2,14)          179.9949         estimate D2E/DX2                !
 ! D5    D(2,1,9,10)           179.9997         estimate D2E/DX2                !
 ! D6    D(2,1,9,22)             0.0019         estimate D2E/DX2                !
 ! D7    D(13,1,9,10)           -0.0022         estimate D2E/DX2                !
 ! D8    D(13,1,9,22)         -180.0            estimate D2E/DX2                !
 ! D9    D(2,1,13,12)          179.9999         estimate D2E/DX2                !
 ! D10   D(2,1,13,24)           -0.0022         estimate D2E/DX2                !
 ! D11   D(9,1,13,12)            0.0019         estimate D2E/DX2                !
 ! D12   D(9,1,13,24)          179.9998         estimate D2E/DX2                !
 ! D13   D(1,2,3,4)             -0.0217         estimate D2E/DX2                !
 ! D14   D(1,2,3,5)            179.9769         estimate D2E/DX2                !
 ! D15   D(14,2,3,4)          -179.9937         estimate D2E/DX2                !
 ! D16   D(14,2,3,5)             0.0049         estimate D2E/DX2                !
 ! D17   D(2,3,5,6)            179.993          estimate D2E/DX2                !
 ! D18   D(4,3,5,6)             -0.0084         estimate D2E/DX2                !
 ! D19   D(3,5,6,7)           -179.9936         estimate D2E/DX2                !
 ! D20   D(3,5,6,15)            58.6466         estimate D2E/DX2                !
 ! D21   D(3,5,6,16)           -58.6321         estimate D2E/DX2                !
 ! D22   D(5,6,7,8)           -179.989          estimate D2E/DX2                !
 ! D23   D(5,6,7,17)            58.2478         estimate D2E/DX2                !
 ! D24   D(5,6,7,18)           -58.2271         estimate D2E/DX2                !
 ! D25   D(15,6,7,8)           -60.5846         estimate D2E/DX2                !
 ! D26   D(15,6,7,17)          177.6522         estimate D2E/DX2                !
 ! D27   D(15,6,7,18)           61.1773         estimate D2E/DX2                !
 ! D28   D(16,6,7,8)            60.6051         estimate D2E/DX2                !
 ! D29   D(16,6,7,17)          -61.1581         estimate D2E/DX2                !
 ! D30   D(16,6,7,18)         -177.6331         estimate D2E/DX2                !
 ! D31   D(6,7,8,19)           -60.1065         estimate D2E/DX2                !
 ! D32   D(6,7,8,20)           179.9983         estimate D2E/DX2                !
 ! D33   D(6,7,8,21)            60.103          estimate D2E/DX2                !
 ! D34   D(17,7,8,19)           60.8296         estimate D2E/DX2                !
 ! D35   D(17,7,8,20)          -59.0656         estimate D2E/DX2                !
 ! D36   D(17,7,8,21)         -178.961          estimate D2E/DX2                !
 ! D37   D(18,7,8,19)          178.9593         estimate D2E/DX2                !
 ! D38   D(18,7,8,20)           59.0641         estimate D2E/DX2                !
 ! D39   D(18,7,8,21)          -60.8313         estimate D2E/DX2                !
 ! D40   D(1,9,10,11)            0.0015         estimate D2E/DX2                !
 ! D41   D(1,9,10,25)         -179.9979         estimate D2E/DX2                !
 ! D42   D(22,9,10,11)         179.9993         estimate D2E/DX2                !
 ! D43   D(22,9,10,25)          -0.0001         estimate D2E/DX2                !
 ! D44   D(9,10,11,12)          -0.0006         estimate D2E/DX2                !
 ! D45   D(9,10,11,26)         179.9997         estimate D2E/DX2                !
 ! D46   D(25,10,11,12)        179.9989         estimate D2E/DX2                !
 ! D47   D(25,10,11,26)         -0.0008         estimate D2E/DX2                !
 ! D48   D(9,10,25,27)          44.8674         estimate D2E/DX2                !
 ! D49   D(9,10,25,28)         134.9518         estimate D2E/DX2                !
 ! D50   D(9,10,25,29)         -44.8916         estimate D2E/DX2                !
 ! D51   D(9,10,25,30)        -134.9763         estimate D2E/DX2                !
 ! D52   D(11,10,25,27)       -135.1321         estimate D2E/DX2                !
 ! D53   D(11,10,25,28)        -45.0477         estimate D2E/DX2                !
 ! D54   D(11,10,25,29)        135.1089         estimate D2E/DX2                !
 ! D55   D(11,10,25,30)         45.0242         estimate D2E/DX2                !
 ! D56   D(10,11,12,13)          0.0003         estimate D2E/DX2                !
 ! D57   D(10,11,12,23)        179.9999         estimate D2E/DX2                !
 ! D58   D(26,11,12,13)        180.0            estimate D2E/DX2                !
 ! D59   D(26,11,12,23)         -0.0004         estimate D2E/DX2                !
 ! D60   D(11,12,13,1)          -0.001          estimate D2E/DX2                !
 ! D61   D(11,12,13,24)       -179.9989         estimate D2E/DX2                !
 ! D62   D(23,12,13,1)         179.9994         estimate D2E/DX2                !
 ! D63   D(23,12,13,24)          0.0015         estimate D2E/DX2                !
 --------------------------------------------------------------------------------
 Trust Radius=3.00D-01 FncErr=1.00D-07 GrdErr=1.00D-06
 Number of steps in this run=    165 maximum allowed number of steps=    186.
 GradGradGradGradGradGradGradGradGradGradGradGradGradGradGradGradGradGrad

                          Input orientation:                          
 ---------------------------------------------------------------------
 Center     Atomic      Atomic             Coordinates (Angstroms)
 Number     Number       Type             X           Y           Z
 ---------------------------------------------------------------------
      1          6           0       -5.894024    1.463516    0.318964
      2          7           0       -4.659486    0.825428    0.173038
      3          6           0       -3.412212    1.402336    0.209122
      4          8           0       -3.172091    2.569463    0.374349
      5          8           0       -2.488798    0.447041    0.028678
      6          6           0       -1.123719    0.897077    0.040832
      7          6           0       -0.239991   -0.311880   -0.176159
      8          6           0        1.234045    0.084081   -0.176246
      9          6           0       -7.036032    0.659594    0.244978
     10          6           0       -8.277638    1.247834    0.383726
     11          6           0       -8.450994    2.606049    0.594345
     12          6           0       -7.298918    3.376099    0.662824
     13          6           0       -6.026201    2.838408    0.530390
     14          1           0       -4.667211   -0.172883    0.023828
     15          1           0       -0.922123    1.381292    0.999334
     16          1           0       -0.992849    1.643015   -0.746747
     17          1           0       -0.508271   -0.783247   -1.125484
     18          1           0       -0.438182   -1.043755    0.611533
     19          1           0        1.452322    0.802061   -0.970455
     20          1           0        1.872299   -0.786301   -0.332519
     21          1           0        1.522667    0.540516    0.773634
     22          1           0       -6.946274   -0.407120    0.081463
     23         17           0       -7.455313    5.086358    0.925510
     24          1           0       -5.155773    3.473810    0.590180
     25         16           0       -9.745709    0.192792    0.285439
     26          1           0       -9.429387    3.052906    0.701175
     27          9           0       -9.085368   -0.929216    1.243359
     28          9           0      -10.418019    0.895239    1.572234
     29          9           0       -9.177417   -0.591316   -1.008685
     30          9           0      -10.510148    1.233312   -0.681115
     31          9           0      -11.045357   -0.744090    0.197998
 ---------------------------------------------------------------------
                    Distance matrix (angstroms):
                    1          2          3          4          5
     1  C    0.000000
     2  N    1.397332   0.000000
     3  C    2.484995   1.374706   0.000000
     4  O    2.938555   2.300984   1.202973   0.000000
     5  O    3.565537   2.208144   1.340837   2.256337   0.000000
     6  C    4.811862   3.538962   2.349640   2.665321   1.437400
     7  C    5.946870   4.576826   3.626288   4.147579   2.382236
     8  C    7.277187   5.950235   4.844999   5.088646   3.746104
     9  C    1.398551   2.383411   3.699327   4.312119   4.557335
    10  C    2.394228   3.648814   4.871009   5.273841   5.854742
    11  C    2.814127   4.209947   5.194868   5.283612   6.366246
    12  C    2.397904   3.703029   4.382702   4.214805   5.667344
    13  C    1.397319   2.459208   2.999743   2.870997   4.299253
    14  H    2.066393   1.009429   2.022540   3.143041   2.264909
    15  H    5.018911   3.867768   2.612551   2.620060   2.066270
    16  H    5.018912   3.867645   2.612457   2.619973   2.066277
    17  H    6.011715   4.637518   3.871798   4.537192   2.601574
    18  H    6.011507   4.637405   3.871712   4.537165   2.601388
    19  H    7.487919   6.217903   5.041371   5.130050   4.081266
    20  H    8.111836   6.746664   5.745396   6.099729   4.546511
    21  H    7.487721   6.217789   5.041274   5.129992   4.081121
    22  H    2.159379   2.599415   3.972408   4.815629   4.538884
    23  Cl   3.991304   5.151543   5.516511   4.998452   6.855206
    24  H    2.158670   2.726580   2.734267   2.190758   4.073006
    25  S    4.056025   5.126649   6.448411   6.990631   7.265902
    26  H    3.895001   5.290798   6.258825   6.284447   7.444096
    27  F    4.094429   4.879836   6.220167   6.925516   6.847209
    28  F    4.728653   5.926494   7.155177   7.532690   8.090488
    29  F    4.094589   4.880096   6.220554   6.925839   6.847768
    30  F    4.728821   5.926736   7.155542   7.533019   8.090988
    31  F    5.605746   6.575969   7.929197   8.543948   8.640727
                    6          7          8          9         10
     6  C    0.000000
     7  C    1.513155   0.000000
     8  C    2.503426   1.526292   0.000000
     9  C    5.920600   6.878029   8.300772   0.000000
    10  C    7.170715   8.206701   9.598959   1.380892   0.000000
    11  C    7.544264   8.748060  10.037636   2.431638   1.385337
    12  C    6.683226   8.008342   9.184383   2.760997   2.359089
    13  C    5.295542   6.625991   7.797232   2.418356   2.760508
    14  H    3.701545   4.433913   5.910235   2.520563   3.896556
    15  H    1.092626   2.171157   2.777375   6.202401   7.382438
    16  H    1.092626   2.171170   2.777554   6.202475   7.382566
    17  H    2.136015   1.093334   2.165404   6.824340   8.171051
    18  H    2.135999   1.093334   2.165399   6.824030   8.170701
    19  H    2.769065   2.176166   1.092661   8.576114   9.833852
    20  H    3.456773   2.170552   1.090575   9.043367  10.376509
    21  H    2.769025   2.176155   1.092661   8.575837   9.833530
    22  H    5.966969   6.711905   8.199104   1.082901   2.145406
    23  Cl   7.643416   9.078299  10.086704   4.498351   3.962829
    24  H    4.816513   6.251691   7.273751   3.402109   3.839744
    25  S    8.654164   9.530291  10.989994   2.749890   1.810527
    26  H    8.606263   9.825298  11.103719   3.415290   2.164621
    27  F    8.256468   8.979801  10.465770   2.778644   2.476075
    28  F    9.419618  10.397416  11.810409   3.640738   2.473480
    29  F    8.257048   8.980465  10.466501   2.778845   2.476062
    30  F    9.420154  10.398015  11.811084   3.640918   2.473499
    31  F   10.057685  10.820477  12.312987   4.248203   3.415044
                   11         12         13         14         15
    11  C    0.000000
    12  C    1.387424   0.000000
    13  C    2.436740   1.387970   0.000000
    14  H    4.729162   4.464244   3.342355   0.000000
    15  H    7.638583   6.689993   5.328669   4.170462   0.000000
    16  H    7.638710   6.690066   5.328666   4.170396   1.767004
    17  H    8.805225   8.161563   6.804841   4.357779   3.061267
    18  H    8.804915   8.161339   6.804685   4.357579   2.503087
    19  H   10.187181   9.267011   7.894780   6.275970   3.139040
    20  H   10.905848  10.120648   8.733238   6.577876   3.779033
    21  H   10.186879   9.266778   7.894611   6.275805   2.595158
    22  H    3.406820   3.843838   3.403164   2.291794   6.350693
    23  Cl   2.693137   1.737368   2.692909   6.020479   7.511027
    24  H    3.407567   2.146601   1.079331   3.722609   4.740235
    25  S    2.755996   4.032697   4.570998   5.098363   8.931845
    26  H    1.080900   2.155184   3.414213   5.791618   8.675063
    27  F    3.649897   4.697251   4.905285   4.645365   8.487436
    28  F    2.784299   4.087846   4.914205   6.050640   9.525571
    29  F    3.649731   4.697136   4.905295   4.645764   8.721995
    30  F    2.784118   4.087750   4.914250   6.050971   9.735298
    31  F    4.255730   5.588186   6.175492   6.406041  10.374934
                   16         17         18         19         20
    16  H    0.000000
    17  H    2.503000   0.000000
    18  H    3.061260   1.757841   0.000000
    19  H    2.595402   2.526096   3.079566   0.000000
    20  H    3.779185   2.509167   2.509151   1.762453   0.000000
    21  H    3.139249   3.079563   2.526088   1.764994   1.762459
    22  H    6.350768   6.560951   6.560605   8.550150   8.836424
    23  Cl   7.511091   9.323102   9.322928  10.064584  11.093923
    24  H    4.740161   6.531870   6.531808   7.296626   8.270050
    25  S    8.932027   9.395404   9.394969  11.284697  11.675556
    26  H    8.675220   9.881248   9.880912  11.237092  11.980657
    27  F    8.721569   8.899400   8.670995  10.906017  11.071327
    28  F    9.735023  10.406638  10.211748  12.139973  12.550203
    29  F    8.488109   8.672057   8.899665  10.720742  11.072102
    30  F    9.526339  10.212811  10.406751  11.973737  12.550911
    31  F   10.375150  10.619949  10.619462  12.647049  12.928615
                   21         22         23         24         25
    21  H    0.000000
    22  H    8.549858   0.000000
    23  Cl  10.064386   5.581204   0.000000
    24  H    7.296536   4.304220   2.828540   0.000000
    25  S   11.284305   2.870251   5.440826   5.650262   0.000000
    26  H   11.236763   4.303682   2.842925   4.295725   2.907430
    27  F   10.719662   2.489640   6.240612   5.937592   1.616343
    28  F   11.972618   3.996442   5.173138   5.941775   1.612847
    29  F   10.906397   2.490050   6.240412   5.937612   1.616335
    30  F   12.140218   3.996717   5.172932   5.941830   1.612847
    31  F   12.646612   4.114561   6.885624   7.254770   1.604518
                   26         27         28         29         30
    26  H    0.000000
    27  F    4.033561   0.000000
    28  F    2.528174   2.283146   0.000000
    29  F    4.033295   2.279112   3.226466   0.000000
    30  F    2.527784   3.226473   2.280431   2.283143   0.000000
    31  F    4.157129   2.229038   2.229232   2.229041   2.229217
                   31
    31  F    0.000000
 Stoichiometry    C10H11ClF5NO2S
 Framework group  C1[X(C10H11ClF5NO2S)]
 Deg. of freedom    87
 Full point group                 C1      NOp   1
 Largest Abelian subgroup         C1      NOp   1
 Largest concise Abelian subgroup C1      NOp   1
                         Standard orientation:                         
 ---------------------------------------------------------------------
 Center     Atomic      Atomic             Coordinates (Angstroms)
 Number     Number       Type             X           Y           Z
 ---------------------------------------------------------------------
      1          6           0        0.592396    0.239894   -0.000344
      2          7           0        1.835707   -0.397848   -0.000563
      3          6           0        3.076949    0.193028   -0.000250
      4          8           0        3.303048    1.374562   -0.000094
      5          8           0        4.012731   -0.767261   -0.000111
      6          6           0        5.373424   -0.303973    0.000061
      7          6           0        6.272583   -1.520998    0.000039
      8          6           0        7.742968   -1.111686    0.000489
      9          6           0       -0.540747   -0.579820   -0.000286
     10          6           0       -1.790525    0.007478   -0.000065
     11          6           0       -1.980562    1.379719    0.000071
     12          6           0       -0.836928    2.165244   -0.000012
     13          6           0        0.443369    1.629243   -0.000226
     14          1           0        1.840129   -1.407268   -0.000554
     15          1           0        5.532214    0.318843    0.883643
     16          1           0        5.532386    0.319027   -0.883360
     17          1           0        6.046711   -2.130556   -0.879052
     18          1           0        6.046271   -2.130884    0.878788
     19          1           0        7.989701   -0.516262   -0.881838
     20          1           0        8.392332   -1.987860    0.000504
     21          1           0        7.989230   -0.516569    0.883156
     22          1           0       -0.437927   -1.657829   -0.000375
     23         17           0       -1.014277    3.893537    0.000149
     24          1           0        1.306765    2.276934   -0.000266
     25         16           0       -3.246940   -1.068096    0.000066
     26          1           0       -2.965189    1.825649    0.000239
     27          9           0       -2.620205   -2.028350    1.139224
     28          9           0       -3.976203   -0.191499    1.140691
     29          9           0       -2.620813   -2.027788   -1.139888
     30          9           0       -3.976837   -0.190959   -1.139739
     31          9           0       -4.536235   -2.023187    0.000184
 ---------------------------------------------------------------------
 Rotational constants (GHZ):      0.4461125      0.1174702      0.0966648
 Standard basis: 6-311+G(d) (5D, 7F)
 There are   509 symmetry adapted cartesian basis functions of A   symmetry.
 There are   489 symmetry adapted basis functions of A   symmetry.
   489 basis functions,   806 primitive gaussians,   509 cartesian basis functions
    86 alpha electrons       86 beta electrons
       nuclear repulsion energy      2007.5868262429 Hartrees.
 NAtoms=   31 NActive=   31 NUniq=   31 SFac= 1.00D+00 NAtFMM=   60 NAOKFM=F Big=F
 Integral buffers will be    131072 words long.
 Raffenetti 2 integral format.
 Two-electron integral symmetry is turned on.
 Nuclear repulsion after empirical dispersion term =     2007.5852779223 Hartrees.
 One-electron integrals computed using PRISM.
 NBasis=   489 RedAO= T EigKep=  1.34D-06  NBF=   489
 NBsUse=   487 1.00D-06 EigRej=  6.74D-07 NBFU=   487
 ExpMin= 4.05D-02 ExpMax= 1.06D+05 ExpMxC= 3.62D+03 IAcc=3 IRadAn=         5 AccDes= 0.00D+00
 Harris functional with IExCor= 1009 and IRadAn=       5 diagonalized for initial guess.
 HarFok:  IExCor= 1009 AccDes= 0.00D+00 IRadAn=         5 IDoV= 1 UseB2=F ITyADJ=14
 ICtDFT=  3500011 ScaDFX=  1.000000  1.000000  1.000000  1.000000
 FoFCou: FMM=F IPFlag=           0 FMFlag=      100000 FMFlg1=           0
         NFxFlg=           0 DoJE=T BraDBF=F KetDBF=T FulRan=T
         wScrn=  0.000000 ICntrl=     500 IOpCl=  0 I1Cent=   200000004 NGrid=           0
         NMat0=    1 NMatS0=      1 NMatT0=    0 NMatD0=    1 NMtDS0=    0 NMtDT0=    0
 Petite list used in FoFCou.
 Requested convergence on RMS density matrix=1.00D-08 within 128 cycles.
 Requested convergence on MAX density matrix=1.00D-06.
 Requested convergence on             energy=1.00D-06.
 No special actions if energy rises.
 SCF Done:  E(RM062X) =  -1950.29244997     A.U. after   15 cycles
            NFock= 15  Conv=0.89D-08     -V/T= 2.0024

 **********************************************************************

            Population analysis using the SCF density.

 **********************************************************************

 Orbital symmetries:
       Occupied  (A) (A) (A) (A) (A) (A) (A) (A) (A) (A) (A) (A)
                 (A) (A) (A) (A) (A) (A) (A) (A) (A) (A) (A) (A)
                 (A) (A) (A) (A) (A) (A) (A) (A) (A) (A) (A) (A)
                 (A) (A) (A) (A) (A) (A) (A) (A) (A) (A) (A) (A)
                 (A) (A) (A) (A) (A) (A) (A) (A) (A) (A) (A) (A)
                 (A) (A) (A) (A) (A) (A) (A) (A) (A) (A) (A) (A)
                 (A) (A) (A) (A) (A) (A) (A) (A) (A) (A) (A) (A)
                 (A) (A)
       Virtual   (A) (A) (A) (A) (A) (A) (A) (A) (A) (A) (A) (A)
                 (A) (A) (A) (A) (A) (A) (A) (A) (A) (A) (A) (A)
                 (A) (A) (A) (A) (A) (A) (A) (A) (A) (A) (A) (A)
                 (A) (A) (A) (A) (A) (A) (A) (A) (A) (A) (A) (A)
                 (A) (A) (A) (A) (A) (A) (A) (A) (A) (A) (A) (A)
                 (A) (A) (A) (A) (A) (A) (A) (A) (A) (A) (A) (A)
                 (A) (A) (A) (A) (A) (A) (A) (A) (A) (A) (A) (A)
                 (A) (A) (A) (A) (A) (A) (A) (A) (A) (A) (A) (A)
                 (A) (A) (A) (A) (A) (A) (A) (A) (A) (A) (A) (A)
                 (A) (A) (A) (A) (A) (A) (A) (A) (A) (A) (A) (A)
                 (A) (A) (A) (A) (A) (A) (A) (A) (A) (A) (A) (A)
                 (A) (A) (A) (A) (A) (A) (A) (A) (A) (A) (A) (A)
                 (A) (A) (A) (A) (A) (A) (A) (A) (A) (A) (A) (A)
                 (A) (A) (A) (A) (A) (A) (A) (A) (A) (A) (A) (A)
                 (A) (A) (A) (A) (A) (A) (A) (A) (A) (A) (A) (A)
                 (A) (A) (A) (A) (A) (A) (A) (A) (A) (A) (A) (A)
                 (A) (A) (A) (A) (A) (A) (A) (A) (A) (A) (A) (A)
                 (A) (A) (A) (A) (A) (A) (A) (A) (A) (A) (A) (A)
                 (A) (A) (A) (A) (A) (A) (A) (A) (A) (A) (A) (A)
                 (A) (A) (A) (A) (A) (A) (A) (A) (A) (A) (A) (A)
                 (A) (A) (A) (A) (A) (A) (A) (A) (A) (A) (A) (A)
                 (A) (A) (A) (A) (A) (A) (A) (A) (A) (A) (A) (A)
                 (A) (A) (A) (A) (A) (A) (A) (A) (A) (A) (A) (A)
                 (A) (A) (A) (A) (A) (A) (A) (A) (A) (A) (A) (A)
                 (A) (A) (A) (A) (A) (A) (A) (A) (A) (A) (A) (A)
                 (A) (A) (A) (A) (A) (A) (A) (A) (A) (A) (A) (A)
                 (A) (A) (A) (A) (A) (A) (A) (A) (A) (A) (A) (A)
                 (A) (A) (A) (A) (A) (A) (A) (A) (A) (A) (A) (A)
                 (A) (A) (A) (A) (A) (A) (A) (A) (A) (A) (A) (A)
                 (A) (A) (A) (A) (A) (A) (A) (A) (A) (A) (A) (A)
                 (A) (A) (A) (A) (A) (A) (A) (A) (A) (A) (A) (A)
                 (A) (A) (A) (A) (A) (A) (A) (A) (A) (A) (A) (A)
                 (A) (A) (A) (A) (A) (A) (A) (A) (A) (A) (A) (A)
                 (A) (A) (A) (A) (A)
 The electronic state is 1-A.
 Alpha  occ. eigenvalues -- -102.69290 -90.28824 -25.29120 -25.29120 -25.29112
 Alpha  occ. eigenvalues --  -25.29112 -25.28977 -19.68946 -19.62974 -14.82044
 Alpha  occ. eigenvalues --  -10.72595 -10.63989 -10.63869 -10.62496 -10.61150
 Alpha  occ. eigenvalues --  -10.59359 -10.58959 -10.58075 -10.55429 -10.54338
 Alpha  occ. eigenvalues --   -9.83559  -8.61118  -7.56078  -7.55390  -7.55375
 Alpha  occ. eigenvalues --   -6.53551  -6.53540  -6.53106  -1.51096  -1.40965
 Alpha  occ. eigenvalues --   -1.40866  -1.37994  -1.36435  -1.27094  -1.17189
 Alpha  occ. eigenvalues --   -1.09729  -1.03075  -0.98347  -0.94310  -0.91541
 Alpha  occ. eigenvalues --   -0.88394  -0.86838  -0.81811  -0.77595  -0.75374
 Alpha  occ. eigenvalues --   -0.74429  -0.74053  -0.71925  -0.69773  -0.67532
 Alpha  occ. eigenvalues --   -0.66582  -0.64917  -0.62987  -0.62623  -0.62250
 Alpha  occ. eigenvalues --   -0.60945  -0.60938  -0.58947  -0.57630  -0.56396
 Alpha  occ. eigenvalues --   -0.56175  -0.56116  -0.56063  -0.55740  -0.55501
 Alpha  occ. eigenvalues --   -0.53631  -0.53361  -0.52772  -0.52230  -0.52224
 Alpha  occ. eigenvalues --   -0.51123  -0.50709  -0.48658  -0.48293  -0.47200
 Alpha  occ. eigenvalues --   -0.45716  -0.44986  -0.44566  -0.42352  -0.42203
 Alpha  occ. eigenvalues --   -0.40540  -0.39704  -0.39685  -0.38737  -0.33750
 Alpha  occ. eigenvalues --   -0.31038
 Alpha virt. eigenvalues --   -0.03030  -0.02630  -0.01562  -0.00432   0.01128
 Alpha virt. eigenvalues --    0.01641   0.02490   0.02684   0.03282   0.03906
 Alpha virt. eigenvalues --    0.04189   0.04410   0.04829   0.05061   0.05700
 Alpha virt. eigenvalues --    0.06000   0.06423   0.06425   0.07239   0.07478
 Alpha virt. eigenvalues --    0.07592   0.08163   0.08846   0.08994   0.09468
 Alpha virt. eigenvalues --    0.10603   0.10877   0.11062   0.11523   0.11717
 Alpha virt. eigenvalues --    0.12431   0.12597   0.12774   0.13149   0.13774
 Alpha virt. eigenvalues --    0.14106   0.14387   0.14866   0.15941   0.16773
 Alpha virt. eigenvalues --    0.16916   0.17195   0.18019   0.18213   0.19225
 Alpha virt. eigenvalues --    0.19263   0.19701   0.19887   0.19908   0.19970
 Alpha virt. eigenvalues --    0.20385   0.21128   0.21695   0.22117   0.22568
 Alpha virt. eigenvalues --    0.22639   0.23153   0.23534   0.24065   0.24321
 Alpha virt. eigenvalues --    0.24573   0.25055   0.25285   0.26356   0.26669
 Alpha virt. eigenvalues --    0.26766   0.27137   0.27252   0.28132   0.28196
 Alpha virt. eigenvalues --    0.28394   0.29069   0.29744   0.30335   0.30721
 Alpha virt. eigenvalues --    0.31006   0.31309   0.31870   0.32001   0.32400
 Alpha virt. eigenvalues --    0.33147   0.33976   0.34041   0.34768   0.35029
 Alpha virt. eigenvalues --    0.35879   0.36151   0.37158   0.37605   0.37869
 Alpha virt. eigenvalues --    0.38371   0.38611   0.38885   0.39167   0.40880
 Alpha virt. eigenvalues --    0.41601   0.42179   0.42658   0.43247   0.43758
 Alpha virt. eigenvalues --    0.45047   0.45483   0.46148   0.46744   0.47381
 Alpha virt. eigenvalues --    0.47760   0.48082   0.48442   0.48453   0.49001
 Alpha virt. eigenvalues --    0.49547   0.50983   0.51475   0.53107   0.53496
 Alpha virt. eigenvalues --    0.54556   0.54606   0.56067   0.56905   0.57020
 Alpha virt. eigenvalues --    0.58174   0.58592   0.59524   0.60667   0.60765
 Alpha virt. eigenvalues --    0.60914   0.61804   0.62840   0.63109   0.63386
 Alpha virt. eigenvalues --    0.63586   0.66410   0.66501   0.66936   0.67503
 Alpha virt. eigenvalues --    0.68533   0.68793   0.69317   0.70459   0.70700
 Alpha virt. eigenvalues --    0.71518   0.72468   0.72884   0.73112   0.74501
 Alpha virt. eigenvalues --    0.74648   0.75782   0.76241   0.76679   0.77196
 Alpha virt. eigenvalues --    0.79696   0.80136   0.81430   0.83873   0.85398
 Alpha virt. eigenvalues --    0.88080   0.88252   0.90098   0.90532   0.91335
 Alpha virt. eigenvalues --    0.91781   0.92295   0.92854   0.94195   0.95170
 Alpha virt. eigenvalues --    0.97886   0.99180   0.99400   0.99450   1.02307
 Alpha virt. eigenvalues --    1.02460   1.03393   1.03735   1.05500   1.05982
 Alpha virt. eigenvalues --    1.06857   1.08874   1.10489   1.11860   1.12057
 Alpha virt. eigenvalues --    1.13634   1.15434   1.18199   1.18538   1.20470
 Alpha virt. eigenvalues --    1.21042   1.21367   1.22964   1.24326   1.25644
 Alpha virt. eigenvalues --    1.25897   1.27748   1.29900   1.30353   1.32971
 Alpha virt. eigenvalues --    1.33803   1.35539   1.36611   1.37400   1.38317
 Alpha virt. eigenvalues --    1.38621   1.39262   1.42179   1.42882   1.44161
 Alpha virt. eigenvalues --    1.44528   1.47837   1.48859   1.49508   1.50197
 Alpha virt. eigenvalues --    1.51726   1.51829   1.54275   1.54489   1.55830
 Alpha virt. eigenvalues --    1.57039   1.57343   1.59772   1.61006   1.61460
 Alpha virt. eigenvalues --    1.62579   1.62700   1.64852   1.67382   1.68378
 Alpha virt. eigenvalues --    1.68498   1.70981   1.72791   1.73926   1.76200
 Alpha virt. eigenvalues --    1.77238   1.77258   1.78366   1.82890   1.82900
 Alpha virt. eigenvalues --    1.84408   1.85496   1.88096   1.88362   1.90313
 Alpha virt. eigenvalues --    1.90968   1.91937   1.92663   1.96714   1.98169
 Alpha virt. eigenvalues --    1.98843   2.02156   2.02486   2.05740   2.06600
 Alpha virt. eigenvalues --    2.06682   2.07803   2.10890   2.15438   2.16636
 Alpha virt. eigenvalues --    2.17047   2.21554   2.24668   2.24929   2.27521
 Alpha virt. eigenvalues --    2.29750   2.33781   2.34505   2.36312   2.39866
 Alpha virt. eigenvalues --    2.41658   2.45640   2.49331   2.49567   2.51191
 Alpha virt. eigenvalues --    2.53611   2.55021   2.58139   2.58706   2.59012
 Alpha virt. eigenvalues --    2.60057   2.63847   2.64986   2.69344   2.70657
 Alpha virt. eigenvalues --    2.72544   2.73084   2.78867   2.81115   2.83063
 Alpha virt. eigenvalues --    2.86195   2.91967   2.92343   2.93902   2.97446
 Alpha virt. eigenvalues --    3.00252   3.01964   3.03387   3.05608   3.09817
 Alpha virt. eigenvalues --    3.10643   3.15535   3.17002   3.18557   3.20058
 Alpha virt. eigenvalues --    3.24365   3.27099   3.27836   3.28367   3.28698
 Alpha virt. eigenvalues --    3.33741   3.35052   3.38097   3.40562   3.43668
 Alpha virt. eigenvalues --    3.45804   3.54492   3.61160   3.68173   3.70343
 Alpha virt. eigenvalues --    3.73665   3.78912   3.79386   3.79893   3.80231
 Alpha virt. eigenvalues --    3.80699   3.82573   3.83138   3.83357   3.83650
 Alpha virt. eigenvalues --    3.84135   3.85195   3.86290   3.87904   3.88154
 Alpha virt. eigenvalues --    3.88903   3.89859   3.90805   3.91192   3.91479
 Alpha virt. eigenvalues --    3.93894   3.96084   3.97118   4.01027   4.02866
 Alpha virt. eigenvalues --    4.07393   4.09564   4.10581   4.17725   4.28246
 Alpha virt. eigenvalues --    4.29697   4.30406   4.33205   4.37106   4.55178
 Alpha virt. eigenvalues --    4.77278   5.06556   5.09054   5.15006   5.36060
 Alpha virt. eigenvalues --    5.49531   5.79465   5.95133   6.35089   6.36917
 Alpha virt. eigenvalues --    6.38314   6.40729   6.42186   6.43464   6.47075
 Alpha virt. eigenvalues --    6.52320   6.52638   6.53694   6.55171   6.63305
 Alpha virt. eigenvalues --    6.64604   6.65141   6.70246   8.22500   9.96141
 Alpha virt. eigenvalues --   17.51012  17.55559  17.60752  23.45873  23.56097
 Alpha virt. eigenvalues --   23.70830  23.80315  23.90842  23.92187  23.95840
 Alpha virt. eigenvalues --   24.07480  24.09817  24.18552  25.93009  26.23631
 Alpha virt. eigenvalues --   26.71314  35.64029  50.00786  50.12820  66.89012
 Alpha virt. eigenvalues --   66.91146  66.96294  66.98205  67.06797 189.46098
 Alpha virt. eigenvalues --  216.06205
          Condensed to atoms (all electrons):
               1          2          3          4          5          6
     1  C   45.386524  -0.606054  -0.552775  -0.501481  -0.353245  -0.872859
     2  N   -0.606054   7.723254   0.051429   0.016364  -0.258213  -0.372999
     3  C   -0.552775   0.051429   9.939213   0.536729   0.266065  -0.597550
     4  O   -0.501481   0.016364   0.536729   8.033257  -0.196377  -0.113386
     5  O   -0.353245  -0.258213   0.266065  -0.196377   8.361760   0.484859
     6  C   -0.872859  -0.372999  -0.597550  -0.113386   0.484859   8.543311
     7  C   -0.044756   0.045233   0.145419   0.026513  -0.183856  -1.006766
     8  C   -0.022944  -0.006239  -0.261728   0.002598   0.039233   0.345891
     9  C   -9.606345   0.438052  -2.701892  -0.224586  -0.262586  -0.493249
    10  C   -6.646518   0.508316  -1.559289  -0.006689   0.021510  -0.135691
    11  C  -14.326336   0.031595  -0.594912  -0.020175  -0.024742  -0.051355
    12  C   -5.992604   0.111416   0.369659   0.181221   0.057787   0.047801
    13  C    2.379775  -0.431611   0.791506   0.540246   0.158946   0.014052
    14  H    0.030366   0.251415   0.016761   0.001243   0.028960  -0.003602
    15  H    0.011166   0.005592   0.047807  -0.002423  -0.044909   0.344601
    16  H    0.011125   0.005618   0.047927  -0.002420  -0.044911   0.344426
    17  H    0.000525  -0.000957   0.008443  -0.000299   0.000839  -0.064753
    18  H    0.000517  -0.000952   0.008469  -0.000299   0.000848  -0.064830
    19  H   -0.000079  -0.000051  -0.000587  -0.000075  -0.000417  -0.047814
    20  H    0.000169   0.000032   0.008267   0.000029  -0.000683   0.089966
    21  H   -0.000078  -0.000051  -0.000577  -0.000076  -0.000420  -0.047800
    22  H    0.277993  -0.025772   0.008726  -0.000004  -0.000412   0.000314
    23  Cl  -0.032512   0.002280  -0.012248   0.000387   0.000496   0.001062
    24  H   -0.029740  -0.027163   0.149751   0.004989   0.002728   0.017830
    25  S   -1.065606   0.022448  -0.127959  -0.000342   0.001039  -0.006256
    26  H    0.010063   0.001276   0.001105   0.000006   0.000005   0.000017
    27  F   -0.411626   0.001648  -0.009571   0.000002   0.000027  -0.000088
    28  F    0.172984   0.000302   0.001220  -0.000002   0.000002   0.000010
    29  F   -0.411675   0.001644  -0.009580   0.000002   0.000027  -0.000088
    30  F    0.172829   0.000302   0.001215  -0.000002   0.000002   0.000010
    31  F   -0.050160  -0.000313   0.000010  -0.000000  -0.000001   0.000001
               7          8          9         10         11         12
     1  C   -0.044756  -0.022944  -9.606345  -6.646518 -14.326336  -5.992604
     2  N    0.045233  -0.006239   0.438052   0.508316   0.031595   0.111416
     3  C    0.145419  -0.261728  -2.701892  -1.559289  -0.594912   0.369659
     4  O    0.026513   0.002598  -0.224586  -0.006689  -0.020175   0.181221
     5  O   -0.183856   0.039233  -0.262586   0.021510  -0.024742   0.057787
     6  C   -1.006766   0.345891  -0.493249  -0.135691  -0.051355   0.047801
     7  C    6.571486  -0.160382   0.079781  -0.007439   0.004759  -0.014555
     8  C   -0.160382   6.073973  -0.009929  -0.002133  -0.000051   0.001340
     9  C    0.079781  -0.009929  41.817567 -10.997514   8.268950 -12.232757
    10  C   -0.007439  -0.002133 -10.997514  49.433153 -12.140109  -1.420936
    11  C    0.004759  -0.000051   8.268950 -12.140109  32.176817  -6.067380
    12  C   -0.014555   0.001340 -12.232757  -1.420936  -6.067380  27.521147
    13  C   -0.043893  -0.000283  -8.583909  -6.745382  -3.388243   3.587274
    14  H   -0.002522  -0.000461  -0.169028  -0.026803  -0.018830   0.031151
    15  H   -0.021924  -0.015723   0.002705  -0.000072   0.000168  -0.000632
    16  H   -0.021815  -0.015773   0.002703  -0.000075   0.000169  -0.000629
    17  H    0.441961  -0.045701   0.000033   0.000021   0.000002   0.000008
    18  H    0.442080  -0.045761   0.000034   0.000020   0.000002   0.000008
    19  H    0.014392   0.378820   0.000020  -0.000000   0.000000  -0.000004
    20  H   -0.136285   0.391127  -0.000011   0.000002  -0.000000   0.000001
    21  H    0.014349   0.378834   0.000020  -0.000000   0.000000  -0.000004
    22  H   -0.000110   0.000002   0.094642   0.009816  -0.127732   0.005947
    23  Cl  -0.000096   0.000021   0.232158  -0.331798   0.317154  -1.183916
    24  H   -0.000567   0.000109  -0.058489  -0.005292   0.014368  -0.078995
    25  S   -0.000095  -0.000041   0.197855  -2.745142   1.291899   0.449349
    26  H   -0.000000   0.000000  -0.127615   0.052430   0.165619   0.165094
    27  F   -0.000002  -0.000000  -0.315486   0.201904   0.414786   0.131107
    28  F   -0.000000   0.000000   0.372064   0.166951  -0.366602  -0.235131
    29  F   -0.000002  -0.000000  -0.315677   0.201789   0.414929   0.131230
    30  F   -0.000000   0.000000   0.371944   0.166867  -0.366377  -0.235012
    31  F    0.000000  -0.000000   0.077149  -0.000999   0.085283  -0.042716
              13         14         15         16         17         18
     1  C    2.379775   0.030366   0.011166   0.011125   0.000525   0.000517
     2  N   -0.431611   0.251415   0.005592   0.005618  -0.000957  -0.000952
     3  C    0.791506   0.016761   0.047807   0.047927   0.008443   0.008469
     4  O    0.540246   0.001243  -0.002423  -0.002420  -0.000299  -0.000299
     5  O    0.158946   0.028960  -0.044909  -0.044911   0.000839   0.000848
     6  C    0.014052  -0.003602   0.344601   0.344426  -0.064753  -0.064830
     7  C   -0.043893  -0.002522  -0.021924  -0.021815   0.441961   0.442080
     8  C   -0.000283  -0.000461  -0.015723  -0.015773  -0.045701  -0.045761
     9  C   -8.583909  -0.169028   0.002705   0.002703   0.000033   0.000034
    10  C   -6.745382  -0.026803  -0.000072  -0.000075   0.000021   0.000020
    11  C   -3.388243  -0.018830   0.000168   0.000169   0.000002   0.000002
    12  C    3.587274   0.031151  -0.000632  -0.000629   0.000008   0.000008
    13  C   17.399776   0.123343  -0.004245  -0.004224   0.000098   0.000099
    14  H    0.123343   0.319223  -0.000019  -0.000018   0.000003   0.000003
    15  H   -0.004245  -0.000019   0.448003  -0.040074   0.005413  -0.007816
    16  H   -0.004224  -0.000018  -0.040074   0.447995  -0.007820   0.005411
    17  H    0.000098   0.000003   0.005413  -0.007820   0.444206  -0.036761
    18  H    0.000099   0.000003  -0.007816   0.005411  -0.036761   0.444189
    19  H   -0.000026  -0.000000  -0.000535   0.003774  -0.008097   0.006126
    20  H    0.000036  -0.000000  -0.000196  -0.000197  -0.003221  -0.003222
    21  H   -0.000026  -0.000000   0.003776  -0.000534   0.006127  -0.008096
    22  H    0.043157   0.008594  -0.000001  -0.000001  -0.000000  -0.000000
    23  Cl   0.192743   0.000392   0.000005   0.000005   0.000000   0.000000
    24  H    0.341897   0.000102  -0.000040  -0.000040  -0.000000  -0.000000
    25  S    0.134267   0.002742   0.000000   0.000000   0.000001   0.000001
    26  H    0.008409  -0.000007  -0.000000  -0.000000   0.000000   0.000000
    27  F   -0.037559  -0.000234  -0.000000  -0.000000   0.000000   0.000000
    28  F    0.001182   0.000016  -0.000000  -0.000000   0.000000  -0.000000
    29  F   -0.037540  -0.000234  -0.000000  -0.000000   0.000000   0.000000
    30  F    0.001192   0.000016  -0.000000  -0.000000  -0.000000   0.000000
    31  F   -0.004019  -0.000004  -0.000000  -0.000000  -0.000000  -0.000000
              19         20         21         22         23         24
     1  C   -0.000079   0.000169  -0.000078   0.277993  -0.032512  -0.029740
     2  N   -0.000051   0.000032  -0.000051  -0.025772   0.002280  -0.027163
     3  C   -0.000587   0.008267  -0.000577   0.008726  -0.012248   0.149751
     4  O   -0.000075   0.000029  -0.000076  -0.000004   0.000387   0.004989
     5  O   -0.000417  -0.000683  -0.000420  -0.000412   0.000496   0.002728
     6  C   -0.047814   0.089966  -0.047800   0.000314   0.001062   0.017830
     7  C    0.014392  -0.136285   0.014349  -0.000110  -0.000096  -0.000567
     8  C    0.378820   0.391127   0.378834   0.000002   0.000021   0.000109
     9  C    0.000020  -0.000011   0.000020   0.094642   0.232158  -0.058489
    10  C   -0.000000   0.000002  -0.000000   0.009816  -0.331798  -0.005292
    11  C    0.000000  -0.000000   0.000000  -0.127732   0.317154   0.014368
    12  C   -0.000004   0.000001  -0.000004   0.005947  -1.183916  -0.078995
    13  C   -0.000026   0.000036  -0.000026   0.043157   0.192743   0.341897
    14  H   -0.000000  -0.000000  -0.000000   0.008594   0.000392   0.000102
    15  H   -0.000535  -0.000196   0.003776  -0.000001   0.000005  -0.000040
    16  H    0.003774  -0.000197  -0.000534  -0.000001   0.000005  -0.000040
    17  H   -0.008097  -0.003221   0.006127  -0.000000   0.000000  -0.000000
    18  H    0.006126  -0.003222  -0.008096  -0.000000   0.000000  -0.000000
    19  H    0.456927  -0.024817  -0.037729  -0.000000  -0.000000  -0.000000
    20  H   -0.024817   0.428535  -0.024815   0.000000   0.000000   0.000000
    21  H   -0.037729  -0.024815   0.456928  -0.000000  -0.000000  -0.000000
    22  H   -0.000000   0.000000  -0.000000   0.406735   0.000209   0.000018
    23  Cl  -0.000000   0.000000  -0.000000   0.000209  17.414834  -0.012847
    24  H   -0.000000   0.000000  -0.000000   0.000018  -0.012847   0.349310
    25  S   -0.000000   0.000000  -0.000000   0.030958  -0.013283  -0.001680
    26  H    0.000000   0.000000   0.000000  -0.000055  -0.015963  -0.000265
    27  F    0.000000   0.000000   0.000000  -0.000775  -0.000093  -0.000018
    28  F   -0.000000   0.000000   0.000000  -0.000149  -0.000640   0.000007
    29  F    0.000000   0.000000   0.000000  -0.000778  -0.000093  -0.000018
    30  F    0.000000   0.000000  -0.000000  -0.000149  -0.000639   0.000007
    31  F    0.000000   0.000000   0.000000  -0.001260   0.000239   0.000000
              25         26         27         28         29         30
     1  C   -1.065606   0.010063  -0.411626   0.172984  -0.411675   0.172829
     2  N    0.022448   0.001276   0.001648   0.000302   0.001644   0.000302
     3  C   -0.127959   0.001105  -0.009571   0.001220  -0.009580   0.001215
     4  O   -0.000342   0.000006   0.000002  -0.000002   0.000002  -0.000002
     5  O    0.001039   0.000005   0.000027   0.000002   0.000027   0.000002
     6  C   -0.006256   0.000017  -0.000088   0.000010  -0.000088   0.000010
     7  C   -0.000095  -0.000000  -0.000002  -0.000000  -0.000002  -0.000000
     8  C   -0.000041   0.000000  -0.000000   0.000000  -0.000000   0.000000
     9  C    0.197855  -0.127615  -0.315486   0.372064  -0.315677   0.371944
    10  C   -2.745142   0.052430   0.201904   0.166951   0.201789   0.166867
    11  C    1.291899   0.165619   0.414786  -0.366602   0.414929  -0.366377
    12  C    0.449349   0.165094   0.131107  -0.235131   0.131230  -0.235012
    13  C    0.134267   0.008409  -0.037559   0.001182  -0.037540   0.001192
    14  H    0.002742  -0.000007  -0.000234   0.000016  -0.000234   0.000016
    15  H    0.000000  -0.000000  -0.000000  -0.000000  -0.000000  -0.000000
    16  H    0.000000  -0.000000  -0.000000  -0.000000  -0.000000  -0.000000
    17  H    0.000001   0.000000   0.000000   0.000000   0.000000  -0.000000
    18  H    0.000001   0.000000   0.000000  -0.000000   0.000000   0.000000
    19  H   -0.000000   0.000000   0.000000  -0.000000   0.000000   0.000000
    20  H    0.000000   0.000000   0.000000   0.000000   0.000000   0.000000
    21  H   -0.000000   0.000000   0.000000   0.000000   0.000000  -0.000000
    22  H    0.030958  -0.000055  -0.000775  -0.000149  -0.000778  -0.000149
    23  Cl  -0.013283  -0.015963  -0.000093  -0.000640  -0.000093  -0.000639
    24  H   -0.001680  -0.000265  -0.000018   0.000007  -0.000018   0.000007
    25  S   17.446052   0.043903   0.068706  -0.038952   0.068790  -0.038957
    26  H    0.043903   0.377330   0.000340  -0.001630   0.000340  -0.001624
    27  F    0.068706   0.000340   8.957451  -0.027570  -0.010705  -0.050716
    28  F   -0.038952  -0.001630  -0.027570   8.953030  -0.050736  -0.018521
    29  F    0.068790   0.000340  -0.010705  -0.050736   8.957427  -0.027579
    30  F   -0.038957  -0.001624  -0.050716  -0.018521  -0.027579   8.953034
    31  F   -0.280910  -0.001260   0.013228   0.012387   0.013224   0.012393
              31
     1  C   -0.050160
     2  N   -0.000313
     3  C    0.000010
     4  O   -0.000000
     5  O   -0.000001
     6  C    0.000001
     7  C    0.000000
     8  C   -0.000000
     9  C    0.077149
    10  C   -0.000999
    11  C    0.085283
    12  C   -0.042716
    13  C   -0.004019
    14  H   -0.000004
    15  H   -0.000000
    16  H   -0.000000
    17  H   -0.000000
    18  H   -0.000000
    19  H    0.000000
    20  H    0.000000
    21  H    0.000000
    22  H   -0.001260
    23  Cl   0.000239
    24  H    0.000000
    25  S   -0.280910
    26  H   -0.001260
    27  F    0.013228
    28  F    0.012387
    29  F    0.013224
    30  F    0.012393
    31  F    9.129368
 Mulliken charges:
               1
     1  C   -0.926643
     2  N   -0.487841
     3  C    0.028948
     4  O   -0.274951
     5  O   -0.054358
     6  C   -0.355066
     7  C   -0.140906
     8  C   -1.024798
     9  C    0.143393
    10  C   -1.990899
    11  C    0.306346
    12  C    0.713729
    13  C   -0.437039
    14  H    0.407433
    15  H    0.269372
    16  H    0.269378
    17  H    0.259931
    18  H    0.259930
    19  H    0.260173
    20  H    0.275284
    21  H    0.260171
    22  H    0.270086
    23  Cl   0.442141
    24  H    0.334037
    25  S    0.561214
    26  H    0.322484
    27  F    0.075245
    28  F    0.059777
    29  F    0.075302
    30  F    0.059767
    31  F    0.038358
 Sum of Mulliken charges =  -0.00000
 Mulliken charges with hydrogens summed into heavy atoms:
               1
     1  C   -0.926643
     2  N   -0.080408
     3  C    0.028948
     4  O   -0.274951
     5  O   -0.054358
     6  C    0.183684
     7  C    0.378955
     8  C   -0.229169
     9  C    0.413479
    10  C   -1.990899
    11  C    0.628830
    12  C    0.713729
    13  C   -0.103002
    23  Cl   0.442141
    25  S    0.561214
    27  F    0.075245
    28  F    0.059777
    29  F    0.075302
    30  F    0.059767
    31  F    0.038358
 Electronic spatial extent (au):  <R**2>=          10324.8738
 Charge=             -0.0000 electrons
 Dipole moment (field-independent basis, Debye):
    X=              5.1455    Y=             -1.5164    Z=             -0.0003  Tot=              5.3643
 Quadrupole moment (field-independent basis, Debye-Ang):
   XX=           -122.1051   YY=           -133.6604   ZZ=           -132.3726
   XY=            -13.9786   XZ=             -0.0001   YZ=              0.0007
 Traceless Quadrupole moment (field-independent basis, Debye-Ang):
   XX=              7.2743   YY=             -4.2811   ZZ=             -2.9932
   XY=            -13.9786   XZ=             -0.0001   YZ=              0.0007
 Octapole moment (field-independent basis, Debye-Ang**2):
  XXX=             98.5308  YYY=            -40.7018  ZZZ=              0.0046  XYY=            -25.0725
  XXY=            -21.7910  XXZ=              0.0025  XZZ=            -16.7294  YZZ=            -10.5572
  YYZ=             -0.0005  XYZ=             -0.0026
 Hexadecapole moment (field-independent basis, Debye-Ang**3):
 XXXX=          -9394.3003 YYYY=          -2363.5870 ZZZZ=           -306.5883 XXXY=           -157.5846
 XXXZ=             -0.0202 YYYX=             73.9898 YYYZ=              0.0090 ZZZX=             -0.0084
 ZZZY=             -0.0022 XXYY=          -2120.6756 XXZZ=          -1738.0252 YYZZ=           -459.5115
 XXYZ=             -0.0045 YYXZ=             -0.0093 ZZXY=             44.0408
 N-N= 2.007585277922D+03 E-N=-8.625108710033D+03  KE= 1.945671603836D+03
 Calling FoFJK, ICntrl=      2127 FMM=F ISym2X=0 I1Cent= 0 IOpClX= 0 NMat=1 NMatS=1 NMatT=0.
 ***** Axes restored to original set *****
 -------------------------------------------------------------------
 Center     Atomic                   Forces (Hartrees/Bohr)
 Number     Number              X              Y              Z
 -------------------------------------------------------------------
      1        6          -0.000019111    0.000007092   -0.000002404
      2        7           0.000004831   -0.000017083    0.000001015
      3        6           0.000019076    0.000022298    0.000008843
      4        8          -0.000005823   -0.000018787   -0.000005120
      5        8           0.000021846    0.000009960   -0.000005793
      6        6          -0.000016476    0.000000201    0.000002704
      7        6          -0.000007044   -0.000001636    0.000000128
      8        6           0.000000802    0.000001789   -0.000000390
      9        6          -0.000008774    0.000001468    0.000002176
     10        6           0.000006634    0.000004661   -0.000000644
     11        6          -0.000003528   -0.000001050    0.000001090
     12        6           0.000001113   -0.000002256   -0.000000865
     13        6           0.000003346   -0.000005243    0.000001206
     14        1           0.000001803    0.000001553   -0.000000771
     15        1          -0.000002322    0.000000582   -0.000002217
     16        1          -0.000001541   -0.000000511    0.000002432
     17        1          -0.000000841    0.000001062    0.000003194
     18        1          -0.000000102    0.000001831   -0.000001922
     19        1           0.000000057    0.000000575    0.000002388
     20        1          -0.000000050    0.000004134    0.000000879
     21        1           0.000001085    0.000000511   -0.000002500
     22        1           0.000000755   -0.000001852   -0.000000907
     23       17          -0.000000326   -0.000002383   -0.000000301
     24        1           0.000002364   -0.000000531   -0.000001202
     25       16           0.000013826    0.000005457    0.000001124
     26        1          -0.000000503   -0.000000905   -0.000000050
     27        9          -0.000005163    0.000006453   -0.000008447
     28        9           0.000001523   -0.000005455   -0.000008488
     29        9          -0.000002804    0.000002353    0.000008358
     30        9           0.000003485   -0.000006934    0.000006371
     31        9          -0.000008140   -0.000007352    0.000000113
 -------------------------------------------------------------------
 Cartesian Forces:  Max     0.000022298 RMS     0.000006650

 GradGradGradGradGradGradGradGradGradGradGradGradGradGradGradGradGradGrad
 Berny optimization.
 FormGI is forming the generalized inverse of G from B-inverse, IUseBI=4.
 Internal  Forces:  Max     0.000026980 RMS     0.000005546
 Search for a local minimum.
 Step number   1 out of a maximum of  165
 All quantities printed in internal units (Hartrees-Bohrs-Radians)
 Mixed Optimization -- En-DIIS/RFO-DIIS
 Second derivative matrix not updated -- first step.
 ITU=  0
     Eigenvalues ---    0.00231   0.00418   0.00592   0.01197   0.01371
     Eigenvalues ---    0.01727   0.01874   0.02005   0.02026   0.02137
     Eigenvalues ---    0.02172   0.02184   0.02224   0.02244   0.02251
     Eigenvalues ---    0.02270   0.02301   0.02474   0.03814   0.04969
     Eigenvalues ---    0.05392   0.05501   0.05541   0.05709   0.08120
     Eigenvalues ---    0.09081   0.09097   0.11293   0.12018   0.13575
     Eigenvalues ---    0.13604   0.13613   0.13650   0.13670   0.16000
     Eigenvalues ---    0.16000   0.16000   0.16000   0.16000   0.16000
     Eigenvalues ---    0.16000   0.16725   0.21882   0.21941   0.22000
     Eigenvalues ---    0.23488   0.23510   0.23518   0.25000   0.25000
     Eigenvalues ---    0.25000   0.25000   0.25000   0.25000   0.25000
     Eigenvalues ---    0.25000   0.25305   0.29768   0.31036   0.31744
     Eigenvalues ---    0.34430   0.34430   0.34507   0.34507   0.34511
     Eigenvalues ---    0.34511   0.34746   0.35646   0.35886   0.36075
     Eigenvalues ---    0.39944   0.42678   0.43196   0.46066   0.46068
     Eigenvalues ---    0.46453   0.47156   0.47872   0.48183   0.48184
     Eigenvalues ---    0.48579   0.48812   0.48812   0.50083   0.50354
     Eigenvalues ---    0.57018   1.03343
 RFO step:  Lambda=-1.74463095D-08 EMin= 2.31052576D-03
 Linear search not attempted -- first point.
 Iteration  1 RMS(Cart)=  0.00029902 RMS(Int)=  0.00000001
 Iteration  2 RMS(Cart)=  0.00000004 RMS(Int)=  0.00000000
 Variable       Old X    -DE/DX   Delta X   Delta X   Delta X     New X
                                 (Linear)    (Quad)   (Total)
    R1        2.64057   0.00001   0.00000   0.00003   0.00003   2.64061
    R2        2.64288   0.00000   0.00000   0.00000   0.00000   2.64288
    R3        2.64055  -0.00001   0.00000  -0.00002  -0.00002   2.64053
    R4        2.59782   0.00001   0.00000   0.00002   0.00002   2.59784
    R5        1.90754  -0.00000   0.00000  -0.00000  -0.00000   1.90754
    R6        2.27329  -0.00002   0.00000  -0.00002  -0.00002   2.27327
    R7        2.53381  -0.00001   0.00000  -0.00002  -0.00002   2.53380
    R8        2.71629  -0.00003   0.00000  -0.00007  -0.00007   2.71623
    R9        2.85945  -0.00001   0.00000  -0.00002  -0.00002   2.85943
   R10        2.06476  -0.00000   0.00000  -0.00001  -0.00001   2.06476
   R11        2.06476  -0.00000   0.00000  -0.00001  -0.00001   2.06476
   R12        2.88427   0.00000   0.00000   0.00001   0.00001   2.88428
   R13        2.06610  -0.00000   0.00000  -0.00001  -0.00001   2.06609
   R14        2.06610  -0.00000   0.00000  -0.00001  -0.00001   2.06610
   R15        2.06483  -0.00000   0.00000  -0.00001  -0.00001   2.06482
   R16        2.06089  -0.00000   0.00000  -0.00001  -0.00001   2.06088
   R17        2.06483  -0.00000   0.00000  -0.00001  -0.00001   2.06482
   R18        2.60951  -0.00000   0.00000  -0.00001  -0.00001   2.60950
   R19        2.04639   0.00000   0.00000   0.00000   0.00000   2.04639
   R20        2.61791  -0.00000   0.00000  -0.00000  -0.00000   2.61790
   R21        3.42140  -0.00000   0.00000  -0.00001  -0.00001   3.42139
   R22        2.62185  -0.00000   0.00000  -0.00000  -0.00000   2.62185
   R23        2.04261   0.00000   0.00000   0.00000   0.00000   2.04261
   R24        2.62288  -0.00000   0.00000  -0.00001  -0.00001   2.62288
   R25        3.28315  -0.00000   0.00000  -0.00001  -0.00001   3.28314
   R26        2.03964   0.00000   0.00000   0.00001   0.00001   2.03965
   R27        3.05445  -0.00001   0.00000  -0.00003  -0.00003   3.05442
   R28        3.04784  -0.00001   0.00000  -0.00002  -0.00002   3.04782
   R29        3.05443  -0.00001   0.00000  -0.00002  -0.00002   3.05441
   R30        3.04784  -0.00001   0.00000  -0.00002  -0.00002   3.04782
   R31        3.03210   0.00001   0.00000   0.00002   0.00002   3.03212
    A1        2.04139   0.00002   0.00000   0.00009   0.00009   2.04148
    A2        2.15160  -0.00002   0.00000  -0.00009  -0.00009   2.15150
    A3        2.09020   0.00000   0.00000   0.00001   0.00001   2.09021
    A4        2.22335  -0.00002   0.00000  -0.00011  -0.00011   2.22324
    A5        2.04912   0.00001   0.00000   0.00007   0.00007   2.04919
    A6        2.01071   0.00001   0.00000   0.00005   0.00005   2.01076
    A7        2.20416  -0.00001   0.00000  -0.00003  -0.00003   2.20414
    A8        1.89898   0.00001   0.00000   0.00004   0.00004   1.89902
    A9        2.18004  -0.00000   0.00000  -0.00001  -0.00001   2.18003
   A10        2.01510  -0.00001   0.00000  -0.00005  -0.00005   2.01506
   A11        1.87893  -0.00001   0.00000  -0.00004  -0.00004   1.87889
   A12        1.89800   0.00000   0.00000   0.00001   0.00001   1.89800
   A13        1.89801   0.00000   0.00000  -0.00001  -0.00001   1.89800
   A14        1.95208   0.00000   0.00000   0.00003   0.00003   1.95211
   A15        1.95210   0.00000   0.00000   0.00002   0.00002   1.95212
   A16        1.88355  -0.00000   0.00000   0.00000   0.00000   1.88355
   A17        1.93560  -0.00000   0.00000  -0.00001  -0.00001   1.93559
   A18        1.90251   0.00000   0.00000  -0.00001  -0.00001   1.90250
   A19        1.90249   0.00000   0.00000   0.00000   0.00000   1.90249
   A20        1.92706   0.00000   0.00000   0.00001   0.00001   1.92707
   A21        1.92705   0.00000   0.00000   0.00002   0.00002   1.92707
   A22        1.86761  -0.00000   0.00000  -0.00001  -0.00001   1.86760
   A23        1.94275   0.00000   0.00000  -0.00000  -0.00000   1.94275
   A24        1.93710   0.00000   0.00000   0.00001   0.00001   1.93711
   A25        1.94273   0.00000   0.00000   0.00001   0.00001   1.94275
   A26        1.87901  -0.00000   0.00000  -0.00000  -0.00000   1.87901
   A27        1.88034  -0.00000   0.00000  -0.00001  -0.00001   1.88033
   A28        1.87902  -0.00000   0.00000  -0.00001  -0.00001   1.87901
   A29        2.07604  -0.00000   0.00000  -0.00002  -0.00002   2.07602
   A30        2.10196   0.00000   0.00000   0.00001   0.00001   2.10197
   A31        2.10519   0.00000   0.00000   0.00001   0.00001   2.10520
   A32        2.14771   0.00000   0.00000   0.00002   0.00002   2.14772
   A33        2.06619  -0.00000   0.00000  -0.00001  -0.00001   2.06617
   A34        2.06929  -0.00000   0.00000  -0.00000  -0.00000   2.06929
   A35        2.03504  -0.00000   0.00000  -0.00001  -0.00001   2.03503
   A36        2.13366   0.00000   0.00000   0.00001   0.00001   2.13367
   A37        2.11448   0.00000   0.00000   0.00001   0.00001   2.11448
   A38        2.14325   0.00000   0.00000   0.00000   0.00000   2.14325
   A39        2.07040   0.00000   0.00000   0.00000   0.00000   2.07040
   A40        2.06954  -0.00000   0.00000  -0.00000  -0.00000   2.06953
   A41        2.07413   0.00000   0.00000   0.00000   0.00000   2.07414
   A42        2.10755  -0.00000   0.00000  -0.00002  -0.00002   2.10753
   A43        2.10150   0.00000   0.00000   0.00001   0.00001   2.10151
   A44        1.61188   0.00000   0.00000   0.00001   0.00001   1.61188
   A45        1.61170   0.00000   0.00000   0.00001   0.00001   1.61171
   A46        1.61187  -0.00000   0.00000   0.00000   0.00000   1.61187
   A47        1.61172   0.00000   0.00000   0.00000   0.00000   1.61172
   A48        1.57059   0.00000   0.00000   0.00001   0.00001   1.57060
   A49        1.56491  -0.00000   0.00000  -0.00001  -0.00001   1.56490
   A50        1.52867  -0.00000   0.00000  -0.00001  -0.00001   1.52866
   A51        1.57038  -0.00000   0.00000  -0.00001  -0.00001   1.57037
   A52        1.53093  -0.00000   0.00000  -0.00001  -0.00001   1.53092
   A53        1.57059   0.00000   0.00000   0.00001   0.00001   1.57060
   A54        1.52868   0.00000   0.00000  -0.00000  -0.00000   1.52868
   A55        1.53092  -0.00000   0.00000  -0.00000  -0.00000   1.53092
   A56        3.14055  -0.00000   0.00000  -0.00000  -0.00000   3.14055
   A57        3.22359   0.00000   0.00000   0.00001   0.00001   3.22360
   A58        3.22357   0.00000   0.00000   0.00002   0.00002   3.22359
   A59        3.14263   0.00000   0.00000   0.00000   0.00000   3.14263
   A60        3.13886  -0.00000   0.00000  -0.00000  -0.00000   3.13886
   A61        3.13886  -0.00000   0.00000  -0.00000  -0.00000   3.13886
    D1       -3.14122  -0.00000   0.00000  -0.00004  -0.00004  -3.14126
    D2       -0.00012   0.00000   0.00000   0.00004   0.00004  -0.00008
    D3        0.00041  -0.00000   0.00000  -0.00005  -0.00005   0.00036
    D4        3.14150   0.00000   0.00000   0.00003   0.00003   3.14153
    D5        3.14159   0.00000   0.00000   0.00001   0.00001  -3.14159
    D6        0.00003  -0.00000   0.00000  -0.00002  -0.00002   0.00001
    D7       -0.00004   0.00000   0.00000   0.00002   0.00002  -0.00002
    D8       -3.14159  -0.00000   0.00000  -0.00001  -0.00001   3.14158
    D9        3.14159   0.00000   0.00000   0.00000   0.00000  -3.14159
   D10       -0.00004   0.00000   0.00000   0.00003   0.00003  -0.00001
   D11        0.00003  -0.00000   0.00000  -0.00001  -0.00001   0.00002
   D12        3.14159   0.00000   0.00000   0.00002   0.00002  -3.14158
   D13       -0.00038  -0.00000   0.00000  -0.00001  -0.00001  -0.00038
   D14        3.14119   0.00000   0.00000   0.00015   0.00015   3.14134
   D15       -3.14148  -0.00000   0.00000  -0.00009  -0.00009  -3.14157
   D16        0.00009   0.00000   0.00000   0.00007   0.00007   0.00016
   D17        3.14147  -0.00000   0.00000  -0.00004  -0.00004   3.14143
   D18       -0.00015   0.00000   0.00000   0.00012   0.00012  -0.00003
   D19       -3.14148  -0.00000   0.00000  -0.00003  -0.00003  -3.14152
   D20        1.02358  -0.00000   0.00000  -0.00004  -0.00004   1.02353
   D21       -1.02332  -0.00000   0.00000  -0.00005  -0.00005  -1.02337
   D22       -3.14140  -0.00000   0.00000  -0.00010  -0.00010  -3.14150
   D23        1.01662  -0.00000   0.00000  -0.00010  -0.00010   1.01652
   D24       -1.01626  -0.00000   0.00000  -0.00009  -0.00009  -1.01634
   D25       -1.05740  -0.00000   0.00000  -0.00011  -0.00011  -1.05751
   D26        3.10062  -0.00000   0.00000  -0.00010  -0.00010   3.10051
   D27        1.06775  -0.00000   0.00000  -0.00009  -0.00009   1.06766
   D28        1.05776   0.00000   0.00000  -0.00007  -0.00007   1.05768
   D29       -1.06741   0.00000   0.00000  -0.00007  -0.00007  -1.06748
   D30       -3.10028   0.00000   0.00000  -0.00006  -0.00006  -3.10034
   D31       -1.04906   0.00000   0.00000   0.00004   0.00004  -1.04902
   D32        3.14156   0.00000   0.00000   0.00003   0.00003  -3.14159
   D33        1.04899   0.00000   0.00000   0.00003   0.00003   1.04902
   D34        1.06168  -0.00000   0.00000   0.00002   0.00002   1.06170
   D35       -1.03089  -0.00000   0.00000   0.00002   0.00002  -1.03087
   D36       -3.12346  -0.00000   0.00000   0.00002   0.00002  -3.12344
   D37        3.12343   0.00000   0.00000   0.00003   0.00003   3.12346
   D38        1.03086   0.00000   0.00000   0.00002   0.00002   1.03089
   D39       -1.06171   0.00000   0.00000   0.00002   0.00002  -1.06169
   D40        0.00003  -0.00000   0.00000  -0.00002  -0.00002   0.00001
   D41       -3.14156  -0.00000   0.00000  -0.00003  -0.00003  -3.14158
   D42        3.14158   0.00000   0.00000   0.00001   0.00001   3.14159
   D43       -0.00000   0.00000   0.00000   0.00000   0.00000   0.00000
   D44       -0.00001   0.00000   0.00000   0.00002   0.00002   0.00001
   D45        3.14159   0.00000   0.00000   0.00000   0.00000   3.14159
   D46        3.14157   0.00000   0.00000   0.00002   0.00002  -3.14159
   D47       -0.00001   0.00000   0.00000   0.00001   0.00001  -0.00001
   D48        0.78308  -0.00000   0.00000   0.00010   0.00010   0.78319
   D49        2.35535   0.00000   0.00000   0.00011   0.00011   2.35546
   D50       -0.78351   0.00000   0.00000   0.00011   0.00011  -0.78339
   D51       -2.35578  -0.00000   0.00000   0.00010   0.00010  -2.35568
   D52       -2.35850  -0.00000   0.00000   0.00010   0.00010  -2.35840
   D53       -0.78623   0.00000   0.00000   0.00011   0.00011  -0.78612
   D54        2.35809   0.00000   0.00000   0.00011   0.00011   2.35820
   D55        0.78582  -0.00000   0.00000   0.00010   0.00010   0.78592
   D56        0.00001  -0.00000   0.00000  -0.00001  -0.00001  -0.00000
   D57        3.14159  -0.00000   0.00000  -0.00001  -0.00001   3.14158
   D58        3.14159   0.00000   0.00000   0.00001   0.00001  -3.14159
   D59       -0.00001   0.00000   0.00000   0.00000   0.00000  -0.00001
   D60       -0.00002   0.00000   0.00000   0.00000   0.00000  -0.00001
   D61       -3.14157  -0.00000   0.00000  -0.00002  -0.00002   3.14159
   D62        3.14158   0.00000   0.00000   0.00001   0.00001   3.14159
   D63        0.00003  -0.00000   0.00000  -0.00002  -0.00002   0.00001
         Item               Value     Threshold  Converged?
 Maximum Force            0.000027     0.000450     YES
 RMS     Force            0.000006     0.000300     YES
 Maximum Displacement     0.000935     0.001800     YES
 RMS     Displacement     0.000299     0.001200     YES
 Predicted change in Energy=-8.723149D-09
 Optimization completed.
    -- Stationary point found.
                           ----------------------------
                           !   Optimized Parameters   !
                           ! (Angstroms and Degrees)  !
 --------------------------                            --------------------------
 ! Name  Definition              Value          Derivative Info.                !
 --------------------------------------------------------------------------------
 ! R1    R(1,2)                  1.3973         -DE/DX =    0.0                 !
 ! R2    R(1,9)                  1.3986         -DE/DX =    0.0                 !
 ! R3    R(1,13)                 1.3973         -DE/DX =    0.0                 !
 ! R4    R(2,3)                  1.3747         -DE/DX =    0.0                 !
 ! R5    R(2,14)                 1.0094         -DE/DX =    0.0                 !
 ! R6    R(3,4)                  1.203          -DE/DX =    0.0                 !
 ! R7    R(3,5)                  1.3408         -DE/DX =    0.0                 !
 ! R8    R(5,6)                  1.4374         -DE/DX =    0.0                 !
 ! R9    R(6,7)                  1.5132         -DE/DX =    0.0                 !
 ! R10   R(6,15)                 1.0926         -DE/DX =    0.0                 !
 ! R11   R(6,16)                 1.0926         -DE/DX =    0.0                 !
 ! R12   R(7,8)                  1.5263         -DE/DX =    0.0                 !
 ! R13   R(7,17)                 1.0933         -DE/DX =    0.0                 !
 ! R14   R(7,18)                 1.0933         -DE/DX =    0.0                 !
 ! R15   R(8,19)                 1.0927         -DE/DX =    0.0                 !
 ! R16   R(8,20)                 1.0906         -DE/DX =    0.0                 !
 ! R17   R(8,21)                 1.0927         -DE/DX =    0.0                 !
 ! R18   R(9,10)                 1.3809         -DE/DX =    0.0                 !
 ! R19   R(9,22)                 1.0829         -DE/DX =    0.0                 !
 ! R20   R(10,11)                1.3853         -DE/DX =    0.0                 !
 ! R21   R(10,25)                1.8105         -DE/DX =    0.0                 !
 ! R22   R(11,12)                1.3874         -DE/DX =    0.0                 !
 ! R23   R(11,26)                1.0809         -DE/DX =    0.0                 !
 ! R24   R(12,13)                1.388          -DE/DX =    0.0                 !
 ! R25   R(12,23)                1.7374         -DE/DX =    0.0                 !
 ! R26   R(13,24)                1.0793         -DE/DX =    0.0                 !
 ! R27   R(25,27)                1.6163         -DE/DX =    0.0                 !
 ! R28   R(25,28)                1.6128         -DE/DX =    0.0                 !
[...]
 492003,-0.04373355,-0.00361397,-0.00126128,-0.00199858,-0.00005193,-0.
 00174550,0.00369746,0.00062901,-0.00049147,-0.00015399,0.00013687,-0.0
 0000315,0.00089669,-0.00001343,-0.00002264,-0.00003523,0.00003138,0.00
 004100,-0.00001541,0.00001055,-0.00003197,-0.00004677,-0.00000860,0.00
 003413,-0.00001607,0.00001143,0.00002741,-0.00000832,0.00001242,-0.000
 00505,0.00001503,-0.00002073,-0.00001928,-0.00002178,0.00106363,-0.000
 32065,0.00094710,-0.00000812,-0.00007440,0.00001169,-0.00002681,-0.000
 05987,-0.00014893,-0.00047844,0.00384048,0.61532822,-0.00050141,-0.000
 90101,-0.00016283,0.00071876,0.00002092,-0.00004635,-0.00042647,-0.000
 44641,-0.00005535,-0.00008159,0.00030387,0.00004735,0.00012016,0.00000
 710,-0.00000024,-0.00004171,-0.00000324,0.00000279,0.00000424,0.000007
 11,0.00000098,-0.00000005,-0.00000483,-0.00000080,0.00177946,-0.000820
 48,0.00004525,0.00256953,0.00060227,0.00001556,-0.30186715,0.11252520,
 0.02783724,-0.01709562,0.01140719,0.00251786,-0.00192908,-0.00334650,-
 0.00019393,-0.00001898,0.00003663,0.00000913,0.00000759,0.00000022,0.0
 0000055,0.00000723,0.00000102,-0.00000139,-0.00000110,0.00000013,-0.00
 000026,-0.00000110,0.00000020,0.00000031,-0.00000047,0.00000114,0.0000
 0006,0.00000323,-0.00000121,-0.00000030,-0.00000053,0.00000105,0.00000
 024,0.00024565,-0.00018805,-0.00000430,0.00086442,0.00072483,-0.000038
 40,-0.00047954,0.00058740,0.00011606,0.00113070,-0.00078220,-0.0001236
 9,0.31784834,-0.00042493,-0.00088284,0.00006228,-0.00003934,0.00026169
 ,0.00011546,0.00003423,-0.00022029,-0.00001344,-0.00013192,0.00016032,
 0.00003488,-0.00004669,0.00008008,0.00000079,0.00002530,0.00000440,-0.
 00000627,0.00000062,-0.00000230,-0.00000067,0.00000053,0.00000196,0.00
 000055,-0.00134724,-0.00506857,-0.00159035,0.02630747,-0.00685255,-0.0
 0220997,0.11281800,-0.10729949,-0.01579869,-0.01733355,0.01073695,0.00
 190378,-0.00325011,-0.00226530,-0.00104964,-0.00012652,-0.00000705,-0.
 00000647,-0.00000119,0.00000006,0.00000145,-0.00000024,-0.00000157,-0.
 00000006,-0.00000048,0.00000078,0.00000036,-0.00000039,0.00000023,0.00
 000014,0.00000018,-0.00000070,0.00000052,-0.00000122,0.00000022,0.0000
 0004,0.00000039,-0.00000031,-0.00000045,0.00135384,-0.00026553,-0.0002
 1966,-0.00072124,0.00058230,0.00052835,-0.00065743,0.00068735,0.000098
 63,0.00403581,-0.00487360,-0.00103965,-0.11754761,0.11169293,-0.000091
 40,0.00008183,-0.00116745,-0.00005548,0.00011299,-0.00047806,0.0000168
 9,0.00000623,-0.00013988,-0.00001795,0.00001711,-0.00003354,-0.0000083
 9,-0.00000140,0.00008750,0.00000708,-0.00000512,0.00003841,0.,-0.00000
 093,0.00000184,0.,0.00000077,-0.00000173,-0.00003395,-0.00161181,0.005
 66885,0.00386768,-0.00116267,0.00040869,0.02788036,-0.01578588,-0.0360
 4924,-0.00178957,0.00073288,0.00292850,-0.00017932,-0.00104581,0.00547
 263,-0.00001531,-0.00001304,0.00006898,0.00000273,-0.00000542,-0.00000
 607,-0.00000398,0.00000670,-0.00000407,0.00000022,-0.00000167,-0.00000
 128,-0.00000035,0.00000212,-0.00000073,0.00000087,0.00000079,-0.000000
 64,-0.00000030,0.00000004,0.00000031,-0.00000081,-0.00000079,-0.000000
 97,0.00022678,-0.00015683,0.00079935,-0.00025516,0.00046937,-0.0026662
 2,-0.00007048,0.00004790,0.00021808,0.00059846,-0.00084331,0.00081622,
 -0.02960848,0.01800988,0.02738606,0.00237130,-0.00025447,0.00016993,-0
 .00091713,-0.00004514,0.00013150,0.00127412,0.00033340,0.00001780,-0.0
 0037745,-0.00032120,-0.00001325,-0.00065026,0.00016819,0.00009147,0.00
 031558,0.00006399,-0.00001249,-0.00001829,-0.00002618,-0.00001450,0.00
 000516,0.00003026,0.00000535,-0.00337345,-0.00097991,0.00313797,-0.000
 16558,-0.01417868,0.00422295,-0.00051644,0.00098064,0.00134455,-0.0011
 7645,0.00012288,-0.00044950,0.00030431,-0.00107142,-0.00015929,0.00019
 847,0.00001886,-0.00014365,-0.00002716,-0.00001006,-0.00000204,-0.0000
 3021,-0.00001748,0.00000429,0.00000539,0.00000497,-0.00000271,0.000009
 73,-0.00000256,0.00000839,-0.00000068,-0.00001194,0.00000369,-0.000021
 59,0.00000979,0.00000094,0.00000199,-0.00000715,-0.00000436,-0.0002046
 7,-0.00195898,-0.00072765,0.00009133,-0.00065121,-0.00014249,0.0001094
 4,-0.00009340,-0.00011992,-0.07861923,0.02570877,-0.02213337,-0.000182
 24,-0.00051473,0.00006696,0.12381446,0.00180753,0.00046806,-0.00084230
 ,-0.00250640,0.00005338,-0.00010155,0.00221695,-0.00018539,-0.00002152
 ,-0.00072204,0.00007368,-0.00000695,-0.00137821,0.00071817,0.00012093,
 0.00050729,0.00007599,0.00002064,-0.00003393,-0.00009643,0.00000616,-0
 .00000665,0.00006813,0.00000719,-0.00238180,-0.00466357,0.00043918,0.0
 1502399,-0.02058391,0.01681771,-0.00693864,0.00053463,0.00258595,-0.00
 024569,0.00019415,-0.00152551,-0.00017893,-0.00088962,0.00024996,-0.00
 008052,-0.00034830,0.00013953,-0.00004813,-0.00003028,0.00000770,-0.00
 004341,-0.00001477,-0.00001881,0.00000158,0.00000285,0.00001462,-0.000
 00424,0.00001961,-0.00002289,0.00001289,-0.00000558,-0.00001000,-0.000
 04360,0.00001183,0.00000640,0.00000781,-0.00001540,0.00000117,-0.00175
 714,-0.00035853,0.00124462,-0.00038260,-0.00121085,-0.00031782,0.00017
 714,0.00008215,0.00008488,0.02725937,-0.13994344,0.05950259,0.00029264
 ,0.00051693,0.00049824,-0.05279075,0.17388590,-0.00053772,0.00023014,0
 .00015355,0.00093509,0.00002559,0.00020191,-0.00083602,-0.00000832,-0.
 00003698,0.00026104,-0.00000675,0.00005525,0.00051413,-0.00025060,-0.0
 0000860,-0.00018737,-0.00002455,-0.00005183,0.00001079,0.00003936,-0.0
 0002017,0.00000197,-0.00002647,0.00000046,0.00198957,0.00126737,0.0004
 3182,-0.01185797,0.00689657,-0.00119827,0.00487007,0.00093405,-0.00062
 593,-0.00086814,0.00037707,0.00046006,0.00039281,0.00000187,-0.0001634
 9,-0.00000743,0.00012742,-0.00023327,0.00002240,0.00001778,0.00000345,
 0.00001345,-0.00000041,0.00000954,-0.00000286,0.00000347,0.00000317,0.
 00000307,-0.00001414,0.00001142,-0.00000685,-0.00000271,0.00000561,0.0
 0001524,-0.00000326,-0.00000510,0.00000082,0.00000947,0.00000300,0.000
 72852,0.00079479,-0.00112273,0.00026298,0.00066151,0.00016496,-0.00005
 504,-0.00000113,-0.00005550,-0.02385367,0.05887050,-0.10733965,-0.0001
 0966,-0.00010543,-0.00032603,0.05039199,-0.08295164,0.15028724,-0.0000
 8793,-0.00073044,-0.00153071,-0.00233417,-0.00048510,-0.00024560,0.002
 46072,0.00045775,-0.00004013,-0.00075180,-0.00035261,-0.00004530,-0.00
 149690,0.00050409,0.00014813,0.00063373,0.00013172,0.00000981,-0.00004
 148,-0.00007893,-0.00000879,0.00000574,0.00006895,0.00001037,-0.000199
 90,-0.00626508,0.00122534,-0.01490760,0.01388902,0.02369309,-0.0047321
 4,-0.00211765,0.00165307,0.00131803,0.00180664,-0.00025044,-0.00136058
 ,0.00049124,0.00035712,0.00017213,-0.00014469,0.00001742,-0.00005737,-
 0.00002943,-0.00000352,-0.00005706,-0.00002851,-0.00000375,0.00000929,
 0.00000491,-0.00000234,0.00000941,0.00000754,0.00000106,0.00000563,-0.
 00001661,0.00000087,-0.00004609,0.00001657,0.00000489,0.00000424,-0.00
 001750,-0.00000794,0.00040227,0.00007365,0.00045157,0.00000566,-0.0012
 2449,-0.00021428,0.00019409,-0.00000781,0.00003795,-0.10252677,0.02165
 201,0.05648629,-0.00115927,-0.00110485,0.00059739,-0.00970663,0.019502
 15,0.01025731,0.11760403,-0.00004083,-0.00108331,-0.00027100,-0.000812
 26,0.00036215,0.00005777,0.00059581,-0.00007795,-0.00012689,-0.0001478
 8,0.00004560,0.00003191,-0.00033326,0.00022823,0.00005832,0.00011753,0
 .00000785,0.00001231,-0.00000627,-0.00002647,-0.00000256,-0.00000314,0
 .00001665,0.00000067,0.00061516,-0.00011292,0.00052654,-0.00915577,0.0
 0135046,0.00149487,-0.00042116,-0.00323145,0.00186963,0.00059029,0.001
 48124,0.00082608,-0.00082183,0.00069255,0.00016172,-0.00010573,-0.0001
 1246,0.00001073,-0.00000972,-0.00000576,0.00000503,-0.00001082,-0.0000
 0360,-0.00000438,-0.00000095,0.00000231,0.00000915,-0.00000192,0.00000
 404,-0.00000804,0.00000337,-0.00000151,-0.00000365,-0.00001133,0.00000
 303,0.00000088,0.00000394,-0.00000247,0.00000322,-0.00062028,-0.000001
 31,0.00014853,0.00001261,0.00009923,0.00007464,-0.00004881,0.00011930,
 -0.00010058,0.02094436,-0.08249814,-0.03806005,-0.00154279,0.00098920,
 -0.00037720,0.02796180,-0.02481336,-0.01536070,-0.03051894,0.12533247,
 0.00014277,-0.00109588,0.00023719,0.00132862,0.00061772,0.00030017,-0.
 00123429,-0.00041925,-0.00004532,0.00039907,0.00026039,0.00008091,0.00
 078625,-0.00019984,-0.00003504,-0.00032307,-0.00007998,-0.00004405,0.0
 0002646,0.00004253,-0.00000728,-0.00000300,-0.00003724,-0.00000574,0.0
 0249988,0.00555302,-0.00006648,0.00329293,-0.01546121,-0.00873224,0.00
 265471,0.00105309,0.00058296,-0.00010947,-0.00041643,0.00032151,0.0002
 1269,0.00036775,-0.00004987,-0.00015340,0.00006418,-0.00011348,0.00003
 392,0.00002015,0.00000835,0.00002699,0.00001038,0.00000390,-0.00000645
 ,0.00000178,0.00000949,-0.00000417,-0.00001007,0.00000014,-0.00000413,
 0.00000457,0.00000068,0.00002247,-0.00000730,-0.00000470,0.00000175,0.
 00001205,0.00000822,-0.00041759,-0.00004261,-0.00040207,0.00004552,0.0
 0082396,0.00017473,-0.00010712,0.00006309,-0.00008332,0.05465064,-0.03
 901438,-0.14750624,0.00061671,0.00100211,-0.00129187,-0.00183969,0.003
 21913,0.00786844,-0.06674172,0.07377984,0.21117451,0.00240513,-0.00018
 163,-0.00041027,-0.00102500,-0.00002306,-0.00004142,0.00136104,0.00033
 819,-0.00003023,-0.00040675,-0.00031460,-0.00004438,-0.00070837,0.0002
 0661,0.00002420,0.00033588,0.00006533,0.00000066,-0.00001877,-0.000033
 02,0.00000480,0.00000486,0.00003326,0.00000418,-0.00379295,-0.00021905
 ,-0.00300134,0.00041890,-0.01294266,-0.00874437,-0.00108490,0.00127458
 ,-0.00100964,-0.00106238,-0.00006982,0.00059547,0.00026791,-0.00107030
 ,-0.00020160,0.00020644,-0.00002939,0.00010282,-0.00003207,-0.00001621
 ,-0.00000577,-0.00002930,-0.00001228,0.00000098,0.00000879,0.00000108,
 -0.00000793,0.00000588,0.00000376,0.00000359,0.00000226,-0.00000903,0.
 00000184,-0.00002317,0.00000986,0.00000345,-0.00000036,-0.00001032,-0.
 00000641,-0.00025499,-0.00211373,0.00002550,0.00006941,-0.00073054,-0.
 00006335,0.00012319,-0.00011989,0.00007259,-0.07462758,0.01374396,0.02
 389311,-0.00018274,-0.00044974,-0.00022653,0.00785818,0.00132202,-0.00
 594318,0.00596610,0.00224083,0.00161277,0.11485707,0.00165980,0.000286
 02,0.00074588,-0.00212263,0.00001931,0.00022114,0.00188420,-0.00015475
 ,-0.00017080,-0.00061638,0.00005716,0.00005890,-0.00117282,0.00060774,
 0.00016383,0.00043298,0.00006976,-0.00001911,-0.00003034,-0.00007782,-
 0.00002120,-0.00000557,0.00005721,0.00001062,-0.00182336,-0.00376838,-
 0.00161741,0.00937764,-0.01229149,-0.02112613,-0.00536836,0.00137438,-
 0.00154789,-0.00039288,-0.00011000,0.00139420,-0.00007776,-0.00077029,
 -0.00042860,-0.00008504,-0.00026477,-0.00014091,-0.00003678,-0.0000187
 0,0.00001320,-0.00004060,-0.00002084,-0.00001179,-0.00000140,0.0000085
 0,0.00002207,-0.00000039,0.00000799,-0.00001312,0.00000741,-0.00001085
 ,-0.00000599,-0.00003760,0.00001093,0.00000161,0.00001082,-0.00000818,
 0.00000486,-0.00153330,0.00010528,-0.00073453,-0.00027774,-0.00100756,
 -0.00001640,0.00014994,0.00009414,-0.00005031,0.01466946,-0.10352984,-
 0.05948722,0.00021989,0.00055181,-0.00024966,0.00094925,0.00736783,0.0
 1776213,0.00495445,0.00395600,-0.00370350,-0.02965140,0.12452181,0.000
 88183,-0.00016753,0.00030191,-0.00152868,-0.00009158,0.00034347,0.0013
 3700,-0.00004558,-0.00015373,-0.00042391,0.00003034,0.00010080,-0.0008
 3677,0.00041718,0.00015930,0.00029711,0.00005887,-0.00006568,-0.000021
 20,-0.00005458,-0.00003830,-0.00000381,0.00004120,0.00001166,-0.002304
 18,-0.00256961,-0.00003796,0.01506602,-0.00910008,-0.01007470,-0.00671
 850,-0.00048997,-0.00089794,0.00090947,-0.00053690,0.00065101,-0.00047
 058,-0.00010421,-0.00024634,-0.00005656,-0.00013501,-0.00032502,-0.000
 02190,-0.00000708,0.00001532,-0.00003340,-0.00002456,-0.00000386,-0.00
 000326,0.00001316,0.00002347,0.00000261,-0.00000228,-0.00000247,0.0000
 0136,-0.00001302,-0.00000183,-0.00002595,0.00000719,-0.00000263,0.0000
 1103,-0.00000057,0.00000790,-0.00131374,-0.00025122,-0.00153314,-0.000
 36077,-0.00096664,-0.00001600,0.00008875,0.00005783,-0.00008131,0.0259
 8666,-0.05875317,-0.14774280,0.00017167,0.00041453,-0.00036093,0.00205
 950,-0.00249560,-0.04258956,0.00405414,-0.00224096,-0.00213836,-0.0578
 2871,0.07716393,0.20859416,0.00001598,-0.00107793,0.00129123,-0.002419
 74,-0.00061283,0.00029412,0.00255899,0.00048668,-0.00002232,-0.0007807
 5,-0.00037978,0.00000182,-0.00155949,0.00052403,0.00013144,0.00065729,
 0.00014345,-0.00002451,-0.00004371,-0.00008168,-0.00001289,0.00000590,
 0.00007198,0.00001030,-0.00056973,-0.00604113,-0.00310189,-0.01694091,
 0.02137856,-0.01754331,-0.00507468,-0.00172099,-0.00180869,0.00136828,
 0.00170897,0.00068813,-0.00140139,0.00053727,-0.00009739,0.00017808,-0
 .00013413,-0.00008395,-0.00005900,-0.00002990,0.00000001,-0.00005985,-
 0.00003156,-0.00000041,0.00000968,0.00000839,0.00000079,0.00001004,0.0
 0000381,0.00000347,0.00000457,-0.00002007,0.00000240,-0.00004792,0.000
 01735,0.00000378,0.00000570,-0.00001590,-0.00000616,0.00038794,0.00021
 999,-0.00047229,0.00000491,-0.00129503,-0.00016030,0.00019714,0.000004
 15,-0.00006049,-0.11107512,0.04120029,-0.04899571,-0.00129078,-0.00093
 042,-0.00090665,0.00555493,0.00634593,-0.00290622,0.00882628,-0.000184
 16,0.00642946,-0.00968843,0.02070172,-0.00269928,0.12795819,0.00000253
 ,-0.00136602,-0.00020197,-0.00041918,0.00053466,0.00005234,0.00024537,
 -0.00022008,0.00005364,-0.00003631,0.00012584,-0.00001462,-0.00010774,
 0.00017104,0.00001185,0.00002517,-0.00001371,-0.00000524,0.00000146,-0
 .00001455,0.00000033,-0.00000366,0.00000527,0.00000288,0.00129061,0.00
 154222,-0.00015677,-0.00790939,-0.00328071,0.00054092,0.00012539,-0.00
 210388,-0.00273235,0.00049053,0.00152293,-0.00049827,-0.00073944,0.000
 77450,0.00014869,-0.00014276,-0.00009487,0.00000656,-0.00000287,-0.000
 00165,0.00000298,-0.00000062,0.00000215,-0.00000686,-0.00000232,-0.000
 00131,0.00000779,-0.00000355,0.00000600,-0.00000993,0.00000391,0.00000
 255,-0.00000520,-0.00000474,0.00000072,0.00000111,0.00000233,-0.000001
 23,0.00000288,-0.00071064,-0.00001191,0.00002445,0.00001963,0.00034293
 ,-0.00002221,-0.00006442,0.00009062,0.00015926,0.03991586,-0.10878753,
 0.04604053,-0.00123459,0.00094169,0.00115821,0.00292760,0.00187025,0.0
 0318492,0.00175649,0.00634402,0.00016849,0.02670064,-0.02483395,0.0029
 9124,-0.05597928,0.17286759,-0.00011646,0.00069620,0.00041569,-0.00129
 849,-0.00051302,0.00021213,0.00115344,0.00034151,-0.00000018,-0.000359
 68,-0.00022060,0.00002930,-0.00072525,0.00021009,0.00008408,0.00028797
 ,0.00008156,-0.00004584,-0.00002469,-0.00003838,-0.00001698,0.00000151
 ,0.00003475,0.00000549,-0.00224619,-0.00460339,-0.00135214,-0.00499276
 ,0.01535840,-0.00206682,-0.00227806,-0.00177134,-0.00020708,0.00018244
 ,0.00064537,0.00022960,-0.00034082,-0.00016364,-0.00009141,0.00009149,
 -0.00004553,-0.00013694,-0.00002398,-0.00000995,0.00000386,-0.00003021
 ,-0.00001989,0.00000291,0.00000297,0.00000901,0.00000523,0.00000558,-0
 .00000310,0.00000507,-0.00000048,-0.00001217,0.00000287,-0.00002124,0.
 00000726,-0.00000058,0.00000456,-0.00000379,0.00000033,0.00015300,0.00
 014928,-0.00037650,-0.00003763,-0.00066718,-0.00006792,0.00006801,-0.0
 0000891,-0.00005759,-0.04746095,0.04691178,-0.11266937,-0.00103848,-0.
 00025044,-0.00111681,-0.00138476,0.00439684,0.00035830,-0.01050095,0.0
 1482919,-0.04264094,0.01156693,-0.01499732,0.00787084,0.05865023,-0.08
 028094,0.15329712,0.00132060,-0.00044463,-0.00009849,-0.00147949,-0.00
 011996,0.00004307,0.00171388,0.00031997,-0.00002572,-0.00050792,-0.000
 31554,-0.00002517,-0.00095842,0.00031690,0.00008733,0.00044282,0.00007
 842,-0.00000673,-0.00002332,-0.00004524,-0.00000625,0.00000668,0.00004
 411,0.00000636,0.00009805,0.00013457,0.00001017,0.00119121,-0.00139959
 ,-0.00014866,-0.00083665,-0.00003954,0.00002128,0.00003357,0.00068392,
 0.00011322,-0.00026604,-0.00018361,-0.00003326,0.00016533,-0.00003691,
 -0.00001623,-0.00003932,-0.00001841,-0.00000255,-0.00003943,-0.0000191
 5,0.00000037,0.00000835,0.00000306,-0.00000297,0.00000870,0.00000177,0
 .00000333,0.00000296,-0.00001342,0.00000202,-0.00003215,0.00001393,0.0
 0000330,0.00000280,-0.00001198,-0.00000590,0.00050354,-0.00008887,-0.0
 0004561,0.00001205,-0.00073823,-0.00011087,0.00008929,-0.00002300,-0.0
 0000780,-0.14944321,-0.06337355,-0.00590771,-0.00003950,0.00005348,-0.
 00000134,-0.04592694,-0.00493461,-0.02349912,0.00184832,-0.00828785,-0
 .00383955,-0.04095329,-0.01174320,0.02378408,0.00326761,-0.00614601,0.
 00071296,0.22982993,0.00051528,-0.00051069,-0.00017825,-0.00126751,0.0
 0007899,0.00005989,0.00119316,0.00005537,-0.00002387,-0.00034948,-0.00
 007683,-0.00000314,-0.00071100,0.00032386,0.00007323,0.00028509,0.0000
 4207,-0.00000313,-0.00001864,-0.00004253,-0.00000417,-0.00000171,0.000
 03455,0.00000520,-0.00040587,-0.00100409,-0.00011130,-0.00150822,0.002
 32137,0.00000638,0.00055490,-0.00004785,-0.00000505,0.00036509,0.00094
 761,0.00008322,-0.00043341,0.00016747,0.00010358,0.00001514,-0.0001115
 4,-0.00000293,-0.00002564,-0.00001328,0.00000225,-0.00002507,-0.000011
 10,-0.00000481,0.00000249,0.00000239,0.00000650,0.00000163,0.00000561,
 -0.00000663,0.00000469,-0.00000621,-0.00000301,-0.00002371,0.00000864,
 0.00000256,0.00000425,-0.00000758,0.,-0.00015865,0.00004167,0.00005589
 ,-0.00006069,-0.00029433,-0.00004258,0.00005171,0.00003337,0.00000553,
 -0.06311620,-0.10815765,-0.00444306,0.00008010,0.00053121,0.00011648,0
 .01365487,0.00721589,0.00755211,-0.02219455,-0.02906363,-0.02657652,0.
 00205657,0.00777155,-0.00314531,-0.02481777,-0.04641359,0.01993832,0.0
 9633316,0.16617930,0.00004529,-0.00013952,0.00051728,-0.00012871,0.000
 01336,0.00002994,0.00010456,0.00001133,-0.00010967,-0.00003010,-0.0000
 0443,0.00003913,-0.00006638,0.00003157,0.00003428,0.00002411,0.0000052
 1,-0.00001427,-0.00000223,-0.00000307,-0.00001008,-0.00000051,0.000003
 33,0.00000085,-0.00007103,-0.00013312,-0.00016912,-0.00016502,0.000001
 86,0.00269625,0.00011041,0.00001951,-0.00016874,0.00006558,0.00006996,
 0.00030302,-0.00007074,0.00009364,-0.00039027,-0.00000837,-0.00000079,
 -0.00009604,0.00000083,0.00000203,0.00000410,-0.00000496,-0.00000511,0
 .00000203,-0.00000093,0.00000385,0.00000567,0.00000116,-0.00000402,0.0
 0000209,-0.00000128,-0.00000374,0.00000102,-0.00000233,0.00000104,-0.0
 0000182,0.00000254,0.00000213,0.00000256,-0.00005592,0.00005298,-0.000
 27733,-0.00000936,-0.00001493,0.00000416,0.00000340,0.00000856,-0.0000
 1643,-0.00586868,-0.00443259,-0.06177510,0.00000269,0.00011744,-0.0002
 4990,-0.03450762,-0.00104885,-0.00624106,-0.01941035,-0.03734505,-0.01
 760419,0.03965223,0.00677951,-0.01176728,0.01139526,0.02937528,-0.0016
 7570,0.00899645,0.00654261,0.09692462\\0.00001916,-0.00000707,0.000002
 41,-0.00000484,0.00001708,-0.00000101,-0.00001908,-0.00002233,-0.00000
 885,0.00000583,0.00001880,0.00000512,-0.00002185,-0.00000995,0.0000057
 9,0.00001649,-0.00000021,-0.00000270,0.00000704,0.00000164,-0.00000013
 ,-0.00000081,-0.00000179,0.00000039,0.00000879,-0.00000150,-0.00000218
 ,-0.00000665,-0.00000460,0.00000065,0.00000351,0.00000102,-0.00000109,
 -0.00000109,0.00000223,0.00000086,-0.00000339,0.00000526,-0.00000120,-
 0.00000180,-0.00000155,0.00000077,0.00000232,-0.00000058,0.00000222,0.
 00000154,0.00000051,-0.00000243,0.00000084,-0.00000106,-0.00000319,0.0
 0000010,-0.00000183,0.00000192,-0.00000006,-0.00000058,-0.00000239,0.0
 0000005,-0.00000413,-0.00000088,-0.00000108,-0.00000051,0.00000250,-0.
 00000076,0.00000185,0.00000091,0.00000032,0.00000238,0.00000030,-0.000
 00236,0.00000053,0.00000120,-0.00001384,-0.00000546,-0.00000112,0.0000
 0051,0.00000090,0.00000005,0.00000517,-0.00000646,0.00000845,-0.000001
 52,0.00000546,0.00000849,0.00000281,-0.00000235,-0.00000836,-0.0000034
 9,0.00000694,-0.00000637,0.00000814,0.00000735,-0.00000011\\\@


 FESTINA LENTE!
     - IMPERATOR AUGUSTUS 
 Job cpu time:       0 days  5 hours 24 minutes 31.3 seconds.
 File lengths (MBytes):  RWF=    801 Int=      0 D2E=      0 Chk=     18 Scr=      1
 Normal termination of Gaussian 09 at Thu Nov 14 18:55:33 2019.
pbs_rusage has been removed.
Please contact help@nci.org.au if you require this functionality.
