 Entering Gaussian System, Link 0=/apps/gaussian/g09e01/g09/g09
 AtFile(1): /home/507/hio507/Basis/6-31pGd.gbs
 Initial command:
 /apps/gaussian/g09e01/g09/l1.exe "/jobfs/local/4046965.r-man2/Gau-7252.inp" -scrdir="/jobfs/local/4046965.r-man2/"
 Entering Link 1 = /apps/gaussian/g09e01/g09/l1.exe PID=      7253.
  
 Copyright (c) 1988,1990,1992,1993,1995,1998,2003,2009,2015,
            Gaussian, Inc.  All Rights Reserved.
  
 This is part of the Gaussian(R) 09 program.  It is based on
 the Gaussian(R) 03 system (copyright 2003, Gaussian, Inc.),
 the Gaussian(R) 98 system (copyright 1998, Gaussian, Inc.),
 the Gaussian(R) 94 system (copyright 1995, Gaussian, Inc.),
 the Gaussian 92(TM) system (copyright 1992, Gaussian, Inc.),
 the Gaussian 90(TM) system (copyright 1990, Gaussian, Inc.),
 the Gaussian 88(TM) system (copyright 1988, Gaussian, Inc.),
 the Gaussian 86(TM) system (copyright 1986, Carnegie Mellon
 University), and the Gaussian 82(TM) system (copyright 1983,
 Carnegie Mellon University). Gaussian is a federally registered
 trademark of Gaussian, Inc.
  
 This software contains proprietary and confidential information,
 including trade secrets, belonging to Gaussian, Inc.
  
 This software is provided under written license and may be
 used, copied, transmitted, or stored only in accord with that
 written license.
  
 The following legend is applicable only to US Government
 contracts under FAR:
  
                    RESTRICTED RIGHTS LEGEND
  
 Use, reproduction and disclosure by the US Government is
 subject to restrictions as set forth in subparagraphs (a)
 and (c) of the Commercial Computer Software - Restricted
 Rights clause in FAR 52.227-19.
  
 Gaussian, Inc.
 340 Quinnipiac St., Bldg. 40, Wallingford CT 06492
  
  
 ---------------------------------------------------------------
 Warning -- This program may not be used in any manner that
 competes with the business of Gaussian, Inc. or will provide
 assistance to any competitor of Gaussian, Inc.  The licensee
 of this program is prohibited from giving any competitor of
 Gaussian, Inc. access to this program.  By using this program,
 the user acknowledges that Gaussian, Inc. is engaged in the
 business of creating and licensing software in the field of
 computational chemistry and represents and warrants to the
 licensee that it is not a competitor of Gaussian, Inc. and that
 it will not use this program in any manner prohibited above.
 ---------------------------------------------------------------
  

 Cite this work as:
 Gaussian 09, Revision E.01,
 M. J. Frisch, G. W. Trucks, H. B. Schlegel, G. E. Scuseria, 
 M. A. Robb, J. R. Cheeseman, G. Scalmani, V. Barone, B. Mennucci, 
 G. A. Petersson, H. Nakatsuji, M. Caricato, X. Li, H. P. Hratchian, 
 A. F. Izmaylov, J. Bloino, G. Zheng, J. L. Sonnenberg, M. Hada, 
 M. Ehara, K. Toyota, R. Fukuda, J. Hasegawa, M. Ishida, T. Nakajima, 
 Y. Honda, O. Kitao, H. Nakai, T. Vreven, J. A. Montgomery, Jr., 
 J. E. Peralta, F. Ogliaro, M. Bearpark, J. J. Heyd, E. Brothers, 
 K. N. Kudin, V. N. Staroverov, T. Keith, R. Kobayashi, J. Normand, 
 K. Raghavachari, A. Rendell, J. C. Burant, S. S. Iyengar, J. Tomasi, 
 M. Cossi, N. Rega, J. M. Millam, M. Klene, J. E. Knox, J. B. Cross, 
 V. Bakken, C. Adamo, J. Jaramillo, R. Gomperts, R. E. Stratmann, 
 O. Yazyev, A. J. Austin, R. Cammi, C. Pomelli, J. W. Ochterski, 
 R. L. Martin, K. Morokuma, V. G. Zakrzewski, G. A. Voth, 
 P. Salvador, J. J. Dannenberg, S. Dapprich, A. D. Daniels, 
 O. Farkas, J. B. Foresman, J. V. Ortiz, J. Cioslowski, 
 and D. J. Fox, Gaussian, Inc., Wallingford CT, 2013.
 
 ******************************************
 Gaussian 09:  ES64L-G09RevE.01 30-Nov-2015
                 9-Dec-2019 
 ******************************************
 %chk=CP22CA_c2.MP2_6-31pGd.chk
 %mem=1114112000
 %nproc=4
 Will use up to    4 processors via shared memory.
 -------------------------------------------------------------
 # MP2/Gen 6D SCF=Tight INT(grid=ultrafine) maxdisk=3489660928
 -------------------------------------------------------------
 1/38=1/1;
 2/12=2,17=6,18=5,40=1/2;
 3/5=7,8=2,11=9,16=1,25=1,30=1,75=-5/1,2,3;
 4//1;
 5/5=2,32=2,38=5/2;
 8/10=1/1;
 9/16=-3/6;
 6/7=2,8=2,9=2,10=2/1;
 99/5=1,9=1/99;
 ---------------------
 CP22CA_c2.MP2_6-31pGd
 ---------------------
 Symbolic Z-matrix:
 Charge =  0 Multiplicity = 1
 C                    -5.89402   1.46352   0.31896 
 N                    -4.65949   0.82543   0.17304 
 C                    -3.41221   1.40234   0.20912 
 O                    -3.17209   2.56946   0.37435 
 O                    -2.4888    0.44704   0.02868 
 C                    -1.12372   0.89708   0.04083 
 C                    -0.23999  -0.31188  -0.17616 
 C                     1.23405   0.08408  -0.17625 
 C                    -7.03603   0.65959   0.24498 
 C                    -8.27764   1.24783   0.38373 
 C                    -8.45099   2.60605   0.59434 
 C                    -7.29892   3.3761    0.66282 
 C                    -6.0262    2.83841   0.53039 
 H                    -4.66721  -0.17288   0.02383 
 H                    -0.92212   1.38129   0.99933 
 H                    -0.99285   1.64302  -0.74675 
 H                    -0.50827  -0.78325  -1.12548 
 H                    -0.43818  -1.04375   0.61153 
 H                     1.45232   0.80206  -0.97046 
 H                     1.8723   -0.7863   -0.33252 
 H                     1.52267   0.54052   0.77363 
 H                    -6.94627  -0.40712   0.08146 
 Cl                   -7.45531   5.08636   0.92551 
 H                    -5.15577   3.47381   0.59018 
 S                    -9.74571   0.19279   0.28544 
 H                    -9.42939   3.05291   0.70118 
 F                    -9.08537  -0.92922   1.24336 
 F                    -10.41802   0.89524   1.57223 
 F                    -9.17742  -0.59132  -1.00868 
 F                    -10.51015   1.23331  -0.68112 
 F                    -11.04536  -0.74409   0.198 
 
                          Input orientation:                          
 ---------------------------------------------------------------------
 Center     Atomic      Atomic             Coordinates (Angstroms)
 Number     Number       Type             X           Y           Z
 ---------------------------------------------------------------------
      1          6           0       -5.894024    1.463516    0.318964
      2          7           0       -4.659486    0.825428    0.173038
      3          6           0       -3.412212    1.402336    0.209122
      4          8           0       -3.172091    2.569463    0.374349
      5          8           0       -2.488798    0.447041    0.028678
      6          6           0       -1.123719    0.897077    0.040832
      7          6           0       -0.239991   -0.311880   -0.176159
      8          6           0        1.234045    0.084081   -0.176246
      9          6           0       -7.036032    0.659594    0.244978
     10          6           0       -8.277638    1.247834    0.383726
     11          6           0       -8.450994    2.606049    0.594345
     12          6           0       -7.298918    3.376099    0.662824
     13          6           0       -6.026201    2.838408    0.530390
     14          1           0       -4.667211   -0.172883    0.023828
     15          1           0       -0.922123    1.381292    0.999334
     16          1           0       -0.992849    1.643015   -0.746747
     17          1           0       -0.508271   -0.783247   -1.125484
     18          1           0       -0.438182   -1.043755    0.611533
     19          1           0        1.452322    0.802061   -0.970455
     20          1           0        1.872299   -0.786301   -0.332519
     21          1           0        1.522667    0.540516    0.773634
     22          1           0       -6.946274   -0.407120    0.081463
     23         17           0       -7.455313    5.086358    0.925510
     24          1           0       -5.155773    3.473810    0.590180
     25         16           0       -9.745709    0.192792    0.285439
     26          1           0       -9.429387    3.052906    0.701175
     27          9           0       -9.085368   -0.929216    1.243359
     28          9           0      -10.418019    0.895239    1.572234
     29          9           0       -9.177417   -0.591316   -1.008685
     30          9           0      -10.510148    1.233312   -0.681115
     31          9           0      -11.045357   -0.744090    0.197998
 ---------------------------------------------------------------------
                    Distance matrix (angstroms):
                    1          2          3          4          5
     1  C    0.000000
     2  N    1.397332   0.000000
     3  C    2.484995   1.374706   0.000000
     4  O    2.938555   2.300984   1.202973   0.000000
     5  O    3.565537   2.208144   1.340837   2.256337   0.000000
     6  C    4.811862   3.538962   2.349640   2.665321   1.437400
     7  C    5.946870   4.576826   3.626288   4.147579   2.382236
     8  C    7.277187   5.950235   4.844999   5.088646   3.746104
     9  C    1.398551   2.383411   3.699327   4.312119   4.557335
    10  C    2.394228   3.648814   4.871009   5.273841   5.854742
    11  C    2.814127   4.209947   5.194868   5.283612   6.366246
    12  C    2.397904   3.703029   4.382702   4.214805   5.667344
    13  C    1.397319   2.459208   2.999743   2.870997   4.299253
    14  H    2.066393   1.009429   2.022540   3.143041   2.264909
    15  H    5.018911   3.867768   2.612551   2.620060   2.066270
    16  H    5.018912   3.867645   2.612457   2.619973   2.066277
    17  H    6.011715   4.637518   3.871798   4.537192   2.601574
    18  H    6.011507   4.637405   3.871712   4.537165   2.601388
    19  H    7.487919   6.217903   5.041371   5.130050   4.081266
    20  H    8.111836   6.746664   5.745396   6.099729   4.546511
    21  H    7.487721   6.217789   5.041274   5.129992   4.081121
    22  H    2.159379   2.599415   3.972408   4.815629   4.538884
    23  Cl   3.991304   5.151543   5.516511   4.998452   6.855206
    24  H    2.158670   2.726580   2.734267   2.190758   4.073006
    25  S    4.056025   5.126649   6.448411   6.990631   7.265902
    26  H    3.895001   5.290798   6.258825   6.284447   7.444096
    27  F    4.094429   4.879836   6.220167   6.925516   6.847209
    28  F    4.728653   5.926494   7.155177   7.532690   8.090488
    29  F    4.094589   4.880096   6.220554   6.925839   6.847768
    30  F    4.728821   5.926736   7.155542   7.533019   8.090988
    31  F    5.605746   6.575969   7.929197   8.543948   8.640727
                    6          7          8          9         10
     6  C    0.000000
     7  C    1.513155   0.000000
     8  C    2.503426   1.526292   0.000000
     9  C    5.920600   6.878029   8.300772   0.000000
    10  C    7.170715   8.206701   9.598959   1.380892   0.000000
    11  C    7.544264   8.748060  10.037636   2.431638   1.385337
    12  C    6.683226   8.008342   9.184383   2.760997   2.359089
    13  C    5.295542   6.625991   7.797232   2.418356   2.760508
    14  H    3.701545   4.433913   5.910235   2.520563   3.896556
    15  H    1.092626   2.171157   2.777375   6.202401   7.382438
    16  H    1.092626   2.171170   2.777554   6.202475   7.382566
    17  H    2.136015   1.093334   2.165404   6.824340   8.171051
    18  H    2.135999   1.093334   2.165399   6.824030   8.170701
    19  H    2.769065   2.176166   1.092661   8.576114   9.833852
    20  H    3.456773   2.170552   1.090575   9.043367  10.376509
    21  H    2.769025   2.176155   1.092661   8.575837   9.833530
    22  H    5.966969   6.711905   8.199104   1.082901   2.145406
    23  Cl   7.643416   9.078299  10.086704   4.498351   3.962829
    24  H    4.816513   6.251691   7.273751   3.402109   3.839744
    25  S    8.654164   9.530291  10.989994   2.749890   1.810527
    26  H    8.606263   9.825298  11.103719   3.415290   2.164621
    27  F    8.256468   8.979801  10.465770   2.778644   2.476075
    28  F    9.419618  10.397416  11.810409   3.640738   2.473480
    29  F    8.257048   8.980465  10.466501   2.778845   2.476062
    30  F    9.420154  10.398015  11.811084   3.640918   2.473499
    31  F   10.057685  10.820477  12.312987   4.248203   3.415044
                   11         12         13         14         15
    11  C    0.000000
    12  C    1.387424   0.000000
    13  C    2.436740   1.387970   0.000000
    14  H    4.729162   4.464244   3.342355   0.000000
    15  H    7.638583   6.689993   5.328669   4.170462   0.000000
    16  H    7.638710   6.690066   5.328666   4.170396   1.767004
    17  H    8.805225   8.161563   6.804841   4.357779   3.061267
    18  H    8.804915   8.161339   6.804685   4.357579   2.503087
    19  H   10.187181   9.267011   7.894780   6.275970   3.139040
    20  H   10.905848  10.120648   8.733238   6.577876   3.779033
    21  H   10.186879   9.266778   7.894611   6.275805   2.595158
    22  H    3.406820   3.843838   3.403164   2.291794   6.350693
    23  Cl   2.693137   1.737368   2.692909   6.020479   7.511027
    24  H    3.407567   2.146601   1.079331   3.722609   4.740235
    25  S    2.755996   4.032697   4.570998   5.098363   8.931845
    26  H    1.080900   2.155184   3.414213   5.791618   8.675063
    27  F    3.649897   4.697251   4.905285   4.645365   8.487436
    28  F    2.784299   4.087846   4.914205   6.050640   9.525571
    29  F    3.649731   4.697136   4.905295   4.645764   8.721995
    30  F    2.784118   4.087750   4.914250   6.050971   9.735298
    31  F    4.255730   5.588186   6.175492   6.406041  10.374934
                   16         17         18         19         20
    16  H    0.000000
    17  H    2.503000   0.000000
    18  H    3.061260   1.757841   0.000000
    19  H    2.595402   2.526096   3.079566   0.000000
    20  H    3.779185   2.509167   2.509151   1.762453   0.000000
    21  H    3.139249   3.079563   2.526088   1.764994   1.762459
    22  H    6.350768   6.560951   6.560605   8.550150   8.836424
    23  Cl   7.511091   9.323102   9.322928  10.064584  11.093923
    24  H    4.740161   6.531870   6.531808   7.296626   8.270050
    25  S    8.932027   9.395404   9.394969  11.284697  11.675556
    26  H    8.675220   9.881248   9.880912  11.237092  11.980657
    27  F    8.721569   8.899400   8.670995  10.906017  11.071327
    28  F    9.735023  10.406638  10.211748  12.139973  12.550203
    29  F    8.488109   8.672057   8.899665  10.720742  11.072102
    30  F    9.526339  10.212811  10.406751  11.973737  12.550911
    31  F   10.375150  10.619949  10.619462  12.647049  12.928615
                   21         22         23         24         25
    21  H    0.000000
    22  H    8.549858   0.000000
    23  Cl  10.064386   5.581204   0.000000
    24  H    7.296536   4.304220   2.828540   0.000000
    25  S   11.284305   2.870251   5.440826   5.650262   0.000000
    26  H   11.236763   4.303682   2.842925   4.295725   2.907430
    27  F   10.719662   2.489640   6.240612   5.937592   1.616343
    28  F   11.972618   3.996442   5.173138   5.941775   1.612847
    29  F   10.906397   2.490050   6.240412   5.937612   1.616335
    30  F   12.140218   3.996717   5.172932   5.941830   1.612847
    31  F   12.646612   4.114561   6.885624   7.254770   1.604518
                   26         27         28         29         30
    26  H    0.000000
    27  F    4.033561   0.000000
    28  F    2.528174   2.283146   0.000000
    29  F    4.033295   2.279112   3.226466   0.000000
    30  F    2.527784   3.226473   2.280431   2.283143   0.000000
    31  F    4.157129   2.229038   2.229232   2.229041   2.229217
                   31
    31  F    0.000000
 Stoichiometry    C10H11ClF5NO2S
 Framework group  C1[X(C10H11ClF5NO2S)]
 Deg. of freedom    87
 Full point group                 C1      NOp   1
 Largest Abelian subgroup         C1      NOp   1
 Largest concise Abelian subgroup C1      NOp   1
                         Standard orientation:                         
 ---------------------------------------------------------------------
 Center     Atomic      Atomic             Coordinates (Angstroms)
 Number     Number       Type             X           Y           Z
 ---------------------------------------------------------------------
      1          6           0        0.592396    0.239894   -0.000344
      2          7           0        1.835707   -0.397848   -0.000563
      3          6           0        3.076949    0.193028   -0.000250
      4          8           0        3.303048    1.374562   -0.000094
      5          8           0        4.012731   -0.767261   -0.000111
      6          6           0        5.373424   -0.303973    0.000061
      7          6           0        6.272583   -1.520998    0.000039
      8          6           0        7.742968   -1.111686    0.000489
      9          6           0       -0.540747   -0.579820   -0.000286
     10          6           0       -1.790525    0.007478   -0.000065
     11          6           0       -1.980562    1.379719    0.000071
     12          6           0       -0.836928    2.165244   -0.000012
     13          6           0        0.443369    1.629243   -0.000226
     14          1           0        1.840129   -1.407268   -0.000554
     15          1           0        5.532214    0.318843    0.883643
     16          1           0        5.532386    0.319027   -0.883360
     17          1           0        6.046711   -2.130556   -0.879052
     18          1           0        6.046271   -2.130884    0.878788
     19          1           0        7.989701   -0.516262   -0.881838
     20          1           0        8.392332   -1.987860    0.000504
     21          1           0        7.989230   -0.516569    0.883156
     22          1           0       -0.437927   -1.657829   -0.000375
     23         17           0       -1.014277    3.893537    0.000149
     24          1           0        1.306765    2.276934   -0.000266
     25         16           0       -3.246940   -1.068096    0.000066
     26          1           0       -2.965189    1.825649    0.000239
     27          9           0       -2.620205   -2.028350    1.139224
     28          9           0       -3.976203   -0.191499    1.140691
     29          9           0       -2.620813   -2.027788   -1.139888
     30          9           0       -3.976837   -0.190959   -1.139739
     31          9           0       -4.536235   -2.023187    0.000184
 ---------------------------------------------------------------------
 Rotational constants (GHZ):      0.4461125      0.1174702      0.0966648
 General basis read from cards:  (6D, 7F)
 There are   410 symmetry adapted cartesian basis functions of A   symmetry.
 There are   410 symmetry adapted basis functions of A   symmetry.
   410 basis functions,   732 primitive gaussians,   410 cartesian basis functions
    86 alpha electrons       86 beta electrons
       nuclear repulsion energy      2007.5868262429 Hartrees.
 NAtoms=   31 NActive=   31 NUniq=   31 SFac= 1.00D+00 NAtFMM=   60 NAOKFM=F Big=F
 Integral buffers will be    131072 words long.
 Raffenetti 1 integral format.
 Two-electron integral symmetry is turned on.
 One-electron integrals computed using PRISM.
 NBasis=   410 RedAO= T EigKep=  1.01D-06  NBF=   410
 NBsUse=   409 1.00D-06 EigRej=  6.10D-07 NBFU=   409
 ExpMin= 4.05D-02 ExpMax= 2.52D+04 ExpMxC= 3.78D+03 IAcc=3 IRadAn=         5 AccDes= 0.00D+00
 Harris functional with IExCor=  205 and IRadAn=       5 diagonalized for initial guess.
 HarFok:  IExCor=  205 AccDes= 0.00D+00 IRadAn=         5 IDoV= 1 UseB2=F ITyADJ=14
 ICtDFT=  3500011 ScaDFX=  1.000000  1.000000  1.000000  1.000000
 FoFCou: FMM=F IPFlag=           0 FMFlag=      100000 FMFlg1=           0
         NFxFlg=           0 DoJE=T BraDBF=F KetDBF=T FulRan=T
         wScrn=  0.000000 ICntrl=     500 IOpCl=  0 I1Cent=   200000004 NGrid=           0
         NMat0=    1 NMatS0=      1 NMatT0=    0 NMatD0=    1 NMtDS0=    0 NMtDT0=    0
 Petite list used in FoFCou.
 Requested convergence on RMS density matrix=1.00D-08 within 128 cycles.
 Requested convergence on MAX density matrix=1.00D-06.
 Requested convergence on             energy=1.00D-06.
 No special actions if energy rises.
 Initial convergence to 1.0D-05 achieved.  Increase integral accuracy.
 SCF Done:  E(RHF) =  -1943.35391630     A.U. after   18 cycles
            NFock= 18  Conv=0.60D-08     -V/T= 2.0019
 ExpMin= 4.05D-02 ExpMax= 2.52D+04 ExpMxC= 3.78D+03 IAcc=3 IRadAn=         5 AccDes= 0.00D+00
 HarFok:  IExCor=  205 AccDes= 0.00D+00 IRadAn=         5 IDoV=-2 UseB2=F ITyADJ=14
 ICtDFT= 12500011 ScaDFX=  1.000000  1.000000  1.000000  1.000000
 Range of M.O.s used for correlation:    29   409
 NBasis=   410 NAE=    86 NBE=    86 NFC=    28 NFV=     0
 NROrb=    381 NOA=    58 NOB=    58 NVA=   323 NVB=   323

 **** Warning!!: The largest alpha MO coefficient is  0.18798464D+03

 Fully direct method using O(OVN) memory.
 JobTyp=1 Pass  1:  I=   1 to  58 NPSUse=  4 ParTrn=T ParDer=T DoDerP=F.
 Spin components of T(2) and E(2):
     alpha-alpha T2 =       0.1305571866D+00 E2=     -0.4167071805D+00
     alpha-beta  T2 =       0.6630481843D+00 E2=     -0.2178251312D+01
     beta-beta   T2 =       0.1305571866D+00 E2=     -0.4167071805D+00
 ANorm=    0.1387141866D+01
 E2 =    -0.3011665673D+01 EUMP2 =    -0.19463655819698D+04

 **********************************************************************

            Population analysis using the SCF density.

 **********************************************************************

 Orbital symmetries:
       Occupied  (A) (A) (A) (A) (A) (A) (A) (A) (A) (A) (A) (A)
                 (A) (A) (A) (A) (A) (A) (A) (A) (A) (A) (A) (A)
                 (A) (A) (A) (A) (A) (A) (A) (A) (A) (A) (A) (A)
                 (A) (A) (A) (A) (A) (A) (A) (A) (A) (A) (A) (A)
                 (A) (A) (A) (A) (A) (A) (A) (A) (A) (A) (A) (A)
                 (A) (A) (A) (A) (A) (A) (A) (A) (A) (A) (A) (A)
                 (A) (A) (A) (A) (A) (A) (A) (A) (A) (A) (A) (A)
                 (A) (A)
       Virtual   (A) (A) (A) (A) (A) (A) (A) (A) (A) (A) (A) (A)
                 (A) (A) (A) (A) (A) (A) (A) (A) (A) (A) (A) (A)
                 (A) (A) (A) (A) (A) (A) (A) (A) (A) (A) (A) (A)
                 (A) (A) (A) (A) (A) (A) (A) (A) (A) (A) (A) (A)
                 (A) (A) (A) (A) (A) (A) (A) (A) (A) (A) (A) (A)
                 (A) (A) (A) (A) (A) (A) (A) (A) (A) (A) (A) (A)
                 (A) (A) (A) (A) (A) (A) (A) (A) (A) (A) (A) (A)
                 (A) (A) (A) (A) (A) (A) (A) (A) (A) (A) (A) (A)
                 (A) (A) (A) (A) (A) (A) (A) (A) (A) (A) (A) (A)
                 (A) (A) (A) (A) (A) (A) (A) (A) (A) (A) (A) (A)
                 (A) (A) (A) (A) (A) (A) (A) (A) (A) (A) (A) (A)
                 (A) (A) (A) (A) (A) (A) (A) (A) (A) (A) (A) (A)
                 (A) (A) (A) (A) (A) (A) (A) (A) (A) (A) (A) (A)
                 (A) (A) (A) (A) (A) (A) (A) (A) (A) (A) (A) (A)
                 (A) (A) (A) (A) (A) (A) (A) (A) (A) (A) (A) (A)
                 (A) (A) (A) (A) (A) (A) (A) (A) (A) (A) (A) (A)
                 (A) (A) (A) (A) (A) (A) (A) (A) (A) (A) (A) (A)
                 (A) (A) (A) (A) (A) (A) (A) (A) (A) (A) (A) (A)
                 (A) (A) (A) (A) (A) (A) (A) (A) (A) (A) (A) (A)
                 (A) (A) (A) (A) (A) (A) (A) (A) (A) (A) (A) (A)
                 (A) (A) (A) (A) (A) (A) (A) (A) (A) (A) (A) (A)
                 (A) (A) (A) (A) (A) (A) (A) (A) (A) (A) (A) (A)
                 (A) (A) (A) (A) (A) (A) (A) (A) (A) (A) (A) (A)
                 (A) (A) (A) (A) (A) (A) (A) (A) (A) (A) (A) (A)
                 (A) (A) (A) (A) (A) (A) (A) (A) (A) (A) (A) (A)
                 (A) (A) (A) (A) (A) (A) (A) (A) (A) (A) (A) (A)
                 (A) (A) (A) (A) (A) (A) (A) (A) (A) (A) (A)
 The electronic state is 1-A.
 Alpha  occ. eigenvalues -- -104.84609 -92.41059 -26.36482 -26.36479 -26.36477
 Alpha  occ. eigenvalues --  -26.36469 -26.36468 -20.63572 -20.57247 -15.64164
 Alpha  occ. eigenvalues --  -11.44070 -11.33632 -11.33550 -11.32113 -11.30586
 Alpha  occ. eigenvalues --  -11.28800 -11.28444 -11.27423 -11.24471 -11.23541
 Alpha  occ. eigenvalues --  -10.57849  -9.35094  -8.04792  -8.04446  -8.04446
 Alpha  occ. eigenvalues --   -7.03971  -7.03957  -7.03623  -1.76445  -1.66499
 Alpha  occ. eigenvalues --   -1.66404  -1.63509  -1.62026  -1.49968  -1.39189
 Alpha  occ. eigenvalues --   -1.29867  -1.22175  -1.16069  -1.10932  -1.08600
 Alpha  occ. eigenvalues --   -1.04825  -1.03154  -0.96855  -0.91364  -0.88803
 Alpha  occ. eigenvalues --   -0.87044  -0.86870  -0.84635  -0.83052  -0.80051
 Alpha  occ. eigenvalues --   -0.78559  -0.78202  -0.76516  -0.75562  -0.72982
 Alpha  occ. eigenvalues --   -0.72307  -0.71488  -0.69807  -0.69299  -0.68913
 Alpha  occ. eigenvalues --   -0.68735  -0.68649  -0.67677  -0.66711  -0.66075
 Alpha  occ. eigenvalues --   -0.65476  -0.65184  -0.64750  -0.62622  -0.62213
 Alpha  occ. eigenvalues --   -0.60561  -0.59599  -0.57502  -0.56685  -0.56430
 Alpha  occ. eigenvalues --   -0.54268  -0.53276  -0.51965  -0.50614  -0.50275
 Alpha  occ. eigenvalues --   -0.48233  -0.48043  -0.47095  -0.47092  -0.37516
 Alpha  occ. eigenvalues --   -0.34394
 Alpha virt. eigenvalues --    0.05130   0.07108   0.07163   0.07539   0.08041
 Alpha virt. eigenvalues --    0.08539   0.08815   0.09132   0.09662   0.10416
 Alpha virt. eigenvalues --    0.10460   0.10614   0.11734   0.12010   0.12284
 Alpha virt. eigenvalues --    0.12815   0.13715   0.13848   0.14217   0.14378
 Alpha virt. eigenvalues --    0.14903   0.15532   0.15543   0.15733   0.17730
 Alpha virt. eigenvalues --    0.17838   0.18400   0.18530   0.19711   0.19916
 Alpha virt. eigenvalues --    0.20580   0.20632   0.20792   0.22438   0.22989
 Alpha virt. eigenvalues --    0.23717   0.24118   0.24541   0.24934   0.25197
 Alpha virt. eigenvalues --    0.26537   0.26783   0.27253   0.28115   0.28171
 Alpha virt. eigenvalues --    0.28461   0.29608   0.29846   0.29944   0.31031
 Alpha virt. eigenvalues --    0.31523   0.32703   0.32793   0.33035   0.33452
 Alpha virt. eigenvalues --    0.33616   0.34959   0.35269   0.35445   0.36065
 Alpha virt. eigenvalues --    0.36279   0.36393   0.36937   0.38516   0.38530
 Alpha virt. eigenvalues --    0.38759   0.39456   0.40787   0.40984   0.41320
 Alpha virt. eigenvalues --    0.41359   0.41819   0.42426   0.42505   0.42984
 Alpha virt. eigenvalues --    0.43751   0.43918   0.44319   0.44755   0.45162
 Alpha virt. eigenvalues --    0.46198   0.46426   0.46468   0.46830   0.47056
 Alpha virt. eigenvalues --    0.47748   0.48543   0.48848   0.49232   0.50518
 Alpha virt. eigenvalues --    0.51472   0.51591   0.52476   0.52924   0.53309
 Alpha virt. eigenvalues --    0.54734   0.55233   0.57354   0.58462   0.59897
 Alpha virt. eigenvalues --    0.61091   0.61277   0.61614   0.62702   0.63580
 Alpha virt. eigenvalues --    0.67246   0.67520   0.68941   0.70534   0.72271
 Alpha virt. eigenvalues --    0.74939   0.75039   0.75727   0.78126   0.79012
 Alpha virt. eigenvalues --    0.80851   0.81292   0.83992   0.84729   0.86469
 Alpha virt. eigenvalues --    0.87502   0.88125   0.90510   0.91930   0.92099
 Alpha virt. eigenvalues --    0.92747   0.93388   0.93393   0.94530   0.96372
 Alpha virt. eigenvalues --    0.96577   0.97347   0.97480   0.98480   1.00286
 Alpha virt. eigenvalues --    1.01364   1.04158   1.04694   1.06624   1.06895
 Alpha virt. eigenvalues --    1.08517   1.09142   1.09557   1.13882   1.14148
 Alpha virt. eigenvalues --    1.15436   1.16170   1.16897   1.17939   1.18244
 Alpha virt. eigenvalues --    1.19488   1.19698   1.20780   1.21701   1.21779
 Alpha virt. eigenvalues --    1.22337   1.24015   1.25342   1.26591   1.28733
 Alpha virt. eigenvalues --    1.29459   1.29812   1.31515   1.34441   1.35128
 Alpha virt. eigenvalues --    1.36544   1.36982   1.38597   1.40414   1.42120
 Alpha virt. eigenvalues --    1.43745   1.44737   1.46547   1.46690   1.47250
 Alpha virt. eigenvalues --    1.49547   1.51046   1.51640   1.54743   1.56082
 Alpha virt. eigenvalues --    1.59461   1.59744   1.62460   1.63636   1.64151
 Alpha virt. eigenvalues --    1.66565   1.67262   1.68743   1.70343   1.70461
 Alpha virt. eigenvalues --    1.71467   1.72134   1.76435   1.77092   1.77716
 Alpha virt. eigenvalues --    1.79132   1.80312   1.80974   1.84029   1.84178
 Alpha virt. eigenvalues --    1.85005   1.86580   1.88947   1.89620   1.93581
 Alpha virt. eigenvalues --    1.96375   1.96422   1.96755   1.99785   2.01644
 Alpha virt. eigenvalues --    2.02158   2.02734   2.03242   2.04517   2.05733
 Alpha virt. eigenvalues --    2.06479   2.06733   2.06918   2.07948   2.08227
 Alpha virt. eigenvalues --    2.09805   2.11216   2.11735   2.12340   2.12879
 Alpha virt. eigenvalues --    2.13514   2.15068   2.15327   2.17215   2.17967
 Alpha virt. eigenvalues --    2.18552   2.21023   2.21657   2.22011   2.25777
 Alpha virt. eigenvalues --    2.26369   2.26731   2.27578   2.28345   2.28898
 Alpha virt. eigenvalues --    2.29783   2.29900   2.30552   2.31714   2.31928
 Alpha virt. eigenvalues --    2.32594   2.32654   2.33033   2.35551   2.36335
 Alpha virt. eigenvalues --    2.36977   2.38926   2.39067   2.43004   2.43078
 Alpha virt. eigenvalues --    2.44057   2.45644   2.47471   2.48413   2.49393
 Alpha virt. eigenvalues --    2.51767   2.53834   2.54351   2.56265   2.57186
 Alpha virt. eigenvalues --    2.59475   2.59511   2.59604   2.66573   2.67554
 Alpha virt. eigenvalues --    2.68839   2.69977   2.71559   2.72434   2.73403
 Alpha virt. eigenvalues --    2.73546   2.79837   2.84151   2.85010   2.94352
 Alpha virt. eigenvalues --    2.95178   2.95980   2.96585   3.03091   3.05768
 Alpha virt. eigenvalues --    3.08194   3.09920   3.10732   3.15744   3.15934
 Alpha virt. eigenvalues --    3.19990   3.20772   3.26308   3.30380   3.31405
 Alpha virt. eigenvalues --    3.37479   3.39081   3.45191   3.50655   3.60359
 Alpha virt. eigenvalues --    3.68907   3.74931   3.81771   4.60145   4.65678
 Alpha virt. eigenvalues --    4.68104   4.70381   4.73556   4.75198   4.78205
 Alpha virt. eigenvalues --    4.81641   4.84710   4.87778   4.91440   4.97337
 Alpha virt. eigenvalues --    5.03187   5.08868   5.18282   6.31796   6.40893
 Alpha virt. eigenvalues --    6.58835   7.71541   9.41506
          Condensed to atoms (all electrons):
               1          2          3          4          5          6
     1  C   26.039299  -0.443847  -0.758268  -0.476107  -0.142301  -0.541119
     2  N   -0.443847   7.624437   0.351828  -0.013321  -0.079905  -0.113430
     3  C   -0.758268   0.351828   6.474608   0.595600   0.298134  -0.454637
     4  O   -0.476107  -0.013321   0.595600   8.248265  -0.151311  -0.111672
     5  O   -0.142301  -0.079905   0.298134  -0.151311   8.524048   0.178485
     6  C   -0.541119  -0.113430  -0.454637  -0.111672   0.178485   6.682896
     7  C   -0.008614   0.019735   0.005471   0.020756  -0.128650  -0.152066
     8  C   -0.012232   0.003210  -0.078889   0.001260   0.022105  -0.027700
     9  C   -5.428167   0.282798  -0.530512  -0.141711  -0.032808  -0.094796
    10  C   -4.044681   0.300808  -1.316998   0.009337   0.025273  -0.106517
    11  C    0.526985  -0.039042  -0.214128   0.008784  -0.013418  -0.021392
    12  C   -1.733828  -0.035063   0.226405   0.221430   0.001936   0.014226
    13  C   -5.145686  -0.216829   0.586467   0.383548   0.051361   0.066905
    14  H   -0.043565   0.270864  -0.032614   0.003712   0.004398  -0.013511
    15  H    0.005884   0.004211   0.042097  -0.004830  -0.036413   0.369161
    16  H    0.005847   0.004239   0.042195  -0.004829  -0.036416   0.369035
    17  H    0.000133  -0.000448   0.002229  -0.000301  -0.001445  -0.050124
    18  H    0.000126  -0.000444   0.002246  -0.000301  -0.001442  -0.050177
    19  H   -0.000014  -0.000049  -0.001947  -0.000065  -0.000793  -0.024648
    20  H    0.000060   0.000023   0.004171   0.000015  -0.000147   0.066037
    21  H   -0.000013  -0.000049  -0.001936  -0.000065  -0.000794  -0.024639
    22  H    0.118112  -0.009103  -0.005838   0.000051  -0.000279  -0.000669
    23  Cl   0.105450   0.000928   0.030005   0.000257   0.000227   0.002732
    24  H    0.015381  -0.008536   0.085942  -0.006011   0.000493   0.010484
    25  S   -1.959494   0.024618  -0.094451  -0.000534   0.000817  -0.003593
    26  H   -0.023725   0.000322   0.001878  -0.000001   0.000000   0.000014
    27  F   -0.038314  -0.001176  -0.002434  -0.000006   0.000024   0.000007
    28  F   -0.128761   0.000698  -0.004968   0.000001   0.000001  -0.000039
    29  F   -0.038434  -0.001174  -0.002442  -0.000006   0.000024   0.000007
    30  F   -0.128792   0.000698  -0.004969   0.000001   0.000001  -0.000039
    31  F   -0.062835  -0.000029  -0.000698  -0.000000  -0.000000  -0.000005
               7          8          9         10         11         12
     1  C   -0.008614  -0.012232  -5.428167  -4.044681   0.526985  -1.733828
     2  N    0.019735   0.003210   0.282798   0.300808  -0.039042  -0.035063
     3  C    0.005471  -0.078889  -0.530512  -1.316998  -0.214128   0.226405
     4  O    0.020756   0.001260  -0.141711   0.009337   0.008784   0.221430
     5  O   -0.128650   0.022105  -0.032808   0.025273  -0.013418   0.001936
     6  C   -0.152066  -0.027700  -0.094796  -0.106517  -0.021392   0.014226
     7  C    5.744661   0.196762   0.022462  -0.004775   0.003427  -0.003661
     8  C    0.196762   5.458444  -0.002075  -0.001571  -0.000047  -0.000019
     9  C    0.022462  -0.002075  24.000365  -4.324795  -4.862628  -6.633341
    10  C   -0.004775  -0.001571  -4.324795  23.797656  -3.592405  -0.610961
    11  C    0.003427  -0.000047  -4.862628  -3.592405  25.368223   1.100095
    12  C   -0.003661  -0.000019  -6.633341  -0.610961   1.100095  16.979373
    13  C   -0.037422   0.001452   3.112169  -1.552509 -12.646782  -3.242851
    14  H   -0.000540  -0.000266   0.009229   0.058858   0.004298   0.008040
    15  H   -0.038371  -0.006784   0.000907  -0.000124   0.000071  -0.000324
    16  H   -0.038302  -0.006825   0.000907  -0.000126   0.000072  -0.000321
    17  H    0.414393  -0.032354   0.000324   0.000001   0.000006  -0.000009
    18  H    0.414473  -0.032394   0.000325   0.000001   0.000006  -0.000009
    19  H   -0.025515   0.406875   0.000016  -0.000000   0.000000  -0.000001
    20  H   -0.103570   0.396154  -0.000010   0.000000  -0.000000   0.000001
    21  H   -0.025539   0.406878   0.000016  -0.000000   0.000000  -0.000001
    22  H   -0.000007  -0.000004   0.155742   0.063617  -0.036076   0.008483
    23  Cl  -0.000074   0.000009  -0.018316  -0.037962   0.229438  -0.466867
    24  H   -0.000042   0.000028  -0.033461  -0.013921   0.084971   0.072452
    25  S   -0.000198  -0.000033   0.891239  -0.701568   0.221812  -0.437653
    26  H    0.000000   0.000000   0.037633   0.065808   0.073738   0.043580
    27  F   -0.000006   0.000000   0.213960  -0.220158  -0.220628  -0.003817
    28  F   -0.000000  -0.000000  -0.179237  -0.202093   0.164813   0.090434
    29  F   -0.000006   0.000000   0.213631  -0.219946  -0.220478  -0.003761
    30  F   -0.000000  -0.000000  -0.179476  -0.202210   0.165140   0.090483
    31  F    0.000000  -0.000000   0.134526  -0.368558   0.074556  -0.023551
              13         14         15         16         17         18
     1  C   -5.145686  -0.043565   0.005884   0.005847   0.000133   0.000126
     2  N   -0.216829   0.270864   0.004211   0.004239  -0.000448  -0.000444
     3  C    0.586467  -0.032614   0.042097   0.042195   0.002229   0.002246
     4  O    0.383548   0.003712  -0.004830  -0.004829  -0.000301  -0.000301
     5  O    0.051361   0.004398  -0.036413  -0.036416  -0.001445  -0.001442
     6  C    0.066905  -0.013511   0.369161   0.369035  -0.050124  -0.050177
     7  C   -0.037422  -0.000540  -0.038371  -0.038302   0.414393   0.414473
     8  C    0.001452  -0.000266  -0.006784  -0.006825  -0.032354  -0.032394
     9  C    3.112169   0.009229   0.000907   0.000907   0.000324   0.000325
    10  C   -1.552509   0.058858  -0.000124  -0.000126   0.000001   0.000001
    11  C  -12.646782   0.004298   0.000071   0.000072   0.000006   0.000006
    12  C   -3.242851   0.008040  -0.000324  -0.000321  -0.000009  -0.000009
    13  C   23.843647  -0.013514  -0.002427  -0.002413  -0.000284  -0.000283
    14  H   -0.013514   0.237302  -0.000001  -0.000001  -0.000005  -0.000005
    15  H   -0.002427  -0.000001   0.488711  -0.035338   0.003141  -0.003612
    16  H   -0.002413  -0.000001  -0.035338   0.488702  -0.003614   0.003141
    17  H   -0.000284  -0.000005   0.003141  -0.003614   0.494829  -0.029063
    18  H   -0.000283  -0.000005  -0.003612   0.003141  -0.029063   0.494820
    19  H   -0.000050  -0.000000   0.000163   0.001386  -0.003207   0.003307
    20  H    0.000026  -0.000000  -0.000115  -0.000115  -0.002585  -0.002586
    21  H   -0.000050  -0.000000   0.001387   0.000163   0.003307  -0.003206
    22  H    0.004001   0.003773  -0.000000  -0.000000  -0.000000  -0.000000
    23  Cl  -0.015511   0.000022  -0.000001  -0.000001  -0.000000  -0.000000
    24  H    0.116553  -0.000088  -0.000003  -0.000003  -0.000000  -0.000000
    25  S    0.333669   0.001098  -0.000002  -0.000002  -0.000000  -0.000000
    26  H    0.108414  -0.000000  -0.000000  -0.000000  -0.000000  -0.000000
    27  F    0.088958   0.000023  -0.000000  -0.000000  -0.000000  -0.000000
    28  F   -0.016963  -0.000001  -0.000000   0.000000  -0.000000   0.000000
    29  F    0.088936   0.000024  -0.000000  -0.000000  -0.000000  -0.000000
    30  F   -0.017011  -0.000001   0.000000  -0.000000   0.000000  -0.000000
    31  F    0.006266   0.000000   0.000000   0.000000  -0.000000  -0.000000
              19         20         21         22         23         24
     1  C   -0.000014   0.000060  -0.000013   0.118112   0.105450   0.015381
     2  N   -0.000049   0.000023  -0.000049  -0.009103   0.000928  -0.008536
     3  C   -0.001947   0.004171  -0.001936  -0.005838   0.030005   0.085942
     4  O   -0.000065   0.000015  -0.000065   0.000051   0.000257  -0.006011
     5  O   -0.000793  -0.000147  -0.000794  -0.000279   0.000227   0.000493
     6  C   -0.024648   0.066037  -0.024639  -0.000669   0.002732   0.010484
     7  C   -0.025515  -0.103570  -0.025539  -0.000007  -0.000074  -0.000042
     8  C    0.406875   0.396154   0.406878  -0.000004   0.000009   0.000028
     9  C    0.000016  -0.000010   0.000016   0.155742  -0.018316  -0.033461
    10  C   -0.000000   0.000000  -0.000000   0.063617  -0.037962  -0.013921
    11  C    0.000000  -0.000000   0.000000  -0.036076   0.229438   0.084971
    12  C   -0.000001   0.000001  -0.000001   0.008483  -0.466867   0.072452
    13  C   -0.000050   0.000026  -0.000050   0.004001  -0.015511   0.116553
    14  H   -0.000000  -0.000000  -0.000000   0.003773   0.000022  -0.000088
    15  H    0.000163  -0.000115   0.001387  -0.000000  -0.000001  -0.000003
    16  H    0.001386  -0.000115   0.000163  -0.000000  -0.000001  -0.000003
    17  H   -0.003207  -0.002585   0.003307  -0.000000  -0.000000  -0.000000
    18  H    0.003307  -0.002586  -0.003206  -0.000000  -0.000000  -0.000000
    19  H    0.503853  -0.024650  -0.031384  -0.000000  -0.000000  -0.000000
    20  H   -0.024650   0.486823  -0.024649   0.000000   0.000000   0.000000
    21  H   -0.031384  -0.024649   0.503852  -0.000000  -0.000000  -0.000000
    22  H   -0.000000   0.000000  -0.000000   0.402533   0.000212  -0.000061
    23  Cl  -0.000000   0.000000  -0.000000   0.000212  16.930096  -0.002747
    24  H   -0.000000   0.000000  -0.000000  -0.000061  -0.002747   0.342706
    25  S   -0.000000   0.000000  -0.000000   0.025846  -0.007341   0.000666
    26  H   -0.000000   0.000000  -0.000000  -0.000072  -0.008396  -0.000060
    27  F   -0.000000  -0.000000   0.000000  -0.000564  -0.000637   0.000002
    28  F   -0.000000   0.000000  -0.000000   0.000106  -0.001986   0.000000
    29  F    0.000000  -0.000000  -0.000000  -0.000562  -0.000636   0.000002
    30  F   -0.000000   0.000000  -0.000000   0.000106  -0.001985   0.000000
    31  F   -0.000000   0.000000  -0.000000  -0.000020   0.000091   0.000000
              25         26         27         28         29         30
     1  C   -1.959494  -0.023725  -0.038314  -0.128761  -0.038434  -0.128792
     2  N    0.024618   0.000322  -0.001176   0.000698  -0.001174   0.000698
     3  C   -0.094451   0.001878  -0.002434  -0.004968  -0.002442  -0.004969
     4  O   -0.000534  -0.000001  -0.000006   0.000001  -0.000006   0.000001
     5  O    0.000817   0.000000   0.000024   0.000001   0.000024   0.000001
     6  C   -0.003593   0.000014   0.000007  -0.000039   0.000007  -0.000039
     7  C   -0.000198   0.000000  -0.000006  -0.000000  -0.000006  -0.000000
     8  C   -0.000033   0.000000   0.000000  -0.000000   0.000000  -0.000000
     9  C    0.891239   0.037633   0.213960  -0.179237   0.213631  -0.179476
    10  C   -0.701568   0.065808  -0.220158  -0.202093  -0.219946  -0.202210
    11  C    0.221812   0.073738  -0.220628   0.164813  -0.220478   0.165140
    12  C   -0.437653   0.043580  -0.003817   0.090434  -0.003761   0.090483
    13  C    0.333669   0.108414   0.088958  -0.016963   0.088936  -0.017011
    14  H    0.001098  -0.000000   0.000023  -0.000001   0.000024  -0.000001
    15  H   -0.000002  -0.000000  -0.000000  -0.000000  -0.000000   0.000000
    16  H   -0.000002  -0.000000  -0.000000   0.000000  -0.000000  -0.000000
    17  H   -0.000000  -0.000000  -0.000000  -0.000000  -0.000000   0.000000
    18  H   -0.000000  -0.000000  -0.000000   0.000000  -0.000000  -0.000000
    19  H   -0.000000  -0.000000  -0.000000  -0.000000   0.000000  -0.000000
    20  H    0.000000   0.000000  -0.000000   0.000000  -0.000000   0.000000
    21  H   -0.000000  -0.000000   0.000000  -0.000000  -0.000000  -0.000000
    22  H    0.025846  -0.000072  -0.000564   0.000106  -0.000562   0.000106
    23  Cl  -0.007341  -0.008396  -0.000637  -0.001986  -0.000636  -0.001985
    24  H    0.000666  -0.000060   0.000002   0.000000   0.000002   0.000000
    25  S   14.390097   0.026442  -0.013804   0.048424  -0.013761   0.048453
    26  H    0.026442   0.373394   0.000299  -0.000448   0.000299  -0.000449
    27  F   -0.013804   0.000299   9.877516   0.026344   0.015049  -0.079629
    28  F    0.048424  -0.000448   0.026344   9.885618  -0.079614   0.029409
    29  F   -0.013761   0.000299   0.015049  -0.079614   9.877470   0.026351
    30  F    0.048453  -0.000449  -0.079629   0.029409   0.026351   9.885683
    31  F    0.162087  -0.000017   0.011450   0.009801   0.011452   0.009798
              31
     1  C   -0.062835
     2  N   -0.000029
     3  C   -0.000698
     4  O   -0.000000
     5  O   -0.000000
     6  C   -0.000005
     7  C    0.000000
     8  C   -0.000000
     9  C    0.134526
    10  C   -0.368558
    11  C    0.074556
    12  C   -0.023551
    13  C    0.006266
    14  H    0.000000
    15  H    0.000000
    16  H    0.000000
    17  H   -0.000000
    18  H   -0.000000
    19  H   -0.000000
    20  H    0.000000
    21  H   -0.000000
    22  H   -0.000020
    23  Cl   0.000091
    24  H    0.000000
    25  S    0.162087
    26  H   -0.000017
    27  F    0.011450
    28  F    0.009801
    29  F    0.011452
    30  F    0.009798
    31  F    9.666932
 Mulliken charges:
               1
     1  C    0.341519
     2  N   -0.926971
     3  C    0.756452
     4  O   -0.581946
     5  O   -0.481204
     6  C    0.030786
     7  C   -0.274781
     8  C   -0.691984
     9  C   -0.614915
    10  C   -0.799478
    11  C   -0.159411
    12  C    0.339101
    13  C    0.118214
    14  H    0.502469
    15  H    0.212613
    16  H    0.212620
    17  H    0.205076
    18  H    0.205080
    19  H    0.196723
    20  H    0.205118
    21  H    0.196723
    22  H    0.270671
    23  Cl   0.262993
    24  H    0.335253
    25  S    3.057166
    26  H    0.301349
    27  F   -0.652460
    28  F   -0.641540
    29  F   -0.652424
    30  F   -0.641563
    31  F   -0.631246
 Sum of Mulliken charges =  -0.00000
 Mulliken charges with hydrogens summed into heavy atoms:
               1
     1  C    0.341519
     2  N   -0.424502
     3  C    0.756452
     4  O   -0.581946
     5  O   -0.481204
     6  C    0.456019
     7  C    0.135374
     8  C   -0.093420
     9  C   -0.344245
    10  C   -0.799478
    11  C    0.141939
    12  C    0.339101
    13  C    0.453466
    23  Cl   0.262993
    25  S    3.057166
    27  F   -0.652460
    28  F   -0.641540
    29  F   -0.652424
    30  F   -0.641563
    31  F   -0.631246
 Electronic spatial extent (au):  <R**2>=          10326.3674
 Charge=             -0.0000 electrons
 Dipole moment (field-independent basis, Debye):
    X=              4.9327    Y=             -1.9133    Z=             -0.0003  Tot=              5.2908
 Quadrupole moment (field-independent basis, Debye-Ang):
   XX=           -122.3833   YY=           -135.4019   ZZ=           -132.3619
   XY=            -13.8974   XZ=             -0.0002   YZ=              0.0006
 Traceless Quadrupole moment (field-independent basis, Debye-Ang):
   XX=              7.6657   YY=             -5.3529   ZZ=             -2.3128
   XY=            -13.8974   XZ=             -0.0002   YZ=              0.0006
 Octapole moment (field-independent basis, Debye-Ang**2):
  XXX=             84.9649  YYY=            -51.3234  ZZZ=              0.0048  XYY=            -28.1428
  XXY=            -22.7946  XXZ=              0.0022  XZZ=            -18.7825  YZZ=            -11.9481
  YYZ=             -0.0007  XYZ=             -0.0026
 Hexadecapole moment (field-independent basis, Debye-Ang**3):
 XXXX=          -9415.2052 YYYY=          -2389.0375 ZZZZ=           -301.7526 XXXY=           -133.3753
 XXXZ=             -0.0262 YYYX=             92.3478 YYYZ=              0.0085 ZZZX=             -0.0099
 ZZZY=             -0.0028 XXYY=          -2127.4277 XXZZ=          -1734.8983 YYZZ=           -459.8680
 XXYZ=             -0.0031 YYXZ=             -0.0092 ZZXY=             46.9384
 N-N= 2.007586826243D+03 E-N=-8.616663907010D+03  KE= 1.939611272545D+03
 1\1\GINC-R3719\SP\RMP2-FC\Gen\C10H11Cl1F5N1O2S1\ROOT\09-Dec-2019\0\\# 
 MP2/Gen 6D SCF=Tight INT(grid=ultrafine) maxdisk=3489660928\\CP22CA_c2
 .MP2_6-31pGd\\0,1\C,0,-5.8940239804,1.4635161989,0.3189639789\N,0,-4.6
 594855421,0.8254275662,0.1730376319\C,0,-3.4122119662,1.4023360648,0.2
 091219875\O,0,-3.1720913642,2.5694633119,0.3743487039\O,0,-2.488797814
 5,0.4470406578,0.028677747\C,0,-1.1237193586,0.8970771249,0.0408317856
 \C,0,-0.239991205,-0.3118800069,-0.1761589355\C,0,1.2340452897,0.08408
 06412,-0.1762463744\C,0,-7.0360316265,0.6595944673,0.2449778788\C,0,-8
 .2776379407,1.2478343724,0.3837260774\C,0,-8.4509943785,2.6060487216,0
 .5943447109\C,0,-7.2989183539,3.3760994629,0.6628236785\C,0,-6.0262012
 185,2.8384081578,0.5303896033\H,0,-4.6672105204,-0.1728828439,0.023827
 7888\H,0,-0.9221230549,1.3812924602,0.9993340851\H,0,-0.9928490604,1.6
 43015096,-0.7467473938\H,0,-0.5082709494,-0.7832474478,-1.1254840387\H
 ,0,-0.4381818893,-1.0437549107,0.61153291\H,0,1.45232215,0.8020611361,
 -0.9704554868\H,0,1.8722993985,-0.7863014253,-0.3325192805\H,0,1.52266
 71703,0.5405161214,0.7736342134\H,0,-6.9462737672,-0.4071204358,0.0814
 633848\Cl,0,-7.4553129216,5.0863581386,0.9255099387\H,0,-5.155773176,3
 .4738102772,0.5901799913\S,0,-9.7457090521,0.1927922133,0.2854387875\H
 ,0,-9.4293866429,3.0529060674,0.7011751512\F,0,-9.085367852,-0.9292163
 806,1.2433591642\F,0,-10.4180189339,0.8952389484,1.5722339982\F,0,-9.1
 774166082,-0.5913163642,-1.0086847237\F,0,-10.5101477616,1.2333123687,
 -0.6811152286\F,0,-11.0453570694,-0.7440897599,0.197998265\\Version=ES
 64L-G09RevE.01\State=1-A\HF=-1943.3539163\MP2=-1946.365582\RMSD=5.967e
 -09\PG=C01 [X(C10H11Cl1F5N1O2S1)]\\@


    WHAT WE HAVE LEARNED
 IS LIKE A HANDFUL OF EARTH;
  WHAT WE HAVE YET TO LEARN
   IS LIKE THE WHOLE WORLD.

         -- AVVAYIAR
 Job cpu time:       0 days  0 hours 19 minutes 56.0 seconds.
 File lengths (MBytes):  RWF=     92 Int=      0 D2E=      0 Chk=     11 Scr=      1
 Normal termination of Gaussian 09 at Mon Dec  9 11:32:27 2019.
pbs_rusage has been removed.
Please contact help@nci.org.au if you require this functionality.
