Process 0 of 1 is on r4249 - thread support 0
initial socket setup ...start
initial socket setup ...done 
now start server 0 ... 
r4249 10.9.72
Q-Chem Developer Version! Running on 10.9.72.*
                  Welcome to Q-Chem
     A Quantum Leap Into The Future Of Chemistry


 Q-Chem 5.0, Q-Chem, Inc., Pleasanton, CA (2017)

 Yihan Shao,  Zhengting Gan,  E. Epifanovsky,  A. T. B. Gilbert,  M. Wormit,  
 J. Kussmann,  A. W. Lange,  A. Behn,  Jia Deng,  Xintian Feng,  D. Ghosh,  
 M. Goldey,  P. R. Horn,  L. D. Jacobson,  I. Kaliman,  T. Kus,  A. Landau,  
 Jie Liu,  E. I. Proynov,  R. M. Richard,  R. P. Steele,  E. J. Sundstrom,  
 H. L. Woodcock III,  P. M. Zimmerman,  D. Zuev,  B. Albrecht,  E. Alguire,  
 S. A. Baeppler,  Z. Benda,  Y. A. Bernard,  E. J. Berquist,  K. B. Bravaya,  
 D. Casanova,  Chun-Min Chang,  Yunqing Chen,  A. Chien,  K. D. Closser,  
 M. P. Coons,  S. Dasgupta,  M. Diedenhofen,  Hainam Do,  R. G. Edgar,  
 Po-Tung Fang,  S. Fatehi,  Qingguo Feng,  Qinghui Ge,  A. Ghysels,  
 J. Gomes,  J. Gonthier,  A. Gunina,  M. W. D. Hanson-Heine,  
 P. H. P. Harbach,  A. W. Hauser,  J. E. Herr,  E. G. Hohenstein,  
 Z. C. Holden,  Kerwin Hui,  T.-C. Jagau,  Hyunjun Ji,  B. Kaduk,  
 K. Khistyaev,  Jaehoon Kim,  P. Klunzinger,  K. Koh,  D. Kosenkov,  
 T. Kowalczyk,  C. M. Krauter,  A. Kunitsa,  Ka Un Lao,  A. Laurent,  
 K. V. Lawler,  Joonho Lee,  D. Lefrancois,  S. Lehtola,  D. S. Levine,  
 Yi-Pei Li,  You-Sheng Lin,  Fenglai Liu,  E. Livshits,  A. Luenser,  
 P. Manohar,  E. Mansoor,  S. F. Manzer,  Shan-Ping Mao,  Yuezhi Mao,  
 N. Mardirossian,  A. V. Marenich,  L. A. Martinez-Martinez,  S. A. Maurer,  
 N. J. Mayhall,  S. C. McKenzie,  J.-M. Mewes,  A. F. Morrison,  K. Nanda,  
 T. S. Nguyen-Beck,  R. Olivares-Amaya,  J. A. Parkhill,  T. M. Perrine,  
 F. Plasser,  S. Prager,  A. Prociuk,  D. R. Rehn,  F. Rob,  M. Schneider,  
 N. Sergueev,  S. M. Sharada,  S. Sharma,  D. W. Small,  T. Stauch,  
 T. Stein,  Yu-Chuan Su,  A. J. W. Thom,  T. Tsuchimochi,  L. Vogt,  
 O. Vydrov,  M. A. Watson,  J. Wenzel,  M. de Wergifosse,  T. A. Wesolowski,  
 A. White,  J. Witte,  A. Yamada,  Jun Yang,  K. Yao,  S. Yeganeh,  
 S. R. Yost,  Zhi-Qiang You,  A. Zech,  Igor Ying Zhang,  Xing Zhang,  
 Yan Zhao,  Ying Zhu,  B. R. Brooks,  G. K. L. Chan,  C. J. Cramer,  
 M. S. Gordon,  W. J. Hehre,  A. Klamt,  M. W. Schmidt,  C. D. Sherrill,  
 D. G. Truhlar,  A. Aspuru-Guzik,  R. Baer,  A. T. Bell,  N. A. Besley,  
 Jeng-Da Chai,  A. Dreuw,  B. D. Dunietz,  T. R. Furlani,  Chao-Ping Hsu,  
 Yousung Jung,  Jing Kong,  D. S. Lambrecht,  WanZhen Liang,  C. Ochsenfeld,  
 V. A. Rassolov,  L. V. Slipchenko,  J. E. Subotnik,  T. Van Voorhis,  
 J. M. Herbert,  A. I. Krylov,  P. M. W. Gill,  M. Head-Gordon

 Contributors to earlier versions of Q-Chem not listed above: 
 R. D. Adamson,  B. Austin,  J. Baker,  G. J. O. Beran,  K. Brandhorst,  
 S. T. Brown,  E. F. C. Byrd,  A. K. Chakraborty,  C.-L. Cheng,  
 Siu Hung Chien,  D. M. Chipman,  D. L. Crittenden,  H. Dachsel,  
 R. A. DiStasio Jr.,  R. J. Doerksen,  A. D. Dutoi,  L. Fusti-Molnar,  
 W. A. Goddard III,  A. Golubeva-Zadorozhnaya,  S. R. Gwaltney,  G. Hawkins,  
 A. Heyden,  S. Hirata,  G. Kedziora,  F. J. Keil,  C. Kelley,  Jihan Kim,  
 R. A. King,  R. Z. Khaliullin,  P. P. Korambath,  W. Kurlancheek,  
 A. M. Lee,  M. S. Lee,  S. V. Levchenko,  Ching Yeh Lin,  D. Liotard,  
 R. C. Lochan,  I. Lotan,  P. E. Maslen,  N. Nair,  D. P. O'Neill,  
 D. Neuhauser,  E. Neuscamman,  C. M. Oana,  R. Olson,  B. Peters,  
 R. Peverati,  P. A. Pieniazek,  Y. M. Rhee,  J. Ritchie,  M. A. Rohrdanz,  
 E. Rosta,  N. J. Russ,  H. F. Schaefer III,  N. E. Schultz,  N. Shenvi,  
 A. C. Simmonett,  A. Sodt,  D. Stuck,  K. S. Thanthiriwatte,  V. Vanovschi,  
 Tao Wang,  A. Warshel,  C. F. Williams,  Q. Wu,  X. Xu,  W. Zhang

 Please cite Q-Chem as follows:
 Y. Shao et al., Mol. Phys. 113, 184-215 (2015)
 DOI: 10.1080/00268976.2014.952696

 Q-Chem 5.0.0 for Intel X86 EM64T Linux

 Parts of Q-Chem use Armadillo 5.200.1 (Boston Tea Smuggler).
 http://arma.sourceforge.net/

 Q-Chem begins on Mon Dec  9 11:57:29 2019  

Host: r4249
0

     Scratch files written to /jobfs/local/4046964.r-man2/CP22CA.CCSD-T_6-31pGd.mo//
 Parallel job on  1  processors
Core orbitals will be frozen

Checking the input file for inconsistencies... 	...done.

--------------------------------------------------------------
User input:
--------------------------------------------------------------
$molecule
  0 1
    C     -5.8850653888    1.2485276222    0.2169643586
    N     -4.6148365768    0.6712965052    0.1442754525
    C     -3.4042293798    1.3229091055    0.1061891376
    O     -3.2363729909    2.5133960652    0.1294573590
    O     -2.4237232336    0.4107499718    0.0379678909
    C     -1.0893537805    0.9438254586   -0.0088387146
    C     -0.1301781247   -0.2240138484   -0.0834309874
    C      1.3156248667    0.2623663639   -0.1365505101
    C     -6.0936133610    2.6300491127    0.2627860152
    C     -7.3995706703    3.0843459670    0.3339561154
    C     -8.5088886159    2.2562518753    0.3624483165
    C     -8.2657085414    0.8906930633    0.3154629426
    C     -6.9811981273    0.3811048469    0.2438057615
    H     -4.5624644233   -0.3362093510    0.1155702556
    H     -0.9224485164    1.5507014193    0.8842424698
    H     -1.0029293345    1.5972933560   -0.8801912677
    H     -0.3642618935   -0.8213069013   -0.9687968991
    H     -0.2841523952   -0.8676709298    0.7868709884
    H      1.4903205477    0.8931407982   -1.0114654601
    H      2.0089540257   -0.5777224768   -0.1904668651
    H      1.5707895556    0.8464498438    0.7509228164
    H     -5.2582936836    3.3124029640    0.2428738608
    Cl    -9.6087554177   -0.2111412185    0.3473381294
    H     -6.8344291654   -0.6926059542    0.2088766481
    S     -7.6713237805    4.8765224224    0.3935065476
    H     -9.5171530304    2.6416664965    0.4183148583
    F     -6.6100374430    5.1462458464   -0.7896323887
    F     -8.8624274017    4.7959173810   -0.6954515179
    F     -6.5063752001    5.0862927603    1.4879468545
    F     -8.7588393883    4.7359846604    1.5803581536
    F     -7.9181391312    6.4618267740    0.4464796784

$end

$rem

    JOBTYPE               sp
    METHOD                CCSD(T)
    BASIS                 6-31+G*
    CC_BACKEND            XM

    MEM_TOTAL             60000
$end
--------------------------------------------------------------
 ----------------------------------------------------------------
             Standard Nuclear Orientation (Angstroms)
    I     Atom           X                Y                Z
 ----------------------------------------------------------------
    1      C      -0.5092543030    -1.0982540920    -0.0001460823
    2      N      -1.9063792614    -1.0998297100    -0.0003522313
    3      C      -2.7410275603    -0.0066776252    -0.0000870041
    4      O      -2.4018713527     1.1469901044     0.0003768168
    5      O      -4.0124106795    -0.4329000756    -0.0004236607
    6      C      -5.0089442179     0.6033542457    -0.0001813429
    7      C      -6.3666291001    -0.0645696135     0.0000865870
    8      C      -7.4840998393     0.9751384041     0.0003507624
    9      C       0.2521982688     0.0740869373    -0.0001077980
   10      C       1.6310794561    -0.0510608474     0.0000020302
   11      C       2.3003587507    -1.2631677545     0.0000816885
   12      C       1.5139216133    -2.4066762464     0.0000546204
   13      C       0.1317368299    -2.3407435571    -0.0000503811
   14      H      -2.3707349571    -1.9959371951    -0.0005622512
   15      H      -4.8640665437     1.2296594021    -0.8836416484
   16      H      -4.8637054994     1.2296253118     0.8832409887
   17      H      -6.4460471746    -0.7098468529     0.8791412231
   18      H      -6.4464338327    -0.7098044032    -0.8789647848
   19      H      -7.4286938927     1.6171727214     0.8827300766
   20      H      -8.4638092054     0.4960444415     0.0006496830
   21      H      -7.4291917113     1.6171010494    -0.8821119817
   22      H      -0.2274589778     1.0403638948    -0.0001616943
   23      Cl      2.2831695054    -3.9645874743     0.0001567331
   24      H      -0.4460946937    -3.2582002512    -0.0000678692
   25      S       2.6199830311     1.4692556241    -0.0000014318
   26      H       3.3792623560    -1.3282033948     0.0001601308
   27      F       1.7040394043     2.1469510688     1.1404692232
   28      F       3.6134202657     0.8983021603     1.1393621101
   29      F       1.7038555725     2.1470745156    -1.1402559670
   30      F       3.6132200318     0.8984042417    -1.1395920399
   31      F       3.5006020302     2.8114270123    -0.0000090527
 ----------------------------------------------------------------
 Molecular Point Group                 C1    NOp =  1
 Largest Abelian Subgroup              C1    NOp =  1
 Nuclear Repulsion Energy =  2027.3286136925 hartrees
 There are       86 alpha and       86 beta electrons
 Requested basis set is 6-31+G(d)
 There are 124 shells and 410 basis functions
 Total memory of 50485MB is distributed as follows: 
   QALLOC including MEM_STATIC uses 30062MB
   MEM_STATIC is set to 62MB
   CCMAN JOB total memory use is  50423MB
 Warning: actual memory use might exceed 50485MB

 Total QAlloc Memory Limit  30062 MB
 Mega-Array Size        61 MB
 MEM_STATIC part        62 MB
 A cutoff of  1.0D-14 yielded   5608 shell pairs
 There are     66144 function pairs
 
 -------------------------------------------------------
 OpenMP Integral Computing Module                       
 Release: version 1.0, May 2013, Q-Chem Inc. Pittsburgh 
 -------------------------------------------------------
 Integral Job Info:
 Integral job number is                      11
 Integral operator is                         1
 short-range coefficients                     0
 long-range coefficients              100000000
 Omega coefficients                           0
 if combine SR and LR in K                    0
 Integral screening is                        0
 Integral computing path is                   2
 max size of driver memory is            800000
 size of driver memory is                593474
 size of scratch memory is             15166112
 max col of scratch BK array               1296
 max len of scratch array in speh3          155
 max len of scratch index in speh4           18
 max int batch size is                      520
 min int batch size is                       52
 fixed nKL is                                52
 max L of basis functions is                  2
 order of int derivative is                   0
 number of shells is                        124
 number of basis is                         410
 number of cartesian basis is               410
 number of contracted shell pairs          5608
 number of primitive shell pairs          18184
 maxK2 (contraction) of shell pair           36
 max number of K2 of shell pair               1
 max number of CS2 of shell pair            841
 max number of PS2 of shell pair           4770
 mem total for path MDJ                  168056
 -------------------------------------------------------
 Smallest overlap matrix eigenvalue = 3.67E-07
 Linear dependence detected in AO basis
 Number of orthogonalized atomic orbitals = 409
 Maximum deviation from orthogonality = 2.518E-10

 Scale SEOQF with 1.000000e-02/1.000000e-01/1.000000e-01

 Standard Electronic Orientation quadrupole field applied
 Nucleus-field energy     =     0.0000000451 hartrees
 Guess from superposition of atomic densities
 Warning:  Energy on first SCF cycle will be non-variational
 A restricted Hartree-Fock SCF calculation will be
 performed using Pulay DIIS extrapolation
 SCF converges when DIIS error is below 1.0E-08
 -------------------------------------------------------
 OpenMP Integral computing Module                
 Release: version 1.0, May 2013, Q-Chem Inc. Pittsburgh 
 -------------------------------------------------------
 ---------------------------------------
  Cycle       Energy         DIIS Error
 ---------------------------------------
    1   -1949.9111568076      3.66E-02
    2   -1942.8643997732      4.98E-03
    3   -1943.1974475209      3.20E-03
    4   -1943.3471234599      4.62E-04
    5   -1943.3525565616      1.80E-04
    6   -1943.3533077989      4.73E-05
    7   -1943.3533892069      2.05E-05
    8   -1943.3534114016      6.81E-06
    9   -1943.3534152883      3.11E-06
   10   -1943.3534160427      1.36E-06
   11   -1943.3534162128      6.27E-07
   12   -1943.3534162527      2.77E-07
   13   -1943.3534162583      9.97E-08
   14   -1943.3534162591      3.76E-08
   15   -1943.3534162592      1.22E-08
   16   -1943.3534162592      3.96E-09 Convergence criterion met
 ---------------------------------------
 SCF time:  CPU 339.03 s  wall 85.83 s
 SCF   energy in the final basis set = -1943.3534162592
 Total energy in the final basis set = -1943.3534162592


 ------------------------------------------------------------------------------

   CCMAN2: suite of methods based on coupled cluster
           and equation of motion theories.

   Components:
   * libvmm-1.3-trunk
     by Evgeny Epifanovsky, Ilya Kaliman.
   * libtensor-2.5-release
     by Evgeny Epifanovsky, Michael Wormit, Dmitry Zuev, Sam Manzer, 
        Ilya Kaliman.
   * libcc-2.5-trunk
     by Evgeny Epifanovsky, Arik Landau, Tomasz Kus, Kirill Khistyaev, 
        Dmitry Zuev, Prashant Manohar, Xintian Feng, Anna Krylov, 
        Matthew Goldey, Alec White, Thomas Jagau, Kaushik Nanda, 
        Anastasia Gunina, Alexander Kunitsa, Joonho Lee.

   CCMAN original authors:
   Anna I. Krylov, C. David Sherrill, Steven R. Gwaltney,
   Edward F. C. Byrd (2000)
   Sergey V. Levchenko, Lyudmila V. Slipchenko, Tao Wang,
   Ana-Maria C. Cristian (2003)
   Piotr A. Pieniazek, C. Melania Oana, Evgeny Epifanovsky (2007)
   Prashant Manohar (2009)

 ------------------------------------------------------------------------------


================================================================================
This program uses libxm tensor contraction code.
See https://github.com/ilyak/libxm for more info.
libxm is (c) Ilya Kaliman 2014-2016.
================================================================================

 Calculation will run on 4 cores using libxm for tensor contractions

 
 Alpha MOs, Restricted
 -- Occupied --                  
-104.85  -92.40  -26.36  -26.36  -26.36  -26.36  -26.36  -20.64
  1 A     2 A     3 A     4 A     5 A     6 A     7 A     8 A                  
-20.572 -15.642 -11.440 -11.339 -11.336 -11.318 -11.305 -11.285
  9 A    10 A    11 A    12 A    13 A    14 A    15 A    16 A                  
-11.284 -11.277 -11.244 -11.235 -10.584  -9.344  -8.054  -8.050
 17 A    18 A    19 A    20 A    21 A    22 A    23 A    24 A                  
 -8.050  -7.033  -7.033  -7.030  -1.758  -1.658  -1.658  -1.629
 25 A    26 A    27 A    28 A    29 A    30 A    31 A    32 A                  
 -1.614  -1.499  -1.392  -1.298  -1.223  -1.160  -1.108  -1.085
 33 A    34 A    35 A    36 A    37 A    38 A    39 A    40 A                  
 -1.048  -1.030  -0.968  -0.907  -0.896  -0.864  -0.864  -0.834
 41 A    42 A    43 A    44 A    45 A    46 A    47 A    48 A                  
 -0.824  -0.814  -0.779  -0.775  -0.759  -0.752  -0.730  -0.722
 49 A    50 A    51 A    52 A    53 A    54 A    55 A    56 A                  
 -0.714  -0.691  -0.689  -0.686  -0.682  -0.680  -0.671  -0.666
 57 A    58 A    59 A    60 A    61 A    62 A    63 A    64 A                  
 -0.654  -0.648  -0.647  -0.645  -0.626  -0.621  -0.605  -0.596
 65 A    66 A    67 A    68 A    69 A    70 A    71 A    72 A                  
 -0.575  -0.568  -0.564  -0.541  -0.532  -0.521  -0.506  -0.502
 73 A    74 A    75 A    76 A    77 A    78 A    79 A    80 A                  
 -0.482  -0.481  -0.476  -0.472  -0.377  -0.343
 81 A    82 A    83 A    84 A    85 A    86 A                                  
 -- Virtual --                   
  0.049   0.068   0.069   0.075   0.081   0.088   0.088   0.092
 87 A    88 A    89 A    90 A    91 A    92 A    93 A    94 A                  
  0.092   0.106   0.107   0.109   0.118   0.121   0.126   0.126
 95 A    96 A    97 A    98 A    99 A   100 A   101 A   102 A                  
  0.134   0.139   0.141   0.145   0.152   0.155   0.157   0.159
103 A   104 A   105 A   106 A   107 A   108 A   109 A   110 A                  
  0.178   0.181   0.190   0.191   0.194   0.198   0.204   0.204
111 A   112 A   113 A   114 A   115 A   116 A   117 A   118 A                  
  0.206   0.224   0.225   0.234   0.244   0.247   0.250   0.255
119 A   120 A   121 A   122 A   123 A   124 A   125 A   126 A                  
  0.257   0.266   0.272   0.280   0.287   0.289   0.294   0.298
127 A   128 A   129 A   130 A   131 A   132 A   133 A   134 A                  
  0.301   0.307   0.312   0.323   0.328   0.332   0.334   0.336
135 A   136 A   137 A   138 A   139 A   140 A   141 A   142 A                  
  0.350   0.352   0.356   0.359   0.371   0.371   0.378   0.386
143 A   144 A   145 A   146 A   147 A   148 A   149 A   150 A                  
  0.388   0.393   0.395   0.408   0.411   0.415   0.420   0.423
151 A   152 A   153 A   154 A   155 A   156 A   157 A   158 A                  
  0.426   0.428   0.433   0.433   0.439   0.451   0.456   0.458
159 A   160 A   161 A   162 A   163 A   164 A   165 A   166 A                  
  0.463   0.464   0.466   0.468   0.474   0.478   0.488   0.493
167 A   168 A   169 A   170 A   171 A   172 A   173 A   174 A                  
  0.504   0.509   0.521   0.522   0.527   0.529   0.544   0.549
175 A   176 A   177 A   178 A   179 A   180 A   181 A   182 A                  
  0.560   0.571   0.582   0.585   0.614   0.621   0.625   0.635
183 A   184 A   185 A   186 A   187 A   188 A   189 A   190 A                  
  0.645   0.657   0.687   0.700   0.717   0.735   0.748   0.756
191 A   192 A   193 A   194 A   195 A   196 A   197 A   198 A                  
  0.756   0.764   0.802   0.804   0.817   0.840   0.857   0.865
199 A   200 A   201 A   202 A   203 A   204 A   205 A   206 A                  
  0.873   0.879   0.906   0.917   0.921   0.924   0.927   0.936
207 A   208 A   209 A   210 A   211 A   212 A   213 A   214 A                  
  0.945   0.957   0.964   0.976   0.988   0.990   1.011   1.018
215 A   216 A   217 A   218 A   219 A   220 A   221 A   222 A                  
  1.040   1.051   1.056   1.072   1.084   1.095   1.107   1.135
223 A   224 A   225 A   226 A   227 A   228 A   229 A   230 A                  
  1.136   1.160   1.162   1.170   1.177   1.182   1.193   1.198
231 A   232 A   233 A   234 A   235 A   236 A   237 A   238 A                  
  1.207   1.208   1.224   1.225   1.246   1.253   1.265   1.277
239 A   240 A   241 A   242 A   243 A   244 A   245 A   246 A                  
  1.289   1.299   1.312   1.341   1.350   1.368   1.384   1.394
247 A   248 A   249 A   250 A   251 A   252 A   253 A   254 A                  
  1.396   1.419   1.444   1.458   1.466   1.468   1.478   1.479
255 A   256 A   257 A   258 A   259 A   260 A   261 A   262 A                  
  1.507   1.522   1.562   1.565   1.597   1.605   1.622   1.634
263 A   264 A   265 A   266 A   267 A   268 A   269 A   270 A                  
  1.644   1.662   1.663   1.690   1.704   1.707   1.709   1.717
271 A   272 A   273 A   274 A   275 A   276 A   277 A   278 A                  
  1.769   1.774   1.784   1.791   1.804   1.816   1.843   1.844
279 A   280 A   281 A   282 A   283 A   284 A   285 A   286 A                  
  1.858   1.873   1.878   1.916   1.938   1.970   1.972   1.974
287 A   288 A   289 A   290 A   291 A   292 A   293 A   294 A                  
  2.004   2.022   2.029   2.032   2.037   2.040   2.064   2.065
295 A   296 A   297 A   298 A   299 A   300 A   301 A   302 A                  
  2.074   2.074   2.086   2.093   2.111   2.118   2.119   2.131
303 A   304 A   305 A   306 A   307 A   308 A   309 A   310 A                  
  2.138   2.142   2.156   2.171   2.180   2.183   2.187   2.206
311 A   312 A   313 A   314 A   315 A   316 A   317 A   318 A                  
  2.222   2.227   2.259   2.260   2.269   2.280   2.288   2.291
319 A   320 A   321 A   322 A   323 A   324 A   325 A   326 A                  
  2.293   2.296   2.305   2.314   2.327   2.328   2.335   2.336
327 A   328 A   329 A   330 A   331 A   332 A   333 A   334 A                  
  2.344   2.363   2.374   2.396   2.400   2.433   2.448   2.453
335 A   336 A   337 A   338 A   339 A   340 A   341 A   342 A                  
  2.463   2.469   2.487   2.501   2.506   2.540   2.546   2.562
343 A   344 A   345 A   346 A   347 A   348 A   349 A   350 A                  
  2.574   2.590   2.600   2.602   2.670   2.677   2.689   2.705
351 A   352 A   353 A   354 A   355 A   356 A   357 A   358 A                  
  2.717   2.730   2.734   2.735   2.798   2.842   2.847   2.941
359 A   360 A   361 A   362 A   363 A   364 A   365 A   366 A                  
  2.960   2.960   2.986   3.028   3.062   3.082   3.088   3.108
367 A   368 A   369 A   370 A   371 A   372 A   373 A   374 A                  
  3.164   3.173   3.203   3.206   3.265   3.294   3.314   3.389
375 A   376 A   377 A   378 A   379 A   380 A   381 A   382 A                  
  3.399   3.451   3.508   3.607   3.693   3.749   3.820   4.604
383 A   384 A   385 A   386 A   387 A   388 A   389 A   390 A                  
  4.654   4.677   4.704   4.737   4.760   4.786   4.821   4.847
391 A   392 A   393 A   394 A   395 A   396 A   397 A   398 A                  
  4.866   4.922   4.978   5.035   5.090   5.179   6.345   6.415
399 A   400 A   401 A   402 A   403 A   404 A   405 A   406 A                  
  6.539   7.778   9.432
407 A   408 A   409 A                                                          
 
 Beta MOs, Restricted
 -- Occupied --                  
-104.85  -92.40  -26.36  -26.36  -26.36  -26.36  -26.36  -20.64
  1 A     2 A     3 A     4 A     5 A     6 A     7 A     8 A                  
-20.572 -15.642 -11.440 -11.339 -11.336 -11.318 -11.305 -11.285
  9 A    10 A    11 A    12 A    13 A    14 A    15 A    16 A                  
-11.284 -11.277 -11.244 -11.235 -10.584  -9.344  -8.054  -8.050
 17 A    18 A    19 A    20 A    21 A    22 A    23 A    24 A                  
 -8.050  -7.033  -7.033  -7.030  -1.758  -1.658  -1.658  -1.629
 25 A    26 A    27 A    28 A    29 A    30 A    31 A    32 A                  
 -1.614  -1.499  -1.392  -1.298  -1.223  -1.160  -1.108  -1.085
 33 A    34 A    35 A    36 A    37 A    38 A    39 A    40 A                  
 -1.048  -1.030  -0.968  -0.907  -0.896  -0.864  -0.864  -0.834
 41 A    42 A    43 A    44 A    45 A    46 A    47 A    48 A                  
 -0.824  -0.814  -0.779  -0.775  -0.759  -0.752  -0.730  -0.722
 49 A    50 A    51 A    52 A    53 A    54 A    55 A    56 A                  
 -0.714  -0.691  -0.689  -0.686  -0.682  -0.680  -0.671  -0.666
 57 A    58 A    59 A    60 A    61 A    62 A    63 A    64 A                  
 -0.654  -0.648  -0.647  -0.645  -0.626  -0.621  -0.605  -0.596
 65 A    66 A    67 A    68 A    69 A    70 A    71 A    72 A                  
 -0.575  -0.568  -0.564  -0.541  -0.532  -0.521  -0.506  -0.502
 73 A    74 A    75 A    76 A    77 A    78 A    79 A    80 A                  
 -0.482  -0.481  -0.476  -0.472  -0.377  -0.343
 81 A    82 A    83 A    84 A    85 A    86 A                                  
 -- Virtual --                   
  0.049   0.068   0.069   0.075   0.081   0.088   0.088   0.092
 87 A    88 A    89 A    90 A    91 A    92 A    93 A    94 A                  
  0.092   0.106   0.107   0.109   0.118   0.121   0.126   0.126
 95 A    96 A    97 A    98 A    99 A   100 A   101 A   102 A                  
  0.134   0.139   0.141   0.145   0.152   0.155   0.157   0.159
103 A   104 A   105 A   106 A   107 A   108 A   109 A   110 A                  
  0.178   0.181   0.190   0.191   0.194   0.198   0.204   0.204
111 A   112 A   113 A   114 A   115 A   116 A   117 A   118 A                  
  0.206   0.224   0.225   0.234   0.244   0.247   0.250   0.255
119 A   120 A   121 A   122 A   123 A   124 A   125 A   126 A                  
  0.257   0.266   0.272   0.280   0.287   0.289   0.294   0.298
127 A   128 A   129 A   130 A   131 A   132 A   133 A   134 A                  
  0.301   0.307   0.312   0.323   0.328   0.332   0.334   0.336
135 A   136 A   137 A   138 A   139 A   140 A   141 A   142 A                  
  0.350   0.352   0.356   0.359   0.371   0.371   0.378   0.386
143 A   144 A   145 A   146 A   147 A   148 A   149 A   150 A                  
  0.388   0.393   0.395   0.408   0.411   0.415   0.420   0.423
151 A   152 A   153 A   154 A   155 A   156 A   157 A   158 A                  
  0.426   0.428   0.433   0.433   0.439   0.451   0.456   0.458
159 A   160 A   161 A   162 A   163 A   164 A   165 A   166 A                  
  0.463   0.464   0.466   0.468   0.474   0.478   0.488   0.493
167 A   168 A   169 A   170 A   171 A   172 A   173 A   174 A                  
  0.504   0.509   0.521   0.522   0.527   0.529   0.544   0.549
175 A   176 A   177 A   178 A   179 A   180 A   181 A   182 A                  
  0.560   0.571   0.582   0.585   0.614   0.621   0.625   0.635
183 A   184 A   185 A   186 A   187 A   188 A   189 A   190 A                  
  0.645   0.657   0.687   0.700   0.717   0.735   0.748   0.756
191 A   192 A   193 A   194 A   195 A   196 A   197 A   198 A                  
  0.756   0.764   0.802   0.804   0.817   0.840   0.857   0.865
199 A   200 A   201 A   202 A   203 A   204 A   205 A   206 A                  
  0.873   0.879   0.906   0.917   0.921   0.924   0.927   0.936
207 A   208 A   209 A   210 A   211 A   212 A   213 A   214 A                  
  0.945   0.957   0.964   0.976   0.988   0.990   1.011   1.018
215 A   216 A   217 A   218 A   219 A   220 A   221 A   222 A                  
  1.040   1.051   1.056   1.072   1.084   1.095   1.107   1.135
223 A   224 A   225 A   226 A   227 A   228 A   229 A   230 A                  
  1.136   1.160   1.162   1.170   1.177   1.182   1.193   1.198
231 A   232 A   233 A   234 A   235 A   236 A   237 A   238 A                  
  1.207   1.208   1.224   1.225   1.246   1.253   1.265   1.277
239 A   240 A   241 A   242 A   243 A   244 A   245 A   246 A                  
  1.289   1.299   1.312   1.341   1.350   1.368   1.384   1.394
247 A   248 A   249 A   250 A   251 A   252 A   253 A   254 A                  
  1.396   1.419   1.444   1.458   1.466   1.468   1.478   1.479
255 A   256 A   257 A   258 A   259 A   260 A   261 A   262 A                  
  1.507   1.522   1.562   1.565   1.597   1.605   1.622   1.634
263 A   264 A   265 A   266 A   267 A   268 A   269 A   270 A                  
  1.644   1.662   1.663   1.690   1.704   1.707   1.709   1.717
271 A   272 A   273 A   274 A   275 A   276 A   277 A   278 A                  
  1.769   1.774   1.784   1.791   1.804   1.816   1.843   1.844
279 A   280 A   281 A   282 A   283 A   284 A   285 A   286 A                  
  1.858   1.873   1.878   1.916   1.938   1.970   1.972   1.974
287 A   288 A   289 A   290 A   291 A   292 A   293 A   294 A                  
  2.004   2.022   2.029   2.032   2.037   2.040   2.064   2.065
295 A   296 A   297 A   298 A   299 A   300 A   301 A   302 A                  
  2.074   2.074   2.086   2.093   2.111   2.118   2.119   2.131
303 A   304 A   305 A   306 A   307 A   308 A   309 A   310 A                  
  2.138   2.142   2.156   2.171   2.180   2.183   2.187   2.206
311 A   312 A   313 A   314 A   315 A   316 A   317 A   318 A                  
  2.222   2.227   2.259   2.260   2.269   2.280   2.288   2.291
319 A   320 A   321 A   322 A   323 A   324 A   325 A   326 A                  
  2.293   2.296   2.305   2.314   2.327   2.328   2.335   2.336
327 A   328 A   329 A   330 A   331 A   332 A   333 A   334 A                  
  2.344   2.363   2.374   2.396   2.400   2.433   2.448   2.453
335 A   336 A   337 A   338 A   339 A   340 A   341 A   342 A                  
  2.463   2.469   2.487   2.501   2.506   2.540   2.546   2.562
343 A   344 A   345 A   346 A   347 A   348 A   349 A   350 A                  
  2.574   2.590   2.600   2.602   2.670   2.677   2.689   2.705
351 A   352 A   353 A   354 A   355 A   356 A   357 A   358 A                  
  2.717   2.730   2.734   2.735   2.798   2.842   2.847   2.941
359 A   360 A   361 A   362 A   363 A   364 A   365 A   366 A                  
  2.960   2.960   2.986   3.028   3.062   3.082   3.088   3.108
367 A   368 A   369 A   370 A   371 A   372 A   373 A   374 A                  
  3.164   3.173   3.203   3.206   3.265   3.294   3.314   3.389
375 A   376 A   377 A   378 A   379 A   380 A   381 A   382 A                  
  3.399   3.451   3.508   3.607   3.693   3.749   3.820   4.604
383 A   384 A   385 A   386 A   387 A   388 A   389 A   390 A                  
  4.654   4.677   4.704   4.737   4.760   4.786   4.821   4.847
391 A   392 A   393 A   394 A   395 A   396 A   397 A   398 A                  
  4.866   4.922   4.978   5.035   5.090   5.179   6.345   6.415
399 A   400 A   401 A   402 A   403 A   404 A   405 A   406 A                  
  6.539   7.778   9.432
407 A   408 A   409 A                                                          

 Occupation and symmetry of molecular orbitals

 Point group: C1 (1 irreducible representation).

                           A     All 
 -------------------------------------
 All molecular orbitals:
  - Alpha                  409   409 
  - Beta                   409   409 
 -------------------------------------
 Alpha orbitals:
  - Frozen occupied        28    28  
  - Active occupied        58    58  
  - Active virtual         323   323 
  - Frozen virtual         0     0   
 -------------------------------------
 Beta orbitals:
  - Frozen occupied        28    28  
  - Active occupied        58    58  
  - Active virtual         323   323 
  - Frozen virtual         0     0   
 -------------------------------------

 Import integrals:   CPU 0.00 s  wall 0.00 s

 Import integrals:   CPU 2486.25 s  wall 1262.58 s

 MP2 amplitudes:   CPU 39.88 s  wall 134.32 s

           CCSD T amplitudes will be solved using DIIS.

           Start     Size      MaxIter   EConv     TConv     
           3         7         100       1.00e-06  1.00e-04  
 ------------------------------------------------------------------------------
           Energy (a.u.)   Ediff      Tdiff       Comment
 ------------------------------------------------------------------------------
         -1946.36511107                           
     1   -1946.33045656   3.47e-02   1.57e+00     Step took 1:27.36.
     2   -1946.42443051   9.40e-02   2.16e-01     
     3   -1946.42094736   3.48e-03   8.19e-02     
     4   -1946.43023723   9.29e-03   2.73e-02     Switched to DIIS steps.
     5   -1946.43321374   2.98e-03   1.74e-02     
     6   -1946.43339514   1.81e-04   3.61e-03     
     7   -1946.43337948   1.57e-05   1.76e-03     
     8   -1946.43336903   1.05e-05   4.82e-04     
     9   -1946.43336980   7.64e-07   1.77e-04     
    10   -1946.43336980   8.07e-09   4.91e-05     
 ------------------------------------------------------------------------------
         -1946.43336980                           CCSD T converged.


 ------------------------------------------------------------------------------
 == (T) code is based on LIBPT ==
 == Author: Ilya Kaliman, 2016 ==

 Starting (T) calculation...
 (T) calculation completed in 148001 sec
 ------------------------------------------------------------------------------

 SCF energy                 = -1943.35341626
 MP2 energy                 = -1946.36511107
 CCSD correlation energy     =    -3.07995355
 CCSD total energy           = -1946.43336980
 CCSD(T) correlation energy =    -0.11276858
 CCSD(T) total energy       = -1946.54613839

 CCSD  T1^2 = 0.0437  T2^2 = 0.9956  Leading amplitudes:

 Amplitude    Orbitals with energies
 -0.0217       57 (A) A                  ->    120 (A) A                  
              -0.7145                          0.2238                     
 -0.0217       57 (A) B                  ->    120 (A) B                  
              -0.7145                          0.2238                     
 -0.0217       67 (A) A                  ->    120 (A) A                  
              -0.6471                          0.2238                     
 -0.0217       67 (A) B                  ->    120 (A) B                  
              -0.6471                          0.2238                     

 Amplitude    Orbitals with energies
 -0.0558       85 (A) A      85 (A) B    ->    88 (A) A      88 (A) B     
              -0.3771       -0.3771            0.0679        0.0679       
  0.0558       85 (A) A      85 (A) B    ->    88 (A) B      88 (A) A     
              -0.3771       -0.3771            0.0679        0.0679       
  0.0558       85 (A) B      85 (A) A    ->    88 (A) A      88 (A) B     
              -0.3771       -0.3771            0.0679        0.0679       
 -0.0558       85 (A) B      85 (A) A    ->    88 (A) B      88 (A) A     
              -0.3771       -0.3771            0.0679        0.0679       

 CCSD calculation:   CPU 712204.44 s  wall 204074.10 s

 Total ccman2 time:   CPU 714763.09 s  wall 205495.84 s

 
 --------------------------------------------------------------
 
                    Orbital Energies (a.u.)
 --------------------------------------------------------------
 
 Alpha MOs
 -- Occupied --
******* -92.404 -26.358 -26.358 -26.358 -26.358 -26.358 -20.635
-20.572 -15.642 -11.440 -11.339 -11.336 -11.318 -11.305 -11.285
-11.284 -11.277 -11.244 -11.235 -10.584  -9.344  -8.054  -8.050
 -8.050  -7.033  -7.033  -7.030  -1.758  -1.658  -1.658  -1.629
 -1.614  -1.499  -1.392  -1.298  -1.223  -1.160  -1.108  -1.085
 -1.048  -1.030  -0.968  -0.907  -0.896  -0.864  -0.864  -0.834
 -0.824  -0.814  -0.779  -0.775  -0.759  -0.752  -0.730  -0.722
 -0.714  -0.691  -0.689  -0.686  -0.682  -0.680  -0.671  -0.666
 -0.654  -0.648  -0.647  -0.645  -0.626  -0.621  -0.605  -0.596
 -0.575  -0.568  -0.564  -0.541  -0.532  -0.521  -0.506  -0.502
 -0.482  -0.481  -0.476  -0.472  -0.377  -0.343
 -- Virtual --
  0.049   0.068   0.069   0.075   0.081   0.088   0.088   0.092
  0.092   0.106   0.107   0.109   0.118   0.121   0.126   0.126
  0.134   0.139   0.141   0.145   0.152   0.155   0.157   0.159
  0.178   0.181   0.190   0.191   0.194   0.198   0.204   0.204
  0.206   0.224   0.225   0.234   0.244   0.247   0.250   0.255
  0.257   0.266   0.272   0.280   0.287   0.289   0.294   0.298
  0.301   0.307   0.312   0.323   0.328   0.332   0.334   0.336
  0.350   0.352   0.356   0.359   0.371   0.371   0.378   0.386
  0.388   0.393   0.395   0.408   0.411   0.415   0.420   0.423
  0.426   0.428   0.433   0.433   0.439   0.451   0.456   0.458
  0.463   0.464   0.466   0.468   0.474   0.478   0.488   0.493
  0.504   0.509   0.521   0.522   0.527   0.529   0.544   0.549
  0.560   0.571   0.582   0.585   0.614   0.621   0.625   0.635
  0.645   0.657   0.687   0.700   0.717   0.735   0.748   0.756
  0.756   0.764   0.802   0.804   0.817   0.840   0.857   0.865
  0.873   0.879   0.906   0.917   0.921   0.924   0.927   0.936
  0.945   0.957   0.964   0.976   0.988   0.990   1.011   1.018
  1.040   1.051   1.056   1.072   1.084   1.095   1.107   1.135
  1.136   1.160   1.162   1.170   1.177   1.182   1.193   1.198
  1.207   1.208   1.224   1.225   1.246   1.253   1.265   1.277
  1.289   1.299   1.312   1.341   1.350   1.368   1.384   1.394
  1.396   1.419   1.444   1.458   1.466   1.468   1.478   1.479
  1.507   1.522   1.562   1.565   1.597   1.605   1.622   1.634
  1.644   1.662   1.663   1.690   1.704   1.707   1.709   1.717
  1.769   1.774   1.784   1.791   1.804   1.816   1.843   1.844
  1.858   1.873   1.878   1.916   1.938   1.970   1.972   1.974
  2.004   2.022   2.029   2.032   2.037   2.040   2.064   2.065
  2.074   2.074   2.086   2.093   2.111   2.118   2.119   2.131
  2.138   2.142   2.156   2.171   2.180   2.183   2.187   2.206
  2.222   2.227   2.259   2.260   2.269   2.280   2.288   2.291
  2.293   2.296   2.305   2.314   2.327   2.328   2.335   2.336
  2.344   2.363   2.374   2.396   2.400   2.433   2.448   2.453
  2.463   2.469   2.487   2.501   2.506   2.540   2.546   2.562
  2.574   2.590   2.600   2.602   2.670   2.677   2.689   2.705
  2.717   2.730   2.734   2.735   2.798   2.842   2.847   2.941
  2.960   2.960   2.986   3.028   3.062   3.082   3.088   3.108
  3.164   3.173   3.203   3.206   3.265   3.294   3.314   3.389
  3.399   3.451   3.508   3.607   3.693   3.749   3.820   4.604
  4.654   4.677   4.704   4.737   4.760   4.786   4.821   4.847
  4.866   4.922   4.978   5.035   5.090   5.179   6.345   6.415
  6.539   7.778   9.432
 --------------------------------------------------------------
 
          Ground-State Mulliken Net Atomic Charges

     Atom                 Charge (a.u.)
  ----------------------------------------
      1 C                    -0.018354
      2 N                    -0.934739
      3 C                     0.697160
      4 O                    -0.583283
      5 O                    -0.471927
      6 C                     0.078710
      7 C                    -0.280688
      8 C                    -0.690163
      9 C                     0.451033
     10 C                    -0.043454
     11 C                    -0.561664
     12 C                     0.266234
     13 C                    -0.905709
     14 H                     0.503136
     15 H                     0.213495
     16 H                     0.213520
     17 H                     0.204549
     18 H                     0.204547
     19 H                     0.197059
     20 H                     0.204760
     21 H                     0.197063
     22 H                     0.353021
     23 Cl                    0.266026
     24 H                     0.258859
     25 S                     3.092933
     26 H                     0.299585
     27 F                    -0.641049
     28 F                    -0.647821
     29 F                    -0.641077
     30 F                    -0.647799
     31 F                    -0.633964
  ----------------------------------------
  Sum of atomic charges =     0.000000

 -----------------------------------------------------------------
                    Cartesian Multipole Moments
 -----------------------------------------------------------------
    Charge (ESU x 10^10)
                 0.0000
    Dipole Moment (Debye)
         X      -5.6382      Y      -3.6574      Z      -0.0007
       Tot       6.7205
    Quadrupole Moments (Debye-Ang)
        XX    -114.9750     XY      -1.2145     YY    -134.2671
        XZ       0.0015     YZ      -0.0009     ZZ    -132.3610
    Octopole Moments (Debye-Ang^2)
       XXX     -79.8546    XXY       8.9747    XYY      -0.7526
       YYY      39.5683    XXZ       0.0017    XYZ       0.0036
       YYZ      -0.0048    XZZ      13.3317    YZZ      21.1301
       ZZZ      -0.0002
    Hexadecapole Moments (Debye-Ang^3)
      XXXX   -8280.6259   XXXY      -1.0655   XXYY   -2004.5254
      XYYY     183.7112   YYYY   -2777.2173   XXXZ       0.0016
      XXYZ      -0.0198   XYYZ       0.0145   YYYZ       0.0073
      XXZZ   -1560.1605   XYZZ      40.9996   YYZZ    -525.7177
      XZZZ       0.0086   YZZZ      -0.0018   ZZZZ    -301.7805
 -----------------------------------------------------------------
Archival summary:
1\1\r4249\SP\ProcedureUnspecified\6-31+G*\l115211011\hio507\WedDec1121:03:532019WedDec1121:03:532019\0\\#,ProcedureUnspecified,6-31+G*,\\0,1\S\F,1,1.60528\F,1,1.61211,2,87.7195\F,1,1.61211,2,87.719,3,90.134,0\F,1,1.61588,2,87.6024,3,-90.0395,0\F,1,1.61588,2,87.6029,3,-179.827,0\C,1,1.81364,2,179.773,3,-134.969,0\C,7,1.38455,1,117.856,2,-179.954,0\H,8,1.07878,7,121.586,1,-0.00195987,0\C,7,1.38461,1,118.052,2,0.0447026,0\H,10,1.08086,7,122.355,1,0.00120153,0\C,10,1.38784,7,116.576,1,-179.999,0\C,12,1.38376,10,121.787,7,0,0\H,13,1.08426,12,119.472,10,-180,0\C,8,1.39792,7,117.818,1,179.998,0\N,15,1.39713,8,123.069,7,-179.995,0\H,16,1.00927,15,117.457,8,179.987,0\C,16,1.37536,15,127.298,8,-0.0239615,0\O,18,1.20249,16,126.255,15,-0,0\O,18,1.34093,16,108.829,15,-180,0\C,20,1.43767,18,115.347,16,179.999,0\H,21,1.09259,20,108.732,18,-58.5992,0\H,21,1.09259,20,108.731,18,58.6559,0\C,21,1.51309,20,107.685,18,-179.972,0\H,24,1.09336,21,109.017,20,58.2564,0\H,24,1.09336,21,109.018,20,-58.2561,0\C,24,1.52635,21,110.869,20,-180,0\H,27,1.09058,24,111.005,21,-179.994,0\H,27,1.09264,24,111.301,21,-60.0858,0\H,27,1.09264,24,111.302,21,60.0969,0\Cl,12,1.73748,10,119.203,7,-180,0\\HF=-1943.35342\\@

 Total job time:  205584.49s(wall), 715104.71s(cpu) 
 Wed Dec 11 21:03:53 2019

        *************************************************************
        *                                                           *
        *  Thank you very much for using Q-Chem.  Have a nice day.  *
        *                                                           *
        *************************************************************


0 sent ACK to 0 
now end server 0 ... 
