 Entering Gaussian System, Link 0=/apps/gaussian/g09e01/g09/g09
 AtFile(1): /home/507/hio507/Basis/GTMP2LARGE.gbs
 Initial command:
 /apps/gaussian/g09e01/g09/l1.exe "/jobfs/local/4046966.r-man2/Gau-29245.inp" -scrdir="/jobfs/local/4046966.r-man2/"
 Entering Link 1 = /apps/gaussian/g09e01/g09/l1.exe PID=     29246.
  
 Copyright (c) 1988,1990,1992,1993,1995,1998,2003,2009,2015,
            Gaussian, Inc.  All Rights Reserved.
  
 This is part of the Gaussian(R) 09 program.  It is based on
 the Gaussian(R) 03 system (copyright 2003, Gaussian, Inc.),
 the Gaussian(R) 98 system (copyright 1998, Gaussian, Inc.),
 the Gaussian(R) 94 system (copyright 1995, Gaussian, Inc.),
 the Gaussian 92(TM) system (copyright 1992, Gaussian, Inc.),
 the Gaussian 90(TM) system (copyright 1990, Gaussian, Inc.),
 the Gaussian 88(TM) system (copyright 1988, Gaussian, Inc.),
 the Gaussian 86(TM) system (copyright 1986, Carnegie Mellon
 University), and the Gaussian 82(TM) system (copyright 1983,
 Carnegie Mellon University). Gaussian is a federally registered
 trademark of Gaussian, Inc.
  
 This software contains proprietary and confidential information,
 including trade secrets, belonging to Gaussian, Inc.
  
 This software is provided under written license and may be
 used, copied, transmitted, or stored only in accord with that
 written license.
  
 The following legend is applicable only to US Government
 contracts under FAR:
  
                    RESTRICTED RIGHTS LEGEND
  
 Use, reproduction and disclosure by the US Government is
 subject to restrictions as set forth in subparagraphs (a)
 and (c) of the Commercial Computer Software - Restricted
 Rights clause in FAR 52.227-19.
  
 Gaussian, Inc.
 340 Quinnipiac St., Bldg. 40, Wallingford CT 06492
  
  
 ---------------------------------------------------------------
 Warning -- This program may not be used in any manner that
 competes with the business of Gaussian, Inc. or will provide
 assistance to any competitor of Gaussian, Inc.  The licensee
 of this program is prohibited from giving any competitor of
 Gaussian, Inc. access to this program.  By using this program,
 the user acknowledges that Gaussian, Inc. is engaged in the
 business of creating and licensing software in the field of
 computational chemistry and represents and warrants to the
 licensee that it is not a competitor of Gaussian, Inc. and that
 it will not use this program in any manner prohibited above.
 ---------------------------------------------------------------
  

 Cite this work as:
 Gaussian 09, Revision E.01,
 M. J. Frisch, G. W. Trucks, H. B. Schlegel, G. E. Scuseria, 
 M. A. Robb, J. R. Cheeseman, G. Scalmani, V. Barone, B. Mennucci, 
 G. A. Petersson, H. Nakatsuji, M. Caricato, X. Li, H. P. Hratchian, 
 A. F. Izmaylov, J. Bloino, G. Zheng, J. L. Sonnenberg, M. Hada, 
 M. Ehara, K. Toyota, R. Fukuda, J. Hasegawa, M. Ishida, T. Nakajima, 
 Y. Honda, O. Kitao, H. Nakai, T. Vreven, J. A. Montgomery, Jr., 
 J. E. Peralta, F. Ogliaro, M. Bearpark, J. J. Heyd, E. Brothers, 
 K. N. Kudin, V. N. Staroverov, T. Keith, R. Kobayashi, J. Normand, 
 K. Raghavachari, A. Rendell, J. C. Burant, S. S. Iyengar, J. Tomasi, 
 M. Cossi, N. Rega, J. M. Millam, M. Klene, J. E. Knox, J. B. Cross, 
 V. Bakken, C. Adamo, J. Jaramillo, R. Gomperts, R. E. Stratmann, 
 O. Yazyev, A. J. Austin, R. Cammi, C. Pomelli, J. W. Ochterski, 
 R. L. Martin, K. Morokuma, V. G. Zakrzewski, G. A. Voth, 
 P. Salvador, J. J. Dannenberg, S. Dapprich, A. D. Daniels, 
 O. Farkas, J. B. Foresman, J. V. Ortiz, J. Cioslowski, 
 and D. J. Fox, Gaussian, Inc., Wallingford CT, 2013.
 
 ******************************************
 Gaussian 09:  ES64L-G09RevE.01 30-Nov-2015
                 9-Dec-2019 
 ******************************************
 %chk=CP22CA_c2.MP2_GTMP2LARGE.chk
 %mem=1114112000
 %nproc=4
 Will use up to    4 processors via shared memory.
 -------------------------------------------------------------
 # MP2/Gen 5D SCF=Tight INT(grid=ultrafine) maxdisk=3489660928
 -------------------------------------------------------------
 1/38=1/1;
 2/12=2,17=6,18=5,40=1/2;
 3/5=7,8=1,11=9,16=1,25=1,30=1,75=-5/1,2,3;
 4//1;
 5/5=2,32=2,38=5/2;
 8/10=1/1;
 9/16=-3/6;
 6/7=2,8=2,9=2,10=2/1;
 99/5=1,9=1/99;
 ------------------------
 CP22CA_c2.MP2_GTMP2LARGE
 ------------------------
 Symbolic Z-matrix:
 Charge =  0 Multiplicity = 1
 C                    -5.89402   1.46352   0.31896 
 N                    -4.65949   0.82543   0.17304 
 C                    -3.41221   1.40234   0.20912 
 O                    -3.17209   2.56946   0.37435 
 O                    -2.4888    0.44704   0.02868 
 C                    -1.12372   0.89708   0.04083 
 C                    -0.23999  -0.31188  -0.17616 
 C                     1.23405   0.08408  -0.17625 
 C                    -7.03603   0.65959   0.24498 
 C                    -8.27764   1.24783   0.38373 
 C                    -8.45099   2.60605   0.59434 
 C                    -7.29892   3.3761    0.66282 
 C                    -6.0262    2.83841   0.53039 
 H                    -4.66721  -0.17288   0.02383 
 H                    -0.92212   1.38129   0.99933 
 H                    -0.99285   1.64302  -0.74675 
 H                    -0.50827  -0.78325  -1.12548 
 H                    -0.43818  -1.04375   0.61153 
 H                     1.45232   0.80206  -0.97046 
 H                     1.8723   -0.7863   -0.33252 
 H                     1.52267   0.54052   0.77363 
 H                    -6.94627  -0.40712   0.08146 
 Cl                   -7.45531   5.08636   0.92551 
 H                    -5.15577   3.47381   0.59018 
 S                    -9.74571   0.19279   0.28544 
 H                    -9.42939   3.05291   0.70118 
 F                    -9.08537  -0.92922   1.24336 
 F                    -10.41802   0.89524   1.57223 
 F                    -9.17742  -0.59132  -1.00868 
 F                    -10.51015   1.23331  -0.68112 
 F                    -11.04536  -0.74409   0.198 
 
                          Input orientation:                          
 ---------------------------------------------------------------------
 Center     Atomic      Atomic             Coordinates (Angstroms)
 Number     Number       Type             X           Y           Z
 ---------------------------------------------------------------------
      1          6           0       -5.894024    1.463516    0.318964
      2          7           0       -4.659486    0.825428    0.173038
      3          6           0       -3.412212    1.402336    0.209122
      4          8           0       -3.172091    2.569463    0.374349
      5          8           0       -2.488798    0.447041    0.028678
      6          6           0       -1.123719    0.897077    0.040832
      7          6           0       -0.239991   -0.311880   -0.176159
      8          6           0        1.234045    0.084081   -0.176246
      9          6           0       -7.036032    0.659594    0.244978
     10          6           0       -8.277638    1.247834    0.383726
     11          6           0       -8.450994    2.606049    0.594345
     12          6           0       -7.298918    3.376099    0.662824
     13          6           0       -6.026201    2.838408    0.530390
     14          1           0       -4.667211   -0.172883    0.023828
     15          1           0       -0.922123    1.381292    0.999334
     16          1           0       -0.992849    1.643015   -0.746747
     17          1           0       -0.508271   -0.783247   -1.125484
     18          1           0       -0.438182   -1.043755    0.611533
     19          1           0        1.452322    0.802061   -0.970455
     20          1           0        1.872299   -0.786301   -0.332519
     21          1           0        1.522667    0.540516    0.773634
     22          1           0       -6.946274   -0.407120    0.081463
     23         17           0       -7.455313    5.086358    0.925510
     24          1           0       -5.155773    3.473810    0.590180
     25         16           0       -9.745709    0.192792    0.285439
     26          1           0       -9.429387    3.052906    0.701175
     27          9           0       -9.085368   -0.929216    1.243359
     28          9           0      -10.418019    0.895239    1.572234
     29          9           0       -9.177417   -0.591316   -1.008685
     30          9           0      -10.510148    1.233312   -0.681115
     31          9           0      -11.045357   -0.744090    0.197998
 ---------------------------------------------------------------------
                    Distance matrix (angstroms):
                    1          2          3          4          5
     1  C    0.000000
     2  N    1.397332   0.000000
     3  C    2.484995   1.374706   0.000000
     4  O    2.938555   2.300984   1.202973   0.000000
     5  O    3.565537   2.208144   1.340837   2.256337   0.000000
     6  C    4.811862   3.538962   2.349640   2.665321   1.437400
     7  C    5.946870   4.576826   3.626288   4.147579   2.382236
     8  C    7.277187   5.950235   4.844999   5.088646   3.746104
     9  C    1.398551   2.383411   3.699327   4.312119   4.557335
    10  C    2.394228   3.648814   4.871009   5.273841   5.854742
    11  C    2.814127   4.209947   5.194868   5.283612   6.366246
    12  C    2.397904   3.703029   4.382702   4.214805   5.667344
    13  C    1.397319   2.459208   2.999743   2.870997   4.299253
    14  H    2.066393   1.009429   2.022540   3.143041   2.264909
    15  H    5.018911   3.867768   2.612551   2.620060   2.066270
    16  H    5.018912   3.867645   2.612457   2.619973   2.066277
    17  H    6.011715   4.637518   3.871798   4.537192   2.601574
    18  H    6.011507   4.637405   3.871712   4.537165   2.601388
    19  H    7.487919   6.217903   5.041371   5.130050   4.081266
    20  H    8.111836   6.746664   5.745396   6.099729   4.546511
    21  H    7.487721   6.217789   5.041274   5.129992   4.081121
    22  H    2.159379   2.599415   3.972408   4.815629   4.538884
    23  Cl   3.991304   5.151543   5.516511   4.998452   6.855206
    24  H    2.158670   2.726580   2.734267   2.190758   4.073006
    25  S    4.056025   5.126649   6.448411   6.990631   7.265902
    26  H    3.895001   5.290798   6.258825   6.284447   7.444096
    27  F    4.094429   4.879836   6.220167   6.925516   6.847209
    28  F    4.728653   5.926494   7.155177   7.532690   8.090488
    29  F    4.094589   4.880096   6.220554   6.925839   6.847768
    30  F    4.728821   5.926736   7.155542   7.533019   8.090988
    31  F    5.605746   6.575969   7.929197   8.543948   8.640727
                    6          7          8          9         10
     6  C    0.000000
     7  C    1.513155   0.000000
     8  C    2.503426   1.526292   0.000000
     9  C    5.920600   6.878029   8.300772   0.000000
    10  C    7.170715   8.206701   9.598959   1.380892   0.000000
    11  C    7.544264   8.748060  10.037636   2.431638   1.385337
    12  C    6.683226   8.008342   9.184383   2.760997   2.359089
    13  C    5.295542   6.625991   7.797232   2.418356   2.760508
    14  H    3.701545   4.433913   5.910235   2.520563   3.896556
    15  H    1.092626   2.171157   2.777375   6.202401   7.382438
    16  H    1.092626   2.171170   2.777554   6.202475   7.382566
    17  H    2.136015   1.093334   2.165404   6.824340   8.171051
    18  H    2.135999   1.093334   2.165399   6.824030   8.170701
    19  H    2.769065   2.176166   1.092661   8.576114   9.833852
    20  H    3.456773   2.170552   1.090575   9.043367  10.376509
    21  H    2.769025   2.176155   1.092661   8.575837   9.833530
    22  H    5.966969   6.711905   8.199104   1.082901   2.145406
    23  Cl   7.643416   9.078299  10.086704   4.498351   3.962829
    24  H    4.816513   6.251691   7.273751   3.402109   3.839744
    25  S    8.654164   9.530291  10.989994   2.749890   1.810527
    26  H    8.606263   9.825298  11.103719   3.415290   2.164621
    27  F    8.256468   8.979801  10.465770   2.778644   2.476075
    28  F    9.419618  10.397416  11.810409   3.640738   2.473480
    29  F    8.257048   8.980465  10.466501   2.778845   2.476062
    30  F    9.420154  10.398015  11.811084   3.640918   2.473499
    31  F   10.057685  10.820477  12.312987   4.248203   3.415044
                   11         12         13         14         15
    11  C    0.000000
    12  C    1.387424   0.000000
    13  C    2.436740   1.387970   0.000000
    14  H    4.729162   4.464244   3.342355   0.000000
    15  H    7.638583   6.689993   5.328669   4.170462   0.000000
    16  H    7.638710   6.690066   5.328666   4.170396   1.767004
    17  H    8.805225   8.161563   6.804841   4.357779   3.061267
    18  H    8.804915   8.161339   6.804685   4.357579   2.503087
    19  H   10.187181   9.267011   7.894780   6.275970   3.139040
    20  H   10.905848  10.120648   8.733238   6.577876   3.779033
    21  H   10.186879   9.266778   7.894611   6.275805   2.595158
    22  H    3.406820   3.843838   3.403164   2.291794   6.350693
    23  Cl   2.693137   1.737368   2.692909   6.020479   7.511027
    24  H    3.407567   2.146601   1.079331   3.722609   4.740235
    25  S    2.755996   4.032697   4.570998   5.098363   8.931845
    26  H    1.080900   2.155184   3.414213   5.791618   8.675063
    27  F    3.649897   4.697251   4.905285   4.645365   8.487436
    28  F    2.784299   4.087846   4.914205   6.050640   9.525571
    29  F    3.649731   4.697136   4.905295   4.645764   8.721995
    30  F    2.784118   4.087750   4.914250   6.050971   9.735298
    31  F    4.255730   5.588186   6.175492   6.406041  10.374934
                   16         17         18         19         20
    16  H    0.000000
    17  H    2.503000   0.000000
    18  H    3.061260   1.757841   0.000000
    19  H    2.595402   2.526096   3.079566   0.000000
    20  H    3.779185   2.509167   2.509151   1.762453   0.000000
    21  H    3.139249   3.079563   2.526088   1.764994   1.762459
    22  H    6.350768   6.560951   6.560605   8.550150   8.836424
    23  Cl   7.511091   9.323102   9.322928  10.064584  11.093923
    24  H    4.740161   6.531870   6.531808   7.296626   8.270050
    25  S    8.932027   9.395404   9.394969  11.284697  11.675556
    26  H    8.675220   9.881248   9.880912  11.237092  11.980657
    27  F    8.721569   8.899400   8.670995  10.906017  11.071327
    28  F    9.735023  10.406638  10.211748  12.139973  12.550203
    29  F    8.488109   8.672057   8.899665  10.720742  11.072102
    30  F    9.526339  10.212811  10.406751  11.973737  12.550911
    31  F   10.375150  10.619949  10.619462  12.647049  12.928615
                   21         22         23         24         25
    21  H    0.000000
    22  H    8.549858   0.000000
    23  Cl  10.064386   5.581204   0.000000
    24  H    7.296536   4.304220   2.828540   0.000000
    25  S   11.284305   2.870251   5.440826   5.650262   0.000000
    26  H   11.236763   4.303682   2.842925   4.295725   2.907430
    27  F   10.719662   2.489640   6.240612   5.937592   1.616343
    28  F   11.972618   3.996442   5.173138   5.941775   1.612847
    29  F   10.906397   2.490050   6.240412   5.937612   1.616335
    30  F   12.140218   3.996717   5.172932   5.941830   1.612847
    31  F   12.646612   4.114561   6.885624   7.254770   1.604518
                   26         27         28         29         30
    26  H    0.000000
    27  F    4.033561   0.000000
    28  F    2.528174   2.283146   0.000000
    29  F    4.033295   2.279112   3.226466   0.000000
    30  F    2.527784   3.226473   2.280431   2.283143   0.000000
    31  F    4.157129   2.229038   2.229232   2.229041   2.229217
                   31
    31  F    0.000000
 Stoichiometry    C10H11ClF5NO2S
 Framework group  C1[X(C10H11ClF5NO2S)]
 Deg. of freedom    87
 Full point group                 C1      NOp   1
 Largest Abelian subgroup         C1      NOp   1
 Largest concise Abelian subgroup C1      NOp   1
                         Standard orientation:                         
 ---------------------------------------------------------------------
 Center     Atomic      Atomic             Coordinates (Angstroms)
 Number     Number       Type             X           Y           Z
 ---------------------------------------------------------------------
      1          6           0        0.592396    0.239894   -0.000344
      2          7           0        1.835707   -0.397848   -0.000563
      3          6           0        3.076949    0.193028   -0.000250
      4          8           0        3.303048    1.374562   -0.000094
      5          8           0        4.012731   -0.767261   -0.000111
      6          6           0        5.373424   -0.303973    0.000061
      7          6           0        6.272583   -1.520998    0.000039
      8          6           0        7.742968   -1.111686    0.000489
      9          6           0       -0.540747   -0.579820   -0.000286
     10          6           0       -1.790525    0.007478   -0.000065
     11          6           0       -1.980562    1.379719    0.000071
     12          6           0       -0.836928    2.165244   -0.000012
     13          6           0        0.443369    1.629243   -0.000226
     14          1           0        1.840129   -1.407268   -0.000554
     15          1           0        5.532214    0.318843    0.883643
     16          1           0        5.532386    0.319027   -0.883360
     17          1           0        6.046711   -2.130556   -0.879052
     18          1           0        6.046271   -2.130884    0.878788
     19          1           0        7.989701   -0.516262   -0.881838
     20          1           0        8.392332   -1.987860    0.000504
     21          1           0        7.989230   -0.516569    0.883156
     22          1           0       -0.437927   -1.657829   -0.000375
     23         17           0       -1.014277    3.893537    0.000149
     24          1           0        1.306765    2.276934   -0.000266
     25         16           0       -3.246940   -1.068096    0.000066
     26          1           0       -2.965189    1.825649    0.000239
     27          9           0       -2.620205   -2.028350    1.139224
     28          9           0       -3.976203   -0.191499    1.140691
     29          9           0       -2.620813   -2.027788   -1.139888
     30          9           0       -3.976837   -0.190959   -1.139739
     31          9           0       -4.536235   -2.023187    0.000184
 ---------------------------------------------------------------------
 Rotational constants (GHZ):      0.4461125      0.1174702      0.0966648
 General basis read from cards:  (5D, 7F)
 There are   938 symmetry adapted cartesian basis functions of A   symmetry.
 There are   830 symmetry adapted basis functions of A   symmetry.
   830 basis functions,  1232 primitive gaussians,   938 cartesian basis functions
    86 alpha electrons       86 beta electrons
       nuclear repulsion energy      2007.5868262429 Hartrees.
 NAtoms=   31 NActive=   31 NUniq=   31 SFac= 1.00D+00 NAtFMM=   60 NAOKFM=F Big=F
 Integral buffers will be    131072 words long.
 Raffenetti 1 integral format.
 Two-electron integral symmetry is turned on.
 One-electron integrals computed using PRISM.
 NBasis=   830 RedAO= T EigKep=  1.70D-06  NBF=   830
 NBsUse=   827 1.00D-06 EigRej=  6.55D-07 NBFU=   827
 ExpMin= 3.60D-02 ExpMax= 1.06D+05 ExpMxC= 3.62D+03 IAcc=3 IRadAn=         5 AccDes= 0.00D+00
 Harris functional with IExCor=  205 and IRadAn=       5 diagonalized for initial guess.
 HarFok:  IExCor=  205 AccDes= 0.00D+00 IRadAn=         5 IDoV= 1 UseB2=F ITyADJ=14
 ICtDFT=  3500011 ScaDFX=  1.000000  1.000000  1.000000  1.000000
 FoFCou: FMM=F IPFlag=           0 FMFlag=      100000 FMFlg1=           0
         NFxFlg=           0 DoJE=T BraDBF=F KetDBF=T FulRan=T
         wScrn=  0.000000 ICntrl=     500 IOpCl=  0 I1Cent=   200000004 NGrid=           0
         NMat0=    1 NMatS0=      1 NMatT0=    0 NMatD0=    1 NMtDS0=    0 NMtDT0=    0
 Petite list used in FoFCou.
 Requested convergence on RMS density matrix=1.00D-08 within 128 cycles.
 Requested convergence on MAX density matrix=1.00D-06.
 Requested convergence on             energy=1.00D-06.
 No special actions if energy rises.
 Initial convergence to 1.0D-05 achieved.  Increase integral accuracy.
 SCF Done:  E(RHF) =  -1943.79199734     A.U. after   15 cycles
            NFock= 15  Conv=0.59D-08     -V/T= 2.0008
 ExpMin= 3.60D-02 ExpMax= 1.06D+05 ExpMxC= 3.62D+03 IAcc=3 IRadAn=         5 AccDes= 0.00D+00
 HarFok:  IExCor=  205 AccDes= 0.00D+00 IRadAn=         5 IDoV=-2 UseB2=F ITyADJ=14
 ICtDFT= 12500011 ScaDFX=  1.000000  1.000000  1.000000  1.000000
 Range of M.O.s used for correlation:    29   827
 NBasis=   830 NAE=    86 NBE=    86 NFC=    28 NFV=     0
 NROrb=    799 NOA=    58 NOB=    58 NVA=   741 NVB=   741

 **** Warning!!: The largest alpha MO coefficient is  0.11059570D+03

 Fully direct method using O(OVN) memory.
 JobTyp=1 Pass  1:  I=   1 to   6 NPSUse=  4 ParTrn=T ParDer=T DoDerP=F.
 JobTyp=1 Pass  2:  I=   7 to  13 NPSUse=  4 ParTrn=T ParDer=T DoDerP=F.
 JobTyp=1 Pass  3:  I=  14 to  22 NPSUse=  4 ParTrn=T ParDer=T DoDerP=F.
 JobTyp=1 Pass  4:  I=  23 to  34 NPSUse=  4 ParTrn=T ParDer=T DoDerP=F.
 JobTyp=1 Pass  5:  I=  35 to  58 NPSUse=  4 ParTrn=T ParDer=T DoDerP=F.
 Spin components of T(2) and E(2):
     alpha-alpha T2 =       0.1488731965D+00 E2=     -0.5171213205D+00
     alpha-beta  T2 =       0.7699838330D+00 E2=     -0.2897887625D+01
     beta-beta   T2 =       0.1488731965D+00 E2=     -0.5171213205D+00
 ANorm=    0.1437960440D+01
 E2 =    -0.3932130266D+01 EUMP2 =    -0.19477241276017D+04

 **********************************************************************

            Population analysis using the SCF density.

 **********************************************************************

 Orbital symmetries:
       Occupied  (A) (A) (A) (A) (A) (A) (A) (A) (A) (A) (A) (A)
                 (A) (A) (A) (A) (A) (A) (A) (A) (A) (A) (A) (A)
                 (A) (A) (A) (A) (A) (A) (A) (A) (A) (A) (A) (A)
                 (A) (A) (A) (A) (A) (A) (A) (A) (A) (A) (A) (A)
                 (A) (A) (A) (A) (A) (A) (A) (A) (A) (A) (A) (A)
                 (A) (A) (A) (A) (A) (A) (A) (A) (A) (A) (A) (A)
                 (A) (A) (A) (A) (A) (A) (A) (A) (A) (A) (A) (A)
                 (A) (A)
       Virtual   (A) (A) (A) (A) (A) (A) (A) (A) (A) (A) (A) (A)
                 (A) (A) (A) (A) (A) (A) (A) (A) (A) (A) (A) (A)
                 (A) (A) (A) (A) (A) (A) (A) (A) (A) (A) (A) (A)
                 (A) (A) (A) (A) (A) (A) (A) (A) (A) (A) (A) (A)
                 (A) (A) (A) (A) (A) (A) (A) (A) (A) (A) (A) (A)
                 (A) (A) (A) (A) (A) (A) (A) (A) (A) (A) (A) (A)
                 (A) (A) (A) (A) (A) (A) (A) (A) (A) (A) (A) (A)
                 (A) (A) (A) (A) (A) (A) (A) (A) (A) (A) (A) (A)
                 (A) (A) (A) (A) (A) (A) (A) (A) (A) (A) (A) (A)
                 (A) (A) (A) (A) (A) (A) (A) (A) (A) (A) (A) (A)
                 (A) (A) (A) (A) (A) (A) (A) (A) (A) (A) (A) (A)
                 (A) (A) (A) (A) (A) (A) (A) (A) (A) (A) (A) (A)
                 (A) (A) (A) (A) (A) (A) (A) (A) (A) (A) (A) (A)
                 (A) (A) (A) (A) (A) (A) (A) (A) (A) (A) (A) (A)
                 (A) (A) (A) (A) (A) (A) (A) (A) (A) (A) (A) (A)
                 (A) (A) (A) (A) (A) (A) (A) (A) (A) (A) (A) (A)
                 (A) (A) (A) (A) (A) (A) (A) (A) (A) (A) (A) (A)
                 (A) (A) (A) (A) (A) (A) (A) (A) (A) (A) (A) (A)
                 (A) (A) (A) (A) (A) (A) (A) (A) (A) (A) (A) (A)
                 (A) (A) (A) (A) (A) (A) (A) (A) (A) (A) (A) (A)
                 (A) (A) (A) (A) (A) (A) (A) (A) (A) (A) (A) (A)
                 (A) (A) (A) (A) (A) (A) (A) (A) (A) (A) (A) (A)
                 (A) (A) (A) (A) (A) (A) (A) (A) (A) (A) (A) (A)
                 (A) (A) (A) (A) (A) (A) (A) (A) (A) (A) (A) (A)
                 (A) (A) (A) (A) (A) (A) (A) (A) (A) (A) (A) (A)
                 (A) (A) (A) (A) (A) (A) (A) (A) (A) (A) (A) (A)
                 (A) (A) (A) (A) (A) (A) (A) (A) (A) (A) (A) (A)
                 (A) (A) (A) (A) (A) (A) (A) (A) (A) (A) (A) (A)
                 (A) (A) (A) (A) (A) (A) (A) (A) (A) (A) (A) (A)
                 (A) (A) (A) (A) (A) (A) (A) (A) (A) (A) (A) (A)
                 (A) (A) (A) (A) (A) (A) (A) (A) (A) (A) (A) (A)
                 (A) (A) (A) (A) (A) (A) (A) (A) (A) (A) (A) (A)
                 (A) (A) (A) (A) (A) (A) (A) (A) (A) (A) (A) (A)
                 (A) (A) (A) (A) (A) (A) (A) (A) (A) (A) (A) (A)
                 (A) (A) (A) (A) (A) (A) (A) (A) (A) (A) (A) (A)
                 (A) (A) (A) (A) (A) (A) (A) (A) (A) (A) (A) (A)
                 (A) (A) (A) (A) (A) (A) (A) (A) (A) (A) (A) (A)
                 (A) (A) (A) (A) (A) (A) (A) (A) (A) (A) (A) (A)
                 (A) (A) (A) (A) (A) (A) (A) (A) (A) (A) (A) (A)
                 (A) (A) (A) (A) (A) (A) (A) (A) (A) (A) (A) (A)
                 (A) (A) (A) (A) (A) (A) (A) (A) (A) (A) (A) (A)
                 (A) (A) (A) (A) (A) (A) (A) (A) (A) (A) (A) (A)
                 (A) (A) (A) (A) (A) (A) (A) (A) (A) (A) (A) (A)
                 (A) (A) (A) (A) (A) (A) (A) (A) (A) (A) (A) (A)
                 (A) (A) (A) (A) (A) (A) (A) (A) (A) (A) (A) (A)
                 (A) (A) (A) (A) (A) (A) (A) (A) (A) (A) (A) (A)
                 (A) (A) (A) (A) (A) (A) (A) (A) (A) (A) (A) (A)
                 (A) (A) (A) (A) (A) (A) (A) (A) (A) (A) (A) (A)
                 (A) (A) (A) (A) (A) (A) (A) (A) (A) (A) (A) (A)
                 (A) (A) (A) (A) (A) (A) (A) (A) (A) (A) (A) (A)
                 (A) (A) (A) (A) (A) (A) (A) (A) (A) (A) (A) (A)
                 (A) (A) (A) (A) (A) (A) (A) (A) (A) (A) (A) (A)
                 (A) (A) (A) (A) (A) (A) (A) (A) (A) (A) (A) (A)
                 (A) (A) (A) (A) (A) (A) (A) (A) (A) (A) (A) (A)
                 (A) (A) (A) (A) (A) (A) (A) (A) (A) (A) (A) (A)
                 (A) (A) (A) (A) (A) (A) (A) (A) (A) (A) (A) (A)
                 (A) (A) (A) (A) (A) (A) (A) (A) (A) (A) (A) (A)
                 (A) (A) (A) (A) (A) (A) (A) (A) (A) (A) (A) (A)
                 (A) (A) (A) (A) (A) (A) (A) (A) (A) (A) (A) (A)
                 (A) (A) (A) (A) (A) (A) (A) (A) (A) (A) (A) (A)
                 (A) (A) (A) (A) (A) (A) (A) (A) (A) (A) (A) (A)
                 (A) (A) (A) (A) (A) (A) (A) (A) (A)
 The electronic state is 1-A.
 Alpha  occ. eigenvalues -- -104.85705 -92.37340 -26.34915 -26.34913 -26.34908
 Alpha  occ. eigenvalues --  -26.34906 -26.34836 -20.62052 -20.55432 -15.62864
 Alpha  occ. eigenvalues --  -11.42886 -11.32813 -11.32739 -11.31148 -11.29951
 Alpha  occ. eigenvalues --  -11.27792 -11.27420 -11.26504 -11.23927 -11.22999
 Alpha  occ. eigenvalues --  -10.58144  -9.31626  -8.04922  -8.04748  -8.04745
 Alpha  occ. eigenvalues --   -7.00512  -7.00500  -7.00181  -1.75522  -1.65904
 Alpha  occ. eigenvalues --   -1.65812  -1.62929  -1.61545  -1.49384  -1.38623
 Alpha  occ. eigenvalues --   -1.29385  -1.21604  -1.15494  -1.10239  -1.08160
 Alpha  occ. eigenvalues --   -1.04201  -1.02615  -0.96472  -0.90789  -0.88305
 Alpha  occ. eigenvalues --   -0.86534  -0.86368  -0.84211  -0.82764  -0.79668
 Alpha  occ. eigenvalues --   -0.78423  -0.77897  -0.76376  -0.75325  -0.72623
 Alpha  occ. eigenvalues --   -0.71966  -0.71315  -0.69775  -0.69383  -0.68855
 Alpha  occ. eigenvalues --   -0.68597  -0.68433  -0.67698  -0.66411  -0.65859
 Alpha  occ. eigenvalues --   -0.65156  -0.64914  -0.64549  -0.62366  -0.61857
 Alpha  occ. eigenvalues --   -0.60209  -0.59437  -0.57169  -0.56483  -0.56157
 Alpha  occ. eigenvalues --   -0.53931  -0.53034  -0.51849  -0.50375  -0.50136
 Alpha  occ. eigenvalues --   -0.48119  -0.47879  -0.46976  -0.46933  -0.37287
 Alpha  occ. eigenvalues --   -0.34255
 Alpha virt. eigenvalues --    0.03243   0.04052   0.05155   0.05370   0.05861
 Alpha virt. eigenvalues --    0.06204   0.07025   0.07317   0.08352   0.08628
 Alpha virt. eigenvalues --    0.08797   0.08976   0.09648   0.10112   0.10339
 Alpha virt. eigenvalues --    0.10633   0.11385   0.12450   0.12793   0.13421
 Alpha virt. eigenvalues --    0.13831   0.14003   0.14469   0.14755   0.15985
 Alpha virt. eigenvalues --    0.16722   0.17058   0.17074   0.17620   0.17939
 Alpha virt. eigenvalues --    0.18104   0.18149   0.18475   0.18763   0.19157
 Alpha virt. eigenvalues --    0.19567   0.19623   0.19870   0.20354   0.20387
 Alpha virt. eigenvalues --    0.21114   0.21845   0.22134   0.23136   0.23178
 Alpha virt. eigenvalues --    0.23656   0.24275   0.24570   0.24675   0.25452
 Alpha virt. eigenvalues --    0.26188   0.26296   0.27086   0.27766   0.27968
 Alpha virt. eigenvalues --    0.28125   0.28397   0.29508   0.30243   0.30367
 Alpha virt. eigenvalues --    0.30870   0.30920   0.31072   0.31728   0.32629
 Alpha virt. eigenvalues --    0.33705   0.34053   0.34287   0.34499   0.35467
 Alpha virt. eigenvalues --    0.36064   0.36194   0.36576   0.36844   0.37546
 Alpha virt. eigenvalues --    0.38079   0.38382   0.38944   0.39495   0.39648
 Alpha virt. eigenvalues --    0.39959   0.40094   0.40373   0.41209   0.41655
 Alpha virt. eigenvalues --    0.41811   0.42233   0.42719   0.43082   0.43423
 Alpha virt. eigenvalues --    0.44058   0.44215   0.44680   0.45321   0.45965
 Alpha virt. eigenvalues --    0.46534   0.46856   0.47002   0.47054   0.47702
 Alpha virt. eigenvalues --    0.48701   0.48909   0.49148   0.49297   0.50207
 Alpha virt. eigenvalues --    0.51373   0.51906   0.53195   0.53460   0.54037
 Alpha virt. eigenvalues --    0.54133   0.54649   0.55145   0.55719   0.56049
 Alpha virt. eigenvalues --    0.57304   0.57413   0.57439   0.58512   0.59359
 Alpha virt. eigenvalues --    0.60763   0.61526   0.61683   0.62063   0.62397
 Alpha virt. eigenvalues --    0.62887   0.63335   0.65146   0.66220   0.66766
 Alpha virt. eigenvalues --    0.67370   0.67926   0.68542   0.69042   0.69471
 Alpha virt. eigenvalues --    0.69844   0.70359   0.70748   0.71537   0.71885
 Alpha virt. eigenvalues --    0.72088   0.73788   0.73863   0.74370   0.74639
 Alpha virt. eigenvalues --    0.76069   0.76428   0.77482   0.77689   0.78236
 Alpha virt. eigenvalues --    0.79030   0.79447   0.79813   0.80102   0.80861
 Alpha virt. eigenvalues --    0.81430   0.82827   0.83193   0.83415   0.84021
 Alpha virt. eigenvalues --    0.84851   0.85399   0.85408   0.86301   0.86855
 Alpha virt. eigenvalues --    0.87231   0.87664   0.88986   0.90014   0.90304
 Alpha virt. eigenvalues --    0.91984   0.92465   0.92924   0.93791   0.94124
 Alpha virt. eigenvalues --    0.95127   0.95189   0.95947   0.96031   0.97085
 Alpha virt. eigenvalues --    0.98049   0.98291   0.99414   0.99967   1.01988
 Alpha virt. eigenvalues --    1.02543   1.02562   1.03492   1.04685   1.05396
 Alpha virt. eigenvalues --    1.05535   1.05693   1.06738   1.07543   1.09024
 Alpha virt. eigenvalues --    1.09926   1.11612   1.11810   1.12024   1.13136
 Alpha virt. eigenvalues --    1.14423   1.15128   1.15771   1.15893   1.17436
 Alpha virt. eigenvalues --    1.18005   1.19892   1.20017   1.22192   1.22926
 Alpha virt. eigenvalues --    1.23471   1.23530   1.24264   1.24715   1.25463
 Alpha virt. eigenvalues --    1.27224   1.27393   1.28828   1.29590   1.29815
 Alpha virt. eigenvalues --    1.30266   1.30947   1.31250   1.31861   1.32443
 Alpha virt. eigenvalues --    1.33654   1.34127   1.34178   1.35058   1.35720
 Alpha virt. eigenvalues --    1.36348   1.37715   1.37849   1.38928   1.39118
 Alpha virt. eigenvalues --    1.39363   1.39742   1.40805   1.40839   1.41421
 Alpha virt. eigenvalues --    1.42195   1.42273   1.44255   1.44885   1.45795
 Alpha virt. eigenvalues --    1.46321   1.47025   1.47540   1.48755   1.48788
 Alpha virt. eigenvalues --    1.50154   1.50994   1.51329   1.52150   1.52943
 Alpha virt. eigenvalues --    1.53351   1.54094   1.56428   1.56602   1.57636
 Alpha virt. eigenvalues --    1.58457   1.58959   1.59051   1.60967   1.61056
 Alpha virt. eigenvalues --    1.61416   1.63055   1.63303   1.64095   1.64714
 Alpha virt. eigenvalues --    1.66234   1.66627   1.67296   1.67485   1.67859
 Alpha virt. eigenvalues --    1.69344   1.70442   1.70744   1.71925   1.72465
 Alpha virt. eigenvalues --    1.73483   1.73574   1.74123   1.74627   1.75602
 Alpha virt. eigenvalues --    1.75646   1.76740   1.77378   1.77437   1.78418
 Alpha virt. eigenvalues --    1.78809   1.79045   1.79449   1.80589   1.82056
 Alpha virt. eigenvalues --    1.82192   1.83498   1.83610   1.84846   1.85158
 Alpha virt. eigenvalues --    1.86002   1.86808   1.86889   1.89471   1.91083
 Alpha virt. eigenvalues --    1.91348   1.92572   1.93187   1.94757   1.95836
 Alpha virt. eigenvalues --    1.95910   1.96636   1.99291   2.00962   2.01038
 Alpha virt. eigenvalues --    2.03054   2.03087   2.05717   2.09610   2.11100
 Alpha virt. eigenvalues --    2.12925   2.13955   2.16620   2.21246   2.21754
 Alpha virt. eigenvalues --    2.23945   2.27033   2.28963   2.29068   2.29705
 Alpha virt. eigenvalues --    2.31203   2.31745   2.32803   2.33490   2.34399
 Alpha virt. eigenvalues --    2.34796   2.38770   2.41015   2.41537   2.42927
 Alpha virt. eigenvalues --    2.44878   2.45734   2.46531   2.48330   2.50002
 Alpha virt. eigenvalues --    2.53819   2.58256   2.60433   2.60950   2.63354
 Alpha virt. eigenvalues --    2.67521   2.67803   2.68029   2.68393   2.71355
 Alpha virt. eigenvalues --    2.72836   2.74696   2.76186   2.77916   2.80775
 Alpha virt. eigenvalues --    2.81306   2.81631   2.87089   2.89764   2.90407
 Alpha virt. eigenvalues --    2.93655   2.96026   2.96509   2.97573   2.99319
 Alpha virt. eigenvalues --    3.01339   3.02042   3.02980   3.04266   3.05214
 Alpha virt. eigenvalues --    3.06155   3.06885   3.07794   3.08487   3.10141
 Alpha virt. eigenvalues --    3.10565   3.10613   3.10954   3.11938   3.12753
 Alpha virt. eigenvalues --    3.14375   3.15676   3.16554   3.17387   3.17797
 Alpha virt. eigenvalues --    3.17862   3.19225   3.19934   3.20547   3.21304
 Alpha virt. eigenvalues --    3.22606   3.22858   3.24437   3.25355   3.25712
 Alpha virt. eigenvalues --    3.25879   3.26161   3.28209   3.33067   3.33307
 Alpha virt. eigenvalues --    3.34857   3.34928   3.36040   3.36198   3.36730
 Alpha virt. eigenvalues --    3.37485   3.38074   3.39880   3.40741   3.41241
 Alpha virt. eigenvalues --    3.42423   3.43098   3.43394   3.44573   3.45510
 Alpha virt. eigenvalues --    3.45531   3.46629   3.48609   3.49255   3.49289
 Alpha virt. eigenvalues --    3.49910   3.50383   3.52305   3.53091   3.54168
 Alpha virt. eigenvalues --    3.54728   3.56668   3.57724   3.58400   3.60425
 Alpha virt. eigenvalues --    3.61430   3.62438   3.64830   3.65737   3.66195
 Alpha virt. eigenvalues --    3.66877   3.67629   3.68108   3.69317   3.69610
 Alpha virt. eigenvalues --    3.70885   3.71075   3.71160   3.72126   3.72239
 Alpha virt. eigenvalues --    3.73211   3.74497   3.75475   3.76103   3.76718
 Alpha virt. eigenvalues --    3.79483   3.81621   3.81716   3.82260   3.83525
 Alpha virt. eigenvalues --    3.84163   3.84707   3.87388   3.87581   3.87940
 Alpha virt. eigenvalues --    3.88328   3.89753   3.90035   3.91088   3.91329
 Alpha virt. eigenvalues --    3.93080   3.93496   3.93695   3.96038   3.97530
 Alpha virt. eigenvalues --    3.97973   3.99713   4.00555   4.02718   4.03799
 Alpha virt. eigenvalues --    4.05301   4.06534   4.06996   4.08200   4.09623
 Alpha virt. eigenvalues --    4.11019   4.11516   4.12490   4.13501   4.15926
 Alpha virt. eigenvalues --    4.17487   4.19090   4.21321   4.24018   4.25381
 Alpha virt. eigenvalues --    4.25595   4.26446   4.27588   4.30519   4.32154
 Alpha virt. eigenvalues --    4.32542   4.33761   4.34284   4.35393   4.37488
 Alpha virt. eigenvalues --    4.38090   4.39134   4.39183   4.40506   4.41471
 Alpha virt. eigenvalues --    4.45652   4.47146   4.48803   4.49259   4.51757
 Alpha virt. eigenvalues --    4.54480   4.55091   4.55789   4.56609   4.59991
 Alpha virt. eigenvalues --    4.60533   4.60871   4.61264   4.62722   4.62744
 Alpha virt. eigenvalues --    4.64068   4.66256   4.67492   4.68986   4.69671
 Alpha virt. eigenvalues --    4.71978   4.72331   4.72840   4.75358   4.75903
 Alpha virt. eigenvalues --    4.77822   4.78537   4.78754   4.80009   4.80044
 Alpha virt. eigenvalues --    4.81668   4.83228   4.83751   4.85196   4.85450
 Alpha virt. eigenvalues --    4.86304   4.89231   4.89581   4.91883   4.92134
 Alpha virt. eigenvalues --    4.93030   4.94168   4.94908   4.94978   4.95314
 Alpha virt. eigenvalues --    4.98878   4.99605   5.00758   5.01522   5.02919
 Alpha virt. eigenvalues --    5.05086   5.05815   5.07339   5.07594   5.09080
 Alpha virt. eigenvalues --    5.14097   5.15449   5.16260   5.17492   5.24540
 Alpha virt. eigenvalues --    5.31419   5.32338   5.35371   5.37283   5.40689
 Alpha virt. eigenvalues --    5.49494   5.50067   5.52218   5.55127   5.60088
 Alpha virt. eigenvalues --    5.60249   5.61848   5.63593   5.66052   5.66130
 Alpha virt. eigenvalues --    5.66642   5.66890   5.69269   5.70338   5.71074
 Alpha virt. eigenvalues --    5.74872   5.76610   5.79589   5.82623   5.83447
 Alpha virt. eigenvalues --    5.85640   5.87602   5.91356   5.93777   5.94323
 Alpha virt. eigenvalues --    5.98635   6.00141   6.00909   6.03935   6.05406
 Alpha virt. eigenvalues --    6.12567   6.13298   6.14727   6.15489   6.22699
 Alpha virt. eigenvalues --    6.24766   6.27885   6.29218   6.31098   6.39361
 Alpha virt. eigenvalues --    6.42838   6.48862   6.51699   6.63179   6.66034
 Alpha virt. eigenvalues --    6.85873   6.89031   6.90943   6.93995   6.94716
 Alpha virt. eigenvalues --    6.94947   6.95531   6.95922   6.97805   6.98768
 Alpha virt. eigenvalues --    6.99365   7.03633   7.06358   7.06413   7.07687
 Alpha virt. eigenvalues --    7.08121   7.08176   7.08291   7.08613   7.08966
 Alpha virt. eigenvalues --    7.09525   7.10080   7.10448   7.11158   7.11204
 Alpha virt. eigenvalues --    7.11724   7.12823   7.13806   7.14009   7.14922
 Alpha virt. eigenvalues --    7.15388   7.16402   7.16476   7.17781   7.19594
 Alpha virt. eigenvalues --    7.20250   7.20315   7.22323   7.22739   7.24871
 Alpha virt. eigenvalues --    7.27104   7.29448   7.29496   7.31141   7.32805
 Alpha virt. eigenvalues --    7.35079   7.36291   7.37398   7.37506   7.39224
 Alpha virt. eigenvalues --    7.39775   7.40404   7.43438   7.56197   7.59400
 Alpha virt. eigenvalues --    7.67276   7.67701   7.73023   7.75989   7.78829
 Alpha virt. eigenvalues --    7.82538   7.84355   7.87294   7.94861   8.15520
 Alpha virt. eigenvalues --    8.28498   8.42616   8.45460   9.25754   9.64533
 Alpha virt. eigenvalues --    9.66876   9.68958   9.72148   9.75265   9.75278
 Alpha virt. eigenvalues --    9.76418   9.78989   9.92365   9.96806   9.97642
 Alpha virt. eigenvalues --    9.99086  10.07397  10.22044  10.22830  10.23138
 Alpha virt. eigenvalues --   10.25854  10.41132  10.45934  10.47272  10.52565
 Alpha virt. eigenvalues --   10.56910  10.62140  10.62430  10.64743  10.66862
 Alpha virt. eigenvalues --   18.78346  18.86198  18.87635  21.79991  21.90816
 Alpha virt. eigenvalues --   22.18676  25.04635  25.38018  25.50925  25.58214
 Alpha virt. eigenvalues --   25.60010  25.66492  25.84850  25.87832  26.10673
 Alpha virt. eigenvalues --   26.28752  37.35924  51.79308  51.94581  68.85097
 Alpha virt. eigenvalues --   68.91163  68.91959  68.94951  69.00234 193.13048
 Alpha virt. eigenvalues --  220.08178
          Condensed to atoms (all electrons):
               1          2          3          4          5          6
     1  C   31.290781  -0.586290  -1.175658  -0.472023  -0.121595  -0.891710
     2  N   -0.586290   6.996034   0.556238   0.029358   0.098693  -0.126133
     3  C   -1.175658   0.556238   7.958716   0.423512   0.210576  -0.463082
     4  O   -0.472023   0.029358   0.423512   8.139994  -0.075985  -0.115679
     5  O   -0.121595   0.098693   0.210576  -0.075985   8.100714   0.261036
     6  C   -0.891710  -0.126133  -0.463082  -0.115679   0.261036   6.844107
     7  C   -0.033979  -0.055575   0.098520   0.052187  -0.208693  -0.516152
     8  C   -0.031541  -0.003338  -0.188814   0.002275   0.028071   0.333742
     9  C    0.710246  -0.275044  -0.011310  -0.098760   0.020651  -0.063773
    10  C  -12.845852  -0.042016  -1.520418  -0.014868   0.029606  -0.163887
    11  C   -2.934266   0.022735  -0.302966   0.008512  -0.003490  -0.016126
    12  C   -4.414065   0.234177   0.104707   0.175764  -0.002022   0.034259
    13  C   -1.238790   0.199425  -0.044536   0.396755  -0.020986  -0.005147
    14  H    0.366012   0.426756  -0.046189   0.009189  -0.009031  -0.013224
    15  H   -0.007748   0.006278   0.036169  -0.009951  -0.048077   0.465898
    16  H   -0.007775   0.006273   0.036134  -0.009945  -0.048063   0.465874
    17  H    0.002977   0.001757   0.004163  -0.001046   0.000638  -0.022463
    18  H    0.002998   0.001753   0.004161  -0.001046   0.000627  -0.022476
    19  H    0.000913   0.000037   0.000737   0.000407  -0.000090  -0.022444
    20  H   -0.000708  -0.000758   0.002127   0.000444  -0.002419   0.015448
    21  H    0.000910   0.000037   0.000738   0.000408  -0.000088  -0.022454
    22  H   -0.744034  -0.041380   0.036596  -0.001983   0.001631   0.003598
    23  Cl  -0.203097   0.010706  -0.047414   0.003004   0.000216  -0.002177
    24  H   -0.140672  -0.015318   0.000524   0.006691   0.002870  -0.008577
    25  S   -0.711474   0.017590  -0.072222   0.000140   0.001696  -0.002396
    26  H   -0.045408  -0.000621  -0.004004   0.000216  -0.000069  -0.000316
    27  F   -0.084077   0.000114  -0.010023   0.000002   0.000015  -0.000159
    28  F    0.015437   0.000238  -0.000604   0.000002  -0.000000  -0.000004
    29  F   -0.084179   0.000113  -0.010028   0.000002   0.000015  -0.000159
    30  F    0.015345   0.000238  -0.000607   0.000002  -0.000000  -0.000004
    31  F    0.017620  -0.000268   0.000258  -0.000000  -0.000000   0.000002
               7          8          9         10         11         12
     1  C   -0.033979  -0.031541   0.710246 -12.845852  -2.934266  -4.414065
     2  N   -0.055575  -0.003338  -0.275044  -0.042016   0.022735   0.234177
     3  C    0.098520  -0.188814  -0.011310  -1.520418  -0.302966   0.104707
     4  O    0.052187   0.002275  -0.098760  -0.014868   0.008512   0.175764
     5  O   -0.208693   0.028071   0.020651   0.029606  -0.003490  -0.002022
     6  C   -0.516152   0.333742  -0.063773  -0.163887  -0.016126   0.034259
     7  C    5.777679  -0.047550   0.025391   0.003190  -0.000208  -0.004652
     8  C   -0.047550   5.190345   0.007587  -0.000436  -0.000128  -0.000246
     9  C    0.025391   0.007587  14.895563  -1.917322  -2.229584  -2.649441
    10  C    0.003190  -0.000436  -1.917322  29.433766   0.652667  -2.350051
    11  C   -0.000208  -0.000128  -2.229584   0.652667  10.634534   0.803659
    12  C   -0.004652  -0.000246  -2.649441  -2.350051   0.803659  11.725879
    13  C   -0.004397  -0.004084  -2.145348  -2.511776  -1.258133   1.912821
    14  H   -0.010609  -0.008620  -0.259943  -0.295623   0.003416   0.032496
    15  H   -0.068049  -0.006120   0.005972   0.000381  -0.000239  -0.000660
    16  H   -0.067920  -0.006117   0.005984   0.000388  -0.000240  -0.000664
    17  H    0.427501  -0.030336   0.001373   0.000491   0.000016  -0.000413
    18  H    0.427546  -0.030334   0.001375   0.000494   0.000016  -0.000415
    19  H   -0.006171   0.416596  -0.000404  -0.000028   0.000007   0.000027
    20  H   -0.036412   0.410368   0.000050  -0.000028  -0.000002  -0.000005
    21  H   -0.006179   0.416602  -0.000404  -0.000028   0.000007   0.000028
    22  H    0.002077   0.001029   0.460570   0.737294  -0.026348  -0.005135
    23  Cl  -0.000033  -0.000010   0.023050  -0.015630  -0.117273  -0.005601
    24  H    0.002946  -0.000374   0.009940   0.031485  -0.000417  -0.000923
    25  S   -0.000328  -0.000047  -0.067117  -2.554792   0.458601  -0.322599
    26  H    0.000025  -0.000000  -0.001123   0.113929   0.454562  -0.071015
    27  F   -0.000004   0.000000  -0.015567  -0.072991   0.105966   0.008930
    28  F    0.000000  -0.000000   0.057099   0.111528  -0.097490   0.028166
    29  F   -0.000004   0.000000  -0.015626  -0.073016   0.106069   0.008982
    30  F    0.000000  -0.000000   0.057029   0.111511  -0.097410   0.028234
    31  F    0.000000   0.000000   0.053169  -0.144243  -0.051995  -0.021039
              13         14         15         16         17         18
     1  C   -1.238790   0.366012  -0.007748  -0.007775   0.002977   0.002998
     2  N    0.199425   0.426756   0.006278   0.006273   0.001757   0.001753
     3  C   -0.044536  -0.046189   0.036169   0.036134   0.004163   0.004161
     4  O    0.396755   0.009189  -0.009951  -0.009945  -0.001046  -0.001046
     5  O   -0.020986  -0.009031  -0.048077  -0.048063   0.000638   0.000627
     6  C   -0.005147  -0.013224   0.465898   0.465874  -0.022463  -0.022476
     7  C   -0.004397  -0.010609  -0.068049  -0.067920   0.427501   0.427546
     8  C   -0.004084  -0.008620  -0.006120  -0.006117  -0.030336  -0.030334
     9  C   -2.145348  -0.259943   0.005972   0.005984   0.001373   0.001375
    10  C   -2.511776  -0.295623   0.000381   0.000388   0.000491   0.000494
    11  C   -1.258133   0.003416  -0.000239  -0.000240   0.000016   0.000016
    12  C    1.912821   0.032496  -0.000660  -0.000664  -0.000413  -0.000415
    13  C   10.722369   0.116437  -0.005143  -0.005155  -0.002089  -0.002101
    14  H    0.116437   0.479038  -0.000388  -0.000392   0.000703   0.000702
    15  H   -0.005143  -0.000388   0.587250  -0.051967   0.007395  -0.010235
    16  H   -0.005155  -0.000392  -0.051967   0.587236  -0.010245   0.007389
    17  H   -0.002089   0.000703   0.007395  -0.010245   0.626587  -0.047346
    18  H   -0.002101   0.000702  -0.010235   0.007389  -0.047346   0.626578
    19  H    0.000160   0.000190   0.000161  -0.000251  -0.007985   0.005628
    20  H   -0.000003  -0.000051  -0.001840  -0.001837  -0.005825  -0.005825
    21  H    0.000161   0.000190  -0.000250   0.000161   0.005629  -0.007983
    22  H    0.034624  -0.041170   0.000137   0.000137  -0.000049  -0.000049
    23  Cl  -0.173328  -0.000043  -0.000040  -0.000040  -0.000004  -0.000004
    24  H    0.441164  -0.003480  -0.001026  -0.001026  -0.000099  -0.000099
    25  S   -0.058770   0.023857  -0.000010  -0.000010  -0.000013  -0.000013
    26  H    0.005609  -0.000657  -0.000001  -0.000001  -0.000000  -0.000000
    27  F    0.002156   0.002700  -0.000002  -0.000000   0.000000  -0.000000
    28  F    0.005874  -0.000095  -0.000000  -0.000000   0.000000  -0.000000
    29  F    0.002175   0.002698  -0.000000  -0.000002  -0.000000   0.000000
    30  F    0.005893  -0.000095  -0.000000  -0.000000  -0.000000   0.000000
    31  F   -0.003039   0.000159   0.000000   0.000000   0.000000   0.000000
              19         20         21         22         23         24
     1  C    0.000913  -0.000708   0.000910  -0.744034  -0.203097  -0.140672
     2  N    0.000037  -0.000758   0.000037  -0.041380   0.010706  -0.015318
     3  C    0.000737   0.002127   0.000738   0.036596  -0.047414   0.000524
     4  O    0.000407   0.000444   0.000408  -0.001983   0.003004   0.006691
     5  O   -0.000090  -0.002419  -0.000088   0.001631   0.000216   0.002870
     6  C   -0.022444   0.015448  -0.022454   0.003598  -0.002177  -0.008577
     7  C   -0.006171  -0.036412  -0.006179   0.002077  -0.000033   0.002946
     8  C    0.416596   0.410368   0.416602   0.001029  -0.000010  -0.000374
     9  C   -0.000404   0.000050  -0.000404   0.460570   0.023050   0.009940
    10  C   -0.000028  -0.000028  -0.000028   0.737294  -0.015630   0.031485
    11  C    0.000007  -0.000002   0.000007  -0.026348  -0.117273  -0.000417
    12  C    0.000027  -0.000005   0.000028  -0.005135  -0.005601  -0.000923
    13  C    0.000160  -0.000003   0.000161   0.034624  -0.173328   0.441164
    14  H    0.000190  -0.000051   0.000190  -0.041170  -0.000043  -0.003480
    15  H    0.000161  -0.001840  -0.000250   0.000137  -0.000040  -0.001026
    16  H   -0.000251  -0.001837   0.000161   0.000137  -0.000040  -0.001026
    17  H   -0.007985  -0.005825   0.005629  -0.000049  -0.000004  -0.000099
    18  H    0.005628  -0.005825  -0.007983  -0.000049  -0.000004  -0.000099
    19  H    0.622354  -0.025649  -0.042830  -0.000017   0.000001   0.000013
    20  H   -0.025649   0.587795  -0.025647   0.000008  -0.000000   0.000022
    21  H   -0.042830  -0.025647   0.622352  -0.000017   0.000001   0.000013
    22  H   -0.000017   0.000008  -0.000017   0.600821  -0.002595   0.005354
    23  Cl   0.000001  -0.000000   0.000001  -0.002595  17.725615   0.021837
    24  H    0.000013   0.000022   0.000013   0.005354   0.021837   0.397891
    25  S    0.000000  -0.000000   0.000000  -0.145684  -0.006805  -0.005810
    26  H   -0.000000   0.000000  -0.000000   0.004768   0.000148   0.001882
    27  F    0.000000  -0.000000  -0.000000  -0.021547   0.000462   0.000260
    28  F    0.000000   0.000000   0.000000   0.004612  -0.000436   0.000058
    29  F   -0.000000  -0.000000   0.000000  -0.021538   0.000463   0.000260
    30  F    0.000000   0.000000   0.000000   0.004615  -0.000435   0.000058
    31  F   -0.000000   0.000000  -0.000000  -0.008164  -0.000088  -0.000053
              25         26         27         28         29         30
     1  C   -0.711474  -0.045408  -0.084077   0.015437  -0.084179   0.015345
     2  N    0.017590  -0.000621   0.000114   0.000238   0.000113   0.000238
     3  C   -0.072222  -0.004004  -0.010023  -0.000604  -0.010028  -0.000607
     4  O    0.000140   0.000216   0.000002   0.000002   0.000002   0.000002
     5  O    0.001696  -0.000069   0.000015  -0.000000   0.000015  -0.000000
     6  C   -0.002396  -0.000316  -0.000159  -0.000004  -0.000159  -0.000004
     7  C   -0.000328   0.000025  -0.000004   0.000000  -0.000004   0.000000
     8  C   -0.000047  -0.000000   0.000000  -0.000000   0.000000  -0.000000
     9  C   -0.067117  -0.001123  -0.015567   0.057099  -0.015626   0.057029
    10  C   -2.554792   0.113929  -0.072991   0.111528  -0.073016   0.111511
    11  C    0.458601   0.454562   0.105966  -0.097490   0.106069  -0.097410
    12  C   -0.322599  -0.071015   0.008930   0.028166   0.008982   0.028234
    13  C   -0.058770   0.005609   0.002156   0.005874   0.002175   0.005893
    14  H    0.023857  -0.000657   0.002700  -0.000095   0.002698  -0.000095
    15  H   -0.000010  -0.000001  -0.000002  -0.000000  -0.000000  -0.000000
    16  H   -0.000010  -0.000001  -0.000000  -0.000000  -0.000002  -0.000000
    17  H   -0.000013  -0.000000   0.000000   0.000000  -0.000000  -0.000000
    18  H   -0.000013  -0.000000  -0.000000  -0.000000   0.000000   0.000000
    19  H    0.000000  -0.000000   0.000000   0.000000  -0.000000   0.000000
    20  H   -0.000000   0.000000  -0.000000   0.000000  -0.000000   0.000000
    21  H    0.000000  -0.000000  -0.000000   0.000000   0.000000   0.000000
    22  H   -0.145684   0.004768  -0.021547   0.004612  -0.021538   0.004615
    23  Cl  -0.006805   0.000148   0.000462  -0.000436   0.000463  -0.000435
    24  H   -0.005810   0.001882   0.000260   0.000058   0.000260   0.000058
    25  S   17.522027  -0.072054  -0.117621  -0.291161  -0.117648  -0.291108
    26  H   -0.072054   0.440082   0.002988  -0.001507   0.002988  -0.001507
    27  F   -0.117621   0.002988   9.557077   0.033866   0.103406  -0.059959
    28  F   -0.291161  -0.001507   0.033866   9.517556  -0.059960   0.095383
    29  F   -0.117648   0.002988   0.103406  -0.059960   9.557106   0.033865
    30  F   -0.291108  -0.001507  -0.059959   0.095383   0.033865   9.517513
    31  F    0.136976  -0.003778   0.043148   0.047673   0.043162   0.047657
              31
     1  C    0.017620
     2  N   -0.000268
     3  C    0.000258
     4  O   -0.000000
     5  O   -0.000000
     6  C    0.000002
     7  C    0.000000
     8  C    0.000000
     9  C    0.053169
    10  C   -0.144243
    11  C   -0.051995
    12  C   -0.021039
    13  C   -0.003039
    14  H    0.000159
    15  H    0.000000
    16  H    0.000000
    17  H    0.000000
    18  H    0.000000
    19  H   -0.000000
    20  H    0.000000
    21  H   -0.000000
    22  H   -0.008164
    23  Cl  -0.000088
    24  H   -0.000053
    25  S    0.136976
    26  H   -0.003778
    27  F    0.043148
    28  F    0.047673
    29  F    0.043162
    30  F    0.047657
    31  F    9.235721
 Mulliken charges:
               1
     1  C    0.351704
     2  N   -0.461807
     3  C    0.424000
     4  O   -0.447575
     5  O   -0.216448
     6  C    0.054578
     7  C    0.249854
     8  C   -0.448521
     9  C   -0.584281
    10  C   -0.703725
    11  C   -0.114452
    12  C    0.750819
    13  C   -0.362800
    14  H    0.225067
    15  H    0.102103
    16  H    0.102072
    17  H    0.048683
    18  H    0.048659
    19  H    0.058637
    20  H    0.090749
    21  H    0.058642
    22  H    0.161840
    23  Cl  -0.210448
    24  H    0.254605
    25  S    2.676795
    26  H    0.174864
    27  F   -0.479140
    28  F   -0.466233
    29  F   -0.479144
    30  F   -0.466217
    31  F   -0.392879
 Sum of Mulliken charges =  -0.00000
 Mulliken charges with hydrogens summed into heavy atoms:
               1
     1  C    0.351704
     2  N   -0.236740
     3  C    0.424000
     4  O   -0.447575
     5  O   -0.216448
     6  C    0.258753
     7  C    0.347196
     8  C   -0.240493
     9  C   -0.422441
    10  C   -0.703725
    11  C    0.060413
    12  C    0.750819
    13  C   -0.108195
    23  Cl  -0.210448
    25  S    2.676795
    27  F   -0.479140
    28  F   -0.466233
    29  F   -0.479144
    30  F   -0.466217
    31  F   -0.392879
 Electronic spatial extent (au):  <R**2>=          10323.9485
 Charge=             -0.0000 electrons
 Dipole moment (field-independent basis, Debye):
    X=              4.8703    Y=             -1.8936    Z=             -0.0003  Tot=              5.2255
 Quadrupole moment (field-independent basis, Debye-Ang):
   XX=           -121.6145   YY=           -134.0428   ZZ=           -131.2362
   XY=            -13.8164   XZ=             -0.0001   YZ=              0.0007
 Traceless Quadrupole moment (field-independent basis, Debye-Ang):
   XX=              7.3500   YY=             -5.0783   ZZ=             -2.2717
   XY=            -13.8164   XZ=             -0.0001   YZ=              0.0007
 Octapole moment (field-independent basis, Debye-Ang**2):
  XXX=             83.0567  YYY=            -50.0297  ZZZ=              0.0047  XYY=            -27.6935
  XXY=            -23.6033  XXZ=              0.0024  XZZ=            -18.6845  YZZ=            -12.1018
  YYZ=             -0.0005  XYZ=             -0.0024
 Hexadecapole moment (field-independent basis, Debye-Ang**3):
 XXXX=          -9342.8103 YYYY=          -2368.1832 ZZZZ=           -299.3014 XXXY=           -132.3334
 XXXZ=             -0.0226 YYYX=             91.2854 YYYZ=              0.0084 ZZZX=             -0.0095
 ZZZY=             -0.0025 XXYY=          -2110.0166 XXZZ=          -1719.8128 YYZZ=           -456.2928
 XXYZ=             -0.0034 YYXZ=             -0.0089 ZZXY=             46.8851
 N-N= 2.007586826243D+03 E-N=-8.621259204841D+03  KE= 1.942220886695D+03
 1\1\GINC-R3712\SP\RMP2-FC\Gen\C10H11Cl1F5N1O2S1\ROOT\09-Dec-2019\0\\# 
 MP2/Gen 5D SCF=Tight INT(grid=ultrafine) maxdisk=3489660928\\CP22CA_c2
 .MP2_GTMP2LARGE\\0,1\C,0,-5.8940239804,1.4635161989,0.3189639789\N,0,-
 4.6594855421,0.8254275662,0.1730376319\C,0,-3.4122119662,1.4023360648,
 0.2091219875\O,0,-3.1720913642,2.5694633119,0.3743487039\O,0,-2.488797
 8145,0.4470406578,0.028677747\C,0,-1.1237193586,0.8970771249,0.0408317
 856\C,0,-0.239991205,-0.3118800069,-0.1761589355\C,0,1.2340452897,0.08
 40806412,-0.1762463744\C,0,-7.0360316265,0.6595944673,0.2449778788\C,0
 ,-8.2776379407,1.2478343724,0.3837260774\C,0,-8.4509943785,2.606048721
 6,0.5943447109\C,0,-7.2989183539,3.3760994629,0.6628236785\C,0,-6.0262
 012185,2.8384081578,0.5303896033\H,0,-4.6672105204,-0.1728828439,0.023
 8277888\H,0,-0.9221230549,1.3812924602,0.9993340851\H,0,-0.9928490604,
 1.643015096,-0.7467473938\H,0,-0.5082709494,-0.7832474478,-1.125484038
 7\H,0,-0.4381818893,-1.0437549107,0.61153291\H,0,1.45232215,0.80206113
 61,-0.9704554868\H,0,1.8722993985,-0.7863014253,-0.3325192805\H,0,1.52
 26671703,0.5405161214,0.7736342134\H,0,-6.9462737672,-0.4071204358,0.0
 814633848\Cl,0,-7.4553129216,5.0863581386,0.9255099387\H,0,-5.15577317
 6,3.4738102772,0.5901799913\S,0,-9.7457090521,0.1927922133,0.285438787
 5\H,0,-9.4293866429,3.0529060674,0.7011751512\F,0,-9.085367852,-0.9292
 163806,1.2433591642\F,0,-10.4180189339,0.8952389484,1.5722339982\F,0,-
 9.1774166082,-0.5913163642,-1.0086847237\F,0,-10.5101477616,1.23331236
 87,-0.6811152286\F,0,-11.0453570694,-0.7440897599,0.197998265\\Version
 =ES64L-G09RevE.01\State=1-A\HF=-1943.7919973\MP2=-1947.7241276\RMSD=5.
 873e-09\PG=C01 [X(C10H11Cl1F5N1O2S1)]\\@


 THE ONLY TROUBLE WITH A SURE THING IS THE UNCERTAINTY.
     -- FROM A TEABAG (BELONGING TO W.H.?)
 Job cpu time:       0 days  5 hours 38 minutes 36.9 seconds.
 File lengths (MBytes):  RWF=    368 Int=      0 D2E=      0 Chk=     40 Scr=      1
 Normal termination of Gaussian 09 at Mon Dec  9 12:53:43 2019.
pbs_rusage has been removed.
Please contact help@nci.org.au if you require this functionality.
