 Entering Gaussian System, Link 0=/apps/gaussian/g16c01/g16/g16
 Initial command:
 /apps/gaussian/g16c01/g16/l1.exe "/jobfs/10906461.gadi-pbs/Gau-1415581.inp" -scrdir="/jobfs/10906461.gadi-pbs/"
 Entering Link 1 = /apps/gaussian/g16c01/g16/l1.exe PID=   1415582.
  
 Copyright (c) 1988-2019, Gaussian, Inc.  All Rights Reserved.
  
 This is part of the Gaussian(R) 16 program.  It is based on
 the Gaussian(R) 09 system (copyright 2009, Gaussian, Inc.),
 the Gaussian(R) 03 system (copyright 2003, Gaussian, Inc.),
 the Gaussian(R) 98 system (copyright 1998, Gaussian, Inc.),
 the Gaussian(R) 94 system (copyright 1995, Gaussian, Inc.),
 the Gaussian 92(TM) system (copyright 1992, Gaussian, Inc.),
 the Gaussian 90(TM) system (copyright 1990, Gaussian, Inc.),
 the Gaussian 88(TM) system (copyright 1988, Gaussian, Inc.),
 the Gaussian 86(TM) system (copyright 1986, Carnegie Mellon
 University), and the Gaussian 82(TM) system (copyright 1983,
 Carnegie Mellon University). Gaussian is a federally registered
 trademark of Gaussian, Inc.
  
 This software contains proprietary and confidential information,
 including trade secrets, belonging to Gaussian, Inc.
  
 This software is provided under written license and may be
 used, copied, transmitted, or stored only in accord with that
 written license.
  
 The following legend is applicable only to US Government
 contracts under FAR:
  
                    RESTRICTED RIGHTS LEGEND
  
 Use, reproduction and disclosure by the US Government is
 subject to restrictions as set forth in subparagraphs (a)
 and (c) of the Commercial Computer Software - Restricted
 Rights clause in FAR 52.227-19.
  
 Gaussian, Inc.
 340 Quinnipiac St., Bldg. 40, Wallingford CT 06492
  
  
 ---------------------------------------------------------------
 Warning -- This program may not be used in any manner that
 competes with the business of Gaussian, Inc. or will provide
 assistance to any competitor of Gaussian, Inc.  The licensee
 of this program is prohibited from giving any competitor of
 Gaussian, Inc. access to this program.  By using this program,
 the user acknowledges that Gaussian, Inc. is engaged in the
 business of creating and licensing software in the field of
 computational chemistry and represents and warrants to the
 licensee that it is not a competitor of Gaussian, Inc. and that
 it will not use this program in any manner prohibited above.
 ---------------------------------------------------------------
  

 Cite this work as:
 Gaussian 16, Revision C.01,
 M. J. Frisch, G. W. Trucks, H. B. Schlegel, G. E. Scuseria, 
 M. A. Robb, J. R. Cheeseman, G. Scalmani, V. Barone, 
 G. A. Petersson, H. Nakatsuji, X. Li, M. Caricato, A. V. Marenich, 
 J. Bloino, B. G. Janesko, R. Gomperts, B. Mennucci, H. P. Hratchian, 
 J. V. Ortiz, A. F. Izmaylov, J. L. Sonnenberg, D. Williams-Young, 
 F. Ding, F. Lipparini, F. Egidi, J. Goings, B. Peng, A. Petrone, 
 T. Henderson, D. Ranasinghe, V. G. Zakrzewski, J. Gao, N. Rega, 
 G. Zheng, W. Liang, M. Hada, M. Ehara, K. Toyota, R. Fukuda, 
 J. Hasegawa, M. Ishida, T. Nakajima, Y. Honda, O. Kitao, H. Nakai, 
 T. Vreven, K. Throssell, J. A. Montgomery, Jr., J. E. Peralta, 
 F. Ogliaro, M. J. Bearpark, J. J. Heyd, E. N. Brothers, K. N. Kudin, 
 V. N. Staroverov, T. A. Keith, R. Kobayashi, J. Normand, 
 K. Raghavachari, A. P. Rendell, J. C. Burant, S. S. Iyengar, 
 J. Tomasi, M. Cossi, J. M. Millam, M. Klene, C. Adamo, R. Cammi, 
 J. W. Ochterski, R. L. Martin, K. Morokuma, O. Farkas, 
 J. B. Foresman, and D. J. Fox, Gaussian, Inc., Wallingford CT, 2019.
 
 ******************************************
 Gaussian 16:  ES64L-G16RevC.01  3-Jul-2019
                 4-Sep-2020 
 ******************************************
 %chk=CP22CA.M062X_6-311pGd_opt_Pentadecane_GD3.chk
 ----------------------------------------------------------------------
 # M062X/6-311+G* SCF=Tight INT(grid=ultrafine) OPT(ReCalcFC=5) IOP(2/1
 7=4) Symmetry=None EmpiricalDispersion=GD3 SCRF=(SMD,Solvent=n-Pentade
 cane)
 ----------------------------------------------------------------------
 1/10=4,18=20,19=15,26=6,38=1,71=5/1,3;
 2/9=110,12=2,15=3,17=4,18=5,40=1/2;
 3/5=4,6=6,7=11,11=2,25=1,30=1,70=32201,71=2,72=151,74=-55,75=-5,124=31,140=1/1,2,3;
 4//1;
 5/5=2,32=2,38=5,53=151/2;
 8/6=4,10=90,11=11/1;
 11/6=1,8=1,9=11,15=111,16=1,31=1/1,2,10;
 10/6=1,13=1,31=1/2;
 6/7=2,8=2,9=2,10=2,28=1/1;
 7/10=1,25=1,30=1/1,2,3,16;
 1/10=4,18=20,19=15,26=6,71=5/3(3);
 2/9=110,15=3,17=4/2;
 7/9=1,25=1,30=1,44=-1/16;
 99//99;
 2/9=110,15=3,17=4/2;
 3/5=4,6=6,7=11,11=2,25=1,30=1,70=32205,71=2,72=151,74=-55,75=-5,124=31,140=1/1,2,3;
 4/5=5,16=3,69=1/1;
 5/5=2,32=2,38=5,53=151/2;
 8/6=4,10=90,11=11/1;
 11/6=1,8=1,9=11,15=111,16=1,31=1/1,2,10;
 10/6=1,13=1,31=1/2;
 7/10=1,25=1,30=1/1,2,3,16;
 1/18=20,19=15,26=6,71=5/3(-8);
 2/9=110,15=3,17=4/2;
 6/7=2,8=2,9=2,10=2,19=2,28=1/1;
 7/9=1,25=1,30=1,44=-1/16;
 99/9=1/99;
 -----------------------------------------
 CP22CA.M062X_6-311pGd_opt_Pentadecane_GD3
 -----------------------------------------
 Symbolic Z-matrix:
 Charge =  0 Multiplicity = 1
 C                    -5.88335   1.25306   0.19289 
 N                    -4.61865   0.67138   0.09303 
 C                    -3.41091   1.30818   0.09111 
 O                    -3.23992   2.50855   0.15965 
 O                    -2.42529   0.41093   0.00177 
 C                    -1.08196   0.9425   -0.00068 
 C                    -0.12836  -0.22578  -0.10259 
 C                     1.3154    0.2648   -0.10108 
 C                    -6.09718   2.63295   0.22883 
 C                    -7.40458   3.07988   0.32922 
 C                    -8.51296   2.25406   0.39279 
 C                    -8.25664   0.88943   0.34962 
 C                    -6.97546   0.38037   0.25243 
 H                    -4.58658  -0.34037   0.04926 
 H                    -0.93021   1.5049    0.92283 
 H                    -0.9783    1.62097  -0.8498 
 H                    -0.3395   -0.78219  -1.01978 
 H                    -0.29997  -0.90255   0.73887 
 H                     1.50534   0.93376  -0.94419 
 H                     2.01076  -0.57276  -0.17569 
 H                     1.545     0.8097    0.81804 
 H                    -5.26861   3.32091   0.1797 
 Cl                   -9.59883  -0.21745   0.42183 
 H                    -6.81263  -0.69122   0.22283 
 S                    -7.67319   4.86794   0.37925 
 H                    -9.52404   2.63048   0.47092 
 F                    -6.65204   5.14216  -0.84363 
 F                    -8.90218   4.79914  -0.66892 
 F                    -6.47026   5.10617   1.43242 
 F                    -8.72025   4.76215   1.60669 
 F                    -7.91374   6.46721   0.42414 
 

 GradGradGradGradGradGradGradGradGradGradGradGradGradGradGradGradGradGrad
 Berny optimization.
 Initialization pass.
                           ----------------------------
                           !    Initial Parameters    !
                           ! (Angstroms and Degrees)  !
 --------------------------                            --------------------------
 ! Name  Definition              Value          Derivative Info.                !
 --------------------------------------------------------------------------------
 ! R1    R(1,2)                  1.3956         calculate D2E/DX2 analytically  !
 ! R2    R(1,9)                  1.3968         calculate D2E/DX2 analytically  !
 ! R3    R(1,13)                 1.3992         calculate D2E/DX2 analytically  !
 ! R4    R(2,3)                  1.3653         calculate D2E/DX2 analytically  !
 ! R5    R(2,14)                 1.0132         calculate D2E/DX2 analytically  !
 ! R6    R(3,4)                  1.2144         calculate D2E/DX2 analytically  !
 ! R7    R(3,5)                  1.3358         calculate D2E/DX2 analytically  !
 ! R8    R(5,6)                  1.4447         calculate D2E/DX2 analytically  !
 ! R9    R(6,7)                  1.5115         calculate D2E/DX2 analytically  !
 ! R10   R(6,15)                 1.0919         calculate D2E/DX2 analytically  !
 ! R11   R(6,16)                 1.0918         calculate D2E/DX2 analytically  !
 ! R12   R(7,8)                  1.5248         calculate D2E/DX2 analytically  !
 ! R13   R(7,17)                 1.0934         calculate D2E/DX2 analytically  !
 ! R14   R(7,18)                 1.0934         calculate D2E/DX2 analytically  !
 ! R15   R(8,19)                 1.0929         calculate D2E/DX2 analytically  !
 ! R16   R(8,20)                 1.0911         calculate D2E/DX2 analytically  !
 ! R17   R(8,21)                 1.0929         calculate D2E/DX2 analytically  !
 ! R18   R(9,10)                 1.3853         calculate D2E/DX2 analytically  !
 ! R19   R(9,22)                 1.0781         calculate D2E/DX2 analytically  !
 ! R20   R(10,11)                1.3837         calculate D2E/DX2 analytically  !
 ! R21   R(10,25)                1.8088         calculate D2E/DX2 analytically  !
 ! R22   R(11,12)                1.3892         calculate D2E/DX2 analytically  !
 ! R23   R(11,26)                1.0817         calculate D2E/DX2 analytically  !
 ! R24   R(12,13)                1.382          calculate D2E/DX2 analytically  !
 ! R25   R(12,23)                1.7412         calculate D2E/DX2 analytically  !
 ! R26   R(13,24)                1.0843         calculate D2E/DX2 analytically  !
 ! R27   R(25,27)                1.6166         calculate D2E/DX2 analytically  !
 ! R28   R(25,28)                1.6167         calculate D2E/DX2 analytically  !
 ! R29   R(25,29)                1.6165         calculate D2E/DX2 analytically  !
 ! R30   R(25,30)                1.6168         calculate D2E/DX2 analytically  !
 ! R31   R(25,31)                1.6179         calculate D2E/DX2 analytically  !
 ! A1    A(2,1,9)              123.525          calculate D2E/DX2 analytically  !
 ! A2    A(2,1,13)             116.768          calculate D2E/DX2 analytically  !
 ! A3    A(9,1,13)             119.7063         calculate D2E/DX2 analytically  !
 ! A4    A(1,2,3)              127.394          calculate D2E/DX2 analytically  !
 ! A5    A(1,2,14)             116.613          calculate D2E/DX2 analytically  !
 ! A6    A(3,2,14)             115.9558         calculate D2E/DX2 analytically  !
 ! A7    A(2,3,4)              125.8367         calculate D2E/DX2 analytically  !
 ! A8    A(2,3,5)              109.8452         calculate D2E/DX2 analytically  !
 ! A9    A(4,3,5)              124.3182         calculate D2E/DX2 analytically  !
 ! A10   A(3,5,6)              116.042          calculate D2E/DX2 analytically  !
 ! A11   A(5,6,7)              107.5986         calculate D2E/DX2 analytically  !
 ! A12   A(5,6,15)             108.501          calculate D2E/DX2 analytically  !
 ! A13   A(5,6,16)             108.5569         calculate D2E/DX2 analytically  !
 ! A14   A(7,6,15)             111.5592         calculate D2E/DX2 analytically  !
 ! A15   A(7,6,16)             111.5908         calculate D2E/DX2 analytically  !
 ! A16   A(15,6,16)            108.9365         calculate D2E/DX2 analytically  !
 ! A17   A(6,7,8)              110.4024         calculate D2E/DX2 analytically  !
 ! A18   A(6,7,17)             109.1521         calculate D2E/DX2 analytically  !
 ! A19   A(6,7,18)             109.1181         calculate D2E/DX2 analytically  !
 ! A20   A(8,7,17)             110.3284         calculate D2E/DX2 analytically  !
 ! A21   A(8,7,18)             110.3025         calculate D2E/DX2 analytically  !
 ! A22   A(17,7,18)            107.4746         calculate D2E/DX2 analytically  !
 ! A23   A(7,8,19)             111.1442         calculate D2E/DX2 analytically  !
 ! A24   A(7,8,20)             110.8771         calculate D2E/DX2 analytically  !
 ! A25   A(7,8,21)             111.1095         calculate D2E/DX2 analytically  !
 ! A26   A(19,8,20)            107.8386         calculate D2E/DX2 analytically  !
 ! A27   A(19,8,21)            107.8846         calculate D2E/DX2 analytically  !
 ! A28   A(20,8,21)            107.8388         calculate D2E/DX2 analytically  !
 ! A29   A(1,9,10)             117.7135         calculate D2E/DX2 analytically  !
 ! A30   A(1,9,22)             120.7688         calculate D2E/DX2 analytically  !
 ! A31   A(10,9,22)            121.5177         calculate D2E/DX2 analytically  !
 ! A32   A(9,10,11)            124.5251         calculate D2E/DX2 analytically  !
 ! A33   A(9,10,25)            117.4564         calculate D2E/DX2 analytically  !
 ! A34   A(11,10,25)           118.0185         calculate D2E/DX2 analytically  !
 ! A35   A(10,11,12)           115.9163         calculate D2E/DX2 analytically  !
 ! A36   A(10,11,26)           122.9822         calculate D2E/DX2 analytically  !
 ! A37   A(12,11,26)           121.1015         calculate D2E/DX2 analytically  !
 ! A38   A(11,12,13)           122.349          calculate D2E/DX2 analytically  !
 ! A39   A(11,12,23)           118.7472         calculate D2E/DX2 analytically  !
 ! A40   A(13,12,23)           118.9038         calculate D2E/DX2 analytically  !
 ! A41   A(1,13,12)            119.7891         calculate D2E/DX2 analytically  !
 ! A42   A(1,13,24)            119.8687         calculate D2E/DX2 analytically  !
 ! A43   A(12,13,24)           120.3423         calculate D2E/DX2 analytically  !
 ! A44   A(10,25,27)            93.0355         calculate D2E/DX2 analytically  !
 ! A45   A(10,25,28)            93.0318         calculate D2E/DX2 analytically  !
 ! A46   A(10,25,29)            93.0493         calculate D2E/DX2 analytically  !
 ! A47   A(10,25,30)            93.0087         calculate D2E/DX2 analytically  !
 ! A48   A(27,25,28)            89.8259         calculate D2E/DX2 analytically  !
 ! A49   A(27,25,29)            89.8729         calculate D2E/DX2 analytically  !
 ! A50   A(27,25,31)            86.975          calculate D2E/DX2 analytically  !
 ! A51   A(28,25,30)            89.8348         calculate D2E/DX2 analytically  !
 ! A52   A(28,25,31)            86.9634         calculate D2E/DX2 analytically  !
 ! A53   A(29,25,30)            89.8255         calculate D2E/DX2 analytically  !
 ! A54   A(29,25,31)            86.9555         calculate D2E/DX2 analytically  !
 ! A55   A(30,25,31)            86.9808         calculate D2E/DX2 analytically  !
 ! A56   L(10,25,31,27,-1)     180.0105         calculate D2E/DX2 analytically  !
 ! A57   L(27,25,30,10,-1)     186.0442         calculate D2E/DX2 analytically  !
 ! A58   L(28,25,29,10,-1)     186.0811         calculate D2E/DX2 analytically  !
 ! A59   L(10,25,31,27,-2)     179.9952         calculate D2E/DX2 analytically  !
 ! A60   L(27,25,30,10,-2)     180.0198         calculate D2E/DX2 analytically  !
 ! A61   L(28,25,29,10,-2)     180.0207         calculate D2E/DX2 analytically  !
 ! D1    D(9,1,2,3)              3.9915         calculate D2E/DX2 analytically  !
 ! D2    D(9,1,2,14)          -178.3334         calculate D2E/DX2 analytically  !
 ! D3    D(13,1,2,3)          -176.2941         calculate D2E/DX2 analytically  !
 ! D4    D(13,1,2,14)            1.381          calculate D2E/DX2 analytically  !
 ! D5    D(2,1,9,10)           179.9748         calculate D2E/DX2 analytically  !
 ! D6    D(2,1,9,22)            -0.0246         calculate D2E/DX2 analytically  !
 ! D7    D(13,1,9,10)            0.2684         calculate D2E/DX2 analytically  !
 ! D8    D(13,1,9,22)         -179.731          calculate D2E/DX2 analytically  !
 ! D9    D(2,1,13,12)         -179.8847         calculate D2E/DX2 analytically  !
 ! D10   D(2,1,13,24)            0.1581         calculate D2E/DX2 analytically  !
 ! D11   D(9,1,13,12)           -0.1588         calculate D2E/DX2 analytically  !
 ! D12   D(9,1,13,24)          179.884          calculate D2E/DX2 analytically  !
 ! D13   D(1,2,3,4)             -1.0544         calculate D2E/DX2 analytically  !
 ! D14   D(1,2,3,5)            178.9431         calculate D2E/DX2 analytically  !
 ! D15   D(14,2,3,4)          -178.7426         calculate D2E/DX2 analytically  !
 ! D16   D(14,2,3,5)             1.2549         calculate D2E/DX2 analytically  !
 ! D17   D(2,3,5,6)           -179.5315         calculate D2E/DX2 analytically  !
 ! D18   D(4,3,5,6)              0.4661         calculate D2E/DX2 analytically  !
 ! D19   D(3,5,6,7)            179.8037         calculate D2E/DX2 analytically  !
 ! D20   D(3,5,6,15)            58.963          calculate D2E/DX2 analytically  !
 ! D21   D(3,5,6,16)           -59.286          calculate D2E/DX2 analytically  !
 ! D22   D(5,6,7,8)           -179.6254         calculate D2E/DX2 analytically  !
 ! D23   D(5,6,7,17)            58.9386         calculate D2E/DX2 analytically  !
 ! D24   D(5,6,7,18)           -58.2435         calculate D2E/DX2 analytically  !
 ! D25   D(15,6,7,8)           -60.7263         calculate D2E/DX2 analytically  !
 ! D26   D(15,6,7,17)          177.8377         calculate D2E/DX2 analytically  !
 ! D27   D(15,6,7,18)           60.6556         calculate D2E/DX2 analytically  !
 ! D28   D(16,6,7,8)            61.3889         calculate D2E/DX2 analytically  !
 ! D29   D(16,6,7,17)          -60.0472         calculate D2E/DX2 analytically  !
 ! D30   D(16,6,7,18)         -177.2292         calculate D2E/DX2 analytically  !
 ! D31   D(6,7,8,19)           -59.9912         calculate D2E/DX2 analytically  !
 ! D32   D(6,7,8,20)          -179.9276         calculate D2E/DX2 analytically  !
 ! D33   D(6,7,8,21)            60.1588         calculate D2E/DX2 analytically  !
 ! D34   D(17,7,8,19)           60.7448         calculate D2E/DX2 analytically  !
 ! D35   D(17,7,8,20)          -59.1917         calculate D2E/DX2 analytically  !
 ! D36   D(17,7,8,21)         -179.1053         calculate D2E/DX2 analytically  !
 ! D37   D(18,7,8,19)          179.3323         calculate D2E/DX2 analytically  !
 ! D38   D(18,7,8,20)           59.3959         calculate D2E/DX2 analytically  !
 ! D39   D(18,7,8,21)          -60.5177         calculate D2E/DX2 analytically  !
 ! D40   D(1,9,10,11)           -0.1779         calculate D2E/DX2 analytically  !
 ! D41   D(1,9,10,25)          179.8552         calculate D2E/DX2 analytically  !
 ! D42   D(22,9,10,11)         179.8214         calculate D2E/DX2 analytically  !
 ! D43   D(22,9,10,25)          -0.1455         calculate D2E/DX2 analytically  !
 ! D44   D(9,10,11,12)          -0.0299         calculate D2E/DX2 analytically  !
 ! D45   D(9,10,11,26)        -179.9963         calculate D2E/DX2 analytically  !
 ! D46   D(25,10,11,12)        179.9368         calculate D2E/DX2 analytically  !
 ! D47   D(25,10,11,26)         -0.0296         calculate D2E/DX2 analytically  !
 ! D48   D(9,10,25,27)          45.5401         calculate D2E/DX2 analytically  !
 ! D49   D(9,10,25,28)         135.5265         calculate D2E/DX2 analytically  !
 ! D50   D(9,10,25,29)         -44.4943         calculate D2E/DX2 analytically  !
 ! D51   D(9,10,25,30)        -134.4797         calculate D2E/DX2 analytically  !
 ! D52   D(11,10,25,27)       -134.429          calculate D2E/DX2 analytically  !
 ! D53   D(11,10,25,28)        -44.4427         calculate D2E/DX2 analytically  !
 ! D54   D(11,10,25,29)        135.5366         calculate D2E/DX2 analytically  !
 ! D55   D(11,10,25,30)         45.5512         calculate D2E/DX2 analytically  !
 ! D56   D(10,11,12,13)          0.151          calculate D2E/DX2 analytically  !
 ! D57   D(10,11,12,23)       -179.8951         calculate D2E/DX2 analytically  !
 ! D58   D(26,11,12,13)       -179.882          calculate D2E/DX2 analytically  !
 ! D59   D(26,11,12,23)          0.072          calculate D2E/DX2 analytically  !
 ! D60   D(11,12,13,1)          -0.0592         calculate D2E/DX2 analytically  !
 ! D61   D(11,12,13,24)        179.8979         calculate D2E/DX2 analytically  !
 ! D62   D(23,12,13,1)         179.987          calculate D2E/DX2 analytically  !
 ! D63   D(23,12,13,24)         -0.056          calculate D2E/DX2 analytically  !
 --------------------------------------------------------------------------------
 Trust Radius=3.00D-01 FncErr=5.00D-06 GrdErr=5.00D-06 EigMax=2.50D+02 EigMin=1.00D-04
 Number of steps in this run=    165 maximum allowed number of steps=    186.
 GradGradGradGradGradGradGradGradGradGradGradGradGradGradGradGradGradGrad

                          Input orientation:                          
 ---------------------------------------------------------------------
 Center     Atomic      Atomic             Coordinates (Angstroms)
 Number     Number       Type             X           Y           Z
 ---------------------------------------------------------------------
      1          6           0       -5.883350    1.253064    0.192891
      2          7           0       -4.618646    0.671380    0.093033
      3          6           0       -3.410909    1.308179    0.091110
      4          8           0       -3.239917    2.508545    0.159655
      5          8           0       -2.425293    0.410928    0.001766
      6          6           0       -1.081959    0.942503   -0.000678
      7          6           0       -0.128364   -0.225778   -0.102585
      8          6           0        1.315403    0.264805   -0.101077
      9          6           0       -6.097184    2.632949    0.228829
     10          6           0       -7.404577    3.079883    0.329222
     11          6           0       -8.512964    2.254063    0.392790
     12          6           0       -8.256642    0.889434    0.349617
     13          6           0       -6.975463    0.380369    0.252435
     14          1           0       -4.586578   -0.340368    0.049261
     15          1           0       -0.930210    1.504902    0.922831
     16          1           0       -0.978299    1.620972   -0.849800
     17          1           0       -0.339501   -0.782195   -1.019782
     18          1           0       -0.299967   -0.902550    0.738866
     19          1           0        1.505339    0.933759   -0.944195
     20          1           0        2.010758   -0.572756   -0.175690
     21          1           0        1.544999    0.809700    0.818043
     22          1           0       -5.268611    3.320909    0.179700
     23         17           0       -9.598828   -0.217448    0.421834
     24          1           0       -6.812631   -0.691219    0.222834
     25         16           0       -7.673189    4.867941    0.379252
     26          1           0       -9.524036    2.630479    0.470921
     27          9           0       -6.652042    5.142159   -0.843626
     28          9           0       -8.902176    4.799145   -0.668917
     29          9           0       -6.470259    5.106170    1.432421
     30          9           0       -8.720249    4.762152    1.606691
     31          9           0       -7.913739    6.467214    0.424139
 ---------------------------------------------------------------------
                    Distance matrix (angstroms):
                    1          2          3          4          5
     1  C    0.000000
     2  N    1.395637   0.000000
     3  C    2.475148   1.365337   0.000000
     4  O    2.926615   2.297936   1.214420   0.000000
     5  O    3.564250   2.210648   1.335845   2.255779   0.000000
     6  C    4.815317   3.548302   2.359270   2.671138   1.444688
     7  C    5.949297   4.583208   3.628449   4.150549   2.385826
     8  C    7.272215   5.951128   4.843923   5.084613   3.744961
     9  C    1.396817   2.460135   2.998341   2.860810   4.297873
    10  C    2.381173   3.690268   4.375501   4.207086   5.658959
    11  C    2.820785   4.214315   5.197757   5.284330   6.372581
    12  C    2.406098   3.653545   4.870657   5.274954   5.861280
    13  C    1.399234   2.380059   3.686855   4.300238   4.557172
    14  H    2.059435   1.013202   2.025255   3.153092   2.288637
    15  H    5.012966   3.871420   2.623801   2.631441   2.068916
    16  H    5.028129   3.878504   2.626927   2.630913   2.069580
    17  H    6.028857   4.654280   3.877795   4.542296   2.611060
    18  H    6.009903   4.641697   3.871030   4.540304   2.604909
    19  H    7.482489   6.216742   5.038010   5.120145   4.076526
    20  H    8.110882   6.750488   5.744874   6.097250   4.547271
    21  H    7.467781   6.207680   5.033680   5.120055   4.072903
    22  H    2.157327   2.729464   2.740435   2.185391   4.072359
    23  Cl   4.002449   5.069549   6.381790   6.923548   7.213246
    24  H    2.155156   2.585941   3.947993   4.796537   4.529054
    25  S    4.038018   5.198392   5.560752   5.026815   6.895497
    26  H    3.902457   5.295632   6.266024   6.293005   7.452427
    27  F    4.097599   4.999990   5.106670   4.425505   6.400363
    28  F    4.736107   5.997303   6.551221   6.163973   7.852152
    29  F    4.089904   4.988967   5.058010   4.336208   6.360331
    30  F    4.728691   5.987380   6.512757   6.099729   7.818913
    31  F    5.600296   6.675250   6.855803   6.130712   8.184134
                    6          7          8          9         10
     6  C    0.000000
     7  C    1.511492   0.000000
     8  C    2.493330   1.524840   0.000000
     9  C    5.297430   6.626384   7.788670   0.000000
    10  C    6.682269   8.003569   9.173214   1.385318   0.000000
    11  C    7.556113   8.757655  10.039813   2.450803   1.383670
    12  C    7.183426   8.216878   9.602985   2.778074   2.350425
    13  C    5.925661   6.883038   8.299204   2.417860   2.734485
    14  H    3.732373   4.462271   5.934831   3.339878   4.440452
    15  H    1.091875   2.165569   2.762066   5.334018   6.689571
    16  H    1.091820   2.165919   2.767822   5.328276   6.694443
    17  H    2.136445   1.093356   2.163084   6.809783   8.163991
    18  H    2.136038   1.093393   2.162785   6.809377   8.154941
    19  H    2.753981   2.172975   1.092897   7.877917   9.252785
    20  H    3.448411   2.168314   1.091143   8.728052  10.111639
    21  H    2.754786   2.172537   1.092890   7.878728   9.245949
    22  H    4.818444   6.251465   7.264148   1.078071   2.154716
    23  Cl   8.605874   9.484975  10.937387   4.519239   3.961781
    24  H    5.963188   6.708349   8.190471   3.400293   3.818760
    25  S    7.680998   9.116058  10.110112   2.738907   1.808814
    26  H    8.622084   9.836959  11.109322   3.435394   2.171210
    27  F    7.026628   8.480700   9.371240   2.784630   2.488949
    28  F    8.745058  10.126715  11.192926   3.656000   2.488965
    29  F    6.958712   8.426478   9.295534   2.775723   2.489144
    30  F    8.690042  10.080751  11.129102   3.648627   2.488563
    31  F    8.796370  10.280352  11.132061   4.247306   3.426699
                   11         12         13         14         15
    11  C    0.000000
    12  C    1.389164   0.000000
    13  C    2.427826   1.382031   0.000000
    14  H    4.718643   3.882267   2.503500   0.000000
    15  H    7.638086   7.374550   6.185394   4.187742   0.000000
    16  H    7.662638   7.412694   6.222540   4.204146   1.777077
    17  H    8.832878   8.206749   6.856099   4.401787   3.058349
    18  H    8.805527   8.165256   6.815039   4.377973   2.495371
    19  H   10.192994   9.847446   8.582667   6.302524   3.121520
    20  H   10.911591  10.384289   9.046763   6.605260   3.764665
    21  H   10.170037   9.813152   8.550001   6.285692   2.573120
    22  H    3.421900   3.856070   3.400796   3.726545   4.761496
    23  Cl   2.699687   1.741225   2.695945   5.027580   8.852255
    24  H    3.405100   2.144692   1.084293   2.260206   6.317897
    25  S    2.745499   4.021171   4.543260   6.063212   7.554685
    26  H    1.081693   2.156905   3.406751   5.777735   8.678997
    27  F    3.651419   4.699388   4.896999   5.926339   7.006381
    28  F    2.784987   4.091450   4.907820   6.749427   8.771428
    29  F    3.658961   4.705794   4.897019   5.926733   6.627288
    30  F    2.794107   4.097940   4.906965   6.748965   8.471248
    31  F    4.255666   5.588807   6.161130   7.586416   8.581545
                   16         17         18         19         20
    16  H    0.000000
    17  H    2.492422   0.000000
    18  H    3.058129   1.763206   0.000000
    19  H    2.578687   2.520644   3.076338   0.000000
    20  H    3.768465   2.506008   2.506916   1.765116   0.000000
    21  H    3.131595   3.076210   2.518326   1.767044   1.765112
    22  H    4.728259   6.524595   6.545051   7.269664   8.262938
    23  Cl   8.905636   9.387882   9.329453  11.246948  11.630381
    24  H    6.366804   6.591948   6.536493   8.555181   8.833179
    25  S    7.541547   9.362922   9.369754  10.073464  11.121509
    26  H    8.705919   9.910814   9.881171  11.248490  11.988757
    27  F    6.677587   8.658936   8.910199   9.179521  10.399543
    28  F    8.539399  10.227115  10.415814  11.105555  12.173444
    29  F    6.893240   8.847165   8.640500   9.309537  10.332660
    30  F    8.708568  10.386293  10.185436  11.212772  12.115801
    31  F    8.556244  10.583380  10.601038  11.009564  12.182636
                   21         22         23         24         25
    21  H    0.000000
    22  H    7.289645   0.000000
    23  Cl  11.198075   5.597266   0.000000
    24  H    8.512168   4.299189   2.833188   0.000000
    25  S   10.081510   2.866204   5.437930   5.627547   0.000000
    26  H   11.223157   4.320897   2.849332   4.294990   2.905216
    27  F    9.419279   2.505600   6.245825   5.932236   1.616591
    28  F   11.281409   4.013494   5.180856   5.941844   1.616726
    29  F    9.114903   2.490065   6.257007   5.932119   1.616465
    30  F   11.028107   4.003410   5.193477   5.940818   1.616828
    31  F   11.028615   4.117729   6.893783   7.245421   1.617885
                   26         27         28         29         30
    26  H    0.000000
    27  F    4.035458   0.000000
    28  F    2.527657   2.282824   0.000000
    29  F    4.047108   2.283578   3.228639   0.000000
    30  F    2.545600   3.228922   2.283169   2.282800   0.000000
    31  F    4.161224   2.225955   2.225811   2.225469   2.226236
                   31
    31  F    0.000000
 Symmetry turned off by external request.
 Stoichiometry    C10H11ClF5NO2S
 Rotational constants (GHZ):           0.3792535           0.1349153           0.1037651
 Standard basis: 6-311+G(d) (5D, 7F)
   489 basis functions,   806 primitive gaussians,   509 cartesian basis functions
    86 alpha electrons       86 beta electrons
       nuclear repulsion energy      2025.8952853007 Hartrees.
 NAtoms=   31 NActive=   31 NUniq=   31 SFac= 1.00D+00 NAtFMM=   60 NAOKFM=F Big=F
 Integral buffers will be    131072 words long.
 Raffenetti 2 integral format.
 Two-electron integral symmetry is turned off.
 Nuclear repulsion after empirical dispersion term =     2025.8936920875 Hartrees.
 Force inversion solution in PCM.
 ------------------------------------------------------------------------------
 Polarizable Continuum Model (PCM)
 =================================
 Model                : PCM.
 Atomic radii         : SMD-Coulomb.
 Polarization charges : Total charges.
 Charge compensation  : None.
 Solution method      : Matrix inversion.
 Cavity type          : VdW (van der Waals Surface) (Alpha=1.000).
 Cavity algorithm     : GePol (No added spheres)
                        Default sphere list used, NSphG=   31.
                        Lebedev-Laikov grids with approx.  5.0 points / Ang**2.
                        Smoothing algorithm: York/Karplus (Gamma=1.0000).
                        Polarization charges: spherical gaussians, with
                                              point-specific exponents (IZeta= 3).
                        Self-potential: point-specific (ISelfS= 7).
                        Self-field    : sphere-specific E.n sum rule (ISelfD= 2).
 1st derivatives      : Analytical E(r).r(x)/FMM algorithm (CHGder, D1EAlg=3).
                        Cavity 1st derivative terms included.
 2nd derivatives      : Analytical E(r).r(xy)/FMM algorithm (CHGder, D2EAlg=3).
                        Cavity 2nd derivative terms included.
 Solvent              : n-Pentadecane, Eps=   2.033300 Eps(inf)=   2.049192
 ------------------------------------------------------------------------------
 ------------------------------------------------------------------------------
 Atomic radii for non-electrostatic terms: SMD-CDS.
 ------------------------------------------------------------------------------
 Nuclear repulsion after PCM non-electrostatic terms =     2025.8894517667 Hartrees.
 One-electron integrals computed using PRISM.
 NBasis=   489 RedAO= T EigKep=  1.18D-06  NBF=   489
 NBsUse=   487 1.00D-06 EigRej=  6.04D-07 NBFU=   487
 ExpMin= 4.05D-02 ExpMax= 1.06D+05 ExpMxC= 3.62D+03 IAcc=3 IRadAn=         5 AccDes= 0.00D+00
 Harris functional with IExCor= 1009 and IRadAn=       5 diagonalized for initial guess.
 HarFok:  IExCor= 1009 AccDes= 0.00D+00 IRadAn=         5 IDoV= 1 UseB2=F ITyADJ=14
 ICtDFT=  3500011 ScaDFX=  1.000000  1.000000  1.000000  1.000000
 FoFCou: FMM=F IPFlag=           0 FMFlag=      100000 FMFlg1=           0
         NFxFlg=           0 DoJE=T BraDBF=F KetDBF=T FulRan=T
         wScrn=  0.000000 ICntrl=       500 IOpCl=  0 I1Cent=   200000004 NGrid=           0
         NMat0=    1 NMatS0=      1 NMatT0=    0 NMatD0=    1 NMtDS0=    0 NMtDT0=    0
 Symmetry not used in FoFCou.
 Requested convergence on RMS density matrix=1.00D-08 within 128 cycles.
 Requested convergence on MAX density matrix=1.00D-06.
 Requested convergence on             energy=1.00D-06.
 No special actions if energy rises.
 Inv3:  Mode=1 IEnd=    20295603.
 Iteration    1 A*A^-1 deviation from unit magnitude is 5.11D-15 for   2589.
 Iteration    1 A*A^-1 deviation from orthogonality  is 3.34D-15 for   2571    858.
 Iteration    1 A^-1*A deviation from unit magnitude is 5.11D-15 for   2589.
 Iteration    1 A^-1*A deviation from orthogonality  is 2.76D-15 for   2586   1323.
 Error on total polarization charges =  0.02374
 SCF Done:  E(RM062X) =  -1950.30303628     A.U. after   15 cycles
            NFock= 15  Conv=0.78D-08     -V/T= 2.0024
 SMD-CDS (non-electrostatic) energy       (kcal/mol) =      -2.66
 (included in total energy above)
 DoSCS=F DFT=T ScalE2(SS,OS)=  1.000000  1.000000
 Range of M.O.s used for correlation:     1   487
 NBasis=   489 NAE=    86 NBE=    86 NFC=     0 NFV=     0
 NROrb=    487 NOA=    86 NOB=    86 NVA=   401 NVB=   401

 **** Warning!!: The largest alpha MO coefficient is  0.18113006D+03

 Symmetrizing basis deriv contribution to polar:
 IMax=3 JMax=2 DiffMx= 0.00D+00
 G2DrvN: will do    32 centers at a time, making    1 passes.
 Calling FoFCou, ICntrl=  3107 FMM=F I1Cent=   0 AccDes= 0.00D+00.
 NEqPCM:  Using equilibrium solvation (IEInf=0, Eps=   2.0333, EpsInf=   2.0492)
 G2PCM: DoFxE=T DoFxN=T DoGrad=T DoDP/DQ/DG/TGxP=FFFF NFrqRd=   0 IEInf=0 SqF1=F DoCFld=F IF1Alg=4.
 End of G2Drv F.D. properties file   721 does not exist.
 End of G2Drv F.D. properties file   722 does not exist.
 End of G2Drv F.D. properties file   788 does not exist.
          IDoAtm=1111111111111111111111111111111
 NEqPCM:  Using equilibrium solvation (IEInf=0, Eps=   2.0333, EpsInf=   2.0492)
          Differentiating once with respect to nuclear coordinates.
 CalDSu exits because no D1Ps are significant.
          There are    96 degrees of freedom in the 1st order CPHF.  IDoFFX=6 NUNeed=     0.
     90 vectors produced by pass  0 Test12= 3.59D-14 1.04D-09 XBig12= 5.21D-01 1.82D-01.
 AX will form    90 AO Fock derivatives at one time.
     90 vectors produced by pass  1 Test12= 3.59D-14 1.04D-09 XBig12= 3.89D-02 4.65D-02.
     90 vectors produced by pass  2 Test12= 3.59D-14 1.04D-09 XBig12= 9.25D-04 5.36D-03.
     90 vectors produced by pass  3 Test12= 3.59D-14 1.04D-09 XBig12= 9.98D-06 4.68D-04.
     90 vectors produced by pass  4 Test12= 3.59D-14 1.04D-09 XBig12= 9.22D-08 4.20D-05.
     90 vectors produced by pass  5 Test12= 3.59D-14 1.04D-09 XBig12= 5.81D-10 2.57D-06.
     78 vectors produced by pass  6 Test12= 3.59D-14 1.04D-09 XBig12= 3.15D-12 1.94D-07.
     33 vectors produced by pass  7 Test12= 3.59D-14 1.04D-09 XBig12= 1.37D-14 9.92D-09.
 InvSVY:  IOpt=1 It=  1 EMax= 4.44D-16
 Solved reduced A of dimension   651 with    96 vectors.
 End of Minotr F.D. properties file   721 does not exist.
 End of Minotr F.D. properties file   722 does not exist.
 End of Minotr F.D. properties file   788 does not exist.

 **********************************************************************

            Population analysis using the SCF Density.

 **********************************************************************

 Alpha  occ. eigenvalues -- -102.69559 -90.28420 -25.28880 -25.28866 -25.28729
 Alpha  occ. eigenvalues --  -25.28715 -25.28247 -19.68119 -19.62007 -14.81379
 Alpha  occ. eigenvalues --  -10.71861 -10.63850 -10.63544 -10.62164 -10.60082
 Alpha  occ. eigenvalues --  -10.58766 -10.58539 -10.58159 -10.54229 -10.53096
 Alpha  occ. eigenvalues --   -9.83824  -8.60728  -7.56341  -7.55655  -7.55644
 Alpha  occ. eigenvalues --   -6.53154  -6.53144  -6.52704  -1.50479  -1.40540
 Alpha  occ. eigenvalues --   -1.40490  -1.37149  -1.36067  -1.26103  -1.15870
 Alpha  occ. eigenvalues --   -1.09141  -1.02928  -0.98209  -0.94032  -0.90690
 Alpha  occ. eigenvalues --   -0.88095  -0.86385  -0.80947  -0.77089  -0.75272
 Alpha  occ. eigenvalues --   -0.73996  -0.73823  -0.69853  -0.69068  -0.67964
 Alpha  occ. eigenvalues --   -0.65112  -0.64519  -0.62541  -0.62258  -0.61819
 Alpha  occ. eigenvalues --   -0.60297  -0.60001  -0.58598  -0.57278  -0.55818
 Alpha  occ. eigenvalues --   -0.55801  -0.55705  -0.55447  -0.55170  -0.54625
 Alpha  occ. eigenvalues --   -0.53328  -0.52761  -0.51909  -0.51782  -0.51566
 Alpha  occ. eigenvalues --   -0.50653  -0.50641  -0.47957  -0.47890  -0.46119
 Alpha  occ. eigenvalues --   -0.45403  -0.44023  -0.43769  -0.41184  -0.41165
 Alpha  occ. eigenvalues --   -0.40246  -0.39975  -0.38755  -0.37847  -0.33606
 Alpha  occ. eigenvalues --   -0.30672
 Alpha virt. eigenvalues --   -0.02965  -0.02335  -0.01077  -0.00050   0.01709
 Alpha virt. eigenvalues --    0.02140   0.02829   0.03073   0.03725   0.04048
 Alpha virt. eigenvalues --    0.04424   0.04644   0.05099   0.05572   0.05883
 Alpha virt. eigenvalues --    0.06619   0.06800   0.06925   0.07585   0.07638
 Alpha virt. eigenvalues --    0.08289   0.08656   0.09252   0.09448   0.09829
 Alpha virt. eigenvalues --    0.10877   0.11159   0.11504   0.11948   0.11972
 Alpha virt. eigenvalues --    0.12470   0.12584   0.12984   0.13253   0.13828
 Alpha virt. eigenvalues --    0.14120   0.14774   0.15562   0.16662   0.17072
 Alpha virt. eigenvalues --    0.17205   0.17398   0.17773   0.18096   0.19376
 Alpha virt. eigenvalues --    0.20028   0.20314   0.20367   0.20476   0.20792
 Alpha virt. eigenvalues --    0.21058   0.21399   0.22034   0.22633   0.23083
 Alpha virt. eigenvalues --    0.23373   0.23720   0.23975   0.24211   0.25183
 Alpha virt. eigenvalues --    0.25837   0.25973   0.26101   0.26446   0.26846
 Alpha virt. eigenvalues --    0.26876   0.27522   0.28007   0.28466   0.28611
 Alpha virt. eigenvalues --    0.29048   0.29726   0.30093   0.31032   0.31403
 Alpha virt. eigenvalues --    0.32133   0.32329   0.32616   0.32673   0.32814
 Alpha virt. eigenvalues --    0.33720   0.34047   0.34165   0.34810   0.35717
 Alpha virt. eigenvalues --    0.35886   0.36153   0.37111   0.37630   0.37949
 Alpha virt. eigenvalues --    0.38791   0.38918   0.39254   0.39593   0.40276
 Alpha virt. eigenvalues --    0.41580   0.42332   0.43480   0.43780   0.44303
 Alpha virt. eigenvalues --    0.45292   0.45783   0.46422   0.47434   0.47668
 Alpha virt. eigenvalues --    0.47870   0.48284   0.48937   0.49194   0.49424
 Alpha virt. eigenvalues --    0.50246   0.51225   0.51776   0.52499   0.54385
 Alpha virt. eigenvalues --    0.54593   0.55087   0.56327   0.57852   0.58205
 Alpha virt. eigenvalues --    0.58597   0.58832   0.59569   0.59955   0.60670
 Alpha virt. eigenvalues --    0.62179   0.62960   0.63493   0.63639   0.63849
 Alpha virt. eigenvalues --    0.64605   0.67362   0.67519   0.67853   0.68381
 Alpha virt. eigenvalues --    0.69232   0.69416   0.69885   0.71375   0.71561
 Alpha virt. eigenvalues --    0.72102   0.72225   0.72755   0.73062   0.73889
 Alpha virt. eigenvalues --    0.75582   0.76289   0.76955   0.77849   0.78048
 Alpha virt. eigenvalues --    0.80061   0.80973   0.83608   0.85221   0.86413
 Alpha virt. eigenvalues --    0.87612   0.88397   0.90902   0.91659   0.91815
 Alpha virt. eigenvalues --    0.92102   0.92847   0.93641   0.94039   0.95173
 Alpha virt. eigenvalues --    0.97872   0.98657   0.99470   1.00234   1.00257
 Alpha virt. eigenvalues --    1.03598   1.04149   1.04985   1.05763   1.06082
 Alpha virt. eigenvalues --    1.06698   1.09991   1.11425   1.12633   1.13942
 Alpha virt. eigenvalues --    1.14310   1.16245   1.19083   1.19603   1.20462
 Alpha virt. eigenvalues --    1.20694   1.22187   1.23078   1.25105   1.25227
 Alpha virt. eigenvalues --    1.26254   1.29357   1.30596   1.31418   1.32861
 Alpha virt. eigenvalues --    1.34054   1.36053   1.36813   1.37619   1.38631
 Alpha virt. eigenvalues --    1.38998   1.40312   1.42182   1.43447   1.44240
 Alpha virt. eigenvalues --    1.45543   1.48833   1.49590   1.49855   1.51674
 Alpha virt. eigenvalues --    1.51899   1.52069   1.53837   1.55116   1.56776
 Alpha virt. eigenvalues --    1.58085   1.58645   1.61101   1.61189   1.62772
 Alpha virt. eigenvalues --    1.62975   1.63210   1.64589   1.67137   1.68398
 Alpha virt. eigenvalues --    1.69730   1.72427   1.73824   1.74358   1.76928
 Alpha virt. eigenvalues --    1.77814   1.78598   1.79250   1.82614   1.84066
 Alpha virt. eigenvalues --    1.85782   1.86886   1.89267   1.89687   1.90085
 Alpha virt. eigenvalues --    1.90656   1.91771   1.93325   1.97103   1.98304
 Alpha virt. eigenvalues --    1.99992   2.02482   2.02769   2.05733   2.06799
 Alpha virt. eigenvalues --    2.08003   2.08732   2.11789   2.13454   2.17949
 Alpha virt. eigenvalues --    2.18304   2.21793   2.24647   2.26098   2.27020
 Alpha virt. eigenvalues --    2.29498   2.32767   2.34689   2.38647   2.40093
 Alpha virt. eigenvalues --    2.42528   2.45310   2.50271   2.50471   2.52220
 Alpha virt. eigenvalues --    2.55073   2.56188   2.58840   2.59727   2.59781
 Alpha virt. eigenvalues --    2.61299   2.64967   2.65489   2.69875   2.70933
 Alpha virt. eigenvalues --    2.73596   2.74144   2.80317   2.82221   2.85025
 Alpha virt. eigenvalues --    2.85384   2.92319   2.92846   2.96191   2.96960
 Alpha virt. eigenvalues --    3.00987   3.02424   3.03958   3.06798   3.10149
 Alpha virt. eigenvalues --    3.11849   3.17283   3.18208   3.19384   3.21223
 Alpha virt. eigenvalues --    3.25045   3.26248   3.29183   3.29515   3.29928
 Alpha virt. eigenvalues --    3.33784   3.35341   3.38832   3.40661   3.43387
 Alpha virt. eigenvalues --    3.45666   3.54197   3.61525   3.67924   3.70560
 Alpha virt. eigenvalues --    3.74643   3.79247   3.79967   3.80266   3.80874
 Alpha virt. eigenvalues --    3.81173   3.82921   3.83628   3.84022   3.84075
 Alpha virt. eigenvalues --    3.84489   3.85766   3.86755   3.88358   3.88962
 Alpha virt. eigenvalues --    3.89431   3.90458   3.91077   3.91504   3.91778
 Alpha virt. eigenvalues --    3.94034   3.97076   3.98220   4.01301   4.02418
 Alpha virt. eigenvalues --    4.07496   4.10015   4.10781   4.18638   4.27110
 Alpha virt. eigenvalues --    4.29515   4.30185   4.32835   4.38602   4.55798
 Alpha virt. eigenvalues --    4.76839   5.07615   5.10007   5.16026   5.37452
 Alpha virt. eigenvalues --    5.49351   5.79933   5.96333   6.35540   6.36934
 Alpha virt. eigenvalues --    6.39014   6.41176   6.42473   6.43667   6.48309
 Alpha virt. eigenvalues --    6.52069   6.52658   6.54269   6.55675   6.63728
 Alpha virt. eigenvalues --    6.64777   6.65613   6.71004   8.22935   9.95770
 Alpha virt. eigenvalues --   17.51293  17.56223  17.61116  23.46339  23.57028
 Alpha virt. eigenvalues --   23.72043  23.81854  23.90916  23.92182  23.96316
 Alpha virt. eigenvalues --   24.07977  24.10346  24.18935  25.92632  26.22472
 Alpha virt. eigenvalues --   26.72338  35.65326  50.01757  50.13011  66.89370
 Alpha virt. eigenvalues --   66.91413  66.96422  66.98473  67.07099 189.47232
 Alpha virt. eigenvalues --  216.05833
          Condensed to atoms (all electrons):
               1          2          3          4          5          6
     1  C   32.127467  -0.611847  -1.314063  -0.225770  -0.299814  -0.651052
     2  N   -0.611847   7.728180   0.211243  -0.002898  -0.240216  -0.383644
     3  C   -1.314063   0.211243   9.146311   0.484669   0.353189  -0.671337
     4  O   -0.225770  -0.002898   0.484669   8.066286  -0.194988  -0.148896
     5  O   -0.299814  -0.240216   0.353189  -0.194988   8.347711   0.359255
     6  C   -0.651052  -0.383644  -0.671337  -0.148896   0.359255   8.506284
     7  C   -0.005452   0.043737   0.130916   0.029108  -0.175185  -1.000498
     8  C   -0.017313  -0.008493  -0.249897  -0.000017   0.032325   0.329835
     9  C   -5.689174   0.226142  -0.057340   0.347767   0.000765  -0.316950
    10  C   -4.155885   0.340572   0.850500   0.047439   0.036182   0.017074
    11  C   -6.024260   0.029369  -0.640596  -0.018265  -0.016254  -0.040221
    12  C   -0.778561  -0.001114  -0.639704   0.028361   0.015459  -0.069439
    13  C   -4.253215  -0.078423  -1.673094  -0.106187  -0.107098  -0.199689
    14  H   -0.006395   0.256157   0.019613   0.000007   0.022541   0.005385
    15  H    0.008352   0.005468   0.040587  -0.002741  -0.043386   0.352232
    16  H    0.005132   0.004838   0.044746  -0.002867  -0.042725   0.347070
    17  H    0.000039  -0.000711   0.005516  -0.000288   0.000820  -0.061173
    18  H   -0.000303  -0.000907   0.007479  -0.000304   0.001175  -0.067738
    19  H   -0.000114  -0.000041  -0.001374  -0.000065  -0.000387  -0.049735
    20  H    0.000083   0.000045   0.007101   0.000033  -0.000646   0.090298
    21  H   -0.000021  -0.000039  -0.000705  -0.000071  -0.000452  -0.049149
    22  H    0.034428  -0.023727   0.102201   0.004872   0.002920   0.008556
    23  Cl  -0.048649  -0.014388  -0.077508   0.000244  -0.000165  -0.003265
    24  H    0.144895  -0.021251  -0.000649   0.000130  -0.000582  -0.000436
    25  S   -0.610323   0.023777  -0.037308  -0.001458   0.000319   0.003775
    26  H    0.004225   0.001510   0.005065  -0.000021   0.000003   0.000048
    27  F   -0.232958   0.001730   0.006284   0.000244   0.000037   0.000102
    28  F    0.146501  -0.000304  -0.001812   0.000021  -0.000002  -0.000029
    29  F   -0.250456   0.002152   0.006362   0.000478   0.000048   0.000111
    30  F    0.149149  -0.000191  -0.002103  -0.000001  -0.000002  -0.000043
    31  F   -0.016974  -0.000167  -0.002156   0.000043  -0.000001  -0.000035
               7          8          9         10         11         12
     1  C   -0.005452  -0.017313  -5.689174  -4.155885  -6.024260  -0.778561
     2  N    0.043737  -0.008493   0.226142   0.340572   0.029369  -0.001114
     3  C    0.130916  -0.249897  -0.057340   0.850500  -0.640596  -0.639704
     4  O    0.029108  -0.000017   0.347767   0.047439  -0.018265   0.028361
     5  O   -0.175185   0.032325   0.000765   0.036182  -0.016254   0.015459
     6  C   -1.000498   0.329835  -0.316950   0.017074  -0.040221  -0.069439
     7  C    6.556137  -0.163732  -0.023042  -0.016054   0.002612  -0.003344
     8  C   -0.163732   6.104494  -0.008742   0.001175  -0.000171  -0.001438
     9  C   -0.023042  -0.008742  16.813678   2.502497  -2.736423  -4.224719
    10  C   -0.016054   0.001175   2.502497  32.039535  -3.282560  -5.590452
    11  C    0.002612  -0.000171  -2.736423  -3.282560  18.993353  -0.863636
    12  C   -0.003344  -0.001438  -4.224719  -5.590452  -0.863636  25.236872
    13  C    0.045231  -0.004605  -1.573217 -13.517991  -0.630057  -5.850920
    14  H   -0.003717  -0.000364   0.084378   0.043276  -0.021216   0.031164
    15  H   -0.025119  -0.013108  -0.001087  -0.000019   0.000091  -0.000030
    16  H   -0.020170  -0.015713   0.000503   0.000295   0.000098  -0.000141
    17  H    0.439259  -0.043379   0.000431   0.000021  -0.000002   0.000011
    18  H    0.448009  -0.047437   0.000151  -0.000004   0.000002   0.000012
    19  H    0.016487   0.378776  -0.000011  -0.000007   0.000000   0.000000
    20  H   -0.134119   0.388707   0.000042   0.000000  -0.000000   0.000001
    21  H    0.013059   0.380951  -0.000035  -0.000007   0.000000   0.000001
    22  H   -0.000699   0.000033   0.315936  -0.049342  -0.038986   0.000691
    23  Cl  -0.000009  -0.000007   0.116951  -0.070596   0.146717  -1.364390
    24  H   -0.000031  -0.000001  -0.037624   0.065390  -0.028048   0.162080
    25  S    0.000103  -0.000014   0.174094  -3.034193   0.997727  -0.143959
    26  H   -0.000001   0.000000  -0.008523  -0.126321   0.288866   0.101266
    27  F   -0.000001   0.000004  -0.141810  -0.090288   0.316350   0.102611
    28  F    0.000001  -0.000000   0.126225   0.473472  -0.368526  -0.211198
    29  F   -0.000000   0.000004  -0.151232  -0.066295   0.315523   0.101130
    30  F    0.000001  -0.000000   0.125267   0.470883  -0.372713  -0.204678
    31  F    0.000000  -0.000000  -0.042916   0.088523   0.026519  -0.023320
              13         14         15         16         17         18
     1  C   -4.253215  -0.006395   0.008352   0.005132   0.000039  -0.000303
     2  N   -0.078423   0.256157   0.005468   0.004838  -0.000711  -0.000907
     3  C   -1.673094   0.019613   0.040587   0.044746   0.005516   0.007479
     4  O   -0.106187   0.000007  -0.002741  -0.002867  -0.000288  -0.000304
     5  O   -0.107098   0.022541  -0.043386  -0.042725   0.000820   0.001175
     6  C   -0.199689   0.005385   0.352232   0.347070  -0.061173  -0.067738
     7  C    0.045231  -0.003717  -0.025119  -0.020170   0.439259   0.448009
     8  C   -0.004605  -0.000364  -0.013108  -0.015713  -0.043379  -0.047437
     9  C   -1.573217   0.084378  -0.001087   0.000503   0.000431   0.000151
    10  C  -13.517991   0.043276  -0.000019   0.000295   0.000021  -0.000004
    11  C   -0.630057  -0.021216   0.000091   0.000098  -0.000002   0.000002
    12  C   -5.850920   0.031164  -0.000030  -0.000141   0.000011   0.000012
    13  C   32.766057  -0.170308   0.000636   0.000454  -0.000146   0.000168
    14  H   -0.170308   0.296323  -0.000044  -0.000008   0.000011  -0.000003
    15  H    0.000636  -0.000044   0.437681  -0.037315   0.005206  -0.007531
    16  H    0.000454  -0.000008  -0.037315   0.437592  -0.007689   0.005229
    17  H   -0.000146   0.000011   0.005206  -0.007689   0.440007  -0.036137
    18  H    0.000168  -0.000003  -0.007531   0.005229  -0.036137   0.440261
    19  H    0.000024  -0.000000  -0.000481   0.003564  -0.007953   0.006019
    20  H   -0.000010  -0.000000  -0.000192  -0.000198  -0.003207  -0.003209
    21  H    0.000023  -0.000000   0.003595  -0.000452   0.005999  -0.007954
    22  H   -0.047884   0.000135  -0.000037  -0.000040  -0.000000  -0.000000
    23  Cl   0.367627  -0.000023   0.000001   0.000001   0.000000   0.000000
    24  H    0.047919   0.006680  -0.000001  -0.000001  -0.000000  -0.000000
    25  S    1.070638   0.000744  -0.000000   0.000008   0.000000   0.000000
    26  H    0.013793   0.000009  -0.000000  -0.000000   0.000000   0.000000
    27  F    0.040562   0.000011   0.000001   0.000001   0.000000   0.000000
    28  F   -0.067079  -0.000001   0.000000   0.000000  -0.000000  -0.000000
    29  F    0.039994   0.000013   0.000001   0.000001   0.000000   0.000000
    30  F   -0.069011  -0.000001   0.000000   0.000000   0.000000  -0.000000
    31  F    0.008966  -0.000000   0.000000   0.000000  -0.000000  -0.000000
              19         20         21         22         23         24
     1  C   -0.000114   0.000083  -0.000021   0.034428  -0.048649   0.144895
     2  N   -0.000041   0.000045  -0.000039  -0.023727  -0.014388  -0.021251
     3  C   -0.001374   0.007101  -0.000705   0.102201  -0.077508  -0.000649
     4  O   -0.000065   0.000033  -0.000071   0.004872   0.000244   0.000130
     5  O   -0.000387  -0.000646  -0.000452   0.002920  -0.000165  -0.000582
     6  C   -0.049735   0.090298  -0.049149   0.008556  -0.003265  -0.000436
     7  C    0.016487  -0.134119   0.013059  -0.000699  -0.000009  -0.000031
     8  C    0.378776   0.388707   0.380951   0.000033  -0.000007  -0.000001
     9  C   -0.000011   0.000042  -0.000035   0.315936   0.116951  -0.037624
    10  C   -0.000007   0.000000  -0.000007  -0.049342  -0.070596   0.065390
    11  C    0.000000  -0.000000   0.000000  -0.038986   0.146717  -0.028048
    12  C    0.000000   0.000001   0.000001   0.000691  -1.364390   0.162080
    13  C    0.000024  -0.000010   0.000023  -0.047884   0.367627   0.047919
    14  H   -0.000000  -0.000000  -0.000000   0.000135  -0.000023   0.006680
    15  H   -0.000481  -0.000192   0.003595  -0.000037   0.000001  -0.000001
    16  H    0.003564  -0.000198  -0.000452  -0.000040   0.000001  -0.000001
    17  H   -0.007953  -0.003207   0.005999  -0.000000   0.000000  -0.000000
    18  H    0.006019  -0.003209  -0.007954  -0.000000   0.000000  -0.000000
    19  H    0.451613  -0.024379  -0.036931  -0.000000  -0.000000  -0.000000
    20  H   -0.024379   0.425215  -0.024293   0.000000  -0.000000   0.000000
    21  H   -0.036931  -0.024293   0.451303  -0.000000  -0.000000  -0.000000
    22  H   -0.000000   0.000000  -0.000000   0.332270  -0.000200   0.000031
    23  Cl  -0.000000  -0.000000  -0.000000  -0.000200  17.582135  -0.015954
    24  H   -0.000000   0.000000  -0.000000   0.000031  -0.015954   0.393976
    25  S    0.000000   0.000000   0.000000   0.009825  -0.022138   0.000077
    26  H   -0.000000  -0.000000  -0.000000   0.000033  -0.018343  -0.000182
    27  F   -0.000000  -0.000000  -0.000000  -0.001106  -0.000424  -0.000007
    28  F   -0.000000   0.000000  -0.000000  -0.000619  -0.000085   0.000002
    29  F   -0.000000  -0.000000  -0.000000  -0.002236  -0.000437  -0.000008
    30  F   -0.000000   0.000000  -0.000000  -0.000721  -0.000287   0.000002
    31  F   -0.000000   0.000000  -0.000000  -0.000792   0.000226   0.000000
              25         26         27         28         29         30
     1  C   -0.610323   0.004225  -0.232958   0.146501  -0.250456   0.149149
     2  N    0.023777   0.001510   0.001730  -0.000304   0.002152  -0.000191
     3  C   -0.037308   0.005065   0.006284  -0.001812   0.006362  -0.002103
     4  O   -0.001458  -0.000021   0.000244   0.000021   0.000478  -0.000001
     5  O    0.000319   0.000003   0.000037  -0.000002   0.000048  -0.000002
     6  C    0.003775   0.000048   0.000102  -0.000029   0.000111  -0.000043
     7  C    0.000103  -0.000001  -0.000001   0.000001  -0.000000   0.000001
     8  C   -0.000014   0.000000   0.000004  -0.000000   0.000004  -0.000000
     9  C    0.174094  -0.008523  -0.141810   0.126225  -0.151232   0.125267
    10  C   -3.034193  -0.126321  -0.090288   0.473472  -0.066295   0.470883
    11  C    0.997727   0.288866   0.316350  -0.368526   0.315523  -0.372713
    12  C   -0.143959   0.101266   0.102611  -0.211198   0.101130  -0.204678
    13  C    1.070638   0.013793   0.040562  -0.067079   0.039994  -0.069011
    14  H    0.000744   0.000009   0.000011  -0.000001   0.000013  -0.000001
    15  H   -0.000000  -0.000000   0.000001   0.000000   0.000001   0.000000
    16  H    0.000008  -0.000000   0.000001   0.000000   0.000001   0.000000
    17  H    0.000000   0.000000   0.000000  -0.000000   0.000000   0.000000
    18  H    0.000000   0.000000   0.000000  -0.000000   0.000000  -0.000000
    19  H    0.000000  -0.000000  -0.000000  -0.000000  -0.000000  -0.000000
    20  H    0.000000  -0.000000  -0.000000   0.000000  -0.000000   0.000000
    21  H    0.000000  -0.000000  -0.000000  -0.000000  -0.000000  -0.000000
    22  H    0.009825   0.000033  -0.001106  -0.000619  -0.002236  -0.000721
    23  Cl  -0.022138  -0.018343  -0.000424  -0.000085  -0.000437  -0.000287
    24  H    0.000077  -0.000182  -0.000007   0.000002  -0.000008   0.000002
    25  S   17.217727   0.045353   0.040395  -0.048314   0.045238  -0.047829
    26  H    0.045353   0.361731   0.000090  -0.001404   0.000089  -0.001553
    27  F    0.040395   0.000090   8.978275  -0.034994  -0.006431  -0.056541
    28  F   -0.048314  -0.001404  -0.034994   8.983244  -0.055402  -0.007224
    29  F    0.045238   0.000089  -0.006431  -0.055402   8.979252  -0.034840
    30  F   -0.047829  -0.001553  -0.056541  -0.007224  -0.034840   8.982177
    31  F   -0.239304  -0.000889   0.013252   0.016284   0.013054   0.016784
              31
     1  C   -0.016974
     2  N   -0.000167
     3  C   -0.002156
     4  O    0.000043
     5  O   -0.000001
     6  C   -0.000035
     7  C    0.000000
     8  C   -0.000000
     9  C   -0.042916
    10  C    0.088523
    11  C    0.026519
    12  C   -0.023320
    13  C    0.008966
    14  H   -0.000000
    15  H    0.000000
    16  H    0.000000
    17  H   -0.000000
    18  H   -0.000000
    19  H   -0.000000
    20  H    0.000000
    21  H   -0.000000
    22  H   -0.000792
    23  Cl   0.000226
    24  H    0.000000
    25  S   -0.239304
    26  H   -0.000889
    27  F    0.013252
    28  F    0.016284
    29  F    0.013054
    30  F    0.016784
    31  F    9.133270
 Mulliken charges:
               1
     1  C   -1.427672
     2  N   -0.486559
     3  C   -0.052136
     4  O   -0.304867
     5  O   -0.050846
     6  C   -0.306695
     7  C   -0.153488
     8  C   -1.041871
     9  C    0.178016
    10  C   -0.976821
    11  C   -0.035296
    12  C    0.191383
    13  C   -0.053158
    14  H    0.435636
    15  H    0.277241
    16  H    0.277785
    17  H    0.263364
    18  H    0.263023
    19  H    0.264993
    20  H    0.278726
    21  H    0.265177
    22  H    0.354459
    23  Cl   0.422965
    24  H    0.283593
    25  S    0.555042
    26  H    0.335155
    27  F    0.064609
    28  F    0.051243
    29  F    0.063887
    30  F    0.053477
    31  F    0.009631
 Sum of Mulliken charges =  -0.00000
 Mulliken charges with hydrogens summed into heavy atoms:
               1
     1  C   -1.427672
     2  N   -0.050923
     3  C   -0.052136
     4  O   -0.304867
     5  O   -0.050846
     6  C    0.248331
     7  C    0.372899
     8  C   -0.232975
     9  C    0.532476
    10  C   -0.976821
    11  C    0.299859
    12  C    0.191383
    13  C    0.230436
    23  Cl   0.422965
    25  S    0.555042
    27  F    0.064609
    28  F    0.051243
    29  F    0.063887
    30  F    0.053477
    31  F    0.009631
 APT charges:
               1
     1  C   -5.931004
     2  N    0.729658
     3  C   -0.234823
     4  O   -0.215611
     5  O   -0.644634
     6  C   -0.794709
     7  C   -0.597864
     8  C   -1.532810
     9  C    1.675095
    10  C   -0.475930
    11  C   -0.856920
    12  C    2.121240
    13  C    1.189720
    14  H    0.346640
    15  H    0.465293
    16  H    0.486751
    17  H    0.437532
    18  H    0.417950
    19  H    0.466633
    20  H    0.503553
    21  H    0.449156
    22  H   -0.009335
    23  Cl  -0.394168
    24  H    0.264167
    25  S    0.687966
    26  H    1.976251
    27  F   -0.630184
    28  F    0.414524
    29  F   -0.636278
    30  F    0.387191
    31  F   -0.065052
 Sum of APT charges =  -0.00000
 APT charges with hydrogens summed into heavy atoms:
               1
     1  C   -5.931004
     2  N    1.076298
     3  C   -0.234823
     4  O   -0.215611
     5  O   -0.644634
     6  C    0.157336
     7  C    0.257618
     8  C   -0.113468
     9  C    1.665760
    10  C   -0.475930
    11  C    1.119331
    12  C    2.121240
    13  C    1.453888
    23  Cl  -0.394168
    25  S    0.687966
    27  F   -0.630184
    28  F    0.414524
    29  F   -0.636278
    30  F    0.387191
    31  F   -0.065052
 Electronic spatial extent (au):  <R**2>=          34818.9011
 Charge=             -0.0000 electrons
 Dipole moment (field-independent basis, Debye):
    X=              3.8308    Y=             -6.9159    Z=             -0.4109  Tot=              7.9166
 Quadrupole moment (field-independent basis, Debye-Ang):
   XX=           -160.7888   YY=           -166.1905   ZZ=           -132.6070
   XY=             44.7437   XZ=              2.2707   YZ=             -2.4646
 Traceless Quadrupole moment (field-independent basis, Debye-Ang):
   XX=             -7.5934   YY=            -12.9951   ZZ=             20.5885
   XY=             44.7437   XZ=              2.2707   YZ=             -2.4646
 Octapole moment (field-independent basis, Debye-Ang**2):
  XXX=           2526.8243  YYY=          -1095.4182  ZZZ=            -97.5062  XYY=           1002.5264
  XXY=           -599.7946  XXZ=            -45.9185  XZZ=            779.6200  YZZ=           -304.8557
  YYZ=            -45.0240  XYZ=             15.0583
 Hexadecapole moment (field-independent basis, Debye-Ang**3):
 XXXX=         -36605.2013 YYYY=          -8826.3387 ZZZZ=           -380.7068 XXXY=           8394.2423
 XXXZ=            850.5234 YYYX=           7736.1649 YYYZ=           -374.2200 ZZZX=            788.9702
 ZZZY=           -307.2510 XXYY=          -8827.7491 XXZZ=          -6000.8245 YYZZ=          -1387.7993
 XXYZ=           -198.1265 YYXZ=            346.2890 ZZXY=           2156.6177
 N-N= 2.025889451767D+03 E-N=-8.662112005111D+03  KE= 1.945616542309D+03
  Exact polarizability:       0.000       0.000       0.000       0.000       0.000       0.000
 Approx polarizability:     232.640       6.917     215.306      -5.619       1.614     139.659
 D2PCM: PCM CHGder 2nd derivatives, FixD1E=F FixD2E=F DoIter=F DoCFld=F I1PDM=0
 Calling FoFJK, ICntrl=    100127 FMM=F ISym2X=0 I1Cent= 0 IOpClX= 0 NMat=1 NMatS=1 NMatT=0.
 -------------------------------------------------------------------
 Center     Atomic                   Forces (Hartrees/Bohr)
 Number     Number              X              Y              Z
 -------------------------------------------------------------------
      1        6          -0.000075517   -0.000774864    0.000007194
      2        7          -0.004247109   -0.005331976    0.000099240
      3        6           0.008889301    0.017478725    0.000689399
      4        8          -0.002809316   -0.012260732   -0.000727124
      5        8           0.000207895   -0.001725933   -0.000007027
      6        6          -0.003126724   -0.001676226   -0.000051984
      7        6           0.000113268    0.000020617    0.000043133
      8        6          -0.000305965   -0.000322042   -0.000009790
      9        6          -0.000527494    0.000065981   -0.000028176
     10        6           0.000191219    0.000699570   -0.000021479
     11        6           0.001232449   -0.001254707   -0.000108992
     12        6          -0.002383227   -0.001111731    0.000124977
     13        6           0.000779877    0.001392942   -0.000172014
     14        1           0.000957637    0.002536490   -0.000040959
     15        1          -0.000038145    0.000960876   -0.000387555
     16        1          -0.000050079    0.000890280    0.000504854
     17        1          -0.000150394   -0.000295290    0.000175836
     18        1          -0.000113557   -0.000266111   -0.000233265
     19        1           0.000455142    0.000018600    0.000075507
     20        1           0.000242194    0.000301805    0.000010295
     21        1           0.000490361    0.000037533   -0.000108479
     22        1           0.000719202   -0.000047436    0.000106944
     23       17           0.000163830    0.000032516   -0.000022212
     24        1          -0.001002020   -0.000137335    0.000063404
     25       16           0.000709999    0.010569393    0.000272719
     26        1           0.000560367    0.000205951   -0.000000509
     27        9          -0.000649551   -0.002036118    0.000900813
     28        9           0.000367814   -0.001980797    0.000462712
     29        9          -0.000886024   -0.001989039   -0.000870511
     30        9           0.000291995   -0.001995349   -0.000664641
     31        9          -0.000007428   -0.002005591   -0.000082311
 -------------------------------------------------------------------
 Cartesian Forces:  Max     0.017478725 RMS     0.002874385
 FormGI is forming the generalized inverse of G from B-inverse, IUseBI=4.

 GradGradGradGradGradGradGradGradGradGradGradGradGradGradGradGradGradGrad
 Berny optimization.
 Internal  Forces:  Max     0.012554666 RMS     0.001354475
 Search for a local minimum.
 Step number   1 out of a maximum of  165
 All quantities printed in internal units (Hartrees-Bohrs-Radians)
 Mixed Optimization -- RFO/linear search
 Second derivative matrix not updated -- analytic derivatives used.
 ITU=  0
     Eigenvalues ---    0.00165   0.00198   0.00316   0.00370   0.00404
     Eigenvalues ---    0.00592   0.01042   0.01465   0.01601   0.01650
     Eigenvalues ---    0.01756   0.01981   0.02259   0.02317   0.02407
     Eigenvalues ---    0.02808   0.03086   0.03644   0.03932   0.04603
     Eigenvalues ---    0.04614   0.04806   0.06291   0.06719   0.08119
     Eigenvalues ---    0.09867   0.10460   0.10920   0.11303   0.11548
     Eigenvalues ---    0.12183   0.12280   0.12484   0.13873   0.13976
     Eigenvalues ---    0.14285   0.14696   0.14970   0.15474   0.16279
     Eigenvalues ---    0.16370   0.16723   0.17914   0.18262   0.18543
     Eigenvalues ---    0.19143   0.20833   0.22804   0.22954   0.24198
     Eigenvalues ---    0.24242   0.24907   0.25122   0.25238   0.27009
     Eigenvalues ---    0.28872   0.29380   0.30076   0.30766   0.31169
     Eigenvalues ---    0.31948   0.32260   0.33805   0.34137   0.34164
     Eigenvalues ---    0.34329   0.34477   0.34724   0.35259   0.36614
     Eigenvalues ---    0.36635   0.37472   0.37636   0.38006   0.39090
     Eigenvalues ---    0.40362   0.40557   0.41224   0.44821   0.46521
     Eigenvalues ---    0.46955   0.48509   0.49886   0.52965   0.53849
     Eigenvalues ---    0.60659   0.85092
 RFO step:  Lambda=-8.75462317D-04 EMin= 1.64762371D-03
 Linear search not attempted -- first point.
 Iteration  1 RMS(Cart)=  0.04855128 RMS(Int)=  0.00093462
 Iteration  2 RMS(Cart)=  0.00217906 RMS(Int)=  0.00004923
 Iteration  3 RMS(Cart)=  0.00000214 RMS(Int)=  0.00004922
 Iteration  4 RMS(Cart)=  0.00000000 RMS(Int)=  0.00004922
 Variable       Old X    -DE/DX   Delta X   Delta X   Delta X     New X
                                 (Linear)    (Quad)   (Total)
    R1        2.63737   0.00031   0.00000  -0.00146  -0.00146   2.63592
    R2        2.63960   0.00032   0.00000   0.00249   0.00249   2.64209
    R3        2.64417   0.00071   0.00000  -0.00024  -0.00024   2.64393
    R4        2.58011   0.00487   0.00000   0.01577   0.01577   2.59588
    R5        1.91467  -0.00250   0.00000  -0.00558  -0.00558   1.90909
    R6        2.29492  -0.01255   0.00000  -0.01900  -0.01900   2.27592
    R7        2.52438  -0.00032   0.00000   0.00367   0.00367   2.52805
    R8        2.73007  -0.00241   0.00000  -0.00893  -0.00893   2.72113
    R9        2.85631   0.00084   0.00000   0.00202   0.00202   2.85832
   R10        2.06334   0.00016   0.00000   0.00125   0.00125   2.06459
   R11        2.06324   0.00016   0.00000   0.00136   0.00136   2.06461
   R12        2.88153   0.00086   0.00000   0.00086   0.00086   2.88239
   R13        2.06614   0.00003   0.00000   0.00029   0.00029   2.06644
   R14        2.06621  -0.00000   0.00000   0.00019   0.00019   2.06640
   R15        2.06528   0.00004   0.00000   0.00023   0.00023   2.06551
   R16        2.06196  -0.00008   0.00000  -0.00003  -0.00003   2.06193
   R17        2.06526   0.00003   0.00000   0.00017   0.00017   2.06543
   R18        2.61787  -0.00012   0.00000  -0.00126  -0.00126   2.61661
   R19        2.03726   0.00052   0.00000   0.00127   0.00127   2.03853
   R20        2.61476   0.00032   0.00000   0.00124   0.00124   2.61600
   R21        3.41816   0.00057   0.00000   0.00678   0.00678   3.42494
   R22        2.62514  -0.00047   0.00000  -0.00184  -0.00184   2.62330
   R23        2.04410  -0.00045   0.00000  -0.00117  -0.00117   2.04293
   R24        2.61166   0.00016   0.00000   0.00163   0.00163   2.61329
   R25        3.29044  -0.00015   0.00000  -0.00222  -0.00222   3.28822
   R26        2.04902  -0.00001   0.00000   0.00007   0.00007   2.04909
   R27        3.05491  -0.00144   0.00000  -0.00591  -0.00591   3.04900
   R28        3.05517  -0.00049   0.00000   0.00006   0.00006   3.05523
   R29        3.05468  -0.00152   0.00000  -0.00558  -0.00558   3.04909
   R30        3.05536  -0.00056   0.00000  -0.00023  -0.00023   3.05513
   R31        3.05736  -0.00199   0.00000  -0.01510  -0.01510   3.04226
    A1        2.15592  -0.00154   0.00000  -0.00466  -0.00466   2.15126
    A2        2.03799   0.00156   0.00000   0.00521   0.00521   2.04320
    A3        2.08927  -0.00002   0.00000  -0.00054  -0.00055   2.08872
    A4        2.22344  -0.00033   0.00000   0.00156   0.00125   2.22469
    A5        2.03528   0.00117   0.00000   0.00807   0.00776   2.04304
    A6        2.02381  -0.00083   0.00000  -0.00807  -0.00838   2.01543
    A7        2.19626   0.00026   0.00000   0.00436   0.00436   2.20062
    A8        1.91716  -0.00293   0.00000  -0.01545  -0.01545   1.90171
    A9        2.16976   0.00267   0.00000   0.01109   0.01109   2.18085
   A10        2.02532  -0.00202   0.00000  -0.00659  -0.00659   2.01873
   A11        1.87795  -0.00010   0.00000   0.00173   0.00172   1.87967
   A12        1.89370  -0.00001   0.00000   0.00406   0.00405   1.89775
   A13        1.89468  -0.00012   0.00000   0.00215   0.00215   1.89682
   A14        1.94708   0.00055   0.00000   0.00341   0.00340   1.95048
   A15        1.94763   0.00051   0.00000   0.00201   0.00201   1.94964
   A16        1.90130  -0.00084   0.00000  -0.01302  -0.01301   1.88829
   A17        1.92689   0.00061   0.00000   0.00582   0.00582   1.93270
   A18        1.90506  -0.00018   0.00000  -0.00161  -0.00161   1.90345
   A19        1.90447  -0.00014   0.00000  -0.00049  -0.00050   1.90397
   A20        1.92559  -0.00011   0.00000   0.00023   0.00023   1.92582
   A21        1.92514  -0.00009   0.00000   0.00088   0.00088   1.92602
   A22        1.87579  -0.00010   0.00000  -0.00517  -0.00518   1.87061
   A23        1.93983   0.00045   0.00000   0.00333   0.00332   1.94315
   A24        1.93517   0.00031   0.00000   0.00142   0.00142   1.93659
   A25        1.93923   0.00055   0.00000   0.00430   0.00430   1.94352
   A26        1.88214  -0.00045   0.00000  -0.00353  -0.00353   1.87861
   A27        1.88294  -0.00047   0.00000  -0.00261  -0.00262   1.88032
   A28        1.88214  -0.00047   0.00000  -0.00343  -0.00343   1.87871
   A29        2.05449  -0.00018   0.00000   0.00077   0.00077   2.05526
   A30        2.10781  -0.00041   0.00000  -0.00351  -0.00350   2.10431
   A31        2.12088   0.00059   0.00000   0.00273   0.00273   2.12362
   A32        2.17337  -0.00052   0.00000  -0.00425  -0.00425   2.16912
   A33        2.05000   0.00139   0.00000   0.00596   0.00596   2.05596
   A34        2.05981  -0.00087   0.00000  -0.00171  -0.00171   2.05811
   A35        2.02312   0.00145   0.00000   0.00744   0.00744   2.03056
   A36        2.14644  -0.00112   0.00000  -0.00749  -0.00749   2.13895
   A37        2.11362  -0.00033   0.00000   0.00005   0.00005   2.11367
   A38        2.13539  -0.00131   0.00000  -0.00646  -0.00645   2.12894
   A39        2.07253   0.00080   0.00000   0.00400   0.00400   2.07653
   A40        2.07526   0.00052   0.00000   0.00245   0.00245   2.07771
   A41        2.09071   0.00058   0.00000   0.00304   0.00304   2.09375
   A42        2.09210   0.00075   0.00000   0.00492   0.00492   2.09702
   A43        2.10037  -0.00133   0.00000  -0.00796  -0.00796   2.09241
   A44        1.62378  -0.00110   0.00000  -0.00587  -0.00587   1.61790
   A45        1.62371  -0.00187   0.00000  -0.00907  -0.00908   1.61464
   A46        1.62402  -0.00099   0.00000  -0.00503  -0.00503   1.61898
   A47        1.62331  -0.00182   0.00000  -0.00873  -0.00874   1.61457
   A48        1.56776   0.00028   0.00000   0.00142   0.00137   1.56913
   A49        1.56858   0.00025   0.00000   0.00212   0.00209   1.57067
   A50        1.51800   0.00152   0.00000   0.00823   0.00823   1.52623
   A51        1.56791  -0.00020   0.00000  -0.00165  -0.00172   1.56620
   A52        1.51780   0.00132   0.00000   0.00586   0.00586   1.52366
   A53        1.56775   0.00028   0.00000   0.00113   0.00109   1.56884
   A54        1.51766   0.00155   0.00000   0.00825   0.00824   1.52590
   A55        1.51810   0.00140   0.00000   0.00637   0.00637   1.52447
   A56        3.14178   0.00042   0.00000   0.00236   0.00236   3.14413
   A57        3.24708  -0.00292   0.00000  -0.01460  -0.01461   3.23248
   A58        3.24773  -0.00286   0.00000  -0.01410  -0.01411   3.23362
   A59        3.14151  -0.00055   0.00000  -0.00322  -0.00322   3.13829
   A60        3.14194   0.00027   0.00000   0.00196   0.00195   3.14388
   A61        3.14195   0.00026   0.00000   0.00218   0.00218   3.14413
    D1        0.06966  -0.00022   0.00000  -0.08061  -0.08071  -0.01105
    D2       -3.11251  -0.00002   0.00000  -0.03231  -0.03221   3.13847
    D3       -3.07691  -0.00029   0.00000  -0.07754  -0.07763   3.12864
    D4        0.02410  -0.00009   0.00000  -0.02923  -0.02914  -0.00504
    D5        3.14115  -0.00010   0.00000   0.00293   0.00291  -3.13912
    D6       -0.00043  -0.00011   0.00000   0.00301   0.00300   0.00258
    D7        0.00468  -0.00003   0.00000  -0.00025  -0.00025   0.00443
    D8       -3.13690  -0.00004   0.00000  -0.00016  -0.00016  -3.13706
    D9       -3.13958   0.00008   0.00000  -0.00539  -0.00540   3.13821
   D10        0.00276   0.00007   0.00000  -0.00628  -0.00629  -0.00353
   D11       -0.00277   0.00001   0.00000  -0.00245  -0.00245  -0.00522
   D12        3.13957  -0.00001   0.00000  -0.00334  -0.00334   3.13623
   D13       -0.01840   0.00000   0.00000   0.02610   0.02600   0.00760
   D14        3.12315   0.00021   0.00000   0.02731   0.02722  -3.13282
   D15       -3.11965  -0.00024   0.00000  -0.02226  -0.02216   3.14138
   D16        0.02190  -0.00003   0.00000  -0.02104  -0.02094   0.00096
   D17       -3.13342  -0.00033   0.00000  -0.01703  -0.01703   3.13274
   D18        0.00813  -0.00012   0.00000  -0.01583  -0.01583  -0.00770
   D19        3.13817   0.00007   0.00000   0.00697   0.00697  -3.13804
   D20        1.02910  -0.00053   0.00000  -0.00044  -0.00045   1.02865
   D21       -1.03474   0.00055   0.00000   0.01162   0.01163  -1.02311
   D22       -3.13505  -0.00010   0.00000  -0.00993  -0.00994   3.13819
   D23        1.02867  -0.00022   0.00000  -0.01287  -0.01287   1.01580
   D24       -1.01654   0.00009   0.00000  -0.00547  -0.00547  -1.02201
   D25       -1.05987   0.00015   0.00000  -0.00190  -0.00190  -1.06177
   D26        3.10385   0.00002   0.00000  -0.00484  -0.00483   3.09902
   D27        1.05864   0.00033   0.00000   0.00257   0.00257   1.06121
   D28        1.07144  -0.00018   0.00000  -0.01483  -0.01483   1.05660
   D29       -1.04802  -0.00031   0.00000  -0.01777  -0.01777  -1.06579
   D30       -3.09323  -0.00000   0.00000  -0.01036  -0.01037  -3.10360
   D31       -1.04704  -0.00003   0.00000  -0.00259  -0.00259  -1.04964
   D32       -3.14033   0.00003   0.00000  -0.00130  -0.00130   3.14156
   D33        1.04997   0.00006   0.00000  -0.00077  -0.00077   1.04920
   D34        1.06020   0.00007   0.00000  -0.00065  -0.00065   1.05954
   D35       -1.03309   0.00013   0.00000   0.00064   0.00065  -1.03244
   D36       -3.12598   0.00015   0.00000   0.00117   0.00117  -3.12480
   D37        3.12994  -0.00018   0.00000  -0.00635  -0.00635   3.12359
   D38        1.03665  -0.00013   0.00000  -0.00505  -0.00506   1.03160
   D39       -1.05623  -0.00010   0.00000  -0.00453  -0.00453  -1.06076
   D40       -0.00311   0.00004   0.00000   0.00261   0.00260  -0.00050
   D41        3.13906   0.00006   0.00000   0.00276   0.00276  -3.14137
   D42        3.13848   0.00005   0.00000   0.00252   0.00251   3.14099
   D43       -0.00254   0.00007   0.00000   0.00267   0.00266   0.00012
   D44       -0.00052  -0.00001   0.00000  -0.00207  -0.00207  -0.00259
   D45       -3.14153  -0.00002   0.00000  -0.00087  -0.00086   3.14079
   D46        3.14049  -0.00004   0.00000  -0.00222  -0.00222   3.13827
   D47       -0.00052  -0.00004   0.00000  -0.00101  -0.00102  -0.00153
   D48        0.79482   0.00003   0.00000   0.00286   0.00285   0.79768
   D49        2.36538   0.00015   0.00000   0.00349   0.00349   2.36887
   D50       -0.77657  -0.00011   0.00000   0.00131   0.00131  -0.77526
   D51       -2.34711  -0.00025   0.00000   0.00090   0.00091  -2.34620
   D52       -2.34623   0.00005   0.00000   0.00300   0.00300  -2.34323
   D53       -0.77567   0.00017   0.00000   0.00364   0.00363  -0.77204
   D54        2.36556  -0.00009   0.00000   0.00145   0.00146   2.36702
   D55        0.79502  -0.00022   0.00000   0.00105   0.00105   0.79607
   D56        0.00264  -0.00002   0.00000  -0.00084  -0.00083   0.00180
   D57       -3.13976   0.00000   0.00000   0.00218   0.00218  -3.13758
   D58       -3.13953  -0.00001   0.00000  -0.00203  -0.00203  -3.14156
   D59        0.00126   0.00001   0.00000   0.00099   0.00099   0.00224
   D60       -0.00103   0.00002   0.00000   0.00306   0.00306   0.00203
   D61        3.13981   0.00003   0.00000   0.00396   0.00395  -3.13942
   D62        3.14137   0.00000   0.00000   0.00004   0.00005   3.14141
   D63       -0.00098   0.00002   0.00000   0.00094   0.00094  -0.00004
         Item               Value     Threshold  Converged?
 Maximum Force            0.012555     0.000450     NO 
 RMS     Force            0.001354     0.000300     NO 
 Maximum Displacement     0.187181     0.001800     NO 
 RMS     Displacement     0.048658     0.001200     NO 
 Predicted change in Energy=-4.473915D-04
 GradGradGradGradGradGradGradGradGradGradGradGradGradGradGradGradGradGrad

                          Input orientation:                          
 ---------------------------------------------------------------------
 Center     Atomic      Atomic             Coordinates (Angstroms)
 Number     Number       Type             X           Y           Z
 ---------------------------------------------------------------------
      1          6           0       -5.879507    1.254835    0.225515
      2          7           0       -4.610539    0.679051    0.163497
      3          6           0       -3.399963    1.327068    0.123685
      4          8           0       -3.232723    2.519603    0.143415
      5          8           0       -2.421738    0.416939    0.057235
      6          6           0       -1.082906    0.943636   -0.002840
      7          6           0       -0.130426   -0.228978   -0.077650
      8          6           0        1.314946    0.253013   -0.149158
      9          6           0       -6.093583    2.635775    0.269653
     10          6           0       -7.402224    3.083794    0.332819
     11          6           0       -8.510217    2.254192    0.354470
     12          6           0       -8.259190    0.889764    0.305462
     13          6           0       -6.973969    0.383390    0.240737
     14          1           0       -4.564407   -0.329825    0.138144
     15          1           0       -0.905488    1.553338    0.886216
     16          1           0       -0.999637    1.588498   -0.880831
     17          1           0       -0.374163   -0.831466   -0.957064
     18          1           0       -0.276335   -0.864781    0.799958
     19          1           0        1.483227    0.875888   -1.031428
     20          1           0        2.005327   -0.590201   -0.203224
     21          1           0        1.581597    0.843534    0.731063
[...]
 67679,0.00016881,0.00017736,0.00005529,0.00002544,-0.00002771,0.000295
 64,-0.00004954,-0.00002862,-0.00005320,0.00003194,0.00001555,-0.000060
 26,0.00000605,-0.00005383,-0.00002724,-0.00000850,0.00005847,-0.000026
 41,0.00002504,0.00002213,-0.00002632,-0.00000766,0.00000306,0.00000633
 ,-0.00002384,-0.00002788,-0.00002414,0.00031447,-0.00016823,0.00035890
 ,0.00017264,0.00017778,0.00007560,0.00001323,0.00000442,-0.00002785,-0
 .00089465,0.00086938,0.58356996,-0.00000023,-0.00003178,-0.00005399,0.
 00063615,-0.00000741,-0.00004933,-0.00033948,-0.00044103,0.00000074,-0
 .00011760,0.00028015,0.00000979,0.00009131,0.00002019,-0.00000008,-0.0
 0002647,-0.00000543,0.00000256,0.00000341,0.00000505,0.00000013,0.0000
 0053,-0.00000319,-0.00000029,-0.00083512,-0.00381055,0.00018500,-0.015
 51175,0.00847277,0.00094213,-0.31949221,0.09915875,0.01484233,0.000455
 18,-0.00066165,0.00006970,0.00117257,-0.00031448,0.00017956,-0.0000075
 3,0.00002563,0.00000533,0.00000635,-0.00000012,0.00000056,0.00000591,0
 .00000049,-0.00000184,-0.00000091,0.00000015,0.,-0.00000099,0.00000025
 ,0.00000007,-0.00000008,0.00000056,-0.00000019,0.00000183,-0.00000037,
 -0.00000009,-0.00000012,0.00000042,0.00000011,-0.00038603,0.00058112,0
 .00006454,0.00071479,-0.00083324,-0.00019524,0.00018715,-0.00007214,0.
 00000056,-0.00339615,-0.00064427,0.00014623,0.33419800,-0.00038564,-0.
 00134242,0.00001384,-0.00005982,0.00031111,0.00002097,0.00012760,-0.00
 023176,-0.00000598,-0.00018103,0.00016270,0.00001581,-0.00010061,0.000
 09726,0.00000413,0.00004477,0.00001045,-0.00000308,-0.00000081,-0.0000
 0477,-0.00000014,-0.00000039,0.00000454,0.00000021,-0.00326740,-0.0029
 1677,-0.00009937,-0.01737004,0.01148208,0.00103437,0.09876410,-0.09361
 190,-0.00594762,0.02814431,-0.00673918,-0.00145602,-0.00030537,-0.0052
 1955,-0.00029354,-0.00011747,-0.00001932,-0.00000051,-0.00000269,-0.00
 000179,0.00000104,-0.00000255,-0.00000216,-0.00000035,-0.00000020,0.00
 000087,0.00000019,-0.00000015,0.00000077,-0.00000010,0.00000026,-0.000
 00069,0.00000045,-0.00000246,0.00000035,0.00000012,0.00000026,-0.00000
 061,-0.00000045,-0.00071856,0.00064175,0.00001635,0.00086284,0.0004155
 7,0.00019864,0.00134523,-0.00020175,-0.00006709,-0.00458433,-0.0006548
 3,0.00021473,-0.10466345,0.10034440,-0.00005244,0.00001113,-0.00122268
 ,-0.00005988,0.00001300,-0.00047090,0.00001624,0.00001502,-0.00010298,
 -0.00000968,-0.00000531,-0.00007887,-0.00000383,0.00000152,0.00008666,
 0.00000438,0.00000017,0.00002666,-0.00000006,-0.00000043,0.00000229,-0
 .00000009,0.00000033,-0.00000090,0.00018995,-0.00006929,0.00582710,0.0
 0019882,-0.00003945,0.00101955,0.01476005,-0.00594333,-0.03295809,0.00
 090249,-0.00026701,0.00267322,0.00016491,-0.00030768,0.00553215,0.0000
 0024,-0.00000225,0.00007958,0.00000314,-0.00000647,-0.00000567,-0.0000
 0451,0.00000645,-0.00000510,0.00000048,-0.00000216,-0.00000133,-0.0000
 0061,0.00000225,-0.00000126,0.00000101,0.00000090,-0.00000083,-0.00000
 019,0.00000003,0.00000046,-0.00000101,-0.00000101,-0.00000080,0.000035
 41,-0.00003167,0.00085096,-0.00011344,0.00029759,-0.00267379,0.0000408
 2,-0.00001097,0.00023925,-0.00000012,-0.00001762,0.00024732,-0.0159379
 4,0.00661518,0.02383919,0.00046879,0.00034448,-0.00071489,0.00124710,-
 0.00004038,-0.00021372,-0.00117220,-0.00178727,0.00011209,0.00023720,0
 .00118353,-0.00021911,0.00025841,0.00026047,-0.00001946,-0.00006950,-0
 .00009783,0.00004735,0.00002946,0.00000728,-0.00000364,-0.00000610,-0.
 00000450,0.00000771,-0.00196283,-0.00084373,-0.00111146,-0.00657406,0.
 00442607,0.00927275,0.00248018,-0.00267492,0.00049803,-0.00033024,0.00
 038188,-0.00057915,0.00024128,-0.00020282,0.00012837,0.00004836,-0.000
 00334,0.00006309,0.00002149,-0.00000814,0.00001436,0.00003216,-0.00000
 253,-0.00003357,-0.00000426,-0.00000127,0.00000823,-0.00000672,0.00001
 493,-0.00001400,0.00001139,-0.00000053,-0.00001397,-0.00000321,0.00001
 071,0.00000065,0.00000493,-0.00000612,0.00000646,0.00121849,0.00021123
 ,0.00078060,-0.00012797,-0.00046771,-0.00007526,0.00012929,0.00001122,
 0.00009102,-0.11003686,-0.02297160,0.06027323,0.00028898,0.00059855,0.
 00017622,0.16641419,-0.00196282,0.00261733,-0.00020404,0.00234133,-0.0
 0027492,-0.00013797,-0.00251719,-0.00098632,0.00014730,0.00085496,0.00
 075213,-0.00008025,0.00127423,-0.00027359,-0.00008023,-0.00051277,-0.0
 0018015,0.00003530,0.00004254,0.00006349,-0.00000168,-0.00000128,-0.00
 005165,0.00000141,0.00079729,-0.00532068,0.00264163,-0.02114178,-0.008
 34084,0.01942417,0.00482121,-0.00284415,0.00211035,0.00059695,-0.00065
 940,-0.00163193,-0.00100156,-0.00104176,0.00037041,0.00003566,0.000108
 15,0.00000010,0.00005158,0.00002002,0.00000526,0.00005507,0.00001977,-
 0.00001637,-0.00000776,-0.00000420,0.00000950,-0.00001048,0.00000100,-
 0.00001019,0.00000296,0.00000873,-0.00001350,0.00002795,-0.00000016,-0
 .00000129,0.00000236,0.00000617,0.00001078,-0.00079759,-0.00201779,0.0
 0050161,-0.00085149,-0.00113677,-0.00012463,-0.00001572,-0.00006132,-0
 .00001251,-0.02231822,-0.07676103,0.02865442,0.00005838,0.00014587,0.0
 0043343,0.01584526,0.09273610,0.00057932,-0.00060043,0.00018548,-0.001
 33406,0.00018943,0.00027765,0.00141082,0.00101127,-0.00027873,-0.00043
 944,-0.00073693,0.00039126,-0.00059658,0.00003487,0.00006624,0.0002171
 8,0.00010121,-0.00011114,-0.00002639,-0.00002955,0.00000022,0.00000280
 ,0.00001999,-0.00001083,-0.00016038,0.00269871,0.00038128,0.01536705,-
 0.00457542,-0.00650834,-0.00361545,0.00494221,-0.00057162,0.00092778,-
 0.00041186,0.00044098,-0.00022178,0.00042419,-0.00004174,-0.00006420,-
 0.00002936,-0.00010390,-0.00001930,-0.00000178,0.00000833,-0.00004175,
 -0.00001339,0.00002712,0.00000293,0.00001455,-0.00000038,0.00000760,-0
 .00001695,0.00001376,-0.00001088,-0.00000785,0.00001445,-0.00000886,-0
 .00000440,-0.00000066,0.00000228,0.00000520,-0.00000013,0.00007802,0.0
 0114087,-0.00119456,0.00043626,0.00088911,0.00011768,-0.00005419,0.000
 04644,-0.00007210,0.05987313,0.02861146,-0.12836786,-0.00013730,-0.000
 32798,-0.00034852,-0.09854983,-0.02271260,0.18817503,-0.00031797,-0.00
 042336,0.00087432,-0.00051082,0.00073259,0.00028853,0.00127828,-0.0005
 2830,-0.00011149,-0.00058970,0.00032842,0.00004147,-0.00094751,0.00045
 007,0.00007217,0.00038823,0.00009237,-0.00003039,-0.00002315,-0.000052
 10,-0.00000500,-0.00000684,0.00004388,0.00000126,0.00247837,0.00480954
 ,-0.00135263,-0.01415168,-0.00662007,-0.01410916,-0.00268522,0.0021186
 2,0.00044034,0.00029346,-0.00064499,0.00091619,-0.00021261,0.00060680,
 -0.00023134,-0.00015083,-0.00006330,-0.00000638,-0.00002647,-0.0000222
 6,0.00001471,-0.00003017,-0.00002576,-0.00000480,0.00000252,0.00001070
 ,0.00000425,0.00000336,0.00000563,-0.00000160,0.00000366,-0.00001276,0
 .00000002,-0.00002910,0.00001020,0.00000080,0.00000598,-0.00000868,0.0
 0000236,0.00074056,-0.00054100,-0.00040355,0.00076467,0.00081298,0.000
 05077,0.00010452,0.00004238,-0.00011554,-0.13014771,0.00923873,-0.0634
 5796,0.00089267,0.00049979,-0.00089104,-0.04309604,-0.00399747,-0.0085
 6768,0.18531734,-0.00101569,-0.00073107,-0.00104498,0.00200865,-0.0003
 7005,-0.00031063,-0.00215174,-0.00082038,0.00013251,0.00066901,0.00059
 488,-0.00005997,0.00110883,-0.00026447,-0.00004557,-0.00044339,-0.0001
 4709,0.00002919,0.00003524,0.00005581,-0.00000132,-0.00000010,-0.00004
 437,-0.00000024,-0.00284796,-0.00281341,0.00188083,0.02141061,-0.00320
 403,0.01370103,0.00033804,-0.00526486,0.00279769,0.00072309,0.00255122
 ,0.00013845,0.00174128,-0.00061448,0.00014415,0.00008212,0.00009796,-0
 .00002380,0.00004550,0.00001816,0.00000283,0.00004576,0.00001906,-0.00
 001112,-0.00000663,-0.00000342,0.00000717,-0.00000730,-0.00000228,-0.0
 0000629,0.00000031,0.00000851,-0.00000864,0.00002614,-0.00000261,-0.00
 000133,0.00000074,0.00000721,0.00000760,-0.00015131,-0.00007893,0.0004
 1062,-0.00056677,-0.00058066,0.00003275,0.00007548,-0.00003457,-0.0000
 7809,0.00845519,-0.06630175,0.00708822,0.00124778,-0.00140416,-0.00003
 437,-0.01181964,0.00564992,-0.00111777,0.01082672,0.09113478,-0.000811
 15,-0.00067682,0.00022967,-0.00061255,0.00064606,0.00025797,0.00104906
 ,0.00000325,-0.00014628,-0.00041612,-0.00003640,0.00016471,-0.00065431
 ,0.00023083,0.00007662,0.00025614,0.00008150,-0.00007427,-0.00001832,-
 0.00003671,-0.00000552,-0.00000270,0.00002867,-0.00000261,0.00149798,0
 .00525673,-0.00057558,-0.01288529,-0.00868398,-0.00407495,-0.00053079,
 0.00264232,0.00032285,-0.00026266,-0.00046033,0.00027238,0.00002285,0.
 00045002,-0.00005976,-0.00014236,-0.00004573,-0.00003559,-0.00001882,-
 0.00001070,0.00001293,-0.00002861,-0.00001908,0.00000697,0.00000212,0.
 00001306,0.00000394,0.00000410,-0.00000400,0.00000482,-0.00000177,-0.0
 0001030,0.00000517,-0.00001745,0.00000377,-0.00000047,0.00000521,-0.00
 000132,0.00000256,0.00038523,-0.00020335,-0.00038828,0.00046972,0.0005
 4421,0.00002386,0.00002475,0.00005869,-0.00006454,-0.06334793,0.007075
 67,-0.11409148,-0.00026563,0.00079406,-0.00089383,0.01317535,0.0019137
 9,0.00783001,0.09852722,0.00939068,0.16738376,0.00052961,0.00044006,0.
 00067386,0.00139248,-0.00006269,0.00010282,-0.00129713,-0.00192707,-0.
 00009183,0.00028848,0.00125124,0.00027609,0.00029117,0.00027315,0.0000
 0692,-0.00008449,-0.00010451,-0.00005810,0.00003237,0.00000827,-0.0000
 0006,-0.00000699,-0.00000496,-0.00000627,-0.00192933,-0.00111607,0.001
 34400,-0.00910458,0.00540752,-0.00877540,0.00280547,-0.00314204,-0.000
 99651,-0.00038121,0.00036010,0.00066332,0.00022413,-0.00023137,-0.0001
 6084,0.00004717,0.00000106,-0.00007946,0.00003967,-0.00000157,0.000035
 01,0.00002062,-0.00000851,-0.00001493,-0.00000576,0.00001639,0.0000165
 9,-0.00000506,-0.00000210,-0.00000819,0.00000433,-0.00000716,-0.000006
 82,-0.00000329,0.00001158,0.00000012,0.00001400,0.00000016,0.00001433,
 0.00104495,0.00038338,-0.00089933,-0.00015362,-0.00055216,0.00007129,0
 .00013063,0.00001708,-0.00009694,-0.12254388,-0.02277004,-0.06207495,0
 .00029110,0.00064213,-0.00018458,0.00635418,-0.00027744,0.00747055,-0.
 00107933,0.00045405,-0.00460743,0.18689431,-0.00193630,0.00255065,0.00
 043569,0.00227681,-0.00026225,-0.00011006,-0.00244654,-0.00095562,0.00
 005307,0.00083532,0.00072909,0.00001674,0.00123632,-0.00026521,-0.0000
 5115,-0.00049811,-0.00017382,0.00001415,0.00004128,0.00006145,0.000000
 26,-0.00000146,-0.00005011,-0.00000443,0.00069671,-0.00510340,-0.00297
 781,-0.02223549,-0.00748317,-0.01728354,0.00445589,-0.00256987,-0.0026
 2395,0.00072021,-0.00075503,0.00147754,-0.00101740,-0.00099847,-0.0003
 1938,0.00003443,0.00010563,0.00000053,0.00005417,0.00001852,0.00000869
 ,0.00004936,0.00002012,-0.00001180,-0.00000869,0.00000081,0.00001123,-
 0.00000879,-0.00000394,-0.00000808,0.00000114,0.00000675,-0.00001088,0
 .00002718,-0.00000019,-0.00000148,0.00000399,0.00000778,0.00001256,-0.
 00073924,-0.00203820,-0.00042779,-0.00081822,-0.00110573,0.00012672,-0
 .00001733,-0.00006233,0.00003201,-0.02196552,-0.07423955,-0.02358104,0
 .00001778,0.00015440,-0.00039952,0.00070534,0.00820289,0.00550908,-0.0
 0312288,0.00796603,-0.00172068,0.01261949,0.09120706,-0.00070654,0.000
 70213,0.00019518,0.00135211,-0.00019678,0.00012243,-0.00142684,-0.0009
 1951,-0.00018199,0.00048797,0.00065591,0.00035762,0.00061585,-0.000061
 84,0.00000609,-0.00023489,-0.00009525,-0.00008769,0.00002552,0.0000302
 8,-0.00000184,-0.00000305,-0.00002084,-0.00001058,0.00047081,-0.002818
 70,0.00004528,-0.01621723,0.00406687,-0.00473566,0.00351809,-0.0047721
 5,-0.00117527,-0.00084426,0.00031677,0.00051972,0.00015762,-0.00044727
 ,-0.00007267,0.00005070,0.00003777,-0.00010394,0.00004341,0.00001440,0
 .00002162,0.00001963,0.00000331,0.00000685,-0.00000567,0.00001556,0.00
 001427,-0.00000272,-0.00001450,-0.00000017,-0.00000270,-0.00000442,0.0
 0000024,0.00000988,0.00000359,-0.00000141,0.00001127,0.00000803,0.0000
 1284,-0.00032439,-0.00122005,-0.00116537,-0.00044275,-0.00089479,0.000
 10285,0.00003875,-0.00004385,-0.00005641,-0.06163421,-0.02365221,-0.11
 833583,0.00008426,0.00029327,-0.00032700,-0.01261927,-0.00287269,-0.04
 432313,-0.00510971,0.00079161,-0.00140738,0.09938378,0.01644591,0.1697
 9213,-0.00027356,-0.00030326,-0.00084676,-0.00048025,0.00067402,-0.000
 16456,0.00118401,-0.00052733,-0.00003730,-0.00054840,0.00032900,0.0000
 4343,-0.00088734,0.00042992,0.00003666,0.00036477,0.00008459,-0.000014
 94,-0.00002113,-0.00004869,0.00000316,-0.00000651,0.00004124,0.0000040
 6,0.00240132,0.00412022,0.00130540,-0.01116606,-0.00641916,0.01447063,
 -0.00256825,0.00188062,-0.00004824,0.00018619,-0.00051165,-0.00094416,
 -0.00018385,0.00054636,0.00025630,-0.00013470,-0.00006046,0.00002088,-
 0.00002590,-0.00002364,0.00001060,-0.00002642,-0.00002162,-0.00000825,
 0.00000272,0.00000526,0.00000121,0.00000229,0.00001022,-0.00000451,0.0
 0000555,-0.00000916,-0.00000250,-0.00002746,0.00000982,0.00000244,0.00
 000366,-0.00001119,0.00000015,0.00071799,-0.00053528,0.00024350,0.0007
 0988,0.00076238,-0.00006105,0.00010633,0.00003079,0.00009333,-0.116869
 24,0.00510597,0.06375360,0.00100267,0.00052380,0.00077522,-0.00012930,
 -0.00313519,0.00485154,0.00667283,-0.00029597,-0.01336566,-0.04314147,
 -0.00477118,0.01341804,0.16494199,-0.00096115,-0.00085741,0.00104419,0
 .00193257,-0.00033597,0.00008969,-0.00205169,-0.00080530,0.00003259,0.
 00063809,0.00058189,0.00001384,0.00104477,-0.00024226,-0.00006816,-0.0
 0041936,-0.00014022,0.00001595,0.00003378,0.00005244,0.00000077,-0.000
 00054,-0.00004160,-0.00000355,-0.00291749,-0.00235486,-0.00173176,0.01
 928342,-0.00297653,-0.01561034,0.00008069,-0.00469563,-0.00298955,0.00
 063970,0.00250000,-0.00005659,0.00171896,-0.00056555,-0.00030393,0.000
 07646,0.00009202,0.00001792,0.00004406,0.00001719,0.00000499,0.0000428
 0,0.00001748,-0.00000919,-0.00000592,-0.00000177,0.00000730,-0.0000073
 7,-0.00000316,-0.00000610,0.00000009,0.00000730,-0.00000768,0.00002441
 ,-0.00000212,-0.00000131,0.00000145,0.00000725,0.00000825,-0.00016475,
 -0.00006891,-0.00037127,-0.00053017,-0.00053595,-0.00001726,0.00007795
 ,-0.00003355,0.00008418,0.00445370,-0.06527624,-0.00544541,0.00133463,
 -0.00171552,-0.00026434,0.00013773,0.00786342,-0.00030765,-0.00076337,
 0.00786397,0.00236167,-0.01113231,0.00563367,0.00222223,0.01456406,0.0
 9205805,0.00078143,0.00062931,0.00031578,0.00081789,-0.00074815,0.0001
 8888,-0.00131524,0.00000958,-0.00004059,0.00052777,0.00002732,0.000114
 57,0.00082040,-0.00029791,-0.00000287,-0.00032803,-0.00009654,-0.00004
 621,0.00002211,0.00004505,-0.00000618,0.00000315,-0.00003563,-0.000006
 13,-0.00196858,-0.00577202,-0.00095079,0.01464056,0.00945182,-0.007175
 23,0.00081551,-0.00312868,-0.00003129,0.00029422,0.00065139,0.00034877
 ,0.00011042,-0.00051880,-0.00010285,0.00015604,0.00006102,-0.00005258,
 0.00003415,0.00002293,0.00000239,0.00002576,0.00001438,0.00000982,-0.0
 0000384,0.00000357,0.00000595,-0.00000247,-0.00001484,0.00000434,-0.00
 000590,0.00000315,0.00000282,0.00002205,-0.00000507,-0.00000279,0.0000
 0191,0.00001174,0.00000549,-0.00050449,0.00027813,-0.00037639,-0.00056
 963,-0.00066328,0.00003695,-0.00003452,-0.00005939,-0.00006460,0.06373
 559,-0.00530428,-0.12723100,0.00011641,-0.00102121,-0.00114796,0.00451
 737,0.00252732,-0.00229182,0.00811552,0.00045044,-0.04465485,-0.008734
 10,-0.00158347,0.00779237,-0.09724388,-0.01459419,0.18574100,0.0002822
 3,-0.00038025,0.00000292,0.00015757,0.00010703,0.00000312,0.00001714,-
 0.00067176,-0.00002409,-0.00007168,0.00044668,0.00002106,-0.00019859,0
 .00021704,0.00001433,0.00009465,0.00000274,-0.00000774,0.00000197,-0.0
 0001293,-0.00000076,-0.00000386,0.00001175,0.00000114,-0.00026816,-0.0
 0071566,0.00000238,0.00314172,0.00043610,-0.00002060,-0.00062794,0.000
 70792,0.00003637,-0.00003507,0.00027510,0.00003431,0.00024545,0.000085
 71,-0.00003614,-0.00000136,-0.00002647,-0.00000259,0.00000123,-0.00000
 743,0.00000964,-0.00000056,-0.00000781,-0.00000756,-0.00000082,0.00000
 439,0.00000442,-0.00000105,0.00000424,-0.00000420,0.00000387,-0.000004
 77,-0.00000326,-0.00000998,0.00000679,0.00000064,0.00000434,-0.0000042
 1,0.00000324,0.00032906,-0.00026346,-0.00004719,0.00021929,0.00017844,
 -0.00000356,0.00004188,0.00001461,-0.00000392,-0.06154166,0.01889641,0
 .00072219,0.00016606,0.00020931,-0.00000997,-0.01596657,0.03174105,0.0
 2262081,-0.00494129,-0.02998805,-0.01743019,-0.02066851,0.03581175,-0.
 02011344,-0.00181235,-0.02717522,0.01515240,0.10144300,-0.00123277,0.0
 0054999,0.00003571,0.00156342,-0.00025030,-0.00008340,-0.00170682,-0.0
 0010142,0.00008130,0.00061807,0.00013521,-0.00003063,0.00103905,-0.000
 35921,-0.00005707,-0.00044218,-0.00013015,0.00002212,0.00002630,0.0000
 5194,0.00000023,0.00000118,-0.00004669,-0.00000234,-0.00027855,-0.0005
 9130,-0.00000404,0.00052413,0.00057507,-0.00007212,0.00022522,-0.00034
 878,0.00000005,0.00055832,0.00088660,-0.00002038,0.00030931,-0.0003831
 9,-0.00000010,0.00002587,0.00008401,-0.00000006,0.00003483,0.00001872,
 0.00000055,0.00003494,0.00001932,-0.00000650,-0.00000459,-0.00000315,0
 .00000521,-0.00000557,-0.00000362,-0.00000414,-0.00000188,0.00000872,-
 0.00000884,0.00002772,-0.00000545,-0.00000152,-0.00000082,0.00000794,0
 .00000876,-0.00042597,0.00014485,0.00004541,-0.00046785,-0.00054820,0.
 00000721,0.00000865,-0.00004822,0.00000454,0.01918362,-0.17814851,-0.0
 0389711,0.00028503,0.00029506,0.00000590,0.01679364,-0.01824026,-0.014
 74464,-0.01380312,-0.03328491,-0.01958559,0.01945435,-0.02059795,0.012
 42718,-0.01244449,-0.03604214,0.01965631,-0.02989906,0.28635603,-0.000
 02343,0.00003105,0.00046301,0.00004012,-0.00001483,0.00001935,-0.00005
 795,0.00003519,-0.00019630,0.00002828,-0.00002515,0.00017478,0.0000402
 1,-0.00002264,0.00001802,-0.00001838,-0.00000286,-0.00002837,0.0000006
 5,0.00000201,-0.00000008,0.00000004,-0.00000184,-0.00000557,0.00001071
 ,0.00000417,0.00003853,-0.00003542,-0.00005968,0.00235521,0.00002205,-
 0.00004012,-0.00022636,0.00004266,-0.00000743,0.00046279,-0.00002551,0
 .00000062,-0.00047950,-0.00000093,0.00000504,-0.00002718,0.00000626,0.
 00000324,0.00000624,-0.00000368,-0.00000116,0.00000724,-0.00000034,0.0
 0000620,0.00000319,0.00000065,-0.00000692,0.00000325,-0.00000310,-0.00
 000248,0.00000327,0.00000134,-0.00000057,-0.00000079,0.00000275,0.0000
 0349,0.00000308,-0.00004302,0.00002668,-0.00023801,-0.00002432,-0.0000
 2315,-0.00002344,-0.00000226,-0.00000077,-0.00003246,0.00073301,-0.003
 83314,-0.05766820,-0.00000809,0.00000003,-0.00018389,0.02499445,-0.030
 88690,-0.01370403,-0.01495165,-0.03426166,-0.01012285,-0.02326296,0.02
 697087,-0.00700316,0.01345163,0.03588471,-0.01038497,-0.00091379,0.006
 21799,0.09676722\\0.00000089,-0.00000151,0.00000231,-0.00000094,-0.000
 00009,0.00000464,0.00000171,-0.00000122,-0.00000122,0.00000076,0.00000
 251,-0.00000200,0.00000078,0.00000273,-0.00000028,0.00000177,0.0000037
 4,-0.00000208,0.00000225,0.00000426,-0.00000185,0.00000110,0.00000620,
 -0.00000335,-0.00000148,-0.00000074,0.00000027,-0.00000149,-0.00000396
 ,0.00000112,-0.00000090,-0.00000384,0.00000374,0.00000184,-0.00000418,
 0.00000664,0.00000135,-0.00000304,0.00000529,0.00000248,-0.00000064,0.
 00000304,0.00000080,0.00000520,-0.00000342,-0.00000089,0.00000173,-0.0
 0000339,0.00000141,0.00000267,0.00000047,0.00000367,0.00000579,0.00000
 011,-0.00000020,0.00000443,-0.00000511,0.00000210,0.00000655,-0.000003
 08,0.00000181,0.00000752,-0.00000536,-0.00000188,-0.00000080,-0.000002
 36,0.00000234,-0.00000558,0.00000900,0.00000286,-0.00000279,0.00000685
 ,-0.00000334,-0.00000571,-0.00000208,-0.00000083,-0.00000537,0.0000043
 1,-0.00000461,-0.00000372,-0.00000390,-0.00000463,-0.00000611,-0.00000
 059,-0.00000178,0.00000048,-0.00000326,-0.00000187,-0.00000178,-0.0000
 0003,-0.00000507,-0.00000272,-0.00000444\\\@


 IT TAKES GREATER CHARACTER TO CARRY OFF GOOD FORTUNE THAN BAD.
                     FRENCH PROVERB.
 Job cpu time:       0 days  4 hours 45 minutes 10.5 seconds.
 Elapsed time:       0 days  4 hours 45 minutes 10.7 seconds.
 File lengths (MBytes):  RWF=    894 Int=      0 D2E=      0 Chk=     30 Scr=      1
 Normal termination of Gaussian 16 at Sat Sep  5 02:50:14 2020.
