 Entering Gaussian System, Link 0=/apps/gaussian/g09e01/g09/g09
 Initial command:
 /apps/gaussian/g09e01/g09/l1.exe "/jobfs/local/3588740.r-man2/Gau-42305.inp" -scrdir="/jobfs/local/3588740.r-man2/"
 Entering Link 1 = /apps/gaussian/g09e01/g09/l1.exe PID=     42306.
  
 Copyright (c) 1988,1990,1992,1993,1995,1998,2003,2009,2015,
            Gaussian, Inc.  All Rights Reserved.
  
 This is part of the Gaussian(R) 09 program.  It is based on
 the Gaussian(R) 03 system (copyright 2003, Gaussian, Inc.),
 the Gaussian(R) 98 system (copyright 1998, Gaussian, Inc.),
 the Gaussian(R) 94 system (copyright 1995, Gaussian, Inc.),
 the Gaussian 92(TM) system (copyright 1992, Gaussian, Inc.),
 the Gaussian 90(TM) system (copyright 1990, Gaussian, Inc.),
 the Gaussian 88(TM) system (copyright 1988, Gaussian, Inc.),
 the Gaussian 86(TM) system (copyright 1986, Carnegie Mellon
 University), and the Gaussian 82(TM) system (copyright 1983,
 Carnegie Mellon University). Gaussian is a federally registered
 trademark of Gaussian, Inc.
  
 This software contains proprietary and confidential information,
 including trade secrets, belonging to Gaussian, Inc.
  
 This software is provided under written license and may be
 used, copied, transmitted, or stored only in accord with that
 written license.
  
 The following legend is applicable only to US Government
 contracts under FAR:
  
                    RESTRICTED RIGHTS LEGEND
  
 Use, reproduction and disclosure by the US Government is
 subject to restrictions as set forth in subparagraphs (a)
 and (c) of the Commercial Computer Software - Restricted
 Rights clause in FAR 52.227-19.
  
 Gaussian, Inc.
 340 Quinnipiac St., Bldg. 40, Wallingford CT 06492
  
  
 ---------------------------------------------------------------
 Warning -- This program may not be used in any manner that
 competes with the business of Gaussian, Inc. or will provide
 assistance to any competitor of Gaussian, Inc.  The licensee
 of this program is prohibited from giving any competitor of
 Gaussian, Inc. access to this program.  By using this program,
 the user acknowledges that Gaussian, Inc. is engaged in the
 business of creating and licensing software in the field of
 computational chemistry and represents and warrants to the
 licensee that it is not a competitor of Gaussian, Inc. and that
 it will not use this program in any manner prohibited above.
 ---------------------------------------------------------------
  

 Cite this work as:
 Gaussian 09, Revision E.01,
 M. J. Frisch, G. W. Trucks, H. B. Schlegel, G. E. Scuseria, 
 M. A. Robb, J. R. Cheeseman, G. Scalmani, V. Barone, B. Mennucci, 
 G. A. Petersson, H. Nakatsuji, M. Caricato, X. Li, H. P. Hratchian, 
 A. F. Izmaylov, J. Bloino, G. Zheng, J. L. Sonnenberg, M. Hada, 
 M. Ehara, K. Toyota, R. Fukuda, J. Hasegawa, M. Ishida, T. Nakajima, 
 Y. Honda, O. Kitao, H. Nakai, T. Vreven, J. A. Montgomery, Jr., 
 J. E. Peralta, F. Ogliaro, M. Bearpark, J. J. Heyd, E. Brothers, 
 K. N. Kudin, V. N. Staroverov, T. Keith, R. Kobayashi, J. Normand, 
 K. Raghavachari, A. Rendell, J. C. Burant, S. S. Iyengar, J. Tomasi, 
 M. Cossi, N. Rega, J. M. Millam, M. Klene, J. E. Knox, J. B. Cross, 
 V. Bakken, C. Adamo, J. Jaramillo, R. Gomperts, R. E. Stratmann, 
 O. Yazyev, A. J. Austin, R. Cammi, C. Pomelli, J. W. Ochterski, 
 R. L. Martin, K. Morokuma, V. G. Zakrzewski, G. A. Voth, 
 P. Salvador, J. J. Dannenberg, S. Dapprich, A. D. Daniels, 
 O. Farkas, J. B. Foresman, J. V. Ortiz, J. Cioslowski, 
 and D. J. Fox, Gaussian, Inc., Wallingford CT, 2013.
 
 ******************************************
 Gaussian 09:  ES64L-G09RevE.01 30-Nov-2015
                14-Nov-2019 
 ******************************************
 %chk=CP22CA.M062X_6-311pGd_opt_water_GD3.chk
 %mem=196608000
 %nproc=4
 Will use up to    4 processors via shared memory.
 ----------------------------------------------------------------------
 # M062X/6-311+G* SCF=Tight INT(grid=ultrafine) OPT IOP(2/17=4) Empiric
 alDispersion=GD3 SCRF=(SMD,Solvent=h2o) maxdisk=2684354560
 ----------------------------------------------------------------------
 1/14=-1,18=20,19=15,26=4,38=1/1,3;
 2/9=110,12=2,17=4,18=5,40=1/2;
 3/5=4,6=6,7=11,11=2,16=1,25=1,30=1,70=32201,71=1,72=1,74=-55,75=-5,124=31/1,2,3;
 4//1;
 5/5=2,32=2,38=5,53=1/2;
 6/7=2,8=2,9=2,10=2,28=1/1;
 7//1,2,3,16;
 1/14=-1,18=20,19=15,26=4/3(2);
 2/9=110,17=4/2;
 99//99;
 2/9=110,17=4/2;
 3/5=4,6=6,7=11,11=2,16=1,25=1,30=1,70=32205,71=1,72=1,74=-55,75=-5,124=31/1,2,3;
 4/5=5,16=3,69=1/1;
 5/5=2,32=2,38=5,53=1/2;
 7//1,2,3,16;
 1/14=-1,18=20,19=15,26=4/3(-5);
 2/9=110,17=4/2;
 6/7=2,8=2,9=2,10=2,19=2,28=1/1;
 99/9=1/99;
 -----------------------------------
 CP22CA.M062X_6-311pGd_opt_water_GD3
 -----------------------------------
 Symbolic Z-matrix:
 Charge =  0 Multiplicity = 1
 C                    -5.88335   1.25306   0.19289 
 N                    -4.61865   0.67138   0.09303 
 C                    -3.41091   1.30818   0.09111 
 O                    -3.23992   2.50855   0.15965 
 O                    -2.42529   0.41093   0.00177 
 C                    -1.08196   0.9425   -0.00068 
 C                    -0.12836  -0.22578  -0.10259 
 C                     1.3154    0.2648   -0.10108 
 C                    -6.09718   2.63295   0.22883 
 C                    -7.40458   3.07988   0.32922 
 C                    -8.51296   2.25406   0.39279 
 C                    -8.25664   0.88943   0.34962 
 C                    -6.97546   0.38037   0.25243 
 H                    -4.58658  -0.34037   0.04926 
 H                    -0.93021   1.5049    0.92283 
 H                    -0.9783    1.62097  -0.8498 
 H                    -0.3395   -0.78219  -1.01978 
 H                    -0.29997  -0.90255   0.73887 
 H                     1.50534   0.93376  -0.94419 
 H                     2.01076  -0.57276  -0.17569 
 H                     1.545     0.8097    0.81804 
 H                    -5.26861   3.32091   0.1797 
 Cl                   -9.59883  -0.21745   0.42183 
 H                    -6.81263  -0.69122   0.22283 
 S                    -7.67319   4.86794   0.37925 
 H                    -9.52404   2.63048   0.47092 
 F                    -6.65204   5.14216  -0.84363 
 F                    -8.90218   4.79914  -0.66892 
 F                    -6.47026   5.10617   1.43242 
 F                    -8.72025   4.76215   1.60669 
 F                    -7.91374   6.46721   0.42414 
 

 GradGradGradGradGradGradGradGradGradGradGradGradGradGradGradGradGradGrad
 Berny optimization.
 Initialization pass.
                           ----------------------------
                           !    Initial Parameters    !
                           ! (Angstroms and Degrees)  !
 --------------------------                            --------------------------
 ! Name  Definition              Value          Derivative Info.                !
 --------------------------------------------------------------------------------
 ! R1    R(1,2)                  1.3956         estimate D2E/DX2                !
 ! R2    R(1,9)                  1.3968         estimate D2E/DX2                !
 ! R3    R(1,13)                 1.3992         estimate D2E/DX2                !
 ! R4    R(2,3)                  1.3653         estimate D2E/DX2                !
 ! R5    R(2,14)                 1.0132         estimate D2E/DX2                !
 ! R6    R(3,4)                  1.2144         estimate D2E/DX2                !
 ! R7    R(3,5)                  1.3358         estimate D2E/DX2                !
 ! R8    R(5,6)                  1.4447         estimate D2E/DX2                !
 ! R9    R(6,7)                  1.5115         estimate D2E/DX2                !
 ! R10   R(6,15)                 1.0919         estimate D2E/DX2                !
 ! R11   R(6,16)                 1.0918         estimate D2E/DX2                !
 ! R12   R(7,8)                  1.5248         estimate D2E/DX2                !
 ! R13   R(7,17)                 1.0934         estimate D2E/DX2                !
 ! R14   R(7,18)                 1.0934         estimate D2E/DX2                !
 ! R15   R(8,19)                 1.0929         estimate D2E/DX2                !
 ! R16   R(8,20)                 1.0911         estimate D2E/DX2                !
 ! R17   R(8,21)                 1.0929         estimate D2E/DX2                !
 ! R18   R(9,10)                 1.3853         estimate D2E/DX2                !
 ! R19   R(9,22)                 1.0781         estimate D2E/DX2                !
 ! R20   R(10,11)                1.3837         estimate D2E/DX2                !
 ! R21   R(10,25)                1.8088         estimate D2E/DX2                !
 ! R22   R(11,12)                1.3892         estimate D2E/DX2                !
 ! R23   R(11,26)                1.0817         estimate D2E/DX2                !
 ! R24   R(12,13)                1.382          estimate D2E/DX2                !
 ! R25   R(12,23)                1.7412         estimate D2E/DX2                !
 ! R26   R(13,24)                1.0843         estimate D2E/DX2                !
 ! R27   R(25,27)                1.6166         estimate D2E/DX2                !
 ! R28   R(25,28)                1.6167         estimate D2E/DX2                !
 ! R29   R(25,29)                1.6165         estimate D2E/DX2                !
 ! R30   R(25,30)                1.6168         estimate D2E/DX2                !
 ! R31   R(25,31)                1.6179         estimate D2E/DX2                !
 ! A1    A(2,1,9)              123.525          estimate D2E/DX2                !
 ! A2    A(2,1,13)             116.768          estimate D2E/DX2                !
 ! A3    A(9,1,13)             119.7063         estimate D2E/DX2                !
 ! A4    A(1,2,3)              127.394          estimate D2E/DX2                !
 ! A5    A(1,2,14)             116.613          estimate D2E/DX2                !
 ! A6    A(3,2,14)             115.9558         estimate D2E/DX2                !
 ! A7    A(2,3,4)              125.8367         estimate D2E/DX2                !
 ! A8    A(2,3,5)              109.8452         estimate D2E/DX2                !
 ! A9    A(4,3,5)              124.3182         estimate D2E/DX2                !
 ! A10   A(3,5,6)              116.042          estimate D2E/DX2                !
 ! A11   A(5,6,7)              107.5986         estimate D2E/DX2                !
 ! A12   A(5,6,15)             108.501          estimate D2E/DX2                !
 ! A13   A(5,6,16)             108.5569         estimate D2E/DX2                !
 ! A14   A(7,6,15)             111.5592         estimate D2E/DX2                !
 ! A15   A(7,6,16)             111.5908         estimate D2E/DX2                !
 ! A16   A(15,6,16)            108.9365         estimate D2E/DX2                !
 ! A17   A(6,7,8)              110.4024         estimate D2E/DX2                !
 ! A18   A(6,7,17)             109.1521         estimate D2E/DX2                !
 ! A19   A(6,7,18)             109.1181         estimate D2E/DX2                !
 ! A20   A(8,7,17)             110.3284         estimate D2E/DX2                !
 ! A21   A(8,7,18)             110.3025         estimate D2E/DX2                !
 ! A22   A(17,7,18)            107.4746         estimate D2E/DX2                !
 ! A23   A(7,8,19)             111.1442         estimate D2E/DX2                !
 ! A24   A(7,8,20)             110.8771         estimate D2E/DX2                !
 ! A25   A(7,8,21)             111.1095         estimate D2E/DX2                !
 ! A26   A(19,8,20)            107.8386         estimate D2E/DX2                !
 ! A27   A(19,8,21)            107.8846         estimate D2E/DX2                !
 ! A28   A(20,8,21)            107.8388         estimate D2E/DX2                !
 ! A29   A(1,9,10)             117.7135         estimate D2E/DX2                !
 ! A30   A(1,9,22)             120.7688         estimate D2E/DX2                !
 ! A31   A(10,9,22)            121.5177         estimate D2E/DX2                !
 ! A32   A(9,10,11)            124.5251         estimate D2E/DX2                !
 ! A33   A(9,10,25)            117.4564         estimate D2E/DX2                !
 ! A34   A(11,10,25)           118.0185         estimate D2E/DX2                !
 ! A35   A(10,11,12)           115.9163         estimate D2E/DX2                !
 ! A36   A(10,11,26)           122.9822         estimate D2E/DX2                !
 ! A37   A(12,11,26)           121.1015         estimate D2E/DX2                !
 ! A38   A(11,12,13)           122.349          estimate D2E/DX2                !
 ! A39   A(11,12,23)           118.7472         estimate D2E/DX2                !
 ! A40   A(13,12,23)           118.9038         estimate D2E/DX2                !
 ! A41   A(1,13,12)            119.7891         estimate D2E/DX2                !
 ! A42   A(1,13,24)            119.8687         estimate D2E/DX2                !
 ! A43   A(12,13,24)           120.3423         estimate D2E/DX2                !
 ! A44   A(10,25,27)            93.0355         estimate D2E/DX2                !
 ! A45   A(10,25,28)            93.0318         estimate D2E/DX2                !
 ! A46   A(10,25,29)            93.0493         estimate D2E/DX2                !
 ! A47   A(10,25,30)            93.0087         estimate D2E/DX2                !
 ! A48   A(27,25,28)            89.8259         estimate D2E/DX2                !
 ! A49   A(27,25,29)            89.8729         estimate D2E/DX2                !
 ! A50   A(27,25,31)            86.975          estimate D2E/DX2                !
 ! A51   A(28,25,30)            89.8348         estimate D2E/DX2                !
 ! A52   A(28,25,31)            86.9634         estimate D2E/DX2                !
 ! A53   A(29,25,30)            89.8255         estimate D2E/DX2                !
 ! A54   A(29,25,31)            86.9555         estimate D2E/DX2                !
 ! A55   A(30,25,31)            86.9808         estimate D2E/DX2                !
 ! A56   L(10,25,31,27,-1)     180.0105         estimate D2E/DX2                !
 ! A57   L(27,25,30,10,-1)     186.0442         estimate D2E/DX2                !
 ! A58   L(28,25,29,10,-1)     186.0811         estimate D2E/DX2                !
 ! A59   L(10,25,31,27,-2)     179.9952         estimate D2E/DX2                !
 ! A60   L(27,25,30,10,-2)     180.0198         estimate D2E/DX2                !
 ! A61   L(28,25,29,10,-2)     180.0207         estimate D2E/DX2                !
 ! D1    D(9,1,2,3)              3.9915         estimate D2E/DX2                !
 ! D2    D(9,1,2,14)          -178.3334         estimate D2E/DX2                !
 ! D3    D(13,1,2,3)          -176.2941         estimate D2E/DX2                !
 ! D4    D(13,1,2,14)            1.381          estimate D2E/DX2                !
 ! D5    D(2,1,9,10)           179.9748         estimate D2E/DX2                !
 ! D6    D(2,1,9,22)            -0.0246         estimate D2E/DX2                !
 ! D7    D(13,1,9,10)            0.2684         estimate D2E/DX2                !
 ! D8    D(13,1,9,22)         -179.731          estimate D2E/DX2                !
 ! D9    D(2,1,13,12)         -179.8847         estimate D2E/DX2                !
 ! D10   D(2,1,13,24)            0.1581         estimate D2E/DX2                !
 ! D11   D(9,1,13,12)           -0.1588         estimate D2E/DX2                !
 ! D12   D(9,1,13,24)          179.884          estimate D2E/DX2                !
 ! D13   D(1,2,3,4)             -1.0544         estimate D2E/DX2                !
 ! D14   D(1,2,3,5)            178.9431         estimate D2E/DX2                !
 ! D15   D(14,2,3,4)          -178.7426         estimate D2E/DX2                !
 ! D16   D(14,2,3,5)             1.2549         estimate D2E/DX2                !
 ! D17   D(2,3,5,6)           -179.5315         estimate D2E/DX2                !
 ! D18   D(4,3,5,6)              0.4661         estimate D2E/DX2                !
 ! D19   D(3,5,6,7)            179.8037         estimate D2E/DX2                !
 ! D20   D(3,5,6,15)            58.963          estimate D2E/DX2                !
 ! D21   D(3,5,6,16)           -59.286          estimate D2E/DX2                !
 ! D22   D(5,6,7,8)           -179.6254         estimate D2E/DX2                !
 ! D23   D(5,6,7,17)            58.9386         estimate D2E/DX2                !
 ! D24   D(5,6,7,18)           -58.2435         estimate D2E/DX2                !
 ! D25   D(15,6,7,8)           -60.7263         estimate D2E/DX2                !
 ! D26   D(15,6,7,17)          177.8377         estimate D2E/DX2                !
 ! D27   D(15,6,7,18)           60.6556         estimate D2E/DX2                !
 ! D28   D(16,6,7,8)            61.3889         estimate D2E/DX2                !
 ! D29   D(16,6,7,17)          -60.0472         estimate D2E/DX2                !
 ! D30   D(16,6,7,18)         -177.2292         estimate D2E/DX2                !
 ! D31   D(6,7,8,19)           -59.9912         estimate D2E/DX2                !
 ! D32   D(6,7,8,20)          -179.9276         estimate D2E/DX2                !
 ! D33   D(6,7,8,21)            60.1588         estimate D2E/DX2                !
 ! D34   D(17,7,8,19)           60.7448         estimate D2E/DX2                !
 ! D35   D(17,7,8,20)          -59.1917         estimate D2E/DX2                !
 ! D36   D(17,7,8,21)         -179.1053         estimate D2E/DX2                !
 ! D37   D(18,7,8,19)          179.3323         estimate D2E/DX2                !
 ! D38   D(18,7,8,20)           59.3959         estimate D2E/DX2                !
 ! D39   D(18,7,8,21)          -60.5177         estimate D2E/DX2                !
 ! D40   D(1,9,10,11)           -0.1779         estimate D2E/DX2                !
 ! D41   D(1,9,10,25)          179.8552         estimate D2E/DX2                !
 ! D42   D(22,9,10,11)         179.8214         estimate D2E/DX2                !
 ! D43   D(22,9,10,25)          -0.1455         estimate D2E/DX2                !
 ! D44   D(9,10,11,12)          -0.0299         estimate D2E/DX2                !
 ! D45   D(9,10,11,26)        -179.9963         estimate D2E/DX2                !
 ! D46   D(25,10,11,12)        179.9368         estimate D2E/DX2                !
 ! D47   D(25,10,11,26)         -0.0296         estimate D2E/DX2                !
 ! D48   D(9,10,25,27)          45.5401         estimate D2E/DX2                !
 ! D49   D(9,10,25,28)         135.5265         estimate D2E/DX2                !
 ! D50   D(9,10,25,29)         -44.4943         estimate D2E/DX2                !
 ! D51   D(9,10,25,30)        -134.4797         estimate D2E/DX2                !
 ! D52   D(11,10,25,27)       -134.429          estimate D2E/DX2                !
 ! D53   D(11,10,25,28)        -44.4427         estimate D2E/DX2                !
 ! D54   D(11,10,25,29)        135.5366         estimate D2E/DX2                !
 ! D55   D(11,10,25,30)         45.5512         estimate D2E/DX2                !
 ! D56   D(10,11,12,13)          0.151          estimate D2E/DX2                !
 ! D57   D(10,11,12,23)       -179.8951         estimate D2E/DX2                !
 ! D58   D(26,11,12,13)       -179.882          estimate D2E/DX2                !
 ! D59   D(26,11,12,23)          0.072          estimate D2E/DX2                !
 ! D60   D(11,12,13,1)          -0.0592         estimate D2E/DX2                !
 ! D61   D(11,12,13,24)        179.8979         estimate D2E/DX2                !
 ! D62   D(23,12,13,1)         179.987          estimate D2E/DX2                !
 ! D63   D(23,12,13,24)         -0.056          estimate D2E/DX2                !
 --------------------------------------------------------------------------------
 Trust Radius=3.00D-01 FncErr=1.00D-07 GrdErr=1.00D-06
 Number of steps in this run=    165 maximum allowed number of steps=    186.
 GradGradGradGradGradGradGradGradGradGradGradGradGradGradGradGradGradGrad

                          Input orientation:                          
 ---------------------------------------------------------------------
 Center     Atomic      Atomic             Coordinates (Angstroms)
 Number     Number       Type             X           Y           Z
 ---------------------------------------------------------------------
      1          6           0       -5.883350    1.253064    0.192891
      2          7           0       -4.618646    0.671380    0.093033
      3          6           0       -3.410909    1.308179    0.091110
      4          8           0       -3.239917    2.508545    0.159655
      5          8           0       -2.425293    0.410928    0.001766
      6          6           0       -1.081959    0.942503   -0.000678
      7          6           0       -0.128364   -0.225778   -0.102585
      8          6           0        1.315403    0.264805   -0.101077
      9          6           0       -6.097184    2.632949    0.228829
     10          6           0       -7.404577    3.079883    0.329222
     11          6           0       -8.512964    2.254063    0.392790
     12          6           0       -8.256642    0.889434    0.349617
     13          6           0       -6.975463    0.380369    0.252435
     14          1           0       -4.586578   -0.340368    0.049261
     15          1           0       -0.930210    1.504902    0.922831
     16          1           0       -0.978299    1.620972   -0.849800
     17          1           0       -0.339501   -0.782195   -1.019782
     18          1           0       -0.299967   -0.902550    0.738866
     19          1           0        1.505339    0.933759   -0.944195
     20          1           0        2.010758   -0.572756   -0.175690
     21          1           0        1.544999    0.809700    0.818043
     22          1           0       -5.268611    3.320909    0.179700
     23         17           0       -9.598828   -0.217448    0.421834
     24          1           0       -6.812631   -0.691219    0.222834
     25         16           0       -7.673189    4.867941    0.379252
     26          1           0       -9.524036    2.630479    0.470921
     27          9           0       -6.652042    5.142159   -0.843626
     28          9           0       -8.902176    4.799145   -0.668917
     29          9           0       -6.470259    5.106170    1.432421
     30          9           0       -8.720249    4.762152    1.606691
     31          9           0       -7.913739    6.467214    0.424139
 ---------------------------------------------------------------------
                    Distance matrix (angstroms):
                    1          2          3          4          5
     1  C    0.000000
     2  N    1.395637   0.000000
     3  C    2.475148   1.365337   0.000000
     4  O    2.926615   2.297936   1.214420   0.000000
     5  O    3.564250   2.210648   1.335845   2.255779   0.000000
     6  C    4.815317   3.548302   2.359270   2.671138   1.444688
     7  C    5.949297   4.583208   3.628449   4.150549   2.385826
     8  C    7.272215   5.951128   4.843923   5.084613   3.744961
     9  C    1.396817   2.460135   2.998341   2.860810   4.297873
    10  C    2.381173   3.690268   4.375501   4.207086   5.658959
    11  C    2.820785   4.214315   5.197757   5.284330   6.372581
    12  C    2.406098   3.653545   4.870657   5.274954   5.861280
    13  C    1.399234   2.380059   3.686855   4.300238   4.557172
    14  H    2.059435   1.013202   2.025255   3.153092   2.288637
    15  H    5.012966   3.871420   2.623801   2.631441   2.068916
    16  H    5.028129   3.878504   2.626927   2.630913   2.069580
    17  H    6.028857   4.654280   3.877795   4.542296   2.611060
    18  H    6.009903   4.641697   3.871030   4.540304   2.604909
    19  H    7.482489   6.216742   5.038010   5.120145   4.076526
    20  H    8.110882   6.750488   5.744874   6.097250   4.547271
    21  H    7.467781   6.207680   5.033680   5.120055   4.072903
    22  H    2.157327   2.729464   2.740435   2.185391   4.072359
    23  Cl   4.002449   5.069549   6.381790   6.923548   7.213246
    24  H    2.155156   2.585941   3.947993   4.796537   4.529054
    25  S    4.038018   5.198392   5.560752   5.026815   6.895497
    26  H    3.902457   5.295632   6.266024   6.293005   7.452427
    27  F    4.097599   4.999990   5.106670   4.425505   6.400363
    28  F    4.736107   5.997303   6.551221   6.163973   7.852152
    29  F    4.089904   4.988967   5.058010   4.336208   6.360331
    30  F    4.728691   5.987380   6.512757   6.099729   7.818913
    31  F    5.600296   6.675250   6.855803   6.130712   8.184134
                    6          7          8          9         10
     6  C    0.000000
     7  C    1.511492   0.000000
     8  C    2.493330   1.524840   0.000000
     9  C    5.297430   6.626384   7.788670   0.000000
    10  C    6.682269   8.003569   9.173214   1.385318   0.000000
    11  C    7.556113   8.757655  10.039813   2.450803   1.383670
    12  C    7.183426   8.216878   9.602985   2.778074   2.350425
    13  C    5.925661   6.883038   8.299204   2.417860   2.734485
    14  H    3.732373   4.462271   5.934831   3.339878   4.440452
    15  H    1.091875   2.165569   2.762066   5.334018   6.689571
    16  H    1.091820   2.165919   2.767822   5.328276   6.694443
    17  H    2.136445   1.093356   2.163084   6.809783   8.163991
    18  H    2.136038   1.093393   2.162785   6.809377   8.154941
    19  H    2.753981   2.172975   1.092897   7.877917   9.252785
    20  H    3.448411   2.168314   1.091143   8.728052  10.111639
    21  H    2.754786   2.172537   1.092890   7.878728   9.245949
    22  H    4.818444   6.251465   7.264148   1.078071   2.154716
    23  Cl   8.605874   9.484975  10.937387   4.519239   3.961781
    24  H    5.963188   6.708349   8.190471   3.400293   3.818760
    25  S    7.680998   9.116058  10.110112   2.738907   1.808814
    26  H    8.622084   9.836959  11.109322   3.435394   2.171210
    27  F    7.026628   8.480700   9.371240   2.784630   2.488949
    28  F    8.745058  10.126715  11.192926   3.656000   2.488965
    29  F    6.958712   8.426478   9.295534   2.775723   2.489144
    30  F    8.690042  10.080751  11.129102   3.648627   2.488563
    31  F    8.796370  10.280352  11.132061   4.247306   3.426699
                   11         12         13         14         15
    11  C    0.000000
    12  C    1.389164   0.000000
    13  C    2.427826   1.382031   0.000000
    14  H    4.718643   3.882267   2.503500   0.000000
    15  H    7.638086   7.374550   6.185394   4.187742   0.000000
    16  H    7.662638   7.412694   6.222540   4.204146   1.777077
    17  H    8.832878   8.206749   6.856099   4.401787   3.058349
    18  H    8.805527   8.165256   6.815039   4.377973   2.495371
    19  H   10.192994   9.847446   8.582667   6.302524   3.121520
    20  H   10.911591  10.384289   9.046763   6.605260   3.764665
    21  H   10.170037   9.813152   8.550001   6.285692   2.573120
    22  H    3.421900   3.856070   3.400796   3.726545   4.761496
    23  Cl   2.699687   1.741225   2.695945   5.027580   8.852255
    24  H    3.405100   2.144692   1.084293   2.260206   6.317897
    25  S    2.745499   4.021171   4.543260   6.063212   7.554685
    26  H    1.081693   2.156905   3.406751   5.777735   8.678997
    27  F    3.651419   4.699388   4.896999   5.926339   7.006381
    28  F    2.784987   4.091450   4.907820   6.749427   8.771428
    29  F    3.658961   4.705794   4.897019   5.926733   6.627288
    30  F    2.794107   4.097940   4.906965   6.748965   8.471248
    31  F    4.255666   5.588807   6.161130   7.586416   8.581545
                   16         17         18         19         20
    16  H    0.000000
    17  H    2.492422   0.000000
    18  H    3.058129   1.763206   0.000000
    19  H    2.578687   2.520644   3.076338   0.000000
    20  H    3.768465   2.506008   2.506916   1.765116   0.000000
    21  H    3.131595   3.076210   2.518326   1.767044   1.765112
    22  H    4.728259   6.524595   6.545051   7.269664   8.262938
    23  Cl   8.905636   9.387882   9.329453  11.246948  11.630381
    24  H    6.366804   6.591948   6.536493   8.555181   8.833179
    25  S    7.541547   9.362922   9.369754  10.073464  11.121509
    26  H    8.705919   9.910814   9.881171  11.248490  11.988757
    27  F    6.677587   8.658936   8.910199   9.179521  10.399543
    28  F    8.539399  10.227115  10.415814  11.105555  12.173444
    29  F    6.893240   8.847165   8.640500   9.309537  10.332660
    30  F    8.708568  10.386293  10.185436  11.212772  12.115801
    31  F    8.556244  10.583380  10.601038  11.009564  12.182636
                   21         22         23         24         25
    21  H    0.000000
    22  H    7.289645   0.000000
    23  Cl  11.198075   5.597266   0.000000
    24  H    8.512168   4.299189   2.833188   0.000000
    25  S   10.081510   2.866204   5.437930   5.627547   0.000000
    26  H   11.223157   4.320897   2.849332   4.294990   2.905216
    27  F    9.419279   2.505600   6.245825   5.932236   1.616591
    28  F   11.281409   4.013494   5.180856   5.941844   1.616726
    29  F    9.114903   2.490065   6.257007   5.932119   1.616465
    30  F   11.028107   4.003410   5.193477   5.940818   1.616828
    31  F   11.028615   4.117729   6.893783   7.245421   1.617885
                   26         27         28         29         30
    26  H    0.000000
    27  F    4.035458   0.000000
    28  F    2.527657   2.282824   0.000000
    29  F    4.047108   2.283578   3.228639   0.000000
    30  F    2.545600   3.228922   2.283169   2.282800   0.000000
    31  F    4.161224   2.225955   2.225811   2.225469   2.226236
                   31
    31  F    0.000000
 Stoichiometry    C10H11ClF5NO2S
 Framework group  C1[X(C10H11ClF5NO2S)]
 Deg. of freedom    87
 Full point group                 C1      NOp   1
 Largest Abelian subgroup         C1      NOp   1
 Largest concise Abelian subgroup C1      NOp   1
                         Standard orientation:                         
 ---------------------------------------------------------------------
 Center     Atomic      Atomic             Coordinates (Angstroms)
 Number     Number       Type             X           Y           Z
 ---------------------------------------------------------------------
      1          6           0       -0.511409    1.093046   -0.036182
      2          7           0       -1.906784    1.098955   -0.062590
      3          6           0       -2.741584    0.019641   -0.014260
      4          8           0       -2.397274   -1.143544    0.042906
      5          8           0       -4.013130    0.428346   -0.038989
      6          6           0       -5.014715   -0.611256    0.017390
      7          6           0       -6.369836    0.057378   -0.017006
      8          6           0       -7.479455   -0.986422    0.049056
      9          6           0        0.255212   -0.074595   -0.033925
     10          6           0        1.633726    0.059838   -0.006900
     11          6           0        2.303333    1.270504    0.014462
     12          6           0        1.504012    2.406641    0.006867
     13          6           0        0.123816    2.339635   -0.017243
     14          1           0       -2.356422    2.006568   -0.087921
     15          1           0       -4.871551   -1.180744    0.937922
     16          1           0       -4.873259   -1.276710   -0.836562
     17          1           0       -6.456208    0.646018   -0.934323
     18          1           0       -6.449230    0.749344    0.825839
     19          1           0       -7.420046   -1.678865   -0.794400
     20          1           0       -8.461689   -0.511919    0.023435
     21          1           0       -7.414525   -1.572198    0.969414
     22          1           0       -0.216247   -1.043931   -0.052672
     23         17           0        2.270440    3.969948    0.029754
     24          1           0       -0.468681    3.247723   -0.020847
     25         16           0        2.619595   -1.456680   -0.000093
     26          1           0        3.382155    1.346448    0.035343
     27          9           0        1.740221   -2.135725   -1.174387
     28          9           0        3.653153   -0.891737   -1.107522
     29          9           0        1.680018   -2.165073    1.108208
     30          9           0        3.592381   -0.920233    1.174660
     31          9           0        3.501653   -2.812957    0.006118
 ---------------------------------------------------------------------
 Rotational constants (GHZ):      0.3792535      0.1349153      0.1037651
 Standard basis: 6-311+G(d) (5D, 7F)
 There are   509 symmetry adapted cartesian basis functions of A   symmetry.
 There are   489 symmetry adapted basis functions of A   symmetry.
   489 basis functions,   806 primitive gaussians,   509 cartesian basis functions
    86 alpha electrons       86 beta electrons
       nuclear repulsion energy      2025.8952763805 Hartrees.
 NAtoms=   31 NActive=   31 NUniq=   31 SFac= 1.00D+00 NAtFMM=   60 NAOKFM=F Big=F
 Integral buffers will be    131072 words long.
 Raffenetti 2 integral format.
 Two-electron integral symmetry is turned on.
 Nuclear repulsion after empirical dispersion term =     2025.8936831674 Hartrees.
 ------------------------------------------------------------------------------
 Polarizable Continuum Model (PCM)
 =================================
 Model                : PCM (using non-symmetric T matrix).
 Atomic radii         : SMD-Coulomb.
 Polarization charges : Total charges.
 Charge compensation  : None.
 Solution method      : On-the-fly selection.
 Cavity type          : VdW (van der Waals Surface) (Alpha=1.000).
 Cavity algorithm     : GePol (No added spheres)
                        Default sphere list used, NSphG=   31.
                        Lebedev-Laikov grids with approx.  5.0 points / Ang**2.
                        Smoothing algorithm: York/Karplus (Gamma=1.0000).
                        Polarization charges: spherical gaussians, with
                                              point-specific exponents (IZeta= 3).
                        Self-potential: point-specific (ISelfS= 7).
                        Self-field    : sphere-specific E.n sum rule (ISelfD= 2).
 1st derivatives      : Analytical E(r).r(x)/FMM algorithm (CHGder, D1EAlg=3).
                        Cavity 1st derivative terms included.
 Solvent              : Water, Eps=  78.355300 Eps(inf)=   1.777849
 ------------------------------------------------------------------------------
 ------------------------------------------------------------------------------
 Atomic radii for non-electrostatic terms: SMD-CDS.
 ------------------------------------------------------------------------------
 Nuclear repulsion after PCM non-electrostatic terms =     2025.9082451009 Hartrees.
 One-electron integrals computed using PRISM.
 NBasis=   489 RedAO= T EigKep=  1.18D-06  NBF=   489
 NBsUse=   487 1.00D-06 EigRej=  6.04D-07 NBFU=   487
 ExpMin= 4.05D-02 ExpMax= 1.06D+05 ExpMxC= 3.62D+03 IAcc=3 IRadAn=         5 AccDes= 0.00D+00
 Harris functional with IExCor= 1009 and IRadAn=       5 diagonalized for initial guess.
 HarFok:  IExCor= 1009 AccDes= 0.00D+00 IRadAn=         5 IDoV= 1 UseB2=F ITyADJ=14
 ICtDFT=  3500011 ScaDFX=  1.000000  1.000000  1.000000  1.000000
 FoFCou: FMM=F IPFlag=           0 FMFlag=      100000 FMFlg1=           0
         NFxFlg=           0 DoJE=T BraDBF=F KetDBF=T FulRan=T
         wScrn=  0.000000 ICntrl=     500 IOpCl=  0 I1Cent=   200000004 NGrid=           0
         NMat0=    1 NMatS0=      1 NMatT0=    0 NMatD0=    1 NMtDS0=    0 NMtDT0=    0
 Petite list used in FoFCou.
 Requested convergence on RMS density matrix=1.00D-08 within 128 cycles.
 Requested convergence on MAX density matrix=1.00D-06.
 Requested convergence on             energy=1.00D-06.
 No special actions if energy rises.
 Inv3:  Mode=1 IEnd=    19172352.
 Iteration    1 A*A^-1 deviation from unit magnitude is 6.22D-15 for    786.
 Iteration    1 A*A^-1 deviation from orthogonality  is 5.84D-15 for   2525   1089.
 Iteration    1 A^-1*A deviation from unit magnitude is 5.11D-15 for   2508.
 Iteration    1 A^-1*A deviation from orthogonality  is 2.37D-08 for   1463   1450.
 Iteration    2 A*A^-1 deviation from unit magnitude is 2.44D-15 for    914.
 Iteration    2 A*A^-1 deviation from orthogonality  is 3.60D-15 for   1932     84.
 Iteration    2 A^-1*A deviation from unit magnitude is 1.11D-15 for     61.
 Iteration    2 A^-1*A deviation from orthogonality  is 3.46D-16 for   1399    333.
 Error on total polarization charges =  0.03975
 SCF Done:  E(RM062X) =  -1950.30106446     A.U. after   15 cycles
            NFock= 15  Conv=0.61D-08     -V/T= 2.0024
 SMD-CDS (non-electrostatic) energy       (kcal/mol) =       9.14
 (included in total energy above)

 **********************************************************************

            Population analysis using the SCF density.

 **********************************************************************

 Orbital symmetries:
       Occupied  (A) (A) (A) (A) (A) (A) (A) (A) (A) (A) (A) (A)
                 (A) (A) (A) (A) (A) (A) (A) (A) (A) (A) (A) (A)
                 (A) (A) (A) (A) (A) (A) (A) (A) (A) (A) (A) (A)
                 (A) (A) (A) (A) (A) (A) (A) (A) (A) (A) (A) (A)
                 (A) (A) (A) (A) (A) (A) (A) (A) (A) (A) (A) (A)
                 (A) (A) (A) (A) (A) (A) (A) (A) (A) (A) (A) (A)
                 (A) (A) (A) (A) (A) (A) (A) (A) (A) (A) (A) (A)
                 (A) (A)
       Virtual   (A) (A) (A) (A) (A) (A) (A) (A) (A) (A) (A) (A)
                 (A) (A) (A) (A) (A) (A) (A) (A) (A) (A) (A) (A)
                 (A) (A) (A) (A) (A) (A) (A) (A) (A) (A) (A) (A)
                 (A) (A) (A) (A) (A) (A) (A) (A) (A) (A) (A) (A)
                 (A) (A) (A) (A) (A) (A) (A) (A) (A) (A) (A) (A)
                 (A) (A) (A) (A) (A) (A) (A) (A) (A) (A) (A) (A)
                 (A) (A) (A) (A) (A) (A) (A) (A) (A) (A) (A) (A)
                 (A) (A) (A) (A) (A) (A) (A) (A) (A) (A) (A) (A)
                 (A) (A) (A) (A) (A) (A) (A) (A) (A) (A) (A) (A)
                 (A) (A) (A) (A) (A) (A) (A) (A) (A) (A) (A) (A)
                 (A) (A) (A) (A) (A) (A) (A) (A) (A) (A) (A) (A)
                 (A) (A) (A) (A) (A) (A) (A) (A) (A) (A) (A) (A)
                 (A) (A) (A) (A) (A) (A) (A) (A) (A) (A) (A) (A)
                 (A) (A) (A) (A) (A) (A) (A) (A) (A) (A) (A) (A)
                 (A) (A) (A) (A) (A) (A) (A) (A) (A) (A) (A) (A)
                 (A) (A) (A) (A) (A) (A) (A) (A) (A) (A) (A) (A)
                 (A) (A) (A) (A) (A) (A) (A) (A) (A) (A) (A) (A)
                 (A) (A) (A) (A) (A) (A) (A) (A) (A) (A) (A) (A)
                 (A) (A) (A) (A) (A) (A) (A) (A) (A) (A) (A) (A)
                 (A) (A) (A) (A) (A) (A) (A) (A) (A) (A) (A) (A)
                 (A) (A) (A) (A) (A) (A) (A) (A) (A) (A) (A) (A)
                 (A) (A) (A) (A) (A) (A) (A) (A) (A) (A) (A) (A)
                 (A) (A) (A) (A) (A) (A) (A) (A) (A) (A) (A) (A)
                 (A) (A) (A) (A) (A) (A) (A) (A) (A) (A) (A) (A)
                 (A) (A) (A) (A) (A) (A) (A) (A) (A) (A) (A) (A)
                 (A) (A) (A) (A) (A) (A) (A) (A) (A) (A) (A) (A)
                 (A) (A) (A) (A) (A) (A) (A) (A) (A) (A) (A) (A)
                 (A) (A) (A) (A) (A) (A) (A) (A) (A) (A) (A) (A)
                 (A) (A) (A) (A) (A) (A) (A) (A) (A) (A) (A) (A)
                 (A) (A) (A) (A) (A) (A) (A) (A) (A) (A) (A) (A)
                 (A) (A) (A) (A) (A) (A) (A) (A) (A) (A) (A) (A)
                 (A) (A) (A) (A) (A) (A) (A) (A) (A) (A) (A) (A)
                 (A) (A) (A) (A) (A) (A) (A) (A) (A) (A) (A) (A)
                 (A) (A) (A) (A) (A)
 The electronic state is 1-A.
 Alpha  occ. eigenvalues -- -102.69152 -90.29023 -25.29522 -25.29518 -25.29509
 Alpha  occ. eigenvalues --  -25.29505 -25.29389 -19.67799 -19.62330 -14.80430
 Alpha  occ. eigenvalues --  -10.71934 -10.63236 -10.62847 -10.61913 -10.59086
 Alpha  occ. eigenvalues --  -10.58254 -10.57801 -10.57616 -10.53103 -10.51919
 Alpha  occ. eigenvalues --   -9.83421  -8.61349  -7.55936  -7.55258  -7.55242
 Alpha  occ. eigenvalues --   -6.53771  -6.53761  -6.53309  -1.51303  -1.41272
 Alpha  occ. eigenvalues --   -1.41228  -1.38204  -1.36813  -1.25930  -1.16019
 Alpha  occ. eigenvalues --   -1.08348  -1.02452  -0.98111  -0.94003  -0.89908
 Alpha  occ. eigenvalues --   -0.87553  -0.85959  -0.80126  -0.77151  -0.75186
 Alpha  occ. eigenvalues --   -0.74777  -0.73892  -0.69521  -0.68285  -0.67343
 Alpha  occ. eigenvalues --   -0.65175  -0.64712  -0.63413  -0.62735  -0.61437
 Alpha  occ. eigenvalues --   -0.59931  -0.59456  -0.59400  -0.57264  -0.56564
 Alpha  occ. eigenvalues --   -0.56433  -0.56348  -0.56224  -0.55015  -0.53939
 Alpha  occ. eigenvalues --   -0.53524  -0.53455  -0.52672  -0.52204  -0.51090
 Alpha  occ. eigenvalues --   -0.50282  -0.50117  -0.47458  -0.47099  -0.45494
 Alpha  occ. eigenvalues --   -0.45035  -0.43577  -0.42759  -0.40352  -0.40173
 Alpha  occ. eigenvalues --   -0.40011  -0.39567  -0.38251  -0.38234  -0.33093
 Alpha  occ. eigenvalues --   -0.30101
 Alpha virt. eigenvalues --   -0.02973  -0.02462  -0.00688   0.00950   0.02200
 Alpha virt. eigenvalues --    0.02996   0.03167   0.03320   0.03956   0.04326
 Alpha virt. eigenvalues --    0.04651   0.04685   0.04922   0.05683   0.06186
 Alpha virt. eigenvalues --    0.07046   0.07148   0.07592   0.07623   0.08105
 Alpha virt. eigenvalues --    0.08747   0.08931   0.09854   0.10002   0.10121
 Alpha virt. eigenvalues --    0.10852   0.11174   0.11324   0.11978   0.12018
 Alpha virt. eigenvalues --    0.12539   0.12793   0.13510   0.13959   0.14154
 Alpha virt. eigenvalues --    0.14367   0.15407   0.16072   0.17088   0.17231
 Alpha virt. eigenvalues --    0.17339   0.17657   0.18526   0.18594   0.20166
 Alpha virt. eigenvalues --    0.20438   0.20717   0.20805   0.21330   0.21416
 Alpha virt. eigenvalues --    0.21596   0.22010   0.22570   0.23160   0.23666
 Alpha virt. eigenvalues --    0.23732   0.24141   0.24451   0.24768   0.25931
 Alpha virt. eigenvalues --    0.26148   0.26362   0.26432   0.26749   0.27168
 Alpha virt. eigenvalues --    0.27427   0.27992   0.28090   0.28499   0.28988
 Alpha virt. eigenvalues --    0.29469   0.30252   0.30574   0.31007   0.31384
 Alpha virt. eigenvalues --    0.32088   0.32237   0.32368   0.32625   0.32922
 Alpha virt. eigenvalues --    0.33253   0.33918   0.34194   0.35153   0.35694
 Alpha virt. eigenvalues --    0.35747   0.35990   0.36944   0.37317   0.38155
 Alpha virt. eigenvalues --    0.38407   0.38900   0.39262   0.39450   0.39699
 Alpha virt. eigenvalues --    0.41469   0.42037   0.43653   0.43805   0.44466
 Alpha virt. eigenvalues --    0.45016   0.45755   0.46442   0.47481   0.47809
 Alpha virt. eigenvalues --    0.48119   0.48278   0.49302   0.49681   0.49757
 Alpha virt. eigenvalues --    0.50150   0.51331   0.51789   0.52638   0.54564
 Alpha virt. eigenvalues --    0.54654   0.55630   0.55725   0.57644   0.57906
 Alpha virt. eigenvalues --    0.58736   0.58993   0.59817   0.60529   0.61164
 Alpha virt. eigenvalues --    0.62331   0.63469   0.64062   0.64112   0.64520
 Alpha virt. eigenvalues --    0.64976   0.67215   0.67967   0.68918   0.69205
 Alpha virt. eigenvalues --    0.69652   0.69915   0.70826   0.71944   0.72234
 Alpha virt. eigenvalues --    0.72595   0.72818   0.73317   0.73865   0.74881
 Alpha virt. eigenvalues --    0.76312   0.76900   0.77931   0.78617   0.78876
 Alpha virt. eigenvalues --    0.80573   0.81838   0.84330   0.85802   0.86553
 Alpha virt. eigenvalues --    0.88191   0.88789   0.91354   0.92390   0.92454
 Alpha virt. eigenvalues --    0.92594   0.93521   0.93917   0.94751   0.95178
 Alpha virt. eigenvalues --    0.98382   0.98824   0.99170   1.00585   1.00861
 Alpha virt. eigenvalues --    1.04484   1.04830   1.05622   1.06162   1.06393
 Alpha virt. eigenvalues --    1.06696   1.10601   1.11918   1.13098   1.14506
 Alpha virt. eigenvalues --    1.14826   1.16731   1.18903   1.19221   1.20825
 Alpha virt. eigenvalues --    1.21221   1.22731   1.23580   1.23878   1.25486
 Alpha virt. eigenvalues --    1.26203   1.29732   1.31189   1.31910   1.32643
 Alpha virt. eigenvalues --    1.33657   1.35467   1.37033   1.37109   1.38185
 Alpha virt. eigenvalues --    1.38913   1.40436   1.41917   1.43737   1.44227
 Alpha virt. eigenvalues --    1.45049   1.48127   1.49671   1.50584   1.50976
 Alpha virt. eigenvalues --    1.51299   1.51638   1.53483   1.54346   1.57448
 Alpha virt. eigenvalues --    1.58674   1.59485   1.61809   1.62207   1.62334
 Alpha virt. eigenvalues --    1.63604   1.63824   1.64483   1.67478   1.67887
 Alpha virt. eigenvalues --    1.70178   1.72685   1.74391   1.74961   1.77293
 Alpha virt. eigenvalues --    1.78501   1.79724   1.79754   1.82981   1.85173
 Alpha virt. eigenvalues --    1.86232   1.87385   1.89685   1.89960   1.90421
 Alpha virt. eigenvalues --    1.91103   1.92009   1.93734   1.96867   1.98489
 Alpha virt. eigenvalues --    2.00395   2.02620   2.02744   2.06007   2.06262
 Alpha virt. eigenvalues --    2.08505   2.09644   2.11963   2.13444   2.18738
 Alpha virt. eigenvalues --    2.19012   2.22342   2.23997   2.26538   2.27199
 Alpha virt. eigenvalues --    2.29820   2.33284   2.35320   2.39262   2.40322
 Alpha virt. eigenvalues --    2.43091   2.45805   2.50992   2.51432   2.53336
 Alpha virt. eigenvalues --    2.56207   2.57292   2.58700   2.60088   2.60929
 Alpha virt. eigenvalues --    2.62293   2.65910   2.66189   2.70848   2.71493
 Alpha virt. eigenvalues --    2.73834   2.74841   2.81219   2.82832   2.85393
 Alpha virt. eigenvalues --    2.86024   2.92426   2.93027   2.96552   2.97467
 Alpha virt. eigenvalues --    3.01107   3.03072   3.04218   3.07708   3.10662
 Alpha virt. eigenvalues --    3.12515   3.17721   3.19144   3.19737   3.22087
 Alpha virt. eigenvalues --    3.25570   3.26678   3.30089   3.30236   3.30872
 Alpha virt. eigenvalues --    3.34333   3.36035   3.39420   3.41173   3.42921
 Alpha virt. eigenvalues --    3.46165   3.54587   3.62055   3.68264   3.70453
 Alpha virt. eigenvalues --    3.75456   3.78493   3.78992   3.79502   3.80117
 Alpha virt. eigenvalues --    3.81542   3.82174   3.82703   3.82896   3.83254
 Alpha virt. eigenvalues --    3.83727   3.85013   3.86079   3.87605   3.88355
 Alpha virt. eigenvalues --    3.88414   3.90113   3.90444   3.90916   3.91103
 Alpha virt. eigenvalues --    3.93451   3.97698   3.98106   4.01555   4.02318
 Alpha virt. eigenvalues --    4.07492   4.10293   4.11305   4.18777   4.26326
 Alpha virt. eigenvalues --    4.28780   4.29368   4.32027   4.37683   4.56836
 Alpha virt. eigenvalues --    4.77399   5.08212   5.10279   5.15609   5.36966
 Alpha virt. eigenvalues --    5.49705   5.80014   5.96132   6.34621   6.36057
 Alpha virt. eigenvalues --    6.38295   6.40320   6.41550   6.42931   6.47277
 Alpha virt. eigenvalues --    6.51229   6.51856   6.53514   6.54932   6.62866
 Alpha virt. eigenvalues --    6.64007   6.64695   6.70233   8.22301   9.96165
 Alpha virt. eigenvalues --   17.50677  17.55610  17.60507  23.46912  23.58130
 Alpha virt. eigenvalues --   23.73123  23.82955  23.91261  23.92327  23.96918
 Alpha virt. eigenvalues --   24.08512  24.10986  24.19421  25.92996  26.22871
 Alpha virt. eigenvalues --   26.72733  35.66267  50.02011  50.12764  66.88657
 Alpha virt. eigenvalues --   66.90384  66.95706  66.97759  67.06276 189.46629
 Alpha virt. eigenvalues --  216.06237
          Condensed to atoms (all electrons):
               1          2          3          4          5          6
     1  C   30.292430  -0.629040  -1.193729  -0.185545  -0.247898  -0.598656
     2  N   -0.629040   7.563816   0.344700  -0.029849  -0.146070  -0.329202
     3  C   -1.193729   0.344700   8.685811   0.505079   0.346763  -0.652280
     4  O   -0.185545  -0.029849   0.505079   8.164485  -0.183417  -0.140743
     5  O   -0.247898  -0.146070   0.346763  -0.183417   8.271332   0.288558
     6  C   -0.598656  -0.329202  -0.652280  -0.140743   0.288558   8.448558
     7  C   -0.015220   0.032916   0.119012   0.029880  -0.156614  -0.998777
     8  C   -0.017696  -0.009086  -0.257534  -0.000854   0.031259   0.338400
     9  C   -5.507483   0.215043   0.004069   0.288538  -0.007872  -0.323114
    10  C   -3.989060   0.321719   0.724572   0.037631   0.030528   0.011933
    11  C   -5.542832   0.028861  -0.566858  -0.017518  -0.014314  -0.036884
    12  C   -0.493023  -0.011268  -0.698779   0.028387   0.015007  -0.072204
    13  C   -3.773421  -0.094724  -1.479871  -0.086785  -0.088417  -0.181497
    14  H   -0.006780   0.261853  -0.000683  -0.000020   0.013423   0.003828
    15  H    0.004469   0.004560   0.028835  -0.001239  -0.041564   0.363733
    16  H    0.005779   0.003752   0.036798  -0.001556  -0.041101   0.351843
    17  H   -0.000130  -0.000751   0.003299  -0.000269   0.001308  -0.061381
    18  H   -0.000234  -0.000900   0.005901  -0.000285   0.001642  -0.068913
    19  H   -0.000111  -0.000038  -0.002144  -0.000055  -0.000311  -0.050433
    20  H    0.000093   0.000041   0.007751   0.000030  -0.000644   0.091176
    21  H   -0.000038  -0.000038  -0.001468  -0.000060  -0.000364  -0.049834
    22  H    0.059733  -0.023464   0.093294   0.002296   0.002082   0.007957
    23  Cl  -0.079100  -0.012472  -0.073219   0.000223  -0.000069  -0.003121
    24  H    0.109519  -0.018466  -0.004702   0.000077  -0.000438  -0.000544
    25  S   -0.586739   0.021829  -0.039828  -0.002375   0.000310   0.003255
    26  H    0.004601   0.001438   0.004828  -0.000021   0.000003   0.000045
    27  F   -0.214921   0.001351   0.005520   0.000254   0.000042   0.000102
    28  F    0.139720  -0.000266  -0.001763   0.000019  -0.000002  -0.000029
    29  F   -0.232846   0.001797   0.005819   0.000457   0.000053   0.000120
    30  F    0.141644  -0.000137  -0.001922  -0.000010  -0.000002  -0.000041
    31  F   -0.017158  -0.000153  -0.001893   0.000038  -0.000001  -0.000031
               7          8          9         10         11         12
     1  C   -0.015220  -0.017696  -5.507483  -3.989060  -5.542832  -0.493023
     2  N    0.032916  -0.009086   0.215043   0.321719   0.028861  -0.011268
     3  C    0.119012  -0.257534   0.004069   0.724572  -0.566858  -0.698779
     4  O    0.029880  -0.000854   0.288538   0.037631  -0.017518   0.028387
     5  O   -0.156614   0.031259  -0.007872   0.030528  -0.014314   0.015007
     6  C   -0.998777   0.338400  -0.323114   0.011933  -0.036884  -0.072204
     7  C    6.596005  -0.188889  -0.020989  -0.015593   0.002510  -0.003508
     8  C   -0.188889   6.161239  -0.008873   0.001233  -0.000174  -0.001442
     9  C   -0.020989  -0.008873  15.892444   2.309895  -2.572554  -3.899722
    10  C   -0.015593   0.001233   2.309895  30.351957  -2.862732  -5.430514
    11  C    0.002510  -0.000174  -2.572554  -2.862732  17.938987  -0.748610
    12  C   -0.003508  -0.001442  -3.899722  -5.430514  -0.748610  24.142795
    13  C    0.044110  -0.004644  -1.120772 -12.343579  -0.823954  -5.553607
    14  H   -0.003699  -0.000276   0.077294   0.037823  -0.016683   0.026661
    15  H   -0.024145  -0.013403   0.000624   0.000193   0.000054  -0.000036
    16  H   -0.017891  -0.015882  -0.001148   0.000127   0.000085  -0.000097
    17  H    0.442239  -0.043490   0.000428   0.000025  -0.000003   0.000010
    18  H    0.450908  -0.047248   0.000037  -0.000004   0.000002   0.000016
    19  H    0.015769   0.380634  -0.000023  -0.000007   0.000000   0.000000
    20  H   -0.131613   0.382875   0.000042   0.000000  -0.000000   0.000001
    21  H    0.012846   0.382255  -0.000036  -0.000007   0.000000   0.000001
    22  H   -0.000618   0.000035   0.307373  -0.075243  -0.032363  -0.001333
    23  Cl  -0.000015  -0.000007   0.106027  -0.026858   0.149363  -1.275954
    24  H   -0.000048  -0.000002  -0.034712   0.055252  -0.014914   0.120105
    25  S    0.000092  -0.000014   0.157050  -2.884844   0.970965  -0.191520
    26  H   -0.000001   0.000000  -0.007893  -0.125410   0.293543   0.094969
    27  F   -0.000002   0.000004  -0.130575  -0.089864   0.297654   0.096298
    28  F    0.000001  -0.000000   0.121085   0.447916  -0.353168  -0.200069
    29  F   -0.000001   0.000004  -0.140169  -0.065192   0.296625   0.094565
    30  F    0.000001  -0.000000   0.119675   0.446790  -0.357474  -0.194280
    31  F    0.000000  -0.000000  -0.042011   0.077229   0.026992  -0.022056
              13         14         15         16         17         18
     1  C   -3.773421  -0.006780   0.004469   0.005779  -0.000130  -0.000234
     2  N   -0.094724   0.261853   0.004560   0.003752  -0.000751  -0.000900
     3  C   -1.479871  -0.000683   0.028835   0.036798   0.003299   0.005901
     4  O   -0.086785  -0.000020  -0.001239  -0.001556  -0.000269  -0.000285
     5  O   -0.088417   0.013423  -0.041564  -0.041101   0.001308   0.001642
     6  C   -0.181497   0.003828   0.363733   0.351843  -0.061381  -0.068913
     7  C    0.044110  -0.003699  -0.024145  -0.017891   0.442239   0.450908
     8  C   -0.004644  -0.000276  -0.013403  -0.015882  -0.043490  -0.047248
     9  C   -1.120772   0.077294   0.000624  -0.001148   0.000428   0.000037
    10  C  -12.343579   0.037823   0.000193   0.000127   0.000025  -0.000004
    11  C   -0.823954  -0.016683   0.000054   0.000085  -0.000003   0.000002
    12  C   -5.553607   0.026661  -0.000036  -0.000097   0.000010   0.000016
    13  C   30.396881  -0.136190  -0.000002   0.000712  -0.000173   0.000195
    14  H   -0.136190   0.245209  -0.000044  -0.000035   0.000012  -0.000004
    15  H   -0.000002  -0.000044   0.425140  -0.038213   0.004938  -0.007365
    16  H    0.000712  -0.000035  -0.038213   0.425913  -0.007561   0.004962
    17  H   -0.000173   0.000012   0.004938  -0.007561   0.431257  -0.036172
    18  H    0.000195  -0.000004  -0.007365   0.004962  -0.036172   0.431094
    19  H    0.000025  -0.000000  -0.000356   0.003117  -0.007561   0.005703
    20  H   -0.000010  -0.000000  -0.000154  -0.000158  -0.003117  -0.003115
    21  H    0.000023  -0.000000   0.003156  -0.000338   0.005691  -0.007565
    22  H   -0.034299   0.000028  -0.000018  -0.000029  -0.000000  -0.000000
    23  Cl   0.276434   0.000092   0.000001   0.000001   0.000000   0.000000
    24  H    0.120635   0.004214  -0.000000  -0.000001  -0.000000  -0.000000
    25  S    1.046981   0.000667   0.000002   0.000002   0.000000   0.000000
    26  H    0.014073   0.000010  -0.000000  -0.000000   0.000000   0.000000
    27  F    0.038987   0.000008   0.000001   0.000001   0.000000   0.000000
    28  F   -0.064438  -0.000001   0.000000   0.000000  -0.000000  -0.000000
    29  F    0.038658   0.000009   0.000001   0.000001   0.000000   0.000000
    30  F   -0.066248  -0.000000   0.000000   0.000000   0.000000  -0.000000
    31  F    0.008696  -0.000000   0.000000   0.000000  -0.000000  -0.000000
              19         20         21         22         23         24
     1  C   -0.000111   0.000093  -0.000038   0.059733  -0.079100   0.109519
     2  N   -0.000038   0.000041  -0.000038  -0.023464  -0.012472  -0.018466
     3  C   -0.002144   0.007751  -0.001468   0.093294  -0.073219  -0.004702
     4  O   -0.000055   0.000030  -0.000060   0.002296   0.000223   0.000077
     5  O   -0.000311  -0.000644  -0.000364   0.002082  -0.000069  -0.000438
     6  C   -0.050433   0.091176  -0.049834   0.007957  -0.003121  -0.000544
     7  C    0.015769  -0.131613   0.012846  -0.000618  -0.000015  -0.000048
     8  C    0.380634   0.382875   0.382255   0.000035  -0.000007  -0.000002
     9  C   -0.000023   0.000042  -0.000036   0.307373   0.106027  -0.034712
    10  C   -0.000007   0.000000  -0.000007  -0.075243  -0.026858   0.055252
    11  C    0.000000  -0.000000   0.000000  -0.032363   0.149363  -0.014914
    12  C    0.000000   0.000001   0.000001  -0.001333  -1.275954   0.120105
    13  C    0.000025  -0.000010   0.000023  -0.034299   0.276434   0.120635
    14  H   -0.000000  -0.000000  -0.000000   0.000028   0.000092   0.004214
    15  H   -0.000356  -0.000154   0.003156  -0.000018   0.000001  -0.000000
    16  H    0.003117  -0.000158  -0.000338  -0.000029   0.000001  -0.000001
    17  H   -0.007561  -0.003117   0.005691  -0.000000   0.000000  -0.000000
    18  H    0.005703  -0.003115  -0.007565  -0.000000   0.000000  -0.000000
    19  H    0.443608  -0.024050  -0.036202  -0.000000  -0.000000  -0.000000
    20  H   -0.024050   0.420696  -0.023968   0.000000  -0.000000   0.000000
    21  H   -0.036202  -0.023968   0.443324  -0.000000  -0.000000  -0.000000
    22  H   -0.000000   0.000000  -0.000000   0.334049  -0.000140   0.000035
    23  Cl  -0.000000  -0.000000  -0.000000  -0.000140  17.585476  -0.013489
    24  H   -0.000000   0.000000  -0.000000   0.000035  -0.013489   0.353005
    25  S    0.000000   0.000000   0.000000   0.009434  -0.019687   0.000066
    26  H   -0.000000  -0.000000  -0.000000   0.000032  -0.018266  -0.000161
    27  F   -0.000000  -0.000000  -0.000000  -0.000841  -0.000360  -0.000008
    28  F   -0.000000   0.000000  -0.000000  -0.000652  -0.000113   0.000001
    29  F   -0.000000  -0.000000  -0.000000  -0.001898  -0.000380  -0.000009
    30  F   -0.000000   0.000000  -0.000000  -0.000741  -0.000334   0.000001
    31  F   -0.000000   0.000000  -0.000000  -0.000736   0.000209   0.000000
              25         26         27         28         29         30
     1  C   -0.586739   0.004601  -0.214921   0.139720  -0.232846   0.141644
     2  N    0.021829   0.001438   0.001351  -0.000266   0.001797  -0.000137
     3  C   -0.039828   0.004828   0.005520  -0.001763   0.005819  -0.001922
     4  O   -0.002375  -0.000021   0.000254   0.000019   0.000457  -0.000010
     5  O    0.000310   0.000003   0.000042  -0.000002   0.000053  -0.000002
     6  C    0.003255   0.000045   0.000102  -0.000029   0.000120  -0.000041
     7  C    0.000092  -0.000001  -0.000002   0.000001  -0.000001   0.000001
     8  C   -0.000014   0.000000   0.000004  -0.000000   0.000004  -0.000000
     9  C    0.157050  -0.007893  -0.130575   0.121085  -0.140169   0.119675
    10  C   -2.884844  -0.125410  -0.089864   0.447916  -0.065192   0.446790
    11  C    0.970965   0.293543   0.297654  -0.353168   0.296625  -0.357474
    12  C   -0.191520   0.094969   0.096298  -0.200069   0.094565  -0.194280
    13  C    1.046981   0.014073   0.038987  -0.064438   0.038658  -0.066248
    14  H    0.000667   0.000010   0.000008  -0.000001   0.000009  -0.000000
    15  H    0.000002  -0.000000   0.000001   0.000000   0.000001   0.000000
    16  H    0.000002  -0.000000   0.000001   0.000000   0.000001   0.000000
    17  H    0.000000   0.000000   0.000000  -0.000000   0.000000   0.000000
    18  H    0.000000   0.000000   0.000000  -0.000000   0.000000  -0.000000
    19  H    0.000000  -0.000000  -0.000000  -0.000000  -0.000000  -0.000000
    20  H    0.000000  -0.000000  -0.000000   0.000000  -0.000000   0.000000
    21  H    0.000000  -0.000000  -0.000000  -0.000000  -0.000000  -0.000000
    22  H    0.009434   0.000032  -0.000841  -0.000652  -0.001898  -0.000741
    23  Cl  -0.019687  -0.018266  -0.000360  -0.000113  -0.000380  -0.000334
    24  H    0.000066  -0.000161  -0.000008   0.000001  -0.000009   0.000001
    25  S   17.112677   0.042494   0.040271  -0.038153   0.045173  -0.038002
    26  H    0.042494   0.341042  -0.000000  -0.001158   0.000002  -0.001280
    27  F    0.040271  -0.000000   8.983057  -0.032950  -0.006056  -0.055211
    28  F   -0.038153  -0.001158  -0.032950   8.983801  -0.053985  -0.004828
    29  F    0.045173   0.000002  -0.006056  -0.053985   8.984600  -0.032949
    30  F   -0.038002  -0.001280  -0.055211  -0.004828  -0.032949   8.983679
    31  F   -0.215320  -0.000801   0.012060   0.013545   0.011943   0.014095
              31
     1  C   -0.017158
     2  N   -0.000153
     3  C   -0.001893
     4  O    0.000038
     5  O   -0.000001
     6  C   -0.000031
     7  C    0.000000
     8  C   -0.000000
     9  C   -0.042011
    10  C    0.077229
    11  C    0.026992
    12  C   -0.022056
    13  C    0.008696
    14  H   -0.000000
    15  H    0.000000
    16  H    0.000000
    17  H   -0.000000
    18  H   -0.000000
    19  H   -0.000000
    20  H    0.000000
    21  H   -0.000000
    22  H   -0.000736
    23  Cl   0.000209
    24  H    0.000000
    25  S   -0.215320
    26  H   -0.000801
    27  F    0.012060
    28  F    0.013545
    29  F    0.011943
    30  F    0.014095
    31  F    9.138546
 Mulliken charges:
               1
     1  C   -1.426328
     2  N   -0.497751
     3  C    0.054621
     4  O   -0.406795
     5  O   -0.073212
     6  C   -0.341824
     7  C   -0.168669
     8  C   -1.068423
     9  C    0.218319
    10  C   -0.945917
    11  C   -0.044606
    12  C    0.179203
    13  C   -0.133778
    14  H    0.493285
    15  H    0.290833
    16  H    0.290918
    17  H    0.271399
    18  H    0.271348
    19  H    0.272435
    20  H    0.284123
    21  H    0.272621
    22  H    0.356025
    23  Cl   0.405759
    24  H    0.324582
    25  S    0.565214
    26  H    0.357910
    27  F    0.055180
    28  F    0.045487
    29  F    0.053658
    30  F    0.047574
    31  F   -0.003194
 Sum of Mulliken charges =  -0.00000
 Mulliken charges with hydrogens summed into heavy atoms:
               1
     1  C   -1.426328
     2  N   -0.004467
     3  C    0.054621
     4  O   -0.406795
     5  O   -0.073212
     6  C    0.239927
     7  C    0.374079
     8  C   -0.239243
     9  C    0.574344
    10  C   -0.945917
    11  C    0.313304
    12  C    0.179203
    13  C    0.190804
    23  Cl   0.405759
    25  S    0.565214
    27  F    0.055180
    28  F    0.045487
    29  F    0.053658
    30  F    0.047574
    31  F   -0.003194
 Electronic spatial extent (au):  <R**2>=           9667.1054
 Charge=             -0.0000 electrons
 Dipole moment (field-independent basis, Debye):
    X=             -6.9686    Y=              5.9978    Z=             -0.1430  Tot=              9.1954
 Quadrupole moment (field-independent basis, Debye-Ang):
   XX=           -113.7240   YY=           -133.2485   ZZ=           -132.5618
   XY=              1.4610   XZ=              0.1872   YZ=              0.0674
 Traceless Quadrupole moment (field-independent basis, Debye-Ang):
   XX=             12.7874   YY=             -6.7371   ZZ=             -6.0504
   XY=              1.4610   XZ=              0.1872   YZ=              0.0674
 Octapole moment (field-independent basis, Debye-Ang**2):
  XXX=           -115.8855  YYY=            -16.7171  ZZZ=              0.3274  XYY=            -10.4789
  XXY=              4.6180  XXZ=              0.6686  XZZ=              9.1916  YZZ=            -18.0805
  YYZ=             -1.0506  XYZ=             -0.2546
 Hexadecapole moment (field-independent basis, Debye-Ang**3):
 XXXX=          -8164.5038 YYYY=          -2777.2462 ZZZZ=           -308.8243 XXXY=             30.9688
 XXXZ=              0.2742 YYYX=           -167.5568 YYYZ=             -0.3944 ZZZX=             -0.4396
 ZZZY=             -0.3564 XXYY=          -2019.6688 XXZZ=          -1557.7529 YYZZ=           -528.3962
 XXYZ=              2.7800 YYXZ=              3.1675 ZZXY=            -35.2247
 N-N= 2.025908245101D+03 E-N=-8.662291091162D+03  KE= 1.945623855637D+03
 D1PCM: PCM CHGder 1st derivatives, ID1Alg=3 FixD1E=F DoIter=F DoCFld=F I1PDM=0.
 Calling FoFJK, ICntrl=      2127 FMM=F ISym2X=0 I1Cent= 0 IOpClX= 0 NMat=1 NMatS=1 NMatT=0.
 ***** Axes restored to original set *****
 -------------------------------------------------------------------
 Center     Atomic                   Forces (Hartrees/Bohr)
 Number     Number              X              Y              Z
 -------------------------------------------------------------------
      1        6           0.000000100    0.000000297    0.000002178
      2        7          -0.000003453   -0.000000502    0.000002059
      3        6          -0.000001574    0.000001019   -0.000001405
      4        8           0.000000197   -0.000001668   -0.000001182
      5        8          -0.000002559   -0.000002545   -0.000000596
      6        6           0.000005094    0.000000566   -0.000002838
      7        6          -0.000002398   -0.000001144   -0.000001085
      8        6           0.000000088   -0.000002335   -0.000003903
      9        6           0.000001069    0.000000395    0.000001208
     10        6           0.000000914    0.000000181    0.000001561
     11        6           0.000000998    0.000001837    0.000003688
     12        6           0.000000499    0.000001070    0.000005401
     13        6          -0.000000278    0.000001289    0.000005307
     14        1          -0.000001038    0.000000159    0.000003810
     15        1           0.000000663    0.000000306   -0.000003759
     16        1          -0.000000891   -0.000002889   -0.000003051
     17        1          -0.000001817   -0.000003238   -0.000000133
     18        1           0.000000501   -0.000000179   -0.000000700
     19        1          -0.000001944   -0.000003768   -0.000005041
     20        1          -0.000001308   -0.000002132   -0.000003443
     21        1           0.000000389   -0.000000594   -0.000005597
     22        1          -0.000000676    0.000000672   -0.000001744
     23       17          -0.000000362    0.000002052    0.000008982
     24        1          -0.000000375    0.000001378    0.000006626
     25       16           0.000001991    0.000003212   -0.000006660
     26        1           0.000000616    0.000002224    0.000004505
     27        9          -0.000002434   -0.000000767   -0.000001282
     28        9           0.000001161    0.000000681    0.000000912
     29        9           0.000003157    0.000003002   -0.000000775
     30        9           0.000001409    0.000003572    0.000000977
     31        9           0.000002261   -0.000002152   -0.000004018
 -------------------------------------------------------------------
 Cartesian Forces:  Max     0.000008982 RMS     0.000002623

 GradGradGradGradGradGradGradGradGradGradGradGradGradGradGradGradGradGrad
 Berny optimization.
 FormGI is forming the generalized inverse of G from B-inverse, IUseBI=4.
 GSVD:  received Info=                   1 from GESDD.
 Internal  Forces:  Max     0.000005342 RMS     0.000000835
 Search for a local minimum.
 Step number   1 out of a maximum of  165
 All quantities printed in internal units (Hartrees-Bohrs-Radians)
 Mixed Optimization -- En-DIIS/RFO-DIIS
 Second derivative matrix not updated -- first step.
 ITU=  0
     Eigenvalues ---    0.00254   0.00437   0.00614   0.01101   0.01394
     Eigenvalues ---    0.01749   0.01952   0.02012   0.02136   0.02150
     Eigenvalues ---    0.02200   0.02216   0.02257   0.02268   0.02277
     Eigenvalues ---    0.02283   0.02294   0.02540   0.03894   0.05010
     Eigenvalues ---    0.05447   0.05548   0.05579   0.05740   0.08034
     Eigenvalues ---    0.09058   0.09060   0.11242   0.11950   0.13567
     Eigenvalues ---    0.13572   0.13579   0.13588   0.13599   0.15994
     Eigenvalues ---    0.16000   0.16000   0.16000   0.16000   0.16000
     Eigenvalues ---    0.16000   0.16720   0.21889   0.21984   0.22002
     Eigenvalues ---    0.23487   0.23513   0.23525   0.25000   0.25000
     Eigenvalues ---    0.25000   0.25000   0.25000   0.25000   0.25000
     Eigenvalues ---    0.25000   0.25434   0.29905   0.31201   0.31353
     Eigenvalues ---    0.34423   0.34428   0.34480   0.34481   0.34597
     Eigenvalues ---    0.34603   0.34681   0.35481   0.35791   0.36228
     Eigenvalues ---    0.38949   0.42671   0.43227   0.45441   0.46351
     Eigenvalues ---    0.46529   0.47048   0.47909   0.48097   0.48115
     Eigenvalues ---    0.48139   0.48148   0.48161   0.48516   0.51883
     Eigenvalues ---    0.58146   0.97899
 RFO step:  Lambda= 0.00000000D+00 EMin= 2.53712084D-03
 Linear search not attempted -- first point.
 Iteration  1 RMS(Cart)=  0.00011198 RMS(Int)=  0.00000001
 Iteration  2 RMS(Cart)=  0.00000001 RMS(Int)=  0.00000000
 Variable       Old X    -DE/DX   Delta X   Delta X   Delta X     New X
                                 (Linear)    (Quad)   (Total)
    R1        2.63737  -0.00000   0.00000  -0.00000  -0.00000   2.63737
    R2        2.63960  -0.00000   0.00000  -0.00000  -0.00000   2.63960
    R3        2.64417  -0.00000   0.00000  -0.00000  -0.00000   2.64417
    R4        2.58011   0.00000   0.00000   0.00000   0.00000   2.58012
    R5        1.91467  -0.00000   0.00000  -0.00000  -0.00000   1.91467
    R6        2.29492  -0.00000   0.00000  -0.00000  -0.00000   2.29492
    R7        2.52438   0.00000   0.00000   0.00000   0.00000   2.52438
    R8        2.73007   0.00001   0.00000   0.00001   0.00001   2.73008
    R9        2.85631  -0.00000   0.00000  -0.00000  -0.00000   2.85630
   R10        2.06334  -0.00000   0.00000  -0.00000  -0.00000   2.06334
   R11        2.06324  -0.00000   0.00000  -0.00000  -0.00000   2.06324
   R12        2.88153  -0.00000   0.00000  -0.00000  -0.00000   2.88153
   R13        2.06614  -0.00000   0.00000  -0.00000  -0.00000   2.06614
   R14        2.06621  -0.00000   0.00000  -0.00000  -0.00000   2.06621
   R15        2.06528  -0.00000   0.00000  -0.00000  -0.00000   2.06527
   R16        2.06196  -0.00000   0.00000  -0.00000  -0.00000   2.06196
   R17        2.06526  -0.00000   0.00000  -0.00000  -0.00000   2.06526
   R18        2.61787  -0.00000   0.00000  -0.00000  -0.00000   2.61787
   R19        2.03726  -0.00000   0.00000  -0.00000  -0.00000   2.03726
   R20        2.61476  -0.00000   0.00000  -0.00000  -0.00000   2.61476
   R21        3.41816  -0.00000   0.00000  -0.00000  -0.00000   3.41816
   R22        2.62514  -0.00000   0.00000  -0.00000  -0.00000   2.62514
   R23        2.04410   0.00000   0.00000   0.00000   0.00000   2.04410
   R24        2.61166  -0.00000   0.00000  -0.00000  -0.00000   2.61166
   R25        3.29044  -0.00000   0.00000  -0.00000  -0.00000   3.29044
   R26        2.04902  -0.00000   0.00000  -0.00000  -0.00000   2.04902
   R27        3.05491  -0.00000   0.00000  -0.00001  -0.00001   3.05491
   R28        3.05517  -0.00000   0.00000  -0.00000  -0.00000   3.05517
   R29        3.05468   0.00000   0.00000   0.00000   0.00000   3.05468
   R30        3.05536   0.00000   0.00000   0.00000   0.00000   3.05537
   R31        3.05736  -0.00000   0.00000  -0.00001  -0.00001   3.05735
    A1        2.15592   0.00000   0.00000   0.00000   0.00000   2.15592
    A2        2.03799  -0.00000   0.00000  -0.00000  -0.00000   2.03799
    A3        2.08927   0.00000   0.00000   0.00000   0.00000   2.08927
    A4        2.22344  -0.00000   0.00000  -0.00000  -0.00000   2.22344
    A5        2.03528   0.00000   0.00000   0.00000   0.00000   2.03528
    A6        2.02381   0.00000   0.00000   0.00000   0.00000   2.02381
    A7        2.19626  -0.00000   0.00000  -0.00000  -0.00000   2.19626
    A8        1.91716   0.00000   0.00000   0.00001   0.00001   1.91717
    A9        2.16976  -0.00000   0.00000  -0.00001  -0.00001   2.16976
   A10        2.02532   0.00000   0.00000   0.00000   0.00000   2.02532
   A11        1.87795  -0.00000   0.00000  -0.00000  -0.00000   1.87795
   A12        1.89370   0.00000   0.00000   0.00000   0.00000   1.89370
   A13        1.89468  -0.00000   0.00000  -0.00000  -0.00000   1.89467
   A14        1.94708   0.00000   0.00000   0.00000   0.00000   1.94708
   A15        1.94763   0.00000   0.00000  -0.00000  -0.00000   1.94763
   A16        1.90130  -0.00000   0.00000  -0.00000  -0.00000   1.90130
   A17        1.92689  -0.00000   0.00000  -0.00000  -0.00000   1.92689
   A18        1.90506   0.00000   0.00000   0.00000   0.00000   1.90507
   A19        1.90447   0.00000   0.00000   0.00000   0.00000   1.90447
   A20        1.92559  -0.00000   0.00000  -0.00001  -0.00001   1.92559
   A21        1.92514   0.00000   0.00000   0.00000   0.00000   1.92514
   A22        1.87579  -0.00000   0.00000  -0.00000  -0.00000   1.87578
   A23        1.93983  -0.00000   0.00000  -0.00001  -0.00001   1.93983
   A24        1.93517   0.00000   0.00000   0.00000   0.00000   1.93517
   A25        1.93923   0.00000   0.00000   0.00000   0.00000   1.93923
   A26        1.88214   0.00000   0.00000   0.00000   0.00000   1.88214
   A27        1.88294   0.00000   0.00000  -0.00000  -0.00000   1.88294
   A28        1.88214   0.00000   0.00000   0.00000   0.00000   1.88214
   A29        2.05449  -0.00000   0.00000  -0.00000  -0.00000   2.05449
   A30        2.10781   0.00000   0.00000   0.00001   0.00001   2.10782
   A31        2.12088  -0.00000   0.00000  -0.00001  -0.00001   2.12088
   A32        2.17337   0.00000   0.00000   0.00000   0.00000   2.17338
   A33        2.05000  -0.00000   0.00000  -0.00000  -0.00000   2.05000
   A34        2.05981  -0.00000   0.00000  -0.00000  -0.00000   2.05981
   A35        2.02312  -0.00000   0.00000  -0.00000  -0.00000   2.02312
   A36        2.14644  -0.00000   0.00000  -0.00000  -0.00000   2.14644
   A37        2.11362   0.00000   0.00000   0.00000   0.00000   2.11362
   A38        2.13539  -0.00000   0.00000  -0.00000  -0.00000   2.13539
   A39        2.07253  -0.00000   0.00000  -0.00000  -0.00000   2.07253
   A40        2.07526   0.00000   0.00000   0.00000   0.00000   2.07526
   A41        2.09071   0.00000   0.00000   0.00000   0.00000   2.09071
   A42        2.09210  -0.00000   0.00000  -0.00000  -0.00000   2.09210
   A43        2.10037   0.00000   0.00000   0.00000   0.00000   2.10037
   A44        1.62378   0.00000   0.00000   0.00000   0.00000   1.62378
   A45        1.62371   0.00000   0.00000   0.00000   0.00000   1.62371
   A46        1.62402   0.00000   0.00000   0.00000   0.00000   1.62402
   A47        1.62331  -0.00000   0.00000   0.00000   0.00000   1.62331
   A48        1.56776  -0.00000   0.00000  -0.00000  -0.00000   1.56775
   A49        1.56858   0.00000   0.00000   0.00001   0.00001   1.56858
   A50        1.51800  -0.00000   0.00000  -0.00000  -0.00000   1.51800
   A51        1.56791   0.00000   0.00000  -0.00000  -0.00000   1.56791
   A52        1.51780  -0.00000   0.00000  -0.00000  -0.00000   1.51779
   A53        1.56775  -0.00000   0.00000  -0.00000  -0.00000   1.56775
   A54        1.51766  -0.00000   0.00000  -0.00000  -0.00000   1.51766
   A55        1.51810   0.00000   0.00000  -0.00000  -0.00000   1.51810
   A56        3.14178  -0.00000   0.00000  -0.00000  -0.00000   3.14178
   A57        3.24708   0.00000   0.00000   0.00000   0.00000   3.24709
   A58        3.24773   0.00000   0.00000   0.00000   0.00000   3.24773
   A59        3.14151  -0.00000   0.00000  -0.00000  -0.00000   3.14151
   A60        3.14194   0.00000   0.00000   0.00000   0.00000   3.14194
   A61        3.14195   0.00000   0.00000   0.00000   0.00000   3.14196
    D1        0.06966  -0.00000   0.00000  -0.00000  -0.00000   0.06966
    D2       -3.11251   0.00000   0.00000   0.00002   0.00002  -3.11249
    D3       -3.07691  -0.00000   0.00000  -0.00002  -0.00002  -3.07693
    D4        0.02410  -0.00000   0.00000  -0.00000  -0.00000   0.02410
    D5        3.14115  -0.00000   0.00000  -0.00003  -0.00003   3.14112
    D6       -0.00043  -0.00000   0.00000  -0.00001  -0.00001  -0.00044
    D7        0.00468  -0.00000   0.00000  -0.00002  -0.00002   0.00467
    D8       -3.13690   0.00000   0.00000   0.00001   0.00001  -3.13689
    D9       -3.13958   0.00000   0.00000   0.00003   0.00003  -3.13955
   D10        0.00276   0.00000   0.00000   0.00002   0.00002   0.00278
   D11       -0.00277   0.00000   0.00000   0.00001   0.00001  -0.00276
   D12        3.13957   0.00000   0.00000   0.00000   0.00000   3.13957
   D13       -0.01840   0.00000   0.00000   0.00004   0.00004  -0.01836
   D14        3.12315   0.00000   0.00000   0.00003   0.00003   3.12318
   D15       -3.11965   0.00000   0.00000   0.00002   0.00002  -3.11963
   D16        0.02190   0.00000   0.00000   0.00001   0.00001   0.02191
   D17       -3.13342  -0.00000   0.00000  -0.00004  -0.00004  -3.13346
   D18        0.00813  -0.00000   0.00000  -0.00005  -0.00005   0.00808
   D19        3.13817  -0.00000   0.00000  -0.00005  -0.00005   3.13812
   D20        1.02910  -0.00000   0.00000  -0.00005  -0.00005   1.02905
   D21       -1.03474  -0.00000   0.00000  -0.00005  -0.00005  -1.03479
   D22       -3.13505  -0.00000   0.00000  -0.00005  -0.00005  -3.13511
   D23        1.02867  -0.00000   0.00000  -0.00005  -0.00005   1.02863
   D24       -1.01654  -0.00000   0.00000  -0.00005  -0.00005  -1.01659
   D25       -1.05987  -0.00000   0.00000  -0.00005  -0.00005  -1.05992
   D26        3.10385   0.00000   0.00000  -0.00004  -0.00004   3.10381
   D27        1.05864  -0.00000   0.00000  -0.00004  -0.00004   1.05860
   D28        1.07144  -0.00000   0.00000  -0.00005  -0.00005   1.07139
   D29       -1.04802  -0.00000   0.00000  -0.00004  -0.00004  -1.04806
   D30       -3.09323  -0.00000   0.00000  -0.00005  -0.00005  -3.09328
   D31       -1.04704   0.00000   0.00000  -0.00001  -0.00001  -1.04705
   D32       -3.14033   0.00000   0.00000  -0.00001  -0.00001  -3.14034
   D33        1.04997  -0.00000   0.00000  -0.00001  -0.00001   1.04995
   D34        1.06020   0.00000   0.00000  -0.00001  -0.00001   1.06018
   D35       -1.03309   0.00000   0.00000  -0.00001  -0.00001  -1.03310
   D36       -3.12598  -0.00000   0.00000  -0.00001  -0.00001  -3.12599
   D37        3.12994  -0.00000   0.00000  -0.00002  -0.00002   3.12992
   D38        1.03665  -0.00000   0.00000  -0.00001  -0.00001   1.03664
   D39       -1.05623  -0.00000   0.00000  -0.00002  -0.00002  -1.05625
   D40       -0.00311   0.00000   0.00000   0.00001   0.00001  -0.00310
   D41        3.13906   0.00000   0.00000   0.00002   0.00002   3.13909
   D42        3.13848  -0.00000   0.00000  -0.00002  -0.00002   3.13846
   D43       -0.00254  -0.00000   0.00000  -0.00001  -0.00001  -0.00255
   D44       -0.00052   0.00000   0.00000   0.00000   0.00000  -0.00052
   D45       -3.14153  -0.00000   0.00000  -0.00000  -0.00000  -3.14153
   D46        3.14049  -0.00000   0.00000  -0.00001  -0.00001   3.14048
   D47       -0.00052  -0.00000   0.00000  -0.00001  -0.00001  -0.00053
   D48        0.79482   0.00000   0.00000  -0.00015  -0.00015   0.79468
   D49        2.36538  -0.00000   0.00000  -0.00015  -0.00015   2.36523
   D50       -0.77657  -0.00000   0.00000  -0.00015  -0.00015  -0.77672
   D51       -2.34711  -0.00000   0.00000  -0.00015  -0.00015  -2.34726
   D52       -2.34623   0.00000   0.00000  -0.00013  -0.00013  -2.34636
   D53       -0.77567  -0.00000   0.00000  -0.00014  -0.00014  -0.77581
   D54        2.36556  -0.00000   0.00000  -0.00014  -0.00014   2.36542
   D55        0.79502  -0.00000   0.00000  -0.00014  -0.00014   0.79488
   D56        0.00264  -0.00000   0.00000  -0.00001  -0.00001   0.00263
   D57       -3.13976  -0.00000   0.00000  -0.00000  -0.00000  -3.13977
   D58       -3.13953  -0.00000   0.00000  -0.00000  -0.00000  -3.13954
   D59        0.00126   0.00000   0.00000   0.00000   0.00000   0.00126
   D60       -0.00103   0.00000   0.00000  -0.00000  -0.00000  -0.00103
   D61        3.13981   0.00000   0.00000   0.00001   0.00001   3.13982
   D62        3.14137  -0.00000   0.00000  -0.00000  -0.00000   3.14136
   D63       -0.00098   0.00000   0.00000   0.00001   0.00001  -0.00097
         Item               Value     Threshold  Converged?
 Maximum Force            0.000005     0.000450     YES
 RMS     Force            0.000001     0.000300     YES
 Maximum Displacement     0.000435     0.001800     YES
 RMS     Displacement     0.000112     0.001200     YES
 Predicted change in Energy=-6.158628D-10
 Optimization completed.
    -- Stationary point found.
                           ----------------------------
                           !   Optimized Parameters   !
[...]
 .00000275,-0.00000057,-0.00005477,-0.00172329,-0.00103564,0.00165549,-
 0.00245793,-0.03957577,-0.00093468,0.00050237,-0.00034773,0.00012548,0
 .00036913,0.00366195,0.00029651,0.00018692,0.00005767,-0.00000444,-0.0
 0001502,-0.00000849,-0.00000881,-0.00000373,-0.00000735,0.00000237,0.0
 0000190,-0.00000637,0.00000041,-0.00000480,-0.00000326,-0.00000098,0.0
 0000657,-0.00000222,0.00000224,0.00000236,-0.00000215,-0.00000135,-0.0
 0000029,0.00000059,-0.00000270,-0.00000276,-0.00000270,0.00023550,-0.0
 0019521,-0.00146636,0.00013950,0.00015068,0.00023373,0.00000545,0.0000
 0908,-0.00020524,-0.00148788,0.00097386,0.52780951,-0.00002534,0.00005
 210,-0.00009090,0.00065194,-0.00001618,-0.00006708,-0.00035805,-0.0003
 8084,-0.00000958,-0.00009948,0.00025033,0.00000674,0.00011015,-0.00001
 105,0.00000185,-0.00002271,-0.00000653,0.00000188,0.00000372,0.0000055
 8,0.00000032,0.00000072,-0.00000308,-0.00000032,-0.00060839,-0.0036410
 4,0.00039850,-0.01490873,0.00793863,0.00127176,-0.31929945,0.09780184,
 0.02209086,0.00066806,-0.00065415,0.00014972,0.00119234,-0.00039899,0.
 00031075,-0.00000516,0.00002870,0.00000049,0.00000679,-0.00000014,0.00
 000032,0.00000592,0.00000097,-0.00000118,-0.00000033,-0.00000030,-0.00
 000028,-0.00000035,-0.00000020,0.00000023,0.00000008,0.00000012,-0.000
 00005,0.00000132,0.00000027,0.,0.00000004,0.00000011,0.00000005,-0.000
 34804,0.00053992,0.00010047,0.00104633,-0.00126265,-0.00028486,0.00019
 580,-0.00006806,-0.00000423,-0.00377745,-0.00123798,0.00009024,0.33298
 572,-0.00048030,-0.00120379,0.00004751,0.00006212,0.00026146,0.0000133
 1,0.00004795,-0.00016191,-0.00001671,-0.00016577,0.00012840,0.00000625
 ,-0.00002706,0.00005218,0.00000354,0.00001307,0.00000182,0.00000062,0.
 00000046,-0.00000079,0.00000014,-0.00000020,0.00000100,0.,-0.00311933,
 -0.00297777,0.00007330,-0.01779543,0.01129764,0.00142408,0.09693927,-0
 .09263926,-0.00801599,0.02791836,-0.00661112,-0.00214659,-0.00020648,-
 0.00526874,-0.00019239,-0.00009074,0.00000004,0.00000550,-0.00000131,-
 0.00000058,0.00000046,-0.00000125,-0.00000071,-0.00000033,-0.00000020,
 0.00000041,0.00000007,-0.00000014,0.00000038,0.,-0.00000004,-0.0000000
 5,0.,-0.00000040,-0.00000001,0.,-0.00000004,-0.00000006,0.,-0.00070444
 ,0.00061332,0.00005757,0.00060004,0.00102074,0.00000406,0.00131351,-0.
 00010809,-0.00009118,-0.00399425,-0.00086623,0.00028996,-0.10182779,0.
 09916433,-0.00011058,-0.00001422,-0.00128145,-0.00007128,0.00005224,-0
 .00043624,0.00002437,0.00004961,-0.00011378,0.00003827,-0.00002552,-0.
 00006001,-0.00001005,-0.00000539,0.00009625,0.00000254,0.00000007,0.00
 001857,-0.00000034,-0.00000059,0.00000080,-0.00000016,0.00000041,-0.00
 000150,0.00042876,0.00008437,0.00574032,0.00079392,-0.00035958,0.00121
 747,0.02202060,-0.00818234,-0.03417387,0.00069114,-0.00012392,0.002926
 29,0.00025464,-0.00016755,0.00548364,0.00000060,-0.00000981,0.00005998
 ,0.00000454,-0.00000579,-0.00000495,-0.00000540,0.00000553,-0.00000337
 ,0.00000022,-0.00000057,-0.00000039,-0.00000014,0.00000061,-0.00000032
 ,0.00000028,0.00000013,-0.00000013,-0.00000007,-0.00000001,0.00000001,
 -0.00000033,-0.00000007,-0.00000013,0.00005692,-0.00003769,0.00089058,
 -0.00025862,0.00017387,-0.00250963,0.00002455,0.00000623,0.00014308,0.
 00009322,0.00012593,-0.00144076,-0.02359089,0.00875676,0.02543886,0.00
 046133,0.00016574,-0.00078379,0.00060651,-0.00032224,-0.00011475,-0.00
 061907,-0.00042689,-0.00001748,0.00014992,0.00021559,0.00002814,0.0002
 8078,-0.00006243,-0.00001278,-0.00006737,-0.00004695,-0.00000024,0.000
 01561,0.00001329,0.00000083,0.00000224,-0.00000922,0.00000053,-0.00202
 847,-0.00052936,-0.00072652,-0.00597545,0.00472619,0.00928285,0.002595
 89,-0.00279871,0.00056459,-0.00029361,0.00040883,-0.00064995,0.0001624
 9,-0.00028909,0.00015552,0.00007177,0.00004540,0.00002805,0.00001504,0
 .00000053,0.00000406,0.00001457,0.00000488,-0.00000581,-0.00000048,-0.
 00000141,-0.00000023,0.00000013,-0.00000004,-0.00000041,0.00000143,0.0
 0000082,-0.00000093,0.00000336,0.00000149,0.00000013,0.00000075,0.0000
 0008,0.00000033,0.00130997,0.00076582,0.00031100,-0.00034927,-0.000609
 85,-0.00006239,0.00009323,0.00000991,0.00007815,-0.09620191,-0.0214668
 2,0.05408545,0.00032354,0.00049980,0.00020282,0.15622214,-0.00177788,0
 .00234576,-0.00012551,0.00184733,-0.00049569,-0.00011171,-0.00170208,-
 0.00075555,0.00005338,0.00061460,0.00046818,0.00000510,0.00078041,-0.0
 0024104,-0.00005501,-0.00019969,-0.00008127,0.00000422,0.00002510,0.00
 003991,0.00000076,0.00000421,-0.00002374,-0.00000103,0.00071618,-0.005
 22192,0.00271684,-0.02062389,-0.00754095,0.01984342,0.00516197,-0.0029
 0916,0.00220524,0.00046795,-0.00084732,-0.00166333,-0.00101400,-0.0011
 5467,0.00039526,0.00010310,0.00014392,-0.00001115,0.00003469,0.0000109
 6,0.00000066,0.00003585,0.00000942,-0.00000094,-0.00000030,-0.00000445
 ,-0.00000154,-0.00000131,-0.00000324,0.00000061,0.00000072,0.00000164,
 -0.00000147,0.00001072,0.00000205,-0.00000013,0.00000091,0.00000121,0.
 00000139,-0.00099907,-0.00174788,0.00045217,-0.00089476,-0.00118903,-0
 .00010211,-0.00001738,-0.00003832,-0.00001810,-0.01870858,-0.06971741,
 0.02569240,0.00012272,0.00024462,0.00039879,0.01272136,0.09086738,0.00
 063259,-0.00063259,0.00030386,-0.00111657,0.00041353,0.00011535,0.0011
 1225,0.00049789,-0.00004428,-0.00040531,-0.00032632,0.00002549,-0.0005
 0871,0.00016399,0.00002813,0.00012861,0.00005328,-0.00001686,-0.000016
 64,-0.00002587,-0.00000108,-0.00000245,0.00001408,0.00000087,-0.000004
 98,0.00280349,-0.00012461,0.01564602,-0.00548032,-0.00767471,-0.004050
 82,0.00529755,-0.00076957,0.00096388,-0.00048997,0.00053872,-0.0002107
 7,0.00052706,-0.00009434,-0.00010414,-0.00008528,-0.00002285,-0.000021
 33,-0.00000540,0.00000141,-0.00002433,-0.00000777,0.00000190,-0.000000
 06,0.00000355,0.00000204,-0.00000031,0.00000092,-0.00000036,-0.0000015
 1,-0.00000126,0.00000123,-0.00000661,-0.00000160,-0.00000008,-0.000000
 36,0.00000020,-0.00000005,0.00020508,0.00092402,-0.00061121,0.00061048
 ,0.00105681,0.00008316,-0.00004509,0.00003244,-0.00003361,0.05363163,0
 .02837638,-0.11816080,-0.00019954,-0.00037867,-0.00021625,-0.09396782,
 -0.01994282,0.18694342,-0.00006050,-0.00051434,0.00094714,-0.00113391,
 0.00084452,0.00028719,0.00143878,0.00053330,-0.00003534,-0.00058551,-0
 .00031487,-0.00003004,-0.00069361,0.00022518,0.00004558,0.00017301,0.0
 0007597,0.,-0.00002648,-0.00003458,-0.00000155,-0.00000475,0.00002153,
 0.00000056,0.00260781,0.00532509,-0.00169428,-0.01464813,-0.00768080,-
 0.01353910,-0.00263539,0.00206029,0.00003155,0.00023408,-0.00058853,0.
 00093369,-0.00040940,0.00064736,-0.00022897,-0.00022097,-0.00011635,0.
 00001665,-0.00003139,-0.00000904,-0.00000048,-0.00002994,-0.00000951,0
 .00000107,-0.00000027,0.00000417,0.00000255,-0.00000018,0.00000346,-0.
 00000181,-0.00000036,-0.00000193,0.00000017,-0.00001040,-0.00000134,0.
 00000004,-0.00000027,-0.00000158,-0.00000008,0.00080326,-0.00037729,-0
 .00042702,0.00063129,0.00080276,0.00001338,0.00005264,0.00003332,-0.00
 009498,-0.12338308,0.01067750,-0.05868821,0.00096245,0.00038669,-0.000
 64492,-0.04441352,-0.00391835,-0.00664982,0.18693048,-0.00076728,-0.00
 091962,-0.00097926,0.00154752,-0.00055178,-0.00029926,-0.00146858,-0.0
 0072374,0.00005951,0.00047687,0.00045297,0.00001162,0.00065358,-0.0001
 9214,-0.00002590,-0.00016524,-0.00007159,0.00000202,0.00002211,0.00003
 296,0.00000118,0.00000288,-0.00001872,-0.00000020,-0.00301722,-0.00290
 409,0.00216119,0.02182798,-0.00257282,0.01297879,0.00071276,-0.0049714
 6,0.00252697,0.00049333,0.00220873,0.00006837,0.00169196,-0.00062366,0
 .00011207,0.00014729,0.00012561,-0.00002909,0.00003122,0.00000719,0.00
 000164,0.00002993,0.00000825,-0.00000248,-0.00000080,-0.00000335,-0.00
 000091,0.,-0.00000330,0.00000066,0.00000036,0.00000153,-0.00000092,0.0
 0000916,0.00000166,-0.00000004,0.00000064,0.00000117,0.00000079,-0.000
 20764,0.00007923,0.00036040,-0.00053247,-0.00054884,0.00004237,0.00005
 099,-0.00001295,-0.00007814,0.00773528,-0.06053384,0.00644437,0.001401
 95,-0.00171535,0.00044216,-0.01143934,0.00472071,-0.00051705,0.0114567
 7,0.09033764,-0.00064588,-0.00072436,0.00031757,-0.00085089,0.00072838
 ,0.00019271,0.00104805,0.00040045,-0.00000665,-0.00039673,-0.00025470,
 -0.00000774,-0.00049826,0.00014902,0.00003533,0.00012546,0.00006039,-0
 .00001669,-0.00001689,-0.00002601,-0.00000375,-0.00000283,0.00001555,0
 .00000167,0.00160209,0.00537229,-0.00086598,-0.01274373,-0.00912661,-0
 .00360337,-0.00074562,0.00266369,-0.00014818,-0.00016796,-0.00051630,0
 .00022884,-0.00009154,0.00044109,-0.00007233,-0.00017618,-0.00009106,0
 .00001679,-0.00002299,-0.00000612,0.00000052,-0.00002180,-0.00000759,0
 .00000136,0.00000015,0.00000378,0.00000183,0.,0.00000212,-0.00000024,-
 0.00000039,-0.00000142,0.00000084,-0.00000741,-0.00000125,0.,0.0000003
 0,-0.00000067,-0.00000043,0.00043410,-0.00019485,-0.00022536,0.0004158
 5,0.00053845,-0.00002026,0.00001438,0.00004236,-0.00002309,-0.05906372
 ,0.00859954,-0.10068206,-0.00037884,0.00101176,-0.00065642,0.01455884,
 0.00207041,0.00617972,0.09527723,0.00907609,0.15793697,0.00051039,0.00
 025050,0.00071465,0.00078027,-0.00038029,0.00004707,-0.00078257,-0.000
 51054,0.00001280,0.00021408,0.00025669,0.00002779,0.00035724,-0.000086
 35,-0.00001879,-0.00008821,-0.00005189,-0.00000328,0.00001750,0.000017
 24,0.00000148,0.00000190,-0.00001061,-0.00000171,-0.00196005,-0.000861
 96,0.00100818,-0.01001839,0.00585146,-0.00876789,0.00309149,-0.0036180
 3,-0.00126508,-0.00034799,0.00045149,0.00080126,0.00015208,-0.00036616
 ,-0.00020539,0.00008174,0.00005889,-0.00003054,0.00001941,0.00000402,0
 .00000563,0.00001694,0.00000326,-0.00000362,0.00000029,-0.00000006,0.0
 0000008,-0.00000024,-0.00000165,0.00000013,0.00000057,0.00000026,-0.00
 000060,0.00000441,0.00000182,-0.00000012,0.00000176,0.00000064,0.00000
 111,0.00107249,0.00092775,-0.00037184,-0.00042997,-0.00077835,0.000101
 08,0.00009134,0.00001011,-0.00008822,-0.11360557,-0.02405211,-0.055562
 51,0.00031427,0.00055474,-0.00027085,0.00479690,-0.00053952,0.00545634
 ,-0.00308363,0.00057904,-0.00547181,0.18665980,-0.00183161,0.00229935,
 0.00042046,0.00186332,-0.00047222,-0.00009695,-0.00169705,-0.00073835,
 -0.00000344,0.00062020,0.00047444,0.00002388,0.00077227,-0.00023985,-0
 .00003826,-0.00019633,-0.00008283,0.00000648,0.00002476,0.00003920,0.0
 0000203,0.00000406,-0.00002344,-0.00000274,0.00040190,-0.00527439,-0.0
 0308190,-0.02299621,-0.00702015,-0.01642636,0.00468458,-0.00277498,-0.
 00294027,0.00066097,-0.00087005,0.00150474,-0.00102396,-0.00112945,-0.
 00027338,0.00010137,0.00014200,0.00001539,0.00003570,0.00000884,0.0000
 0040,0.00003388,0.00001103,-0.00000143,-0.00000134,-0.00000371,-0.0000
 0105,-0.00000054,-0.00000430,0.00000053,0.00000092,0.00000139,-0.00000
 134,0.00001054,0.00000202,-0.00000008,0.00000096,0.00000119,0.00000165
 ,-0.00088478,-0.00181093,-0.00034655,-0.00086820,-0.00117652,0.0001698
 4,-0.00001747,-0.00004176,0.00002285,-0.02065547,-0.06817009,-0.021157
 08,0.00006273,0.00024693,-0.00040041,0.00038676,0.00701185,0.00475448,
 -0.00345171,0.00701220,-0.00199751,0.01222643,0.09020373,-0.00076925,0
 .00062248,0.00022479,0.00108118,-0.00036169,-0.00001012,-0.00106800,-0
 .00046137,-0.00000764,0.00039665,0.00031290,0.00001057,0.00048475,-0.0
 0015966,-0.00002889,-0.00012494,-0.00005001,-0.00000934,0.00001633,0.0
 0002498,-0.00000023,0.00000196,-0.00001281,-0.00000168,0.00035596,-0.0
 0281187,-0.00040402,-0.01592978,0.00469341,-0.00410019,0.00359363,-0.0
 0488187,-0.00140750,-0.00084177,0.00040832,0.00059868,0.00017132,-0.00
 052137,-0.00009561,0.00009359,0.00008164,-0.00002072,0.00002171,0.0000
 0711,0.00000145,0.00002078,0.00000491,0.00000047,0.00000010,-0.0000007
 9,-0.00000047,0.00000043,-0.00000347,0.00000129,0.00000031,-0.00000007
 ,-0.00000018,0.00000626,0.00000159,-0.00000017,0.00000162,0.00000094,0
 .00000130,-0.00037307,-0.00106373,-0.00045203,-0.00056529,-0.00099153,
 0.00011099,0.00002464,-0.00003557,-0.00002634,-0.05502392,-0.02358807,
 -0.10204307,0.00012759,0.00031326,-0.00020418,-0.01363852,-0.00305215,
 -0.04575147,-0.00605853,0.00078510,-0.00261367,0.09420159,0.01545396,0
 .15764618,-0.00003461,-0.00034256,-0.00084930,-0.00101861,0.00070011,-
 0.00013366,0.00124356,0.00045985,-0.00000673,-0.00051676,-0.00027113,0
 .00000025,-0.00060218,0.00019860,0.00003073,0.00014854,0.00006712,-0.0
 0000610,-0.00002293,-0.00002961,0.00000031,-0.00000396,0.00001868,0.00
 000204,0.00252385,0.00428754,0.00129668,-0.01023663,-0.00647256,0.0144
 1372,-0.00243230,0.00158569,0.00028948,0.00011170,-0.00044588,-0.00094
 285,-0.00035528,0.00056205,0.00027127,-0.00018343,-0.00009767,-0.00001
 446,-0.00002688,-0.00000705,-0.00000086,-0.00002606,-0.00000854,0.0000
 0060,-0.00000003,0.00000297,0.00000197,-0.00000027,0.00000385,-0.00000
 155,-0.00000015,-0.00000141,-0.00000013,-0.00000912,-0.00000119,0.0000
 0025,-0.00000070,-0.00000155,-0.00000027,0.00076598,-0.00035258,0.0002
 9270,0.00054943,0.00070637,-0.00005982,0.00005986,0.00002189,0.0000860
 0,-0.10368046,0.00722690,0.05905274,0.00083013,-0.00003034,0.00033754,
 -0.00123968,-0.00320915,0.00574594,0.00495095,-0.00025898,-0.01443285,
 -0.04442194,-0.00455562,0.01471954,0.15588394,-0.00070483,-0.00102352,
 0.00105239,0.00155893,-0.00050256,0.00011783,-0.00143275,-0.00071321,-
 0.00002520,0.00045664,0.00044978,0.00004291,0.00063575,-0.00018693,-0.
 00004889,-0.00016009,-0.00006902,-0.00000221,0.00002185,0.00003198,0.0
 0000251,0.00000280,-0.00001793,-0.00000221,-0.00327703,-0.00256207,-0.
 00176962,0.01906822,-0.00252272,-0.01617486,0.00035019,-0.00461903,-0.
 00267162,0.00044538,0.00221571,-0.00007744,0.00168040,-0.00060461,-0.0
 0035143,0.00013488,0.00011844,0.00002355,0.00002932,0.00000737,0.00000
 212,0.00002930,0.00000811,-0.00000189,-0.00000012,-0.00000320,-0.00000
 120,-0.00000056,-0.00000321,0.00000035,0.00000053,0.00000132,-0.000000
 70,0.00000895,0.00000165,-0.00000013,0.00000060,0.00000128,0.00000097,
 -0.00023398,0.00008334,-0.00033929,-0.00052085,-0.00053195,0.00001125,
 0.00005967,-0.00001147,0.00007028,0.00481490,-0.05956239,-0.00576086,0
 .00099901,-0.00180194,-0.00074405,0.00028261,0.00694060,-0.00051260,-0
 .00044853,0.00686836,0.00179442,-0.01087889,0.00470244,0.00216491,0.01
 300877,0.09049680,0.00064050,0.00071177,0.00042152,0.00112662,-0.00085
 871,0.00008245,-0.00131711,-0.00052004,0.00002236,0.00050357,0.0003251
 1,0.00002811,0.00062754,-0.00019039,-0.00002828,-0.00015940,-0.0000730
 6,-0.00001748,0.00002173,0.00003230,0.00000158,0.00000325,-0.00001906,
 -0.00000119,-0.00227270,-0.00614748,-0.00111922,0.01448814,0.01027779,
 -0.00813617,0.00110156,-0.00305771,-0.00045700,0.00018837,0.00068449,0
 .00038192,0.00022776,-0.00054570,-0.00015155,0.00020996,0.00010989,0.0
 0002268,0.00002862,0.00000795,0.00000191,0.00002822,0.00000836,-0.0000
 0011,-0.00000014,-0.00000269,-0.00000080,0.00000013,-0.00000469,0.0000
 0139,-0.00000015,0.00000087,-0.00000029,0.00000922,0.00000158,-0.00000
 015,0.00000053,0.00000167,0.00000128,-0.00059065,0.00026399,-0.0002334
 6,-0.00053068,-0.00068051,0.00002414,-0.00002375,-0.00004571,-0.000034
 26,0.05931923,-0.00825022,-0.11962112,0.00007425,-0.00116884,-0.000926
 10,0.00528208,0.00285661,-0.00434424,0.00622053,-0.00005657,-0.0459926
 3,-0.00670242,-0.00153871,0.00612346,-0.09418810,-0.01355683,0.1871298
 6,0.00028548,-0.00038979,0.00004413,-0.00009080,0.00002680,-0.00001249
 ,0.00011102,-0.00000695,-0.00001872,-0.00006645,0.00000532,-0.00000147
 ,-0.00006247,0.00003858,0.00000545,0.00001625,0.00000831,0.00000279,-0
 .00000207,-0.00000331,-0.00000004,-0.00000041,0.00000202,-0.00000017,-
 0.00025194,-0.00055928,-0.00000400,0.00305421,0.00037471,-0.00007634,-
 0.00057484,0.00057838,0.00002492,0.00001185,0.00032275,0.00005419,0.00
 018420,0.00006845,-0.00006437,-0.00000904,-0.00001336,0.00000488,-0.00
 000221,-0.00000033,0.00000022,-0.00000210,-0.00000047,-0.00000030,-0.0
 0000029,0.00000059,0.00000061,-0.00000031,0.00000062,-0.00000053,0.000
 00023,-0.00000039,-0.00000030,-0.00000137,0.00000025,0.00000006,0.0000
 0018,-0.00000042,0.00000029,0.00032762,-0.00006811,-0.00000781,0.00010
 024,0.00010552,-0.00000923,0.00002002,0.00000869,-0.00000159,-0.054361
 75,0.01566599,0.00048362,0.00015419,0.00010948,-0.00001131,-0.01593877
 ,0.03095814,0.02320436,-0.00741306,-0.03101408,-0.01774014,-0.02344633
 ,0.03628894,-0.02092687,-0.00225596,-0.02593107,0.01568327,0.10021467,
 -0.00069924,0.00024211,0.00003637,0.00092749,-0.00026802,-0.00005403,-
 0.00082301,-0.00032534,0.00002311,0.00033140,0.00021106,0.00000326,0.0
 0038726,-0.00012661,-0.00002390,-0.00009838,-0.00004307,-0.00000059,0.
 00001212,0.00001974,0.00000090,0.00000233,-0.00001303,-0.00000101,-0.0
 0042315,-0.00058247,0.00003988,0.00042987,0.00090757,-0.00006352,0.000
 40598,-0.00037965,-0.00002692,0.00032985,0.00045989,-0.00002356,0.0002
 1173,-0.00041707,-0.00001059,0.00006327,0.00006083,-0.00000222,0.00001
 731,0.00000501,0.00000016,0.00001722,0.00000528,-0.00000038,-0.0000000
 6,-0.00000215,-0.00000078,-0.00000009,-0.00000196,0.00000045,0.0000004
 8,0.00000064,-0.00000084,0.00000570,0.00000075,-0.00000008,0.00000039,
 0.00000058,0.00000089,-0.00044274,0.00011320,0.00001060,-0.00036982,-0
 .00043404,0.00001784,0.00000424,-0.00002141,-0.00000036,0.01568019,-0.
 15638345,-0.00297075,0.00030402,0.00032312,-0.00001919,0.01775325,-0.0
 2083659,-0.01651215,-0.01562914,-0.03549096,-0.02002134,0.02094209,-0.
 02232360,0.01312051,-0.01276456,-0.03719141,0.02143455,-0.02657600,0.2
 7249104,-0.00000400,0.00002778,0.00046491,0.00002068,-0.00000474,-0.00
 003877,-0.00002451,-0.00000231,-0.00010355,0.00000583,0.00000559,0.000
 03712,0.00001004,-0.00000395,-0.00000025,-0.00000216,-0.00000202,0.000
 00463,0.00000076,0.00000066,0.00000104,0.00000013,-0.00000035,-0.00000
 087,0.00000826,0.00003053,-0.00007923,-0.00007319,-0.00004442,0.002018
 20,0.00002401,-0.00003767,-0.00033258,0.00004238,-0.00002945,0.0004368
 1,-0.00004303,-0.00000563,-0.00045202,0.00000146,0.00000143,0.00000657
 ,0.00000079,0.00000028,0.00000072,-0.00000056,0.00000021,0.00000066,0.
 00000024,0.00000040,0.00000036,-0.00000014,-0.00000051,0.00000031,-0.0
 0000026,-0.00000022,0.00000031,0.00000015,0.,-0.00000006,0.00000027,0.
 00000031,0.00000035,-0.00002999,0.00000961,-0.00001108,-0.00001694,-0.
 00001305,-0.00003865,-0.00000173,-0.00000089,-0.00000969,0.00051647,-0
 .00297041,-0.05085466,0.00000173,0.00000255,0.00001363,0.02539824,-0.0
 3161026,-0.01635894,-0.01568219,-0.03308550,-0.00997532,-0.02361454,0.
 02593076,-0.00754165,0.01409491,0.03675758,-0.01317862,-0.00063310,0.0
 0504369,0.09599031\\-0.00000009,-0.00000033,-0.00000218,0.00000344,0.0
 0000050,-0.00000206,0.00000160,-0.00000102,0.00000140,-0.00000020,0.00
 000166,0.00000118,0.00000255,0.00000255,0.00000060,-0.00000509,-0.0000
 0057,0.00000284,0.00000239,0.00000114,0.00000108,-0.00000009,0.0000023
 4,0.00000390,-0.00000108,-0.00000037,-0.00000121,-0.00000090,-0.000000
 18,-0.00000156,-0.00000100,-0.00000184,-0.00000369,-0.00000050,-0.0000
 0107,-0.00000540,0.00000028,-0.00000128,-0.00000531,0.00000104,-0.0000
 0016,-0.00000381,-0.00000066,-0.00000031,0.00000376,0.00000089,0.00000
 289,0.00000305,0.00000182,0.00000324,0.00000013,-0.00000050,0.00000018
 ,0.00000070,0.00000194,0.00000377,0.00000504,0.00000131,0.00000213,0.0
 0000344,-0.00000039,0.00000059,0.00000560,0.00000068,-0.00000067,0.000
 00174,0.00000036,-0.00000205,-0.00000898,0.00000038,-0.00000138,-0.000
 00663,-0.00000199,-0.00000322,0.00000666,-0.00000062,-0.00000222,-0.00
 000450,0.00000243,0.00000077,0.00000128,-0.00000117,-0.00000068,-0.000
 00091,-0.00000316,-0.00000300,0.00000078,-0.00000141,-0.00000357,-0.00
 000097,-0.00000226,0.00000216,0.00000402\\\@


 FRICTION IS A DRAG,
 AND ENTROPY AIN'T WHAT IT USED TO BE.
 Job cpu time:       0 days  5 hours 32 minutes 49.6 seconds.
 File lengths (MBytes):  RWF=    909 Int=      0 D2E=      0 Chk=     26 Scr=      1
 Normal termination of Gaussian 09 at Thu Nov 14 18:58:16 2019.
pbs_rusage has been removed.
Please contact help@nci.org.au if you require this functionality.
