 Entering Gaussian System, Link 0=/apps/gaussian/g09e01/g09/g09
 AtFile(1): /home/507/hio507/Basis/6-31pGd.gbs
 Initial command:
 /apps/gaussian/g09e01/g09/l1.exe "/jobfs/local/4046962.r-man2/Gau-20983.inp" -scrdir="/jobfs/local/4046962.r-man2/"
 Entering Link 1 = /apps/gaussian/g09e01/g09/l1.exe PID=     20984.
  
 Copyright (c) 1988,1990,1992,1993,1995,1998,2003,2009,2015,
            Gaussian, Inc.  All Rights Reserved.
  
 This is part of the Gaussian(R) 09 program.  It is based on
 the Gaussian(R) 03 system (copyright 2003, Gaussian, Inc.),
 the Gaussian(R) 98 system (copyright 1998, Gaussian, Inc.),
 the Gaussian(R) 94 system (copyright 1995, Gaussian, Inc.),
 the Gaussian 92(TM) system (copyright 1992, Gaussian, Inc.),
 the Gaussian 90(TM) system (copyright 1990, Gaussian, Inc.),
 the Gaussian 88(TM) system (copyright 1988, Gaussian, Inc.),
 the Gaussian 86(TM) system (copyright 1986, Carnegie Mellon
 University), and the Gaussian 82(TM) system (copyright 1983,
 Carnegie Mellon University). Gaussian is a federally registered
 trademark of Gaussian, Inc.
  
 This software contains proprietary and confidential information,
 including trade secrets, belonging to Gaussian, Inc.
  
 This software is provided under written license and may be
 used, copied, transmitted, or stored only in accord with that
 written license.
  
 The following legend is applicable only to US Government
 contracts under FAR:
  
                    RESTRICTED RIGHTS LEGEND
  
 Use, reproduction and disclosure by the US Government is
 subject to restrictions as set forth in subparagraphs (a)
 and (c) of the Commercial Computer Software - Restricted
 Rights clause in FAR 52.227-19.
  
 Gaussian, Inc.
 340 Quinnipiac St., Bldg. 40, Wallingford CT 06492
  
  
 ---------------------------------------------------------------
 Warning -- This program may not be used in any manner that
 competes with the business of Gaussian, Inc. or will provide
 assistance to any competitor of Gaussian, Inc.  The licensee
 of this program is prohibited from giving any competitor of
 Gaussian, Inc. access to this program.  By using this program,
 the user acknowledges that Gaussian, Inc. is engaged in the
 business of creating and licensing software in the field of
 computational chemistry and represents and warrants to the
 licensee that it is not a competitor of Gaussian, Inc. and that
 it will not use this program in any manner prohibited above.
 ---------------------------------------------------------------
  

 Cite this work as:
 Gaussian 09, Revision E.01,
 M. J. Frisch, G. W. Trucks, H. B. Schlegel, G. E. Scuseria, 
 M. A. Robb, J. R. Cheeseman, G. Scalmani, V. Barone, B. Mennucci, 
 G. A. Petersson, H. Nakatsuji, M. Caricato, X. Li, H. P. Hratchian, 
 A. F. Izmaylov, J. Bloino, G. Zheng, J. L. Sonnenberg, M. Hada, 
 M. Ehara, K. Toyota, R. Fukuda, J. Hasegawa, M. Ishida, T. Nakajima, 
 Y. Honda, O. Kitao, H. Nakai, T. Vreven, J. A. Montgomery, Jr., 
 J. E. Peralta, F. Ogliaro, M. Bearpark, J. J. Heyd, E. Brothers, 
 K. N. Kudin, V. N. Staroverov, T. Keith, R. Kobayashi, J. Normand, 
 K. Raghavachari, A. Rendell, J. C. Burant, S. S. Iyengar, J. Tomasi, 
 M. Cossi, N. Rega, J. M. Millam, M. Klene, J. E. Knox, J. B. Cross, 
 V. Bakken, C. Adamo, J. Jaramillo, R. Gomperts, R. E. Stratmann, 
 O. Yazyev, A. J. Austin, R. Cammi, C. Pomelli, J. W. Ochterski, 
 R. L. Martin, K. Morokuma, V. G. Zakrzewski, G. A. Voth, 
 P. Salvador, J. J. Dannenberg, S. Dapprich, A. D. Daniels, 
 O. Farkas, J. B. Foresman, J. V. Ortiz, J. Cioslowski, 
 and D. J. Fox, Gaussian, Inc., Wallingford CT, 2013.
 
 ******************************************
 Gaussian 09:  ES64L-G09RevE.01 30-Nov-2015
                 9-Dec-2019 
 ******************************************
 %chk=CP22CA.MP2_6-31pGd.chk
 %mem=1114112000
 %nproc=4
 Will use up to    4 processors via shared memory.
 -------------------------------------------------------------
 # MP2/Gen 6D SCF=Tight INT(grid=ultrafine) maxdisk=3489660928
 -------------------------------------------------------------
 1/38=1/1;
 2/12=2,17=6,18=5,40=1/2;
 3/5=7,8=2,11=9,16=1,25=1,30=1,75=-5/1,2,3;
 4//1;
 5/5=2,32=2,38=5/2;
 8/10=1/1;
 9/16=-3/6;
 6/7=2,8=2,9=2,10=2/1;
 99/5=1,9=1/99;
 ------------------
 CP22CA.MP2_6-31pGd
 ------------------
 Symbolic Z-matrix:
 Charge =  0 Multiplicity = 1
 C                    -5.88507   1.24853   0.21696 
 N                    -4.61484   0.6713    0.14428 
 C                    -3.40423   1.32291   0.10619 
 O                    -3.23637   2.5134    0.12946 
 O                    -2.42372   0.41075   0.03797 
 C                    -1.08935   0.94383  -0.00884 
 C                    -0.13018  -0.22401  -0.08343 
 C                     1.31562   0.26237  -0.13655 
 C                    -6.09361   2.63005   0.26279 
 C                    -7.39957   3.08435   0.33396 
 C                    -8.50889   2.25625   0.36245 
 C                    -8.26571   0.89069   0.31546 
 C                    -6.9812    0.3811    0.24381 
 H                    -4.56246  -0.33621   0.11557 
 H                    -0.92245   1.5507    0.88424 
 H                    -1.00293   1.59729  -0.88019 
 H                    -0.36426  -0.82131  -0.9688 
 H                    -0.28415  -0.86767   0.78687 
 H                     1.49032   0.89314  -1.01147 
 H                     2.00895  -0.57772  -0.19047 
 H                     1.57079   0.84645   0.75092 
 H                    -5.25829   3.3124    0.24287 
 Cl                   -9.60876  -0.21114   0.34734 
 H                    -6.83443  -0.69261   0.20888 
 S                    -7.67132   4.87652   0.39351 
 H                    -9.51715   2.64167   0.41831 
 F                    -6.61004   5.14625  -0.78963 
 F                    -8.86243   4.79592  -0.69545 
 F                    -6.50638   5.08629   1.48795 
 F                    -8.75884   4.73598   1.58036 
 F                    -7.91814   6.46183   0.44648 
 
                          Input orientation:                          
 ---------------------------------------------------------------------
 Center     Atomic      Atomic             Coordinates (Angstroms)
 Number     Number       Type             X           Y           Z
 ---------------------------------------------------------------------
      1          6           0       -5.885065    1.248528    0.216964
      2          7           0       -4.614837    0.671297    0.144275
      3          6           0       -3.404229    1.322909    0.106189
      4          8           0       -3.236373    2.513396    0.129457
      5          8           0       -2.423723    0.410750    0.037968
      6          6           0       -1.089354    0.943825   -0.008839
      7          6           0       -0.130178   -0.224014   -0.083431
      8          6           0        1.315625    0.262366   -0.136551
      9          6           0       -6.093613    2.630049    0.262786
     10          6           0       -7.399571    3.084346    0.333956
     11          6           0       -8.508889    2.256252    0.362448
     12          6           0       -8.265709    0.890693    0.315463
     13          6           0       -6.981198    0.381105    0.243806
     14          1           0       -4.562464   -0.336209    0.115570
     15          1           0       -0.922449    1.550701    0.884242
     16          1           0       -1.002929    1.597293   -0.880191
     17          1           0       -0.364262   -0.821307   -0.968797
     18          1           0       -0.284152   -0.867671    0.786871
     19          1           0        1.490321    0.893141   -1.011465
     20          1           0        2.008954   -0.577722   -0.190467
     21          1           0        1.570790    0.846450    0.750923
     22          1           0       -5.258294    3.312403    0.242874
     23         17           0       -9.608755   -0.211141    0.347338
     24          1           0       -6.834429   -0.692606    0.208877
     25         16           0       -7.671324    4.876522    0.393507
     26          1           0       -9.517153    2.641666    0.418315
     27          9           0       -6.610037    5.146246   -0.789632
     28          9           0       -8.862427    4.795917   -0.695452
     29          9           0       -6.506375    5.086293    1.487947
     30          9           0       -8.758839    4.735985    1.580358
     31          9           0       -7.918139    6.461827    0.446480
 ---------------------------------------------------------------------
                    Distance matrix (angstroms):
                    1          2          3          4          5
     1  C    0.000000
     2  N    1.397126   0.000000
     3  C    2.484422   1.375362   0.000000
     4  O    2.936515   2.300807   1.202488   0.000000
     5  O    3.565782   2.209109   1.340925   2.256079   0.000000
     6  C    4.810684   3.539314   2.348528   2.663150   1.437672
     7  C    5.947886   4.578820   3.626064   4.145743   2.382858
     8  C    7.276498   5.951173   4.843624   5.085133   3.746358
     9  C    1.397925   2.457140   2.994315   2.862727   4.294639
    10  C    2.382780   3.689652   4.372332   4.207139   5.656393
    11  C    2.814449   4.209908   5.195608   5.283922   6.367135
    12  C    2.409400   3.661462   4.885139   5.287909   5.868232
    13  C    1.398088   2.386165   3.701437   4.310853   4.562217
    14  H    2.066627   1.009274   2.023430   3.143082   2.266756
    15  H    5.016387   3.867122   2.610841   2.617390   2.066276
    16  H    5.016038   3.866895   2.610455   2.616659   2.066291
    17  H    6.014110   4.640494   3.872294   4.536015   2.602484
    18  H    6.014426   4.640708   3.872577   4.536454   2.602495
    19  H    7.485430   6.217547   5.038896   5.125287   4.080901
    20  H    8.112751   6.748830   5.744820   6.096788   4.547295
    21  H    7.485757   6.217771   5.039197   5.125792   4.080965
    22  H    2.157103   2.720147   2.722925   2.177025   4.061572
    23  Cl   4.001687   5.075348   6.395905   6.933818   7.218528
    24  H    2.160869   2.605954   3.979839   4.819830   4.549828
    25  S    4.047744   5.204628   5.560469   5.032184   6.899771
    26  H    3.895310   5.290573   6.261340   6.288727   7.445697
    27  F    4.090358   4.987803   5.069281   4.377012   6.374564
    28  F    4.720293   5.979939   6.518922   6.127223   7.824609
    29  F    4.090216   4.987541   5.069085   4.377009   6.374260
    30  F    4.720146   5.979698   6.518750   6.127206   7.824341
    31  F    5.600407   6.673333   6.848332   6.132662   8.183582
                    6          7          8          9         10
     6  C    0.000000
     7  C    1.513086   0.000000
     8  C    2.502922   1.526347   0.000000
     9  C    5.287697   6.620280   7.788594   0.000000
    10  C    6.672194   7.997720   9.172763   1.384549   0.000000
    11  C    7.543859   8.749475  10.037213   2.446060   1.384608
    12  C    7.183875   8.221225   9.612547   2.783187   2.358527
    13  C    5.924045   6.885472   8.306386   2.417833   2.736910
    14  H    3.703575   4.438170   5.913864   3.341374   4.449389
    15  H    1.092589   2.171105   2.776832   5.319036   6.678921
    16  H    1.092586   2.171101   2.776819   5.318651   6.678510
    17  H    2.136111   1.093356   2.165410   6.801038   8.151494
    18  H    2.136123   1.093356   2.165405   6.801364   8.151855
    19  H    2.768131   2.176074   1.092644   7.883947   9.254280
    20  H    3.456531   2.170818   1.090579   8.726215  10.109703
    21  H    2.768227   2.176081   1.092644   7.884325   9.254696
    22  H    4.801414   6.237811   7.256934   1.078778   2.155313
    23  Cl   8.604709   9.488369  10.945339   4.520590   3.967482
    24  H    5.977558   6.726961   8.213079   3.404666   3.821046
    25  S    7.677911   9.116568  10.116158   2.748254   1.813641
    26  H    8.607725   9.827470  11.104865   3.427090   2.165003
    27  F    6.981971   8.445531   9.332466   2.775883   2.477346
    28  F    8.702340  10.090910  11.156084   3.643561   2.475703
    29  F    6.981728   8.445382   9.332360   2.775702   2.477354
    30  F    8.702128  10.090767  11.155979   3.643404   2.475690
    31  F    8.791357  10.277821  11.137128   4.247959   3.418911
                   11         12         13         14         15
    11  C    0.000000
    12  C    1.387838   0.000000
    13  C    2.421588   1.383756   0.000000
    14  H    4.728220   3.906311   2.526115   0.000000
    15  H    7.637025   7.394768   6.203754   4.171451   0.000000
    16  H    7.636609   7.394379   6.203401   4.171362   1.766883
    17  H    8.807867   8.186155   6.833743   4.363035   3.061332
    18  H    8.808253   8.186532   6.834090   4.363147   2.503084
    19  H   10.184787   9.845854   8.579307   6.278353   3.138080
    20  H   10.906977  10.391386   9.051562   6.582973   3.778665
    21  H   10.185203   9.846232   8.579639   6.278468   2.594221
    22  H    3.419959   3.861929   3.400134   3.716552   4.723823
    23  Cl   2.701474   1.737478   2.695465   5.053159   8.879430
    24  H    3.394578   2.136997   1.084258   2.301640   6.359250
    25  S    2.751054   4.030660   4.550545   6.075757   7.539842
    26  H    1.080862   2.154669   3.401714   5.788639   8.676188
    27  F    3.644858   4.698107   4.890023   5.921931   6.933864
    28  F    2.773814   4.077842   4.889969   6.744343   8.721819
    29  F    3.644988   4.698194   4.890004   5.921633   6.636648
    30  F    2.773960   4.077917   4.889924   6.744058   8.487616
    31  F    4.247694   5.583503   6.155820   7.588369   8.558649
                   16         17         18         19         20
    16  H    0.000000
    17  H    2.503073   0.000000
    18  H    3.061337   1.758106   0.000000
    19  H    2.594101   2.525990   3.079485   0.000000
    20  H    3.778605   2.509439   2.509501   1.762515   0.000000
    21  H    3.138205   3.079492   2.525928   1.764842   1.762518
    22  H    4.723452   6.519758   6.520048   7.278049   8.254317
    23  Cl   8.879049   9.357627   9.358015  11.236337  11.635927
    24  H    6.358938   6.577731   6.578058   8.561851   8.853141
    25  S    7.539439   9.365590   9.365938  10.088459  11.126437
    26  H    8.675762   9.883910   9.884310  11.236818  11.982747
    27  F    6.636484   8.640226   8.869576   9.151716  10.363871
    28  F    8.487463  10.190522  10.385582  11.068465  12.137461
    29  F    6.933189   8.869097   8.640443   9.368924  10.363830
    30  F    8.721229  10.385115  10.190726  11.248568  12.137408
    31  F    8.558263  10.588112  10.588444  11.029732  12.186391
                   21         22         23         24         25
    21  H    0.000000
    22  H    7.278421   0.000000
    23  Cl  11.236708   5.599357   0.000000
    24  H    8.562138   4.304121   2.819196   0.000000
    25  S   10.088899   2.879561   5.444272   5.634685   0.000000
    26  H   11.237255   4.314922   2.855160   4.284652   2.898669
    27  F    9.369498   2.501252   6.243926   5.927863   1.612110
    28  F   11.249103   4.008871   5.168661   5.920682   1.615876
    29  F    9.152052   2.500920   6.244082   5.927842   1.612113
    30  F   11.068770   4.008649   5.168825   5.920634   1.615877
    31  F   11.030182   4.127360   6.884513   7.239944   1.605277
                   26         27         28         29         30
    26  H    0.000000
    27  F    4.022857   0.000000
    28  F    2.511959   2.281416   0.000000
    29  F    4.023070   2.280725   3.225295   0.000000
    30  F    2.512280   3.225294   2.278954   2.281414   0.000000
    31  F    4.141408   2.229317   2.229561   2.229310   2.229571
                   31
    31  F    0.000000
 Stoichiometry    C10H11ClF5NO2S
 Framework group  C1[X(C10H11ClF5NO2S)]
 Deg. of freedom    87
 Full point group                 C1      NOp   1
 Largest Abelian subgroup         C1      NOp   1
 Largest concise Abelian subgroup C1      NOp   1
                         Standard orientation:                         
 ---------------------------------------------------------------------
 Center     Atomic      Atomic             Coordinates (Angstroms)
 Number     Number       Type             X           Y           Z
 ---------------------------------------------------------------------
      1          6           0        0.509254    1.098254   -0.000146
      2          7           0        1.906379    1.099830   -0.000352
      3          6           0        2.741028    0.006678   -0.000087
      4          8           0        2.401871   -1.146990    0.000377
      5          8           0        4.012411    0.432900   -0.000424
      6          6           0        5.008944   -0.603354   -0.000181
      7          6           0        6.366629    0.064570    0.000087
      8          6           0        7.484100   -0.975138    0.000351
      9          6           0       -0.252198   -0.074087   -0.000108
     10          6           0       -1.631079    0.051061    0.000002
     11          6           0       -2.300359    1.263168    0.000082
     12          6           0       -1.513922    2.406676    0.000055
     13          6           0       -0.131737    2.340744   -0.000050
     14          1           0        2.370735    1.995937   -0.000562
     15          1           0        4.864067   -1.229659   -0.883642
     16          1           0        4.863705   -1.229625    0.883241
     17          1           0        6.446047    0.709847    0.879141
     18          1           0        6.446434    0.709804   -0.878965
     19          1           0        7.428694   -1.617173    0.882730
     20          1           0        8.463809   -0.496044    0.000650
     21          1           0        7.429192   -1.617101   -0.882112
     22          1           0        0.227459   -1.040364   -0.000162
     23         17           0       -2.283170    3.964587    0.000157
     24          1           0        0.446095    3.258200   -0.000068
     25         16           0       -2.619983   -1.469256   -0.000001
     26          1           0       -3.379262    1.328203    0.000160
     27          9           0       -1.704039   -2.146951    1.140469
     28          9           0       -3.613420   -0.898302    1.139362
     29          9           0       -1.703856   -2.147075   -1.140256
     30          9           0       -3.613220   -0.898404   -1.139592
     31          9           0       -3.500602   -2.811427   -0.000009
 ---------------------------------------------------------------------
 Rotational constants (GHZ):      0.3799363      0.1349909      0.1038363
 General basis read from cards:  (6D, 7F)
 There are   410 symmetry adapted cartesian basis functions of A   symmetry.
 There are   410 symmetry adapted basis functions of A   symmetry.
   410 basis functions,   732 primitive gaussians,   410 cartesian basis functions
    86 alpha electrons       86 beta electrons
       nuclear repulsion energy      2027.3286052258 Hartrees.
 NAtoms=   31 NActive=   31 NUniq=   31 SFac= 1.00D+00 NAtFMM=   60 NAOKFM=F Big=F
 Integral buffers will be    131072 words long.
 Raffenetti 1 integral format.
 Two-electron integral symmetry is turned on.
 One-electron integrals computed using PRISM.
 NBasis=   410 RedAO= T EigKep=  1.02D-06  NBF=   410
 NBsUse=   409 1.00D-06 EigRej=  3.67D-07 NBFU=   409
 ExpMin= 4.05D-02 ExpMax= 2.52D+04 ExpMxC= 3.78D+03 IAcc=3 IRadAn=         5 AccDes= 0.00D+00
 Harris functional with IExCor=  205 and IRadAn=       5 diagonalized for initial guess.
 HarFok:  IExCor=  205 AccDes= 0.00D+00 IRadAn=         5 IDoV= 1 UseB2=F ITyADJ=14
 ICtDFT=  3500011 ScaDFX=  1.000000  1.000000  1.000000  1.000000
 FoFCou: FMM=F IPFlag=           0 FMFlag=      100000 FMFlg1=           0
         NFxFlg=           0 DoJE=T BraDBF=F KetDBF=T FulRan=T
         wScrn=  0.000000 ICntrl=     500 IOpCl=  0 I1Cent=   200000004 NGrid=           0
         NMat0=    1 NMatS0=      1 NMatT0=    0 NMatD0=    1 NMtDS0=    0 NMtDT0=    0
 Petite list used in FoFCou.
 Requested convergence on RMS density matrix=1.00D-08 within 128 cycles.
 Requested convergence on MAX density matrix=1.00D-06.
 Requested convergence on             energy=1.00D-06.
 No special actions if energy rises.
 Initial convergence to 1.0D-05 achieved.  Increase integral accuracy.
 SCF Done:  E(RHF) =  -1943.35341628     A.U. after   18 cycles
            NFock= 18  Conv=0.40D-08     -V/T= 2.0019
 ExpMin= 4.05D-02 ExpMax= 2.52D+04 ExpMxC= 3.78D+03 IAcc=3 IRadAn=         5 AccDes= 0.00D+00
 HarFok:  IExCor=  205 AccDes= 0.00D+00 IRadAn=         5 IDoV=-2 UseB2=F ITyADJ=14
 ICtDFT= 12500011 ScaDFX=  1.000000  1.000000  1.000000  1.000000
 Range of M.O.s used for correlation:    29   409
 NBasis=   410 NAE=    86 NBE=    86 NFC=    28 NFV=     0
 NROrb=    381 NOA=    58 NOB=    58 NVA=   323 NVB=   323

 **** Warning!!: The largest alpha MO coefficient is  0.20646329D+03

 Fully direct method using O(OVN) memory.
 JobTyp=1 Pass  1:  I=   1 to  58 NPSUse=  4 ParTrn=T ParDer=T DoDerP=F.
 Spin components of T(2) and E(2):
     alpha-alpha T2 =       0.1305439341D+00 E2=     -0.4167180948D+00
     alpha-beta  T2 =       0.6630068733D+00 E2=     -0.2178258616D+01
     beta-beta   T2 =       0.1305439341D+00 E2=     -0.4167180948D+00
 ANorm=    0.1387117422D+01
 E2 =    -0.3011694806D+01 EUMP2 =    -0.19463651110873D+04

 **********************************************************************

            Population analysis using the SCF density.

 **********************************************************************

 Orbital symmetries:
       Occupied  (A) (A) (A) (A) (A) (A) (A) (A) (A) (A) (A) (A)
                 (A) (A) (A) (A) (A) (A) (A) (A) (A) (A) (A) (A)
                 (A) (A) (A) (A) (A) (A) (A) (A) (A) (A) (A) (A)
                 (A) (A) (A) (A) (A) (A) (A) (A) (A) (A) (A) (A)
                 (A) (A) (A) (A) (A) (A) (A) (A) (A) (A) (A) (A)
                 (A) (A) (A) (A) (A) (A) (A) (A) (A) (A) (A) (A)
                 (A) (A) (A) (A) (A) (A) (A) (A) (A) (A) (A) (A)
                 (A) (A)
       Virtual   (A) (A) (A) (A) (A) (A) (A) (A) (A) (A) (A) (A)
                 (A) (A) (A) (A) (A) (A) (A) (A) (A) (A) (A) (A)
                 (A) (A) (A) (A) (A) (A) (A) (A) (A) (A) (A) (A)
                 (A) (A) (A) (A) (A) (A) (A) (A) (A) (A) (A) (A)
                 (A) (A) (A) (A) (A) (A) (A) (A) (A) (A) (A) (A)
                 (A) (A) (A) (A) (A) (A) (A) (A) (A) (A) (A) (A)
                 (A) (A) (A) (A) (A) (A) (A) (A) (A) (A) (A) (A)
                 (A) (A) (A) (A) (A) (A) (A) (A) (A) (A) (A) (A)
                 (A) (A) (A) (A) (A) (A) (A) (A) (A) (A) (A) (A)
                 (A) (A) (A) (A) (A) (A) (A) (A) (A) (A) (A) (A)
                 (A) (A) (A) (A) (A) (A) (A) (A) (A) (A) (A) (A)
                 (A) (A) (A) (A) (A) (A) (A) (A) (A) (A) (A) (A)
                 (A) (A) (A) (A) (A) (A) (A) (A) (A) (A) (A) (A)
                 (A) (A) (A) (A) (A) (A) (A) (A) (A) (A) (A) (A)
                 (A) (A) (A) (A) (A) (A) (A) (A) (A) (A) (A) (A)
                 (A) (A) (A) (A) (A) (A) (A) (A) (A) (A) (A) (A)
                 (A) (A) (A) (A) (A) (A) (A) (A) (A) (A) (A) (A)
                 (A) (A) (A) (A) (A) (A) (A) (A) (A) (A) (A) (A)
                 (A) (A) (A) (A) (A) (A) (A) (A) (A) (A) (A) (A)
                 (A) (A) (A) (A) (A) (A) (A) (A) (A) (A) (A) (A)
                 (A) (A) (A) (A) (A) (A) (A) (A) (A) (A) (A) (A)
                 (A) (A) (A) (A) (A) (A) (A) (A) (A) (A) (A) (A)
                 (A) (A) (A) (A) (A) (A) (A) (A) (A) (A) (A) (A)
                 (A) (A) (A) (A) (A) (A) (A) (A) (A) (A) (A) (A)
                 (A) (A) (A) (A) (A) (A) (A) (A) (A) (A) (A) (A)
                 (A) (A) (A) (A) (A) (A) (A) (A) (A) (A) (A) (A)
                 (A) (A) (A) (A) (A) (A) (A) (A) (A) (A) (A)
 The electronic state is 1-A.
 Alpha  occ. eigenvalues -- -104.85211 -92.40397 -26.35828 -26.35813 -26.35812
 Alpha  occ. eigenvalues --  -26.35806 -26.35804 -20.63543 -20.57195 -15.64151
 Alpha  occ. eigenvalues --  -11.44023 -11.33871 -11.33629 -11.31761 -11.30532
 Alpha  occ. eigenvalues --  -11.28471 -11.28420 -11.27713 -11.24450 -11.23505
 Alpha  occ. eigenvalues --  -10.58447  -9.34432  -8.05390  -8.05047  -8.05044
 Alpha  occ. eigenvalues --   -7.03308  -7.03295  -7.02962  -1.75794  -1.65836
 Alpha  occ. eigenvalues --   -1.65763  -1.62850  -1.61362  -1.49935  -1.39162
 Alpha  occ. eigenvalues --   -1.29847  -1.22287  -1.16042  -1.10784  -1.08522
 Alpha  occ. eigenvalues --   -1.04760  -1.03033  -0.96811  -0.90709  -0.89603
 Alpha  occ. eigenvalues --   -0.86397  -0.86380  -0.83410  -0.82419  -0.81441
 Alpha  occ. eigenvalues --   -0.77876  -0.77467  -0.75868  -0.75225  -0.72989
 Alpha  occ. eigenvalues --   -0.72187  -0.71449  -0.69138  -0.68878  -0.68624
 Alpha  occ. eigenvalues --   -0.68162  -0.67997  -0.67099  -0.66577  -0.65444
 Alpha  occ. eigenvalues --   -0.64818  -0.64707  -0.64507  -0.62614  -0.62089
 Alpha  occ. eigenvalues --   -0.60549  -0.59620  -0.57502  -0.56820  -0.56388
 Alpha  occ. eigenvalues --   -0.54114  -0.53239  -0.52056  -0.50583  -0.50207
 Alpha  occ. eigenvalues --   -0.48181  -0.48074  -0.47634  -0.47216  -0.37715
 Alpha  occ. eigenvalues --   -0.34338
 Alpha virt. eigenvalues --    0.04887   0.06791   0.06910   0.07480   0.08128
 Alpha virt. eigenvalues --    0.08835   0.08838   0.09195   0.09244   0.10551
 Alpha virt. eigenvalues --    0.10739   0.10889   0.11779   0.12131   0.12606
 Alpha virt. eigenvalues --    0.12649   0.13397   0.13933   0.14135   0.14471
 Alpha virt. eigenvalues --    0.15179   0.15489   0.15736   0.15863   0.17780
 Alpha virt. eigenvalues --    0.18059   0.18980   0.19140   0.19442   0.19838
 Alpha virt. eigenvalues --    0.20390   0.20416   0.20618   0.22378   0.22463
 Alpha virt. eigenvalues --    0.23421   0.24381   0.24653   0.25029   0.25473
 Alpha virt. eigenvalues --    0.25675   0.26637   0.27244   0.27999   0.28655
 Alpha virt. eigenvalues --    0.28877   0.29441   0.29770   0.30051   0.30746
 Alpha virt. eigenvalues --    0.31203   0.32255   0.32789   0.33218   0.33361
 Alpha virt. eigenvalues --    0.33560   0.35001   0.35163   0.35551   0.35874
 Alpha virt. eigenvalues --    0.37104   0.37127   0.37793   0.38641   0.38784
 Alpha virt. eigenvalues --    0.39317   0.39460   0.40796   0.41068   0.41459
 Alpha virt. eigenvalues --    0.42019   0.42256   0.42559   0.42841   0.43272
 Alpha virt. eigenvalues --    0.43326   0.43905   0.45143   0.45563   0.45751
 Alpha virt. eigenvalues --    0.46344   0.46434   0.46562   0.46840   0.47374
 Alpha virt. eigenvalues --    0.47833   0.48753   0.49289   0.50370   0.50890
 Alpha virt. eigenvalues --    0.52117   0.52178   0.52707   0.52948   0.54429
 Alpha virt. eigenvalues --    0.54936   0.55954   0.57083   0.58226   0.58540
 Alpha virt. eigenvalues --    0.61427   0.62093   0.62481   0.63523   0.64517
 Alpha virt. eigenvalues --    0.65661   0.68688   0.69960   0.71731   0.73459
 Alpha virt. eigenvalues --    0.74846   0.75624   0.75648   0.76408   0.80154
 Alpha virt. eigenvalues --    0.80365   0.81682   0.84048   0.85688   0.86530
 Alpha virt. eigenvalues --    0.87263   0.87898   0.90574   0.91662   0.92069
 Alpha virt. eigenvalues --    0.92433   0.92692   0.93593   0.94490   0.95729
 Alpha virt. eigenvalues --    0.96355   0.97634   0.98794   0.98995   1.01104
 Alpha virt. eigenvalues --    1.01777   1.04004   1.05080   1.05608   1.07248
 Alpha virt. eigenvalues --    1.08370   1.09546   1.10679   1.13518   1.13628
 Alpha virt. eigenvalues --    1.16036   1.16219   1.16974   1.17681   1.18174
 Alpha virt. eigenvalues --    1.19279   1.19785   1.20727   1.20833   1.22441
 Alpha virt. eigenvalues --    1.22518   1.24561   1.25330   1.26518   1.27694
 Alpha virt. eigenvalues --    1.28857   1.29897   1.31221   1.34124   1.34958
 Alpha virt. eigenvalues --    1.36768   1.38409   1.39383   1.39644   1.41945
 Alpha virt. eigenvalues --    1.44371   1.45844   1.46623   1.46768   1.47757
 Alpha virt. eigenvalues --    1.47875   1.50687   1.52158   1.56178   1.56527
 Alpha virt. eigenvalues --    1.59687   1.60539   1.62223   1.63397   1.64436
 Alpha virt. eigenvalues --    1.66192   1.66289   1.69042   1.70410   1.70742
 Alpha virt. eigenvalues --    1.70944   1.71718   1.76853   1.77392   1.78385
 Alpha virt. eigenvalues --    1.79106   1.80369   1.81615   1.84289   1.84401
 Alpha virt. eigenvalues --    1.85821   1.87345   1.87797   1.91647   1.93774
 Alpha virt. eigenvalues --    1.96983   1.97173   1.97380   2.00358   2.02220
 Alpha virt. eigenvalues --    2.02870   2.03173   2.03719   2.03961   2.06357
 Alpha virt. eigenvalues --    2.06530   2.07363   2.07367   2.08586   2.09266
 Alpha virt. eigenvalues --    2.11122   2.11763   2.11917   2.13133   2.13751
 Alpha virt. eigenvalues --    2.14195   2.15637   2.17131   2.18030   2.18347
 Alpha virt. eigenvalues --    2.18661   2.20612   2.22170   2.22672   2.25855
 Alpha virt. eigenvalues --    2.25951   2.26944   2.28013   2.28821   2.29106
 Alpha virt. eigenvalues --    2.29274   2.29603   2.30490   2.31368   2.32673
 Alpha virt. eigenvalues --    2.32834   2.33451   2.33602   2.34373   2.36309
 Alpha virt. eigenvalues --    2.37361   2.39622   2.39998   2.43291   2.44788
 Alpha virt. eigenvalues --    2.45287   2.46272   2.46912   2.48657   2.50107
 Alpha virt. eigenvalues --    2.50626   2.53975   2.54628   2.56198   2.57419
 Alpha virt. eigenvalues --    2.59015   2.59990   2.60223   2.67018   2.67671
 Alpha virt. eigenvalues --    2.68927   2.70513   2.71660   2.73048   2.73368
 Alpha virt. eigenvalues --    2.73461   2.79773   2.84200   2.84679   2.94126
 Alpha virt. eigenvalues --    2.95957   2.96016   2.98638   3.02760   3.06171
 Alpha virt. eigenvalues --    3.08243   3.08763   3.10793   3.16402   3.17280
 Alpha virt. eigenvalues --    3.20347   3.20637   3.26454   3.29445   3.31426
 Alpha virt. eigenvalues --    3.38853   3.39906   3.45141   3.50783   3.60726
 Alpha virt. eigenvalues --    3.69344   3.74855   3.82040   4.60392   4.65380
 Alpha virt. eigenvalues --    4.67732   4.70440   4.73692   4.75961   4.78642
 Alpha virt. eigenvalues --    4.82092   4.84747   4.86608   4.92155   4.97803
 Alpha virt. eigenvalues --    5.03531   5.09011   5.17920   6.34465   6.41482
 Alpha virt. eigenvalues --    6.53943   7.77832   9.43174
          Condensed to atoms (all electrons):
               1          2          3          4          5          6
     1  C   22.037200  -0.393267  -1.248727  -0.366150  -0.108671  -0.592937
     2  N   -0.393267   7.652796   0.382117  -0.015251  -0.081279  -0.152403
     3  C   -1.248727   0.382117   6.503551   0.600347   0.342878  -0.476084
     4  O   -0.366150  -0.015251   0.600347   8.240362  -0.148379  -0.138679
     5  O   -0.108671  -0.081279   0.342878  -0.148379   8.516345   0.134634
     6  C   -0.592937  -0.152403  -0.476084  -0.138679   0.134634   6.755683
     7  C    0.008018   0.017450   0.007221   0.020150  -0.124242  -0.165449
     8  C   -0.007668   0.001274  -0.069030   0.000504   0.020425  -0.037757
     9  C   -3.320920  -0.124016   0.534684   0.395526  -0.007733   0.080560
    10  C   -5.733719   0.105786  -0.021416   0.086828   0.010970   0.055235
    11  C    0.210399   0.151252   1.195737  -0.013108  -0.002365   0.056305
    12  C    1.126109   0.042592  -0.181871   0.013722   0.011044  -0.013710
    13  C   -4.805999   0.073696  -2.329003  -0.079676  -0.017396  -0.259677
    14  H   -0.017853   0.273950  -0.017801   0.004073   0.001350  -0.010527
    15  H    0.000939   0.004473   0.036994  -0.005390  -0.035920   0.377035
    16  H    0.000890   0.004494   0.036711  -0.005404  -0.035915   0.377287
    17  H   -0.000364  -0.000439   0.000157  -0.000327  -0.001416  -0.047457
    18  H   -0.000390  -0.000439  -0.000100  -0.000327  -0.001420  -0.047268
    19  H   -0.000014  -0.000052  -0.001972  -0.000069  -0.000790  -0.025001
    20  H    0.000065   0.000027   0.004420   0.000016  -0.000132   0.066269
    21  H   -0.000012  -0.000052  -0.001905  -0.000069  -0.000789  -0.024943
    22  H   -0.000806  -0.008282   0.098200  -0.004679   0.000622   0.011088
    23  Cl   0.166366  -0.005446  -0.022784   0.000079  -0.000057  -0.001118
    24  H    0.152670  -0.007768   0.009973   0.000068  -0.000190   0.000326
    25  S   -0.986458   0.015031  -0.050192  -0.000511   0.000318   0.000950
    26  H   -0.017902   0.000341   0.001965  -0.000001   0.000000   0.000016
    27  F    0.001576  -0.001773  -0.016838  -0.000238   0.000017  -0.000577
    28  F   -0.033093   0.000862   0.002525   0.000044   0.000001   0.000049
    29  F    0.001626  -0.001774  -0.016839  -0.000237   0.000017  -0.000576
    30  F   -0.033081   0.000863   0.002524   0.000044   0.000001   0.000049
    31  F   -0.019492  -0.000022  -0.002595   0.000017  -0.000000  -0.000036
               7          8          9         10         11         12
     1  C    0.008018  -0.007668  -3.320920  -5.733719   0.210399   1.126109
     2  N    0.017450   0.001274  -0.124016   0.105786   0.151252   0.042592
     3  C    0.007221  -0.069030   0.534684  -0.021416   1.195737  -0.181871
     4  O    0.020150   0.000504   0.395526   0.086828  -0.013108   0.013722
     5  O   -0.124242   0.020425  -0.007733   0.010970  -0.002365   0.011044
     6  C   -0.165449  -0.037757   0.080560   0.055235   0.056305  -0.013710
     7  C    5.748085   0.198554  -0.042544  -0.009700   0.002531  -0.000393
     8  C    0.198554   5.449422   0.000855   0.000759   0.000159  -0.000622
     9  C   -0.042544   0.000855  12.832424   2.688980  -2.411499  -1.460608
    10  C   -0.009700   0.000759   2.688980  24.020550 -14.406302   1.246095
    11  C    0.002531   0.000159  -2.411499 -14.406302  34.728311  -5.332785
    12  C   -0.000393  -0.000622  -1.460608   1.246095  -5.332785  14.284925
    13  C    0.029396  -0.002125  -4.116602   0.354436  -8.560597  -2.912685
    14  H   -0.000257  -0.000264  -0.001604  -0.000450  -0.000768   0.042940
    15  H   -0.040207  -0.005579   0.000584   0.000147   0.000147  -0.000045
    16  H   -0.040172  -0.005521   0.000568   0.000147   0.000149  -0.000045
    17  H    0.413002  -0.031224   0.000089   0.000002   0.000006  -0.000003
    18  H    0.412965  -0.031087   0.000091   0.000002   0.000006  -0.000003
    19  H   -0.025427   0.407205  -0.000042  -0.000001   0.000000  -0.000000
    20  H   -0.102729   0.394755   0.000021   0.000000  -0.000000  -0.000000
    21  H   -0.025429   0.407083  -0.000042  -0.000001   0.000000  -0.000000
    22  H   -0.000061   0.000034   0.294569  -0.084926   0.071085  -0.024829
    23  Cl  -0.000001  -0.000001   0.042716   0.083429  -0.107666  -0.444059
    24  H   -0.000016   0.000000   0.003157   0.001964   0.082585   0.153489
    25  S   -0.000049   0.000012  -0.097605  -1.391827   1.046223  -0.891605
    26  H   -0.000000   0.000000   0.000233  -0.011512   0.209721   0.058490
    27  F   -0.000004  -0.000000   0.059685   0.051283  -0.357344   0.042713
    28  F   -0.000000   0.000000   0.074634  -0.388721   0.125771  -0.020743
    29  F   -0.000004  -0.000000   0.059707   0.051298  -0.357358   0.042692
    30  F   -0.000000   0.000000   0.074699  -0.388664   0.125623  -0.020751
    31  F    0.000000  -0.000000  -0.011589  -0.277211   0.105466  -0.026293
              13         14         15         16         17         18
     1  C   -4.805999  -0.017853   0.000939   0.000890  -0.000364  -0.000390
     2  N    0.073696   0.273950   0.004473   0.004494  -0.000439  -0.000439
     3  C   -2.329003  -0.017801   0.036994   0.036711   0.000157  -0.000100
     4  O   -0.079676   0.004073  -0.005390  -0.005404  -0.000327  -0.000327
     5  O   -0.017396   0.001350  -0.035920  -0.035915  -0.001416  -0.001420
     6  C   -0.259677  -0.010527   0.377035   0.377287  -0.047457  -0.047268
     7  C    0.029396  -0.000257  -0.040207  -0.040172   0.413002   0.412965
     8  C   -0.002125  -0.000264  -0.005579  -0.005521  -0.031224  -0.031087
     9  C   -4.116602  -0.001604   0.000584   0.000568   0.000089   0.000091
    10  C    0.354436  -0.000450   0.000147   0.000147   0.000002   0.000002
    11  C   -8.560597  -0.000768   0.000147   0.000149   0.000006   0.000006
    12  C   -2.912685   0.042940  -0.000045  -0.000045  -0.000003  -0.000003
    13  C   28.370028  -0.017155  -0.000063  -0.000060   0.000057   0.000055
    14  H   -0.017155   0.237812  -0.000001  -0.000001  -0.000004  -0.000004
    15  H   -0.000063  -0.000001   0.487660  -0.035202   0.003137  -0.003615
    16  H   -0.000060  -0.000001  -0.035202   0.487623  -0.003614   0.003136
    17  H    0.000057  -0.000004   0.003137  -0.003614   0.495490  -0.029157
    18  H    0.000055  -0.000004  -0.003615   0.003136  -0.029157   0.495491
    19  H    0.000013  -0.000000   0.000164   0.001386  -0.003204   0.003308
    20  H   -0.000007  -0.000000  -0.000115  -0.000115  -0.002585  -0.002584
    21  H    0.000013  -0.000000   0.001386   0.000165   0.003308  -0.003205
    22  H   -0.039045  -0.000094  -0.000004  -0.000004  -0.000000  -0.000000
    23  Cl   0.098026  -0.000207   0.000000   0.000000  -0.000000  -0.000000
    24  H   -0.063913   0.003697  -0.000000  -0.000000  -0.000000  -0.000000
    25  S    0.915458   0.000036  -0.000021  -0.000021  -0.000000  -0.000000
    26  H    0.058751  -0.000000  -0.000000  -0.000000  -0.000000  -0.000000
    27  F    0.056398  -0.000001   0.000000   0.000000   0.000000   0.000000
    28  F    0.038882  -0.000000   0.000000   0.000000   0.000000   0.000000
    29  F    0.056385  -0.000001   0.000000   0.000000   0.000000   0.000000
    30  F    0.038918  -0.000000   0.000000   0.000000   0.000000   0.000000
    31  F    0.019192   0.000000   0.000000   0.000000  -0.000000  -0.000000
              19         20         21         22         23         24
     1  C   -0.000014   0.000065  -0.000012  -0.000806   0.166366   0.152670
     2  N   -0.000052   0.000027  -0.000052  -0.008282  -0.005446  -0.007768
     3  C   -0.001972   0.004420  -0.001905   0.098200  -0.022784   0.009973
     4  O   -0.000069   0.000016  -0.000069  -0.004679   0.000079   0.000068
     5  O   -0.000790  -0.000132  -0.000789   0.000622  -0.000057  -0.000190
     6  C   -0.025001   0.066269  -0.024943   0.011088  -0.001118   0.000326
     7  C   -0.025427  -0.102729  -0.025429  -0.000061  -0.000001  -0.000016
     8  C    0.407205   0.394755   0.407083   0.000034  -0.000001   0.000000
     9  C   -0.000042   0.000021  -0.000042   0.294569   0.042716   0.003157
    10  C   -0.000001   0.000000  -0.000001  -0.084926   0.083429   0.001964
    11  C    0.000000  -0.000000   0.000000   0.071085  -0.107666   0.082585
    12  C   -0.000000  -0.000000  -0.000000  -0.024829  -0.444059   0.153489
    13  C    0.000013  -0.000007   0.000013  -0.039045   0.098026  -0.063913
    14  H   -0.000000  -0.000000  -0.000000  -0.000094  -0.000207   0.003697
    15  H    0.000164  -0.000115   0.001386  -0.000004   0.000000  -0.000000
    16  H    0.001386  -0.000115   0.000165  -0.000004   0.000000  -0.000000
    17  H   -0.003204  -0.002585   0.003308  -0.000000  -0.000000  -0.000000
    18  H    0.003308  -0.002584  -0.003205  -0.000000  -0.000000  -0.000000
    19  H    0.503394  -0.024656  -0.031302  -0.000000  -0.000000  -0.000000
    20  H   -0.024656   0.487245  -0.024656   0.000000   0.000000   0.000000
    21  H   -0.031302  -0.024656   0.503387  -0.000000  -0.000000  -0.000000
    22  H   -0.000000   0.000000  -0.000000   0.328539   0.000052  -0.000058
    23  Cl  -0.000000   0.000000  -0.000000   0.000052  16.952653  -0.010065
    24  H   -0.000000   0.000000  -0.000000  -0.000058  -0.010065   0.413744
    25  S    0.000000   0.000000   0.000000   0.008208  -0.006258   0.001551
    26  H   -0.000000   0.000000  -0.000000  -0.000057  -0.006447  -0.000079
    27  F   -0.000000   0.000000   0.000000  -0.001344  -0.000344   0.000001
    28  F    0.000000  -0.000000  -0.000000   0.000089  -0.002319   0.000003
    29  F    0.000000   0.000000  -0.000000  -0.001346  -0.000345   0.000001
    30  F   -0.000000  -0.000000   0.000000   0.000089  -0.002319   0.000003
    31  F   -0.000000  -0.000000  -0.000000  -0.000060   0.000087  -0.000000
              25         26         27         28         29         30
     1  C   -0.986458  -0.017902   0.001576  -0.033093   0.001626  -0.033081
     2  N    0.015031   0.000341  -0.001773   0.000862  -0.001774   0.000863
     3  C   -0.050192   0.001965  -0.016838   0.002525  -0.016839   0.002524
     4  O   -0.000511  -0.000001  -0.000238   0.000044  -0.000237   0.000044
     5  O    0.000318   0.000000   0.000017   0.000001   0.000017   0.000001
     6  C    0.000950   0.000016  -0.000577   0.000049  -0.000576   0.000049
     7  C   -0.000049  -0.000000  -0.000004  -0.000000  -0.000004  -0.000000
     8  C    0.000012   0.000000  -0.000000   0.000000  -0.000000   0.000000
     9  C   -0.097605   0.000233   0.059685   0.074634   0.059707   0.074699
    10  C   -1.391827  -0.011512   0.051283  -0.388721   0.051298  -0.388664
    11  C    1.046223   0.209721  -0.357344   0.125771  -0.357358   0.125623
    12  C   -0.891605   0.058490   0.042713  -0.020743   0.042692  -0.020751
    13  C    0.915458   0.058751   0.056398   0.038882   0.056385   0.038918
    14  H    0.000036  -0.000000  -0.000001  -0.000000  -0.000001  -0.000000
    15  H   -0.000021  -0.000000   0.000000   0.000000   0.000000   0.000000
    16  H   -0.000021  -0.000000   0.000000   0.000000   0.000000   0.000000
    17  H   -0.000000  -0.000000   0.000000   0.000000   0.000000   0.000000
    18  H   -0.000000  -0.000000   0.000000   0.000000   0.000000   0.000000
    19  H    0.000000  -0.000000  -0.000000   0.000000   0.000000  -0.000000
    20  H    0.000000   0.000000   0.000000  -0.000000   0.000000  -0.000000
    21  H    0.000000  -0.000000   0.000000  -0.000000  -0.000000   0.000000
    22  H    0.008208  -0.000057  -0.001344   0.000089  -0.001346   0.000089
    23  Cl  -0.006258  -0.006447  -0.000344  -0.002319  -0.000345  -0.002319
    24  H    0.001551  -0.000079   0.000001   0.000003   0.000001   0.000003
    25  S   14.232923   0.033061  -0.035126   0.003990  -0.035159   0.003983
    26  H    0.033061   0.374177   0.000375  -0.000532   0.000375  -0.000530
    27  F   -0.035126   0.000375   9.873352   0.022459   0.021205  -0.083981
    28  F    0.003990  -0.000532   0.022459   9.881015  -0.083994   0.017886
    29  F   -0.035159   0.000375   0.021205  -0.083994   9.873392   0.022459
    30  F    0.003983  -0.000530  -0.083981   0.017886   0.022459   9.880971
    31  F    0.140156  -0.000030   0.009556   0.009013   0.009552   0.009014
              31
     1  C   -0.019492
     2  N   -0.000022
     3  C   -0.002595
     4  O    0.000017
     5  O   -0.000000
     6  C   -0.000036
     7  C    0.000000
     8  C   -0.000000
     9  C   -0.011589
    10  C   -0.277211
    11  C    0.105466
    12  C   -0.026293
    13  C    0.019192
    14  H    0.000000
    15  H    0.000000
    16  H    0.000000
    17  H   -0.000000
    18  H   -0.000000
    19  H   -0.000000
    20  H   -0.000000
    21  H   -0.000000
    22  H   -0.000060
    23  Cl   0.000087
    24  H   -0.000000
    25  S    0.140156
    26  H   -0.000030
    27  F    0.009556
    28  F    0.009013
    29  F    0.009552
    30  F    0.009014
    31  F    9.669237
 Mulliken charges:
               1
     1  C   -0.018334
     2  N   -0.934740
     3  C    0.697156
     4  O   -0.583283
     5  O   -0.471927
     6  C    0.078711
     7  C   -0.280688
     8  C   -0.690162
     9  C    0.451021
    10  C   -0.043459
    11  C   -0.561682
    12  C    0.266241
    13  C   -0.905696
    14  H    0.503136
    15  H    0.213495
    16  H    0.213520
    17  H    0.204549
    18  H    0.204547
    19  H    0.197059
    20  H    0.204760
    21  H    0.197063
    22  H    0.353021
    23  Cl   0.266026
    24  H    0.258859
    25  S    3.092933
    26  H    0.299585
    27  F   -0.641049
    28  F   -0.647821
    29  F   -0.641077
    30  F   -0.647799
    31  F   -0.633964
 Sum of Mulliken charges =  -0.00000
 Mulliken charges with hydrogens summed into heavy atoms:
               1
     1  C   -0.018334
     2  N   -0.431604
     3  C    0.697156
     4  O   -0.583283
     5  O   -0.471927
     6  C    0.505726
     7  C    0.128408
     8  C   -0.091279
     9  C    0.804042
    10  C   -0.043459
    11  C   -0.262097
    12  C    0.266241
    13  C   -0.646838
    23  Cl   0.266026
    25  S    3.092933
    27  F   -0.641049
    28  F   -0.647821
    29  F   -0.641077
    30  F   -0.647799
    31  F   -0.633964
 Electronic spatial extent (au):  <R**2>=           9662.0092
 Charge=             -0.0000 electrons
 Dipole moment (field-independent basis, Debye):
    X=              5.6382    Y=              3.6574    Z=             -0.0007  Tot=              6.7205
 Quadrupole moment (field-independent basis, Debye-Ang):
   XX=           -114.9750   YY=           -134.2671   ZZ=           -132.3610
   XY=             -1.2145   XZ=             -0.0015   YZ=              0.0009
 Traceless Quadrupole moment (field-independent basis, Debye-Ang):
   XX=             12.2260   YY=             -7.0660   ZZ=             -5.1600
   XY=             -1.2145   XZ=             -0.0015   YZ=              0.0009
 Octapole moment (field-independent basis, Debye-Ang**2):
  XXX=             79.8545  YYY=            -39.5683  ZZZ=             -0.0002  XYY=              0.7526
  XXY=             -8.9747  XXZ=              0.0017  XZZ=            -13.3317  YZZ=            -21.1302
  YYZ=             -0.0048  XYZ=              0.0036
 Hexadecapole moment (field-independent basis, Debye-Ang**3):
 XXXX=          -8280.6257 YYYY=          -2777.2171 ZZZZ=           -301.7805 XXXY=             -1.0655
 XXXZ=             -0.0016 YYYX=            183.7111 YYYZ=             -0.0073 ZZZX=             -0.0086
 ZZZY=              0.0018 XXYY=          -2004.5253 XXZZ=          -1560.1605 YYZZ=           -525.7177
 XXYZ=              0.0198 YYXZ=             -0.0145 ZZXY=             40.9996
 N-N= 2.027328605226D+03 E-N=-8.656475280336D+03  KE= 1.939610366735D+03
 1\1\GINC-R3712\SP\RMP2-FC\Gen\C10H11Cl1F5N1O2S1\ROOT\09-Dec-2019\0\\# 
 MP2/Gen 6D SCF=Tight INT(grid=ultrafine) maxdisk=3489660928\\CP22CA.MP
 2_6-31pGd\\0,1\C,0,-5.8850653888,1.2485276222,0.2169643586\N,0,-4.6148
 365768,0.6712965052,0.1442754525\C,0,-3.4042293798,1.3229091055,0.1061
 891376\O,0,-3.2363729909,2.5133960652,0.129457359\O,0,-2.4237232336,0.
 4107499718,0.0379678909\C,0,-1.0893537805,0.9438254586,-0.0088387146\C
 ,0,-0.1301781247,-0.2240138484,-0.0834309874\C,0,1.3156248667,0.262366
 3639,-0.1365505101\C,0,-6.093613361,2.6300491127,0.2627860152\C,0,-7.3
 995706703,3.084345967,0.3339561154\C,0,-8.5088886159,2.2562518753,0.36
 24483165\C,0,-8.2657085414,0.8906930633,0.3154629426\C,0,-6.9811981273
 ,0.3811048469,0.2438057615\H,0,-4.5624644233,-0.336209351,0.1155702556
 \H,0,-0.9224485164,1.5507014193,0.8842424698\H,0,-1.0029293345,1.59729
 3356,-0.8801912677\H,0,-0.3642618935,-0.8213069013,-0.9687968991\H,0,-
 0.2841523952,-0.8676709298,0.7868709884\H,0,1.4903205477,0.8931407982,
 -1.0114654601\H,0,2.0089540257,-0.5777224768,-0.1904668651\H,0,1.57078
 95556,0.8464498438,0.7509228164\H,0,-5.2582936836,3.312402964,0.242873
 8608\Cl,0,-9.6087554177,-0.2111412185,0.3473381294\H,0,-6.8344291654,-
 0.6926059542,0.2088766481\S,0,-7.6713237805,4.8765224224,0.3935065476\
 H,0,-9.5171530304,2.6416664965,0.4183148583\F,0,-6.610037443,5.1462458
 464,-0.7896323887\F,0,-8.8624274017,4.795917381,-0.6954515179\F,0,-6.5
 063752001,5.0862927603,1.4879468545\F,0,-8.7588393883,4.7359846604,1.5
 803581536\F,0,-7.9181391312,6.461826774,0.4464796784\\Version=ES64L-G0
 9RevE.01\State=1-A\HF=-1943.3534163\MP2=-1946.3651111\RMSD=4.025e-09\P
 G=C01 [X(C10H11Cl1F5N1O2S1)]\\@


 QUHEN THE CAUSS IS TAKEN AWAY THE EFFECT WANISHETH.
 -- PROVERBS AND REASONS OF THE YEAR 1585
           AS REPRINTED IN PAISLEY MAGAZINE 1828.
 Job cpu time:       0 days  0 hours 21 minutes 15.0 seconds.
 File lengths (MBytes):  RWF=     92 Int=      0 D2E=      0 Chk=     11 Scr=      1
 Normal termination of Gaussian 09 at Mon Dec  9 11:27:05 2019.
pbs_rusage has been removed.
Please contact help@nci.org.au if you require this functionality.
