 Entering Gaussian System, Link 0=/apps/gaussian/g16c01/g16/g16
 Initial command:
 /apps/gaussian/g16c01/g16/l1.exe "/jobfs/11570210.gadi-pbs/Gau-385622.inp" -scrdir="/jobfs/11570210.gadi-pbs/"
 Entering Link 1 = /apps/gaussian/g16c01/g16/l1.exe PID=    385623.
  
 Copyright (c) 1988-2019, Gaussian, Inc.  All Rights Reserved.
  
 This is part of the Gaussian(R) 16 program.  It is based on
 the Gaussian(R) 09 system (copyright 2009, Gaussian, Inc.),
 the Gaussian(R) 03 system (copyright 2003, Gaussian, Inc.),
 the Gaussian(R) 98 system (copyright 1998, Gaussian, Inc.),
 the Gaussian(R) 94 system (copyright 1995, Gaussian, Inc.),
 the Gaussian 92(TM) system (copyright 1992, Gaussian, Inc.),
 the Gaussian 90(TM) system (copyright 1990, Gaussian, Inc.),
 the Gaussian 88(TM) system (copyright 1988, Gaussian, Inc.),
 the Gaussian 86(TM) system (copyright 1986, Carnegie Mellon
 University), and the Gaussian 82(TM) system (copyright 1983,
 Carnegie Mellon University). Gaussian is a federally registered
 trademark of Gaussian, Inc.
  
 This software contains proprietary and confidential information,
 including trade secrets, belonging to Gaussian, Inc.
  
 This software is provided under written license and may be
 used, copied, transmitted, or stored only in accord with that
 written license.
  
 The following legend is applicable only to US Government
 contracts under FAR:
  
                    RESTRICTED RIGHTS LEGEND
  
 Use, reproduction and disclosure by the US Government is
 subject to restrictions as set forth in subparagraphs (a)
 and (c) of the Commercial Computer Software - Restricted
 Rights clause in FAR 52.227-19.
  
 Gaussian, Inc.
 340 Quinnipiac St., Bldg. 40, Wallingford CT 06492
  
  
 ---------------------------------------------------------------
 Warning -- This program may not be used in any manner that
 competes with the business of Gaussian, Inc. or will provide
 assistance to any competitor of Gaussian, Inc.  The licensee
 of this program is prohibited from giving any competitor of
 Gaussian, Inc. access to this program.  By using this program,
 the user acknowledges that Gaussian, Inc. is engaged in the
 business of creating and licensing software in the field of
 computational chemistry and represents and warrants to the
 licensee that it is not a competitor of Gaussian, Inc. and that
 it will not use this program in any manner prohibited above.
 ---------------------------------------------------------------
  

 Cite this work as:
 Gaussian 16, Revision C.01,
 M. J. Frisch, G. W. Trucks, H. B. Schlegel, G. E. Scuseria, 
 M. A. Robb, J. R. Cheeseman, G. Scalmani, V. Barone, 
 G. A. Petersson, H. Nakatsuji, X. Li, M. Caricato, A. V. Marenich, 
 J. Bloino, B. G. Janesko, R. Gomperts, B. Mennucci, H. P. Hratchian, 
 J. V. Ortiz, A. F. Izmaylov, J. L. Sonnenberg, D. Williams-Young, 
 F. Ding, F. Lipparini, F. Egidi, J. Goings, B. Peng, A. Petrone, 
 T. Henderson, D. Ranasinghe, V. G. Zakrzewski, J. Gao, N. Rega, 
 G. Zheng, W. Liang, M. Hada, M. Ehara, K. Toyota, R. Fukuda, 
 J. Hasegawa, M. Ishida, T. Nakajima, Y. Honda, O. Kitao, H. Nakai, 
 T. Vreven, K. Throssell, J. A. Montgomery, Jr., J. E. Peralta, 
 F. Ogliaro, M. J. Bearpark, J. J. Heyd, E. N. Brothers, K. N. Kudin, 
 V. N. Staroverov, T. A. Keith, R. Kobayashi, J. Normand, 
 K. Raghavachari, A. P. Rendell, J. C. Burant, S. S. Iyengar, 
 J. Tomasi, M. Cossi, J. M. Millam, M. Klene, C. Adamo, R. Cammi, 
 J. W. Ochterski, R. L. Martin, K. Morokuma, O. Farkas, 
 J. B. Foresman, and D. J. Fox, Gaussian, Inc., Wallingford CT, 2019.
 
 ******************************************
 Gaussian 16:  ES64L-G16RevC.01  3-Jul-2019
                22-Sep-2020 
 ******************************************
 %NprocShared=6
 Will use up to    6 processors via shared memory.
 %Mem=1194000MB
 %chk=CP22CA.DSDPBEP86_AUG-cc-PVTZ.chk
 ----------------------------------------------------------------------
 # DSDPBEP86/AUG-cc-PVTZ SCF=Tight INT(grid=ultrafine) MaxDisk=1400000M
 B
 ----------------------------------------------------------------------
 1/38=1,172=1/1;
 2/12=2,17=6,18=5,40=1/2;
 3/5=16,6=1,7=10,11=9,25=1,30=1,74=-77,75=-5/1,2,3;
 4//1;
 5/5=2,32=2,38=5/2;
 8/10=1/1;
 9/16=-3/6;
 6/7=2,8=2,9=2,10=2/1;
 99/5=1,9=1/99;
 ----------------------------
 CP22CA.DSDPBEP86_AUG-cc-PVTZ
 ----------------------------
 Symbolic Z-matrix:
 Charge =  0 Multiplicity = 1
 C                    -5.88507   1.24853   0.21696 
 N                    -4.61484   0.6713    0.14428 
 C                    -3.40423   1.32291   0.10619 
 O                    -3.23637   2.5134    0.12946 
 O                    -2.42372   0.41075   0.03797 
 C                    -1.08935   0.94383  -0.00884 
 C                    -0.13018  -0.22401  -0.08343 
 C                     1.31562   0.26237  -0.13655 
 C                    -6.09361   2.63005   0.26279 
 C                    -7.39957   3.08435   0.33396 
 C                    -8.50889   2.25625   0.36245 
 C                    -8.26571   0.89069   0.31546 
 C                    -6.9812    0.3811    0.24381 
 H                    -4.56246  -0.33621   0.11557 
 H                    -0.92245   1.5507    0.88424 
 H                    -1.00293   1.59729  -0.88019 
 H                    -0.36426  -0.82131  -0.9688 
 H                    -0.28415  -0.86767   0.78687 
 H                     1.49032   0.89314  -1.01147 
 H                     2.00895  -0.57772  -0.19047 
 H                     1.57079   0.84645   0.75092 
 H                    -5.25829   3.3124    0.24287 
 Cl                   -9.60876  -0.21114   0.34734 
 H                    -6.83443  -0.69261   0.20888 
 S                    -7.67132   4.87652   0.39351 
 H                    -9.51715   2.64167   0.41831 
 F                    -6.61004   5.14625  -0.78963 
 F                    -8.86243   4.79592  -0.69545 
 F                    -6.50638   5.08629   1.48795 
 F                    -8.75884   4.73598   1.58036 
 F                    -7.91814   6.46183   0.44648 
 
                          Input orientation:                          
 ---------------------------------------------------------------------
 Center     Atomic      Atomic             Coordinates (Angstroms)
 Number     Number       Type             X           Y           Z
 ---------------------------------------------------------------------
      1          6           0       -5.885065    1.248528    0.216964
      2          7           0       -4.614837    0.671297    0.144275
      3          6           0       -3.404229    1.322909    0.106189
      4          8           0       -3.236373    2.513396    0.129457
      5          8           0       -2.423723    0.410750    0.037968
      6          6           0       -1.089354    0.943825   -0.008839
      7          6           0       -0.130178   -0.224014   -0.083431
      8          6           0        1.315625    0.262366   -0.136551
      9          6           0       -6.093613    2.630049    0.262786
     10          6           0       -7.399571    3.084346    0.333956
     11          6           0       -8.508889    2.256252    0.362448
     12          6           0       -8.265709    0.890693    0.315463
     13          6           0       -6.981198    0.381105    0.243806
     14          1           0       -4.562464   -0.336209    0.115570
     15          1           0       -0.922449    1.550701    0.884242
     16          1           0       -1.002929    1.597293   -0.880191
     17          1           0       -0.364262   -0.821307   -0.968797
     18          1           0       -0.284152   -0.867671    0.786871
     19          1           0        1.490321    0.893141   -1.011465
     20          1           0        2.008954   -0.577722   -0.190467
     21          1           0        1.570790    0.846450    0.750923
     22          1           0       -5.258294    3.312403    0.242874
     23         17           0       -9.608755   -0.211141    0.347338
     24          1           0       -6.834429   -0.692606    0.208877
     25         16           0       -7.671324    4.876522    0.393507
     26          1           0       -9.517153    2.641666    0.418315
     27          9           0       -6.610037    5.146246   -0.789632
     28          9           0       -8.862427    4.795917   -0.695452
     29          9           0       -6.506375    5.086293    1.487947
     30          9           0       -8.758839    4.735985    1.580358
     31          9           0       -7.918139    6.461827    0.446480
 ---------------------------------------------------------------------
                    Distance matrix (angstroms):
                    1          2          3          4          5
     1  C    0.000000
     2  N    1.397126   0.000000
     3  C    2.484422   1.375362   0.000000
     4  O    2.936515   2.300807   1.202488   0.000000
     5  O    3.565782   2.209109   1.340925   2.256079   0.000000
     6  C    4.810684   3.539314   2.348528   2.663150   1.437672
     7  C    5.947886   4.578820   3.626064   4.145743   2.382858
     8  C    7.276498   5.951173   4.843624   5.085133   3.746358
     9  C    1.397925   2.457140   2.994315   2.862727   4.294639
    10  C    2.382780   3.689652   4.372332   4.207139   5.656393
    11  C    2.814449   4.209908   5.195608   5.283922   6.367135
    12  C    2.409400   3.661462   4.885139   5.287909   5.868232
    13  C    1.398088   2.386165   3.701437   4.310853   4.562217
    14  H    2.066627   1.009274   2.023430   3.143082   2.266756
    15  H    5.016387   3.867122   2.610841   2.617390   2.066276
    16  H    5.016038   3.866895   2.610455   2.616659   2.066291
    17  H    6.014110   4.640494   3.872294   4.536015   2.602484
    18  H    6.014426   4.640708   3.872577   4.536454   2.602495
    19  H    7.485430   6.217547   5.038896   5.125287   4.080901
    20  H    8.112751   6.748830   5.744820   6.096788   4.547295
    21  H    7.485757   6.217771   5.039197   5.125792   4.080965
    22  H    2.157103   2.720147   2.722925   2.177025   4.061572
    23  Cl   4.001687   5.075348   6.395905   6.933818   7.218528
    24  H    2.160869   2.605954   3.979839   4.819830   4.549828
    25  S    4.047744   5.204628   5.560469   5.032184   6.899771
    26  H    3.895310   5.290573   6.261340   6.288727   7.445697
    27  F    4.090358   4.987803   5.069281   4.377012   6.374564
    28  F    4.720293   5.979939   6.518922   6.127223   7.824609
    29  F    4.090216   4.987541   5.069085   4.377009   6.374260
    30  F    4.720146   5.979698   6.518750   6.127206   7.824341
    31  F    5.600407   6.673333   6.848332   6.132662   8.183582
                    6          7          8          9         10
     6  C    0.000000
     7  C    1.513086   0.000000
     8  C    2.502922   1.526347   0.000000
     9  C    5.287697   6.620280   7.788594   0.000000
    10  C    6.672194   7.997720   9.172763   1.384549   0.000000
    11  C    7.543859   8.749475  10.037213   2.446060   1.384608
    12  C    7.183875   8.221225   9.612547   2.783187   2.358527
    13  C    5.924045   6.885472   8.306386   2.417833   2.736910
    14  H    3.703575   4.438170   5.913864   3.341374   4.449389
    15  H    1.092589   2.171105   2.776832   5.319036   6.678921
    16  H    1.092586   2.171101   2.776819   5.318651   6.678510
    17  H    2.136111   1.093356   2.165410   6.801038   8.151494
    18  H    2.136123   1.093356   2.165405   6.801364   8.151855
    19  H    2.768131   2.176074   1.092644   7.883947   9.254280
    20  H    3.456531   2.170818   1.090579   8.726215  10.109703
    21  H    2.768227   2.176081   1.092644   7.884325   9.254696
    22  H    4.801414   6.237811   7.256934   1.078778   2.155313
    23  Cl   8.604709   9.488369  10.945339   4.520590   3.967482
    24  H    5.977558   6.726961   8.213079   3.404666   3.821046
    25  S    7.677911   9.116568  10.116158   2.748254   1.813641
    26  H    8.607725   9.827470  11.104865   3.427090   2.165003
    27  F    6.981971   8.445531   9.332466   2.775883   2.477346
    28  F    8.702340  10.090910  11.156084   3.643561   2.475703
    29  F    6.981728   8.445382   9.332360   2.775702   2.477354
    30  F    8.702128  10.090767  11.155979   3.643404   2.475690
    31  F    8.791357  10.277821  11.137128   4.247959   3.418911
                   11         12         13         14         15
    11  C    0.000000
    12  C    1.387838   0.000000
    13  C    2.421588   1.383756   0.000000
    14  H    4.728220   3.906311   2.526115   0.000000
    15  H    7.637025   7.394768   6.203754   4.171451   0.000000
    16  H    7.636609   7.394379   6.203401   4.171362   1.766883
    17  H    8.807867   8.186155   6.833743   4.363035   3.061332
    18  H    8.808253   8.186532   6.834090   4.363147   2.503084
    19  H   10.184787   9.845854   8.579307   6.278353   3.138080
    20  H   10.906977  10.391386   9.051562   6.582973   3.778665
    21  H   10.185203   9.846232   8.579639   6.278468   2.594221
    22  H    3.419959   3.861929   3.400134   3.716552   4.723823
    23  Cl   2.701474   1.737478   2.695465   5.053159   8.879430
    24  H    3.394578   2.136997   1.084258   2.301640   6.359250
    25  S    2.751054   4.030660   4.550545   6.075757   7.539842
    26  H    1.080862   2.154669   3.401714   5.788639   8.676188
    27  F    3.644858   4.698107   4.890023   5.921931   6.933864
    28  F    2.773814   4.077842   4.889969   6.744343   8.721819
    29  F    3.644988   4.698194   4.890004   5.921633   6.636648
    30  F    2.773960   4.077917   4.889924   6.744058   8.487616
    31  F    4.247694   5.583503   6.155820   7.588369   8.558649
                   16         17         18         19         20
    16  H    0.000000
    17  H    2.503073   0.000000
    18  H    3.061337   1.758106   0.000000
    19  H    2.594101   2.525990   3.079485   0.000000
    20  H    3.778605   2.509439   2.509501   1.762515   0.000000
    21  H    3.138205   3.079492   2.525928   1.764842   1.762518
    22  H    4.723452   6.519758   6.520048   7.278049   8.254317
    23  Cl   8.879049   9.357627   9.358015  11.236337  11.635927
    24  H    6.358938   6.577731   6.578058   8.561851   8.853141
    25  S    7.539439   9.365590   9.365938  10.088459  11.126437
    26  H    8.675762   9.883910   9.884310  11.236818  11.982747
    27  F    6.636484   8.640226   8.869576   9.151716  10.363871
    28  F    8.487463  10.190522  10.385582  11.068465  12.137461
    29  F    6.933189   8.869097   8.640443   9.368924  10.363830
    30  F    8.721229  10.385115  10.190726  11.248568  12.137408
    31  F    8.558263  10.588112  10.588444  11.029732  12.186391
                   21         22         23         24         25
    21  H    0.000000
    22  H    7.278421   0.000000
    23  Cl  11.236708   5.599357   0.000000
    24  H    8.562138   4.304121   2.819196   0.000000
    25  S   10.088899   2.879561   5.444272   5.634685   0.000000
    26  H   11.237255   4.314922   2.855160   4.284652   2.898669
    27  F    9.369498   2.501252   6.243926   5.927863   1.612110
    28  F   11.249103   4.008871   5.168661   5.920682   1.615876
    29  F    9.152052   2.500920   6.244082   5.927842   1.612113
    30  F   11.068770   4.008649   5.168825   5.920634   1.615877
    31  F   11.030182   4.127360   6.884513   7.239944   1.605277
                   26         27         28         29         30
    26  H    0.000000
    27  F    4.022857   0.000000
    28  F    2.511959   2.281416   0.000000
    29  F    4.023070   2.280725   3.225295   0.000000
    30  F    2.512280   3.225294   2.278954   2.281414   0.000000
    31  F    4.141408   2.229317   2.229561   2.229310   2.229571
                   31
    31  F    0.000000
 Stoichiometry    C10H11ClF5NO2S
 Framework group  C1[X(C10H11ClF5NO2S)]
 Deg. of freedom    87
 Full point group                 C1      NOp   1
 Largest Abelian subgroup         C1      NOp   1
 Largest concise Abelian subgroup C1      NOp   1
                         Standard orientation:                         
 ---------------------------------------------------------------------
 Center     Atomic      Atomic             Coordinates (Angstroms)
 Number     Number       Type             X           Y           Z
 ---------------------------------------------------------------------
      1          6           0        0.509254    1.098254   -0.000146
      2          7           0        1.906379    1.099830   -0.000352
      3          6           0        2.741028    0.006678   -0.000087
      4          8           0        2.401871   -1.146990    0.000377
      5          8           0        4.012411    0.432900   -0.000424
      6          6           0        5.008944   -0.603354   -0.000181
      7          6           0        6.366629    0.064570    0.000087
      8          6           0        7.484100   -0.975138    0.000351
      9          6           0       -0.252198   -0.074087   -0.000108
     10          6           0       -1.631079    0.051061    0.000002
     11          6           0       -2.300359    1.263168    0.000082
     12          6           0       -1.513922    2.406676    0.000055
     13          6           0       -0.131737    2.340744   -0.000050
     14          1           0        2.370735    1.995937   -0.000562
     15          1           0        4.864067   -1.229659   -0.883642
     16          1           0        4.863705   -1.229625    0.883241
     17          1           0        6.446047    0.709847    0.879141
     18          1           0        6.446434    0.709804   -0.878965
     19          1           0        7.428694   -1.617173    0.882730
     20          1           0        8.463809   -0.496044    0.000650
     21          1           0        7.429192   -1.617101   -0.882112
     22          1           0        0.227459   -1.040364   -0.000162
     23         17           0       -2.283170    3.964587    0.000157
     24          1           0        0.446095    3.258200   -0.000068
     25         16           0       -2.619983   -1.469256   -0.000001
     26          1           0       -3.379262    1.328203    0.000160
     27          9           0       -1.704039   -2.146951    1.140469
     28          9           0       -3.613420   -0.898302    1.139362
     29          9           0       -1.703856   -2.147075   -1.140256
     30          9           0       -3.613220   -0.898404   -1.139592
     31          9           0       -3.500602   -2.811427   -0.000009
 ---------------------------------------------------------------------
 Rotational constants (GHZ):           0.3799363           0.1349909           0.1038363
 Standard basis: Aug-CC-pVTZ (5D, 7F)
 There are  1383 symmetry adapted cartesian basis functions of A   symmetry.
 There are  1181 symmetry adapted basis functions of A   symmetry.
  1181 basis functions,  1821 primitive gaussians,  1383 cartesian basis functions
    86 alpha electrons       86 beta electrons
       nuclear repulsion energy      2027.3286141523 Hartrees.
 NAtoms=   31 NActive=   31 NUniq=   31 SFac= 1.00D+00 NAtFMM=   60 NAOKFM=F Big=F
 Integral buffers will be    131072 words long.
 Regular integral format.
 Two-electron integral symmetry is turned on.
 Nuclear repulsion after empirical dispersion term =     2027.3029544858 Hartrees.
 One-electron integrals computed using PRISM.
 NBasis=  1181 RedAO= T EigKep=  1.00D-06  NBF=  1181
 NBsUse=  1179 1.00D-06 EigRej=  5.36D-07 NBFU=  1179
 ExpMin= 2.53D-02 ExpMax= 4.56D+05 ExpMxC= 1.44D+03 IAcc=3 IRadAn=         5 AccDes= 0.00D+00
 Harris functional with IExCor= 1004 and IRadAn=       5 diagonalized for initial guess.
 HarFok:  IExCor= 1004 AccDes= 0.00D+00 IRadAn=         5 IDoV= 1 UseB2=F ITyADJ=14
 ICtDFT=  3500011 ScaDFX=  1.000000  1.000000  1.000000  1.000000
 FoFCou: FMM=F IPFlag=           0 FMFlag=      100000 FMFlg1=           0
         NFxFlg=           0 DoJE=T BraDBF=F KetDBF=T FulRan=T
         wScrn=  0.000000 ICntrl=       500 IOpCl=  0 I1Cent=   200000004 NGrid=           0
         NMat0=    1 NMatS0=      1 NMatT0=    0 NMatD0=    1 NMtDS0=    0 NMtDT0=    0
 Petite list used in FoFCou.
 Requested convergence on RMS density matrix=1.00D-08 within 128 cycles.
 Requested convergence on MAX density matrix=1.00D-06.
 Requested convergence on             energy=1.00D-06.
 No special actions if energy rises.
 SCF Done:  E(RDSDPBEP86) =  -1946.60370618     A.U. after   14 cycles
            NFock= 14  Conv=0.27D-08     -V/T= 2.0025
 DoSCS=T DFT=T ScalE2(SS,OS)=  0.220000  0.520000
 ExpMin= 2.53D-02 ExpMax= 4.56D+05 ExpMxC= 1.44D+03 IAcc=3 IRadAn=         5 AccDes= 0.00D+00
 HarFok:  IExCor=  205 AccDes= 0.00D+00 IRadAn=         5 IDoV=-2 UseB2=F ITyADJ=14
 ICtDFT= 12500011 ScaDFX=  1.000000  1.000000  1.000000  1.000000
 GSVD:  LWork=       -1008 too small for GESVD, short by        4340 words or        4340 for optimal perf.
 Range of M.O.s used for correlation:    29  1179
 NBasis=  1181 NAE=    86 NBE=    86 NFC=    28 NFV=     0
 NROrb=   1151 NOA=    58 NOB=    58 NVA=  1093 NVB=  1093

 **** Warning!!: The largest alpha MO coefficient is  0.13329224D+03

 DoSCS=T DFT=T ScalE2(SS,OS)=  0.220000  0.520000
 Fully direct method using O(OVN) memory.
 JobTyp=1 Pass  1:  I=   1 to  58 NPSUse=  6 ParTrn=T ParDer=T DoDerP=F.
 Spin components of T(2) and E(2):
     alpha-alpha T2 =       0.2002358040D+00 E2=     -0.1317472187D+00
     alpha-beta  T2 =       0.1026612725D+01 E2=     -0.1743230788D+01
     beta-beta   T2 =       0.2002358040D+00 E2=     -0.1317472187D+00
 E2(DSDPBEP86) =    -0.2006725225D+01 E(DSDPBEP86) =    -0.19486104314047D+04

 **********************************************************************

            Population analysis using the SCF Density.

 **********************************************************************

 Orbital symmetries:
       Occupied  (A) (A) (A) (A) (A) (A) (A) (A) (A) (A) (A) (A)
                 (A) (A) (A) (A) (A) (A) (A) (A) (A) (A) (A) (A)
                 (A) (A) (A) (A) (A) (A) (A) (A) (A) (A) (A) (A)
                 (A) (A) (A) (A) (A) (A) (A) (A) (A) (A) (A) (A)
                 (A) (A) (A) (A) (A) (A) (A) (A) (A) (A) (A) (A)
                 (A) (A) (A) (A) (A) (A) (A) (A) (A) (A) (A) (A)
                 (A) (A) (A) (A) (A) (A) (A) (A) (A) (A) (A) (A)
                 (A) (A)
       Virtual   (A) (A) (A) (A) (A) (A) (A) (A) (A) (A) (A) (A)
                 (A) (A) (A) (A) (A) (A) (A) (A) (A) (A) (A) (A)
                 (A) (A) (A) (A) (A) (A) (A) (A) (A) (A) (A) (A)
                 (A) (A) (A) (A) (A) (A) (A) (A) (A) (A) (A) (A)
                 (A) (A) (A) (A) (A) (A) (A) (A) (A) (A) (A) (A)
                 (A) (A) (A) (A) (A) (A) (A) (A) (A) (A) (A) (A)
                 (A) (A) (A) (A) (A) (A) (A) (A) (A) (A) (A) (A)
                 (A) (A) (A) (A) (A) (A) (A) (A) (A) (A) (A) (A)
                 (A) (A) (A) (A) (A) (A) (A) (A) (A) (A) (A) (A)
                 (A) (A) (A) (A) (A) (A) (A) (A) (A) (A) (A) (A)
                 (A) (A) (A) (A) (A) (A) (A) (A) (A) (A) (A) (A)
                 (A) (A) (A) (A) (A) (A) (A) (A) (A) (A) (A) (A)
                 (A) (A) (A) (A) (A) (A) (A) (A) (A) (A) (A) (A)
                 (A) (A) (A) (A) (A) (A) (A) (A) (A) (A) (A) (A)
                 (A) (A) (A) (A) (A) (A) (A) (A) (A) (A) (A) (A)
                 (A) (A) (A) (A) (A) (A) (A) (A) (A) (A) (A) (A)
                 (A) (A) (A) (A) (A) (A) (A) (A) (A) (A) (A) (A)
                 (A) (A) (A) (A) (A) (A) (A) (A) (A) (A) (A) (A)
                 (A) (A) (A) (A) (A) (A) (A) (A) (A) (A) (A) (A)
                 (A) (A) (A) (A) (A) (A) (A) (A) (A) (A) (A) (A)
                 (A) (A) (A) (A) (A) (A) (A) (A) (A) (A) (A) (A)
                 (A) (A) (A) (A) (A) (A) (A) (A) (A) (A) (A) (A)
                 (A) (A) (A) (A) (A) (A) (A) (A) (A) (A) (A) (A)
                 (A) (A) (A) (A) (A) (A) (A) (A) (A) (A) (A) (A)
                 (A) (A) (A) (A) (A) (A) (A) (A) (A) (A) (A) (A)
                 (A) (A) (A) (A) (A) (A) (A) (A) (A) (A) (A) (A)
                 (A) (A) (A) (A) (A) (A) (A) (A) (A) (A) (A) (A)
                 (A) (A) (A) (A) (A) (A) (A) (A) (A) (A) (A) (A)
                 (A) (A) (A) (A) (A) (A) (A) (A) (A) (A) (A) (A)
                 (A) (A) (A) (A) (A) (A) (A) (A) (A) (A) (A) (A)
                 (A) (A) (A) (A) (A) (A) (A) (A) (A) (A) (A) (A)
                 (A) (A) (A) (A) (A) (A) (A) (A) (A) (A) (A) (A)
                 (A) (A) (A) (A) (A) (A) (A) (A) (A) (A) (A) (A)
                 (A) (A) (A) (A) (A) (A) (A) (A) (A) (A) (A) (A)
                 (A) (A) (A) (A) (A) (A) (A) (A) (A) (A) (A) (A)
                 (A) (A) (A) (A) (A) (A) (A) (A) (A) (A) (A) (A)
                 (A) (A) (A) (A) (A) (A) (A) (A) (A) (A) (A) (A)
                 (A) (A) (A) (A) (A) (A) (A) (A) (A) (A) (A) (A)
                 (A) (A) (A) (A) (A) (A) (A) (A) (A) (A) (A) (A)
                 (A) (A) (A) (A) (A) (A) (A) (A) (A) (A) (A) (A)
                 (A) (A) (A) (A) (A) (A) (A) (A) (A) (A) (A) (A)
                 (A) (A) (A) (A) (A) (A) (A) (A) (A) (A) (A) (A)
                 (A) (A) (A) (A) (A) (A) (A) (A) (A) (A) (A) (A)
                 (A) (A) (A) (A) (A) (A) (A) (A) (A) (A) (A) (A)
                 (A) (A) (A) (A) (A) (A) (A) (A) (A) (A) (A) (A)
                 (A) (A) (A) (A) (A) (A) (A) (A) (A) (A) (A) (A)
                 (A) (A) (A) (A) (A) (A) (A) (A) (A) (A) (A) (A)
                 (A) (A) (A) (A) (A) (A) (A) (A) (A) (A) (A) (A)
                 (A) (A) (A) (A) (A) (A) (A) (A) (A) (A) (A) (A)
                 (A) (A) (A) (A) (A) (A) (A) (A) (A) (A) (A) (A)
                 (A) (A) (A) (A) (A) (A) (A) (A) (A) (A) (A) (A)
                 (A) (A) (A) (A) (A) (A) (A) (A) (A) (A) (A) (A)
                 (A) (A) (A) (A) (A) (A) (A) (A) (A) (A) (A) (A)
                 (A) (A) (A) (A) (A) (A) (A) (A) (A) (A) (A) (A)
                 (A) (A) (A) (A) (A) (A) (A) (A) (A) (A) (A) (A)
                 (A) (A) (A) (A) (A) (A) (A) (A) (A) (A) (A) (A)
                 (A) (A) (A) (A) (A) (A) (A) (A) (A) (A) (A) (A)
                 (A) (A) (A) (A) (A) (A) (A) (A) (A) (A) (A) (A)
                 (A) (A) (A) (A) (A) (A) (A) (A) (A) (A) (A) (A)
                 (A) (A) (A) (A) (A) (A) (A) (A) (A) (A) (A) (A)
                 (A) (A) (A) (A) (A) (A) (A) (A) (A) (A) (A) (A)
                 (A) (A) (A) (A) (A) (A) (A) (A) (A) (A) (A) (A)
                 (A) (A) (A) (A) (A) (A) (A) (A) (A) (A) (A) (A)
                 (A) (A) (A) (A) (A) (A) (A) (A) (A) (A) (A) (A)
                 (A) (A) (A) (A) (A) (A) (A) (A) (A) (A) (A) (A)
                 (A) (A) (A) (A) (A) (A) (A) (A) (A) (A) (A) (A)
                 (A) (A) (A) (A) (A) (A) (A) (A) (A) (A) (A) (A)
                 (A) (A) (A) (A) (A) (A) (A) (A) (A) (A) (A) (A)
                 (A) (A) (A) (A) (A) (A) (A) (A) (A) (A) (A) (A)
                 (A) (A) (A) (A) (A) (A) (A) (A) (A) (A) (A) (A)
                 (A) (A) (A) (A) (A) (A) (A) (A) (A) (A) (A) (A)
                 (A) (A) (A) (A) (A) (A) (A) (A) (A) (A) (A) (A)
                 (A) (A) (A) (A) (A) (A) (A) (A) (A) (A) (A) (A)
                 (A) (A) (A) (A) (A) (A) (A) (A) (A) (A) (A) (A)
                 (A) (A) (A) (A) (A) (A) (A) (A) (A) (A) (A) (A)
                 (A) (A) (A) (A) (A) (A) (A) (A) (A) (A) (A) (A)
                 (A) (A) (A) (A) (A) (A) (A) (A) (A) (A) (A) (A)
                 (A) (A) (A) (A) (A) (A) (A) (A) (A) (A) (A) (A)
                 (A) (A) (A) (A) (A) (A) (A) (A) (A) (A) (A) (A)
                 (A) (A) (A) (A) (A) (A) (A) (A) (A) (A) (A) (A)
                 (A) (A) (A) (A) (A) (A) (A) (A) (A) (A) (A) (A)
                 (A) (A) (A) (A) (A) (A) (A) (A) (A) (A) (A) (A)
                 (A) (A) (A) (A) (A) (A) (A) (A) (A) (A) (A) (A)
                 (A) (A) (A) (A) (A) (A) (A) (A) (A) (A) (A) (A)
                 (A) (A) (A) (A) (A) (A) (A) (A) (A) (A) (A) (A)
                 (A) (A) (A) (A) (A) (A) (A) (A) (A) (A) (A) (A)
                 (A) (A) (A) (A) (A) (A) (A) (A) (A) (A) (A) (A)
                 (A) (A) (A) (A) (A) (A) (A) (A) (A) (A) (A) (A)
                 (A) (A) (A) (A) (A) (A) (A) (A) (A) (A) (A) (A)
                 (A) (A) (A) (A) (A) (A) (A) (A) (A) (A) (A) (A)
                 (A) (A) (A) (A) (A) (A) (A) (A) (A) (A) (A) (A)
                 (A)
 The electronic state is 1-A.
 Alpha  occ. eigenvalues -- -103.58979 -91.16684 -25.71205 -25.71204 -25.71203
 Alpha  occ. eigenvalues --  -25.71202 -25.71093 -20.06885 -20.00256 -15.14848
 Alpha  occ. eigenvalues --  -11.00576 -10.91774 -10.91455 -10.89474 -10.88727
 Alpha  occ. eigenvalues --  -10.86315 -10.86188 -10.85577 -10.83031 -10.82003
 Alpha  occ. eigenvalues --  -10.16475  -8.91171  -7.74157  -7.73677  -7.73665
 Alpha  occ. eigenvalues --   -6.70278  -6.70266  -6.69871  -1.59484  -1.49866
 Alpha  occ. eigenvalues --   -1.49806  -1.46907  -1.45485  -1.36120  -1.25859
 Alpha  occ. eigenvalues --   -1.17782  -1.10759  -1.05093  -1.00108  -0.98101
 Alpha  occ. eigenvalues --   -0.94447  -0.92876  -0.87494  -0.81582  -0.80870
 Alpha  occ. eigenvalues --   -0.77329  -0.77262  -0.75051  -0.74085  -0.73173
 Alpha  occ. eigenvalues --   -0.69679  -0.68430  -0.66470  -0.66306  -0.65656
 Alpha  occ. eigenvalues --   -0.64580  -0.64285  -0.61493  -0.61464  -0.59652
 Alpha  occ. eigenvalues --   -0.59562  -0.59257  -0.59120  -0.59083  -0.58392
 Alpha  occ. eigenvalues --   -0.56693  -0.56407  -0.55828  -0.55294  -0.55237
 Alpha  occ. eigenvalues --   -0.53690  -0.53659  -0.51215  -0.51146  -0.50105
 Alpha  occ. eigenvalues --   -0.48078  -0.47715  -0.46689  -0.44997  -0.44695
 Alpha  occ. eigenvalues --   -0.42446  -0.42346  -0.42228  -0.41395  -0.34302
 Alpha  occ. eigenvalues --   -0.31313
 Alpha virt. eigenvalues --    0.00760   0.01515   0.01537   0.02501   0.02621
 Alpha virt. eigenvalues --    0.03025   0.03319   0.03629   0.04438   0.04853
 Alpha virt. eigenvalues --    0.04960   0.05199   0.05391   0.06621   0.06762
 Alpha virt. eigenvalues --    0.06929   0.07225   0.07581   0.07858   0.08611
 Alpha virt. eigenvalues --    0.08679   0.09348   0.09792   0.09809   0.10147
 Alpha virt. eigenvalues --    0.10630   0.10890   0.10988   0.11144   0.11553
 Alpha virt. eigenvalues --    0.11615   0.11764   0.12074   0.12725   0.13213
 Alpha virt. eigenvalues --    0.13255   0.13579   0.13627   0.13738   0.14300
 Alpha virt. eigenvalues --    0.14997   0.15254   0.15319   0.15557   0.15920
 Alpha virt. eigenvalues --    0.16376   0.16457   0.17302   0.17558   0.17904
 Alpha virt. eigenvalues --    0.18297   0.18742   0.18906   0.18938   0.19353
 Alpha virt. eigenvalues --    0.19409   0.19664   0.19996   0.20299   0.20647
 Alpha virt. eigenvalues --    0.21287   0.21437   0.21789   0.22221   0.22728
 Alpha virt. eigenvalues --    0.22958   0.23201   0.23361   0.23988   0.24065
 Alpha virt. eigenvalues --    0.24190   0.24774   0.24853   0.25583   0.25685
 Alpha virt. eigenvalues --    0.25868   0.26146   0.26363   0.26584   0.26754
 Alpha virt. eigenvalues --    0.27125   0.27809   0.28053   0.28387   0.28409
 Alpha virt. eigenvalues --    0.28918   0.28998   0.29163   0.29668   0.29969
 Alpha virt. eigenvalues --    0.30085   0.30205   0.30540   0.31087   0.31361
 Alpha virt. eigenvalues --    0.31457   0.31483   0.31672   0.32176   0.32310
 Alpha virt. eigenvalues --    0.33019   0.33051   0.33322   0.33462   0.33671
 Alpha virt. eigenvalues --    0.34058   0.34666   0.34851   0.35070   0.35550
 Alpha virt. eigenvalues --    0.35648   0.35949   0.36316   0.36341   0.36458
 Alpha virt. eigenvalues --    0.36898   0.37034   0.37624   0.37797   0.38179
 Alpha virt. eigenvalues --    0.38510   0.38690   0.38983   0.39215   0.39791
 Alpha virt. eigenvalues --    0.39800   0.40123   0.40731   0.41115   0.41399
 Alpha virt. eigenvalues --    0.41705   0.41978   0.42284   0.42376   0.42532
 Alpha virt. eigenvalues --    0.42784   0.42972   0.43329   0.43824   0.44307
 Alpha virt. eigenvalues --    0.44366   0.44657   0.44985   0.45179   0.45958
 Alpha virt. eigenvalues --    0.45980   0.46339   0.46391   0.46436   0.46773
 Alpha virt. eigenvalues --    0.47444   0.47697   0.48107   0.48275   0.48432
 Alpha virt. eigenvalues --    0.48774   0.48908   0.49317   0.49450   0.49790
 Alpha virt. eigenvalues --    0.50260   0.50564   0.50893   0.51301   0.51585
 Alpha virt. eigenvalues --    0.51709   0.51877   0.52208   0.52528   0.52821
 Alpha virt. eigenvalues --    0.53032   0.53158   0.53654   0.54931   0.55026
 Alpha virt. eigenvalues --    0.55271   0.55526   0.56017   0.56431   0.56639
 Alpha virt. eigenvalues --    0.57272   0.57552   0.57697   0.58444   0.58662
 Alpha virt. eigenvalues --    0.58798   0.59332   0.60030   0.61047   0.61105
 Alpha virt. eigenvalues --    0.61405   0.62031   0.62743   0.62898   0.63707
 Alpha virt. eigenvalues --    0.63717   0.63829   0.64619   0.64934   0.65145
 Alpha virt. eigenvalues --    0.65826   0.66396   0.66761   0.67446   0.67477
 Alpha virt. eigenvalues --    0.68292   0.68473   0.68829   0.69202   0.70134
 Alpha virt. eigenvalues --    0.70803   0.71073   0.71217   0.71833   0.72166
 Alpha virt. eigenvalues --    0.72210   0.72937   0.73026   0.73474   0.73525
 Alpha virt. eigenvalues --    0.73944   0.74717   0.74770   0.75803   0.76142
 Alpha virt. eigenvalues --    0.76733   0.76794   0.77959   0.78104   0.78301
 Alpha virt. eigenvalues --    0.78355   0.79018   0.79271   0.80075   0.80262
 Alpha virt. eigenvalues --    0.80578   0.81535   0.81674   0.81817   0.82229
 Alpha virt. eigenvalues --    0.82242   0.82517   0.83006   0.83522   0.84071
 Alpha virt. eigenvalues --    0.84331   0.84551   0.85114   0.85465   0.85830
 Alpha virt. eigenvalues --    0.85888   0.86532   0.86678   0.86844   0.86997
 Alpha virt. eigenvalues --    0.87692   0.88126   0.88161   0.88283   0.88739
 Alpha virt. eigenvalues --    0.89530   0.90127   0.90532   0.90686   0.91177
 Alpha virt. eigenvalues --    0.91290   0.92178   0.92528   0.92779   0.93387
 Alpha virt. eigenvalues --    0.93873   0.94107   0.94465   0.94879   0.95039
 Alpha virt. eigenvalues --    0.95198   0.95543   0.96711   0.96738   0.97506
 Alpha virt. eigenvalues --    0.97760   0.97960   0.98075   0.98647   0.98696
 Alpha virt. eigenvalues --    0.99616   0.99884   1.00318   1.00501   1.00768
 Alpha virt. eigenvalues --    1.01384   1.01420   1.01977   1.02472   1.02656
 Alpha virt. eigenvalues --    1.03460   1.03534   1.04089   1.04450   1.04700
 Alpha virt. eigenvalues --    1.05338   1.05443   1.05801   1.06237   1.06315
 Alpha virt. eigenvalues --    1.06657   1.07214   1.07680   1.08079   1.08110
 Alpha virt. eigenvalues --    1.08474   1.09327   1.09574   1.09664   1.10289
 Alpha virt. eigenvalues --    1.10525   1.10909   1.10959   1.11838   1.12230
 Alpha virt. eigenvalues --    1.12447   1.12570   1.13134   1.13473   1.13496
 Alpha virt. eigenvalues --    1.13602   1.14251   1.14845   1.15094   1.15394
 Alpha virt. eigenvalues --    1.15898   1.16446   1.16746   1.17627   1.17666
 Alpha virt. eigenvalues --    1.17901   1.18165   1.19105   1.19117   1.19191
 Alpha virt. eigenvalues --    1.19312   1.19912   1.20389   1.21675   1.21771
 Alpha virt. eigenvalues --    1.21797   1.22523   1.22920   1.22963   1.23552
 Alpha virt. eigenvalues --    1.24238   1.24832   1.25355   1.25698   1.26232
 Alpha virt. eigenvalues --    1.26423   1.27682   1.27921   1.27975   1.28394
 Alpha virt. eigenvalues --    1.28428   1.28998   1.29397   1.29494   1.30435
 Alpha virt. eigenvalues --    1.30535   1.30748   1.30830   1.31924   1.32240
 Alpha virt. eigenvalues --    1.33144   1.33595   1.33853   1.34349   1.34774
 Alpha virt. eigenvalues --    1.35127   1.35410   1.36220   1.36569   1.37219
 Alpha virt. eigenvalues --    1.37241   1.37856   1.38016   1.39440   1.39626
 Alpha virt. eigenvalues --    1.40043   1.40398   1.40861   1.41164   1.41578
 Alpha virt. eigenvalues --    1.41860   1.42327   1.42685   1.42802   1.43187
 Alpha virt. eigenvalues --    1.44463   1.45637   1.45718   1.46202   1.47003
 Alpha virt. eigenvalues --    1.47454   1.47680   1.48623   1.49291   1.49556
 Alpha virt. eigenvalues --    1.50073   1.50534   1.50572   1.52139   1.52482
 Alpha virt. eigenvalues --    1.52528   1.52919   1.53457   1.53827   1.54551
 Alpha virt. eigenvalues --    1.55224   1.55686   1.56019   1.56669   1.56883
 Alpha virt. eigenvalues --    1.57285   1.57780   1.58254   1.58541   1.58811
 Alpha virt. eigenvalues --    1.59853   1.60250   1.60510   1.61067   1.61583
 Alpha virt. eigenvalues --    1.61589   1.62136   1.62468   1.62951   1.63531
 Alpha virt. eigenvalues --    1.63881   1.64514   1.65130   1.65630   1.66383
 Alpha virt. eigenvalues --    1.66992   1.67150   1.67318   1.68073   1.68116
 Alpha virt. eigenvalues --    1.68943   1.69009   1.69431   1.70526   1.70785
 Alpha virt. eigenvalues --    1.71974   1.72773   1.72902   1.72993   1.73970
 Alpha virt. eigenvalues --    1.74147   1.74965   1.75489   1.75832   1.76122
 Alpha virt. eigenvalues --    1.76534   1.77661   1.77842   1.78537   1.78737
 Alpha virt. eigenvalues --    1.80482   1.80610   1.80672   1.81047   1.82526
 Alpha virt. eigenvalues --    1.82674   1.82989   1.83675   1.84103   1.85035
 Alpha virt. eigenvalues --    1.85733   1.86183   1.86494   1.86943   1.87216
 Alpha virt. eigenvalues --    1.87919   1.89292   1.89455   1.90349   1.90538
 Alpha virt. eigenvalues --    1.90976   1.91647   1.92454   1.92534   1.92782
 Alpha virt. eigenvalues --    1.92913   1.93580   1.93853   1.95744   1.96184
 Alpha virt. eigenvalues --    1.97187   1.98588   1.98635   1.99353   1.99643
 Alpha virt. eigenvalues --    1.99898   2.01393   2.01512   2.02073   2.02464
 Alpha virt. eigenvalues --    2.03322   2.03615   2.04185   2.04774   2.05557
 Alpha virt. eigenvalues --    2.06943   2.08262   2.09449   2.09944   2.10473
 Alpha virt. eigenvalues --    2.10584   2.11151   2.13314   2.13457   2.13761
 Alpha virt. eigenvalues --    2.14802   2.15505   2.16326   2.16599   2.16966
 Alpha virt. eigenvalues --    2.16978   2.18024   2.18343   2.19268   2.20126
 Alpha virt. eigenvalues --    2.20236   2.21101   2.22926   2.23053   2.23228
 Alpha virt. eigenvalues --    2.23234   2.24905   2.25692   2.26449   2.27048
 Alpha virt. eigenvalues --    2.27387   2.28517   2.28986   2.29693   2.30116
 Alpha virt. eigenvalues --    2.31189   2.31213   2.32429   2.33035   2.34400
 Alpha virt. eigenvalues --    2.34965   2.35760   2.35932   2.36609   2.37675
 Alpha virt. eigenvalues --    2.38414   2.38850   2.40299   2.41091   2.41470
 Alpha virt. eigenvalues --    2.42512   2.43402   2.44837   2.45164   2.45963
 Alpha virt. eigenvalues --    2.46390   2.46932   2.47605   2.48042   2.49413
 Alpha virt. eigenvalues --    2.50288   2.50471   2.52727   2.53029   2.53437
 Alpha virt. eigenvalues --    2.53900   2.54642   2.55671   2.56039   2.57202
 Alpha virt. eigenvalues --    2.57983   2.58232   2.59429   2.60562   2.61121
 Alpha virt. eigenvalues --    2.61645   2.63082   2.63323   2.63764   2.64728
 Alpha virt. eigenvalues --    2.65037   2.65289   2.65686   2.69895   2.70515
 Alpha virt. eigenvalues --    2.70801   2.71958   2.72441   2.73163   2.73564
 Alpha virt. eigenvalues --    2.73760   2.74447   2.74523   2.76083   2.76820
 Alpha virt. eigenvalues --    2.77574   2.78409   2.79094   2.79674   2.80430
 Alpha virt. eigenvalues --    2.81697   2.83545   2.83896   2.84843   2.85459
 Alpha virt. eigenvalues --    2.86932   2.88420   2.88938   2.89614   2.91224
 Alpha virt. eigenvalues --    2.91301   2.92821   2.93401   2.93905   2.94578
 Alpha virt. eigenvalues --    2.95689   2.96668   2.97755   2.98699   2.98952
 Alpha virt. eigenvalues --    2.99703   2.99939   3.00556   3.00936   3.01007
 Alpha virt. eigenvalues --    3.03567   3.03772   3.05073   3.06080   3.07111
 Alpha virt. eigenvalues --    3.07529   3.07671   3.08021   3.08621   3.10105
 Alpha virt. eigenvalues --    3.11273   3.12024   3.12481   3.12845   3.13345
 Alpha virt. eigenvalues --    3.13564   3.13949   3.15511   3.15947   3.17799
 Alpha virt. eigenvalues --    3.18143   3.19214   3.19217   3.19988   3.20587
 Alpha virt. eigenvalues --    3.21801   3.22196   3.22414   3.22758   3.23362
 Alpha virt. eigenvalues --    3.24549   3.24862   3.25009   3.27559   3.27674
 Alpha virt. eigenvalues --    3.28194   3.29483   3.29858   3.30624   3.32330
 Alpha virt. eigenvalues --    3.32391   3.32630   3.33222   3.33603   3.34626
 Alpha virt. eigenvalues --    3.34870   3.35316   3.36395   3.37585   3.37713
 Alpha virt. eigenvalues --    3.37749   3.38807   3.39209   3.39520   3.40956
 Alpha virt. eigenvalues --    3.41159   3.42007   3.44970   3.45720   3.46513
 Alpha virt. eigenvalues --    3.46688   3.47494   3.47542   3.48991   3.49095
 Alpha virt. eigenvalues --    3.49573   3.50405   3.51064   3.51837   3.52690
 Alpha virt. eigenvalues --    3.54967   3.55001   3.56114   3.56923   3.57301
 Alpha virt. eigenvalues --    3.58999   3.59179   3.59421   3.59830   3.60018
 Alpha virt. eigenvalues --    3.60415   3.60990   3.61699   3.62403   3.62606
 Alpha virt. eigenvalues --    3.63384   3.63769   3.64118   3.64969   3.65457
 Alpha virt. eigenvalues --    3.66345   3.67667   3.67778   3.68424   3.69833
 Alpha virt. eigenvalues --    3.70385   3.71075   3.71759   3.72719   3.73386
 Alpha virt. eigenvalues --    3.74291   3.74997   3.75235   3.75688   3.76008
 Alpha virt. eigenvalues --    3.77616   3.77890   3.78581   3.78656   3.80341
 Alpha virt. eigenvalues --    3.80743   3.80900   3.81670   3.81875   3.83137
 Alpha virt. eigenvalues --    3.83860   3.84489   3.84683   3.84975   3.85452
 Alpha virt. eigenvalues --    3.85783   3.86460   3.87246   3.87843   3.88453
 Alpha virt. eigenvalues --    3.88700   3.89086   3.89635   3.91691   3.92299
 Alpha virt. eigenvalues --    3.93773   3.93974   3.94632   3.95224   3.97665
 Alpha virt. eigenvalues --    3.99265   3.99285   4.00559   4.00942   4.00979
 Alpha virt. eigenvalues --    4.01778   4.02182   4.02780   4.03672   4.05832
 Alpha virt. eigenvalues --    4.06191   4.06208   4.06348   4.07360   4.07686
 Alpha virt. eigenvalues --    4.07878   4.08854   4.09877   4.10291   4.11081
 Alpha virt. eigenvalues --    4.11480   4.12172   4.13611   4.14394   4.15865
 Alpha virt. eigenvalues --    4.16611   4.17705   4.18193   4.18916   4.19149
 Alpha virt. eigenvalues --    4.20292   4.20847   4.21297   4.22312   4.22443
 Alpha virt. eigenvalues --    4.22481   4.23557   4.23830   4.25273   4.26064
 Alpha virt. eigenvalues --    4.26432   4.26982   4.27417   4.28452   4.29067
 Alpha virt. eigenvalues --    4.29163   4.29736   4.30709   4.31700   4.32131
 Alpha virt. eigenvalues --    4.33593   4.33729   4.36394   4.37999   4.38157
 Alpha virt. eigenvalues --    4.38575   4.39389   4.39865   4.41303   4.41833
 Alpha virt. eigenvalues --    4.43738   4.44435   4.44468   4.46025   4.46726
 Alpha virt. eigenvalues --    4.48992   4.49456   4.49939   4.51047   4.52110
 Alpha virt. eigenvalues --    4.52854   4.53013   4.54629   4.54688   4.56721
 Alpha virt. eigenvalues --    4.57420   4.57945   4.58200   4.60888   4.62815
 Alpha virt. eigenvalues --    4.63065   4.64369   4.65134   4.65436   4.67545
 Alpha virt. eigenvalues --    4.67989   4.70030   4.70419   4.71182   4.72030
 Alpha virt. eigenvalues --    4.73823   4.74355   4.75538   4.76160   4.77572
 Alpha virt. eigenvalues --    4.79007   4.80065   4.80260   4.81412   4.82821
 Alpha virt. eigenvalues --    4.83662   4.84099   4.86739   4.88420   4.89179
 Alpha virt. eigenvalues --    4.90835   4.92606   4.92978   4.94466   4.96722
 Alpha virt. eigenvalues --    4.97112   4.98274   4.98833   4.98926   4.99854
 Alpha virt. eigenvalues --    5.01584   5.02181   5.04174   5.06599   5.07890
 Alpha virt. eigenvalues --    5.08151   5.09663   5.10146   5.10759   5.11839
 Alpha virt. eigenvalues --    5.12144   5.12843   5.13689   5.15405   5.15777
 Alpha virt. eigenvalues --    5.16978   5.17322   5.18610   5.20194   5.20393
 Alpha virt. eigenvalues --    5.23031   5.23877   5.24718   5.27513   5.29908
 Alpha virt. eigenvalues --    5.34944   5.36087   5.37922   5.38389   5.38805
 Alpha virt. eigenvalues --    5.42451   5.44450   5.44730   5.45051   5.45830
 Alpha virt. eigenvalues --    5.48948   5.50418   5.50838   5.51253   5.51970
 Alpha virt. eigenvalues --    5.53924   5.55305   5.56920   5.57215   5.57689
 Alpha virt. eigenvalues --    5.59906   5.62465   5.62876   5.63450   5.67673
 Alpha virt. eigenvalues --    5.70065   5.71380   5.71628   5.73293   5.76207
 Alpha virt. eigenvalues --    5.76763   5.77190   5.79171   5.79639   5.84810
 Alpha virt. eigenvalues --    5.85459   5.87099   5.87429   5.89246   5.90842
 Alpha virt. eigenvalues --    5.91477   5.94549   5.97632   5.97793   6.00827
 Alpha virt. eigenvalues --    6.01059   6.03235   6.05062   6.07664   6.10074
 Alpha virt. eigenvalues --    6.11614   6.17593   6.18403   6.21188   6.22918
 Alpha virt. eigenvalues --    6.24365   6.30024   6.31424   6.33420   6.35066
 Alpha virt. eigenvalues --    6.39683   6.41053   6.45981   6.50255   6.50420
 Alpha virt. eigenvalues --    6.53471   6.57042   6.57180   6.58630   6.60684
 Alpha virt. eigenvalues --    6.61616   6.67390   6.67646   6.70909   6.74348
 Alpha virt. eigenvalues --    6.75896   6.77601   6.79762   6.83618   6.84716
 Alpha virt. eigenvalues --    6.89642   6.98198   6.99798   6.99911   7.01503
 Alpha virt. eigenvalues --    7.09853   7.10717   7.19301   7.21633   7.27541
 Alpha virt. eigenvalues --    7.35246   7.41279   7.46663   7.47356   7.51628
 Alpha virt. eigenvalues --    7.63407   7.70442   7.72136   7.81814   7.91062
 Alpha virt. eigenvalues --    8.06088   8.20055   8.40970   8.43388   8.53292
 Alpha virt. eigenvalues --    8.58392   8.72334   8.74793   8.76287   8.76849
 Alpha virt. eigenvalues --    8.78794   8.79029   8.80146   8.82141   8.83953
 Alpha virt. eigenvalues --    8.83990   8.84796   8.92665   8.96670   8.97778
 Alpha virt. eigenvalues --    8.98825   9.01342   9.04731   9.07957   9.08284
 Alpha virt. eigenvalues --    9.10499   9.11664   9.12847   9.13033   9.14843
 Alpha virt. eigenvalues --    9.18069   9.18271   9.18602   9.19382   9.20866
 Alpha virt. eigenvalues --    9.22429   9.23799   9.26647   9.29464   9.29961
 Alpha virt. eigenvalues --    9.30971   9.31514   9.32376   9.32523   9.33299
 Alpha virt. eigenvalues --    9.35997   9.37712   9.38878   9.39804   9.40569
 Alpha virt. eigenvalues --    9.41817   9.45304   9.46929   9.48164   9.55536
 Alpha virt. eigenvalues --    9.60268   9.60604   9.66762   9.69687   9.75883
 Alpha virt. eigenvalues --    9.75931   9.77009   9.86309   9.91461  11.33274
 Alpha virt. eigenvalues --   15.26001  15.48019  15.80395  15.94018  16.22488
 Alpha virt. eigenvalues --   16.40499  16.48340  16.82980  17.35807  17.56162
 Alpha virt. eigenvalues --   17.89772  18.03007  18.64275  19.21681  19.53050
 Alpha virt. eigenvalues --   20.43723  20.75853  21.34225
          Condensed to atoms (all electrons):
               1          2          3          4          5          6
     1  C    8.971600   0.033742  -0.607239   0.135035   0.054361  -0.038533
     2  N    0.033742   8.215121   0.255412  -0.143476  -0.393710  -0.143823
     3  C   -0.607239   0.255412   5.862165   0.249219   0.320158  -0.064355
     4  O    0.135035  -0.143476   0.249219   8.870033  -0.074767   0.009017
     5  O    0.054361  -0.393710   0.320158  -0.074767   8.655918   0.200032
     6  C   -0.038533  -0.143823  -0.064355   0.009017   0.200032   5.563739
     7  C   -0.024700  -0.015293   0.028724  -0.005121  -0.117531   0.078233
     8  C   -0.000789  -0.001709  -0.001112  -0.005197  -0.000085  -0.037158
     9  C   -1.019379  -0.558004  -0.269972  -0.164403  -0.093081  -0.045027
    10  C    0.564112   0.158094   0.076293   0.032218   0.038054   0.005383
    11  C   -0.125314  -0.022642  -0.032712   0.006361  -0.010524  -0.005748
    12  C   -0.259614   0.210861   0.112895   0.001334   0.021754   0.010707
    13  C   -0.920961  -0.424394  -0.049826   0.006363  -0.123222  -0.023254
    14  H    0.072545   0.259557  -0.064515   0.022496   0.094624   0.000038
    15  H   -0.009438   0.010303  -0.032409  -0.005228  -0.036902   0.318212
    16  H   -0.009368   0.010308  -0.032448  -0.005391  -0.036783   0.318330
    17  H   -0.003512  -0.010838  -0.001499   0.005694  -0.036049   0.046917
    18  H   -0.003501  -0.010836  -0.001522   0.005675  -0.035936   0.047043
    19  H    0.000247  -0.000803   0.003833  -0.000004  -0.000474  -0.005328
    20  H    0.000262  -0.000349   0.002666  -0.000457   0.001526  -0.005094
    21  H    0.000250  -0.000805   0.003830  -0.000004  -0.000478  -0.005327
    22  H   -0.521894  -0.161248  -0.064790  -0.156107   0.010193  -0.007072
    23  Cl   0.009520  -0.043969  -0.013617  -0.000092  -0.001686  -0.000340
    24  H   -0.547637  -0.058116  -0.044305   0.000822  -0.035642  -0.006417
    25  S   -0.134297  -0.000347  -0.028378   0.001668   0.001610  -0.002422
    26  H   -0.048309   0.017027   0.004660  -0.000175  -0.000061  -0.000184
    27  F   -0.009307   0.003894   0.005370  -0.002376  -0.000477  -0.000688
    28  F    0.010543  -0.004352   0.000256   0.000117  -0.000016   0.000072
    29  F   -0.009338   0.003924   0.005387  -0.002380  -0.000476  -0.000686
    30  F    0.010556  -0.004341   0.000262   0.000117  -0.000016   0.000073
    31  F    0.007668   0.001206   0.002687  -0.000010  -0.000029   0.000025
               7          8          9         10         11         12
     1  C   -0.024700  -0.000789  -1.019379   0.564112  -0.125314  -0.259614
     2  N   -0.015293  -0.001709  -0.558004   0.158094  -0.022642   0.210861
     3  C    0.028724  -0.001112  -0.269972   0.076293  -0.032712   0.112895
     4  O   -0.005121  -0.005197  -0.164403   0.032218   0.006361   0.001334
     5  O   -0.117531  -0.000085  -0.093081   0.038054  -0.010524   0.021754
     6  C    0.078233  -0.037158  -0.045027   0.005383  -0.005748   0.010707
     7  C    5.519076   0.116301  -0.000138  -0.000329  -0.000180   0.000934
     8  C    0.116301   5.803558  -0.000664   0.000030  -0.000072   0.000080
     9  C   -0.000138  -0.000664  10.501722  -2.100906   0.224166  -0.319902
    10  C   -0.000329   0.000030  -2.100906  10.538794  -1.634556   0.348564
    11  C   -0.000180  -0.000072   0.224166  -1.634556   8.189353  -0.412949
    12  C    0.000934   0.000080  -0.319902   0.348564  -0.412949   6.864471
    13  C    0.009314   0.000170   0.263426  -0.704812   0.140442  -0.317915
    14  H    0.002248  -0.000015  -0.036905   0.010501  -0.005517  -0.001183
    15  H    0.013701  -0.001248   0.002052  -0.000926  -0.000421   0.000381
    16  H    0.013568  -0.001254   0.002035  -0.000922  -0.000421   0.000382
    17  H    0.409940  -0.038653   0.000104  -0.000067  -0.000018   0.000221
    18  H    0.409882  -0.038644   0.000103  -0.000067  -0.000019   0.000222
    19  H    0.040027   0.362157  -0.000047   0.000064  -0.000006   0.000007
    20  H   -0.034736   0.447243  -0.000076  -0.000006  -0.000001   0.000003
    21  H    0.040037   0.362135  -0.000048   0.000064  -0.000006   0.000007
    22  H   -0.002479  -0.000148   0.000849  -0.470980   0.052074  -0.021817
    23  Cl  -0.000013  -0.000001   0.059902  -0.074921   0.009579  -0.181167
    24  H    0.000508  -0.000031   0.042674  -0.062377   0.010723  -0.232072
    25  S    0.000052  -0.000011   0.129067  -0.801296   0.096532  -0.016789
    26  H    0.000000  -0.000003   0.077710  -0.397942   0.220857  -0.255010
    27  F   -0.000002  -0.000004   0.067117  -0.207948   0.025478   0.003970
    28  F    0.000002   0.000000   0.015016  -0.181059   0.074727  -0.000478
    29  F   -0.000002  -0.000004   0.067108  -0.207896   0.025456   0.003981
    30  F    0.000002   0.000000   0.015034  -0.180950   0.074629  -0.000464
    31  F   -0.000002   0.000000  -0.037195   0.264418  -0.079831  -0.003693
              13         14         15         16         17         18
     1  C   -0.920961   0.072545  -0.009438  -0.009368  -0.003512  -0.003501
     2  N   -0.424394   0.259557   0.010303   0.010308  -0.010838  -0.010836
     3  C   -0.049826  -0.064515  -0.032409  -0.032448  -0.001499  -0.001522
     4  O    0.006363   0.022496  -0.005228  -0.005391   0.005694   0.005675
     5  O   -0.123222   0.094624  -0.036902  -0.036783  -0.036049  -0.035936
     6  C   -0.023254   0.000038   0.318212   0.318330   0.046917   0.047043
     7  C    0.009314   0.002248   0.013701   0.013568   0.409940   0.409882
     8  C    0.000170  -0.000015  -0.001248  -0.001254  -0.038653  -0.038644
     9  C    0.263426  -0.036905   0.002052   0.002035   0.000104   0.000103
    10  C   -0.704812   0.010501  -0.000926  -0.000922  -0.000067  -0.000067
    11  C    0.140442  -0.005517  -0.000421  -0.000421  -0.000018  -0.000019
    12  C   -0.317915  -0.001183   0.000381   0.000382   0.000221   0.000222
    13  C    8.463696  -0.052948   0.000522   0.000505   0.000564   0.000562
    14  H   -0.052948   0.809486  -0.001878  -0.001865  -0.000809  -0.000807
    15  H    0.000522  -0.001878   0.413318   0.011172   0.018464  -0.017483
    16  H    0.000505  -0.001865   0.011172   0.413274  -0.017529   0.018408
    17  H    0.000564  -0.000809   0.018464  -0.017529   0.406506   0.008812
    18  H    0.000562  -0.000807  -0.017483   0.018408   0.008812   0.406346
    19  H   -0.000058   0.000126  -0.007809  -0.009347   0.000850   0.000477
    20  H   -0.000047   0.000034   0.000034   0.000047  -0.002740  -0.002716
    21  H   -0.000059   0.000127  -0.009330  -0.007820   0.000487   0.000847
    22  H   -0.083880  -0.005858   0.000241   0.000246  -0.000369  -0.000369
    23  Cl   0.126753  -0.000880  -0.000010  -0.000010  -0.000004  -0.000004
    24  H    0.257519  -0.093789  -0.000065  -0.000066   0.000073   0.000073
    25  S    0.092029  -0.000656  -0.000305  -0.000305  -0.000004  -0.000004
    26  H    0.013953   0.000913  -0.000010  -0.000010   0.000000   0.000000
    27  F   -0.000442   0.000149   0.000006   0.000023   0.000006   0.000000
    28  F    0.004732   0.000043   0.000009  -0.000008   0.000001   0.000000
    29  F   -0.000460   0.000148   0.000023   0.000006   0.000000   0.000006
    30  F    0.004711   0.000042  -0.000008   0.000009   0.000000   0.000001
    31  F   -0.003670   0.000038   0.000016   0.000016  -0.000000  -0.000000
              19         20         21         22         23         24
     1  C    0.000247   0.000262   0.000250  -0.521894   0.009520  -0.547637
     2  N   -0.000803  -0.000349  -0.000805  -0.161248  -0.043969  -0.058116
     3  C    0.003833   0.002666   0.003830  -0.064790  -0.013617  -0.044305
     4  O   -0.000004  -0.000457  -0.000004  -0.156107  -0.000092   0.000822
     5  O   -0.000474   0.001526  -0.000478   0.010193  -0.001686  -0.035642
     6  C   -0.005328  -0.005094  -0.005327  -0.007072  -0.000340  -0.006417
     7  C    0.040027  -0.034736   0.040037  -0.002479  -0.000013   0.000508
     8  C    0.362157   0.447243   0.362135  -0.000148  -0.000001  -0.000031
     9  C   -0.000047  -0.000076  -0.000048   0.000849   0.059902   0.042674
    10  C    0.000064  -0.000006   0.000064  -0.470980  -0.074921  -0.062377
    11  C   -0.000006  -0.000001  -0.000006   0.052074   0.009579   0.010723
    12  C    0.000007   0.000003   0.000007  -0.021817  -0.181167  -0.232072
    13  C   -0.000058  -0.000047  -0.000059  -0.083880   0.126753   0.257519
    14  H    0.000126   0.000034   0.000127  -0.005858  -0.000880  -0.093789
    15  H   -0.007809   0.000034  -0.009330   0.000241  -0.000010  -0.000065
    16  H   -0.009347   0.000047  -0.007820   0.000246  -0.000010  -0.000066
    17  H    0.000850  -0.002740   0.000487  -0.000369  -0.000004   0.000073
    18  H    0.000477  -0.002716   0.000847  -0.000369  -0.000004   0.000073
    19  H    0.315305   0.000360   0.020836   0.000079  -0.000000  -0.000012
    20  H    0.000360   0.306007   0.000349   0.000011   0.000000   0.000002
    21  H    0.020836   0.000349   0.315313   0.000079  -0.000000  -0.000012
    22  H    0.000079   0.000011   0.000079   1.770392  -0.002480  -0.017328
    23  Cl  -0.000000   0.000000  -0.000000  -0.002480  17.600519  -0.030281
    24  H   -0.000012   0.000002  -0.000012  -0.017328  -0.030281   1.326491
    25  S    0.000005  -0.000002   0.000005   0.050068  -0.002251  -0.006106
    26  H   -0.000000  -0.000000  -0.000000  -0.009792  -0.036157  -0.028154
    27  F   -0.000003  -0.000000  -0.000001  -0.020824   0.000272  -0.000282
    28  F    0.000000   0.000000  -0.000000   0.007997  -0.000539   0.000343
    29  F   -0.000001  -0.000000  -0.000003  -0.020845   0.000271  -0.000283
    30  F   -0.000000   0.000000   0.000000   0.008018  -0.000540   0.000344
    31  F   -0.000000   0.000000  -0.000000  -0.021978  -0.000125   0.000089
              25         26         27         28         29         30
     1  C   -0.134297  -0.048309  -0.009307   0.010543  -0.009338   0.010556
     2  N   -0.000347   0.017027   0.003894  -0.004352   0.003924  -0.004341
     3  C   -0.028378   0.004660   0.005370   0.000256   0.005387   0.000262
     4  O    0.001668  -0.000175  -0.002376   0.000117  -0.002380   0.000117
     5  O    0.001610  -0.000061  -0.000477  -0.000016  -0.000476  -0.000016
     6  C   -0.002422  -0.000184  -0.000688   0.000072  -0.000686   0.000073
     7  C    0.000052   0.000000  -0.000002   0.000002  -0.000002   0.000002
     8  C   -0.000011  -0.000003  -0.000004   0.000000  -0.000004   0.000000
     9  C    0.129067   0.077710   0.067117   0.015016   0.067108   0.015034
    10  C   -0.801296  -0.397942  -0.207948  -0.181059  -0.207896  -0.180950
    11  C    0.096532   0.220857   0.025478   0.074727   0.025456   0.074629
    12  C   -0.016789  -0.255010   0.003970  -0.000478   0.003981  -0.000464
    13  C    0.092029   0.013953  -0.000442   0.004732  -0.000460   0.004711
    14  H   -0.000656   0.000913   0.000149   0.000043   0.000148   0.000042
    15  H   -0.000305  -0.000010   0.000006   0.000009   0.000023  -0.000008
    16  H   -0.000305  -0.000010   0.000023  -0.000008   0.000006   0.000009
    17  H   -0.000004   0.000000   0.000006   0.000001   0.000000   0.000000
    18  H   -0.000004   0.000000   0.000000   0.000000   0.000006   0.000001
    19  H    0.000005  -0.000000  -0.000003   0.000000  -0.000001  -0.000000
    20  H   -0.000002  -0.000000  -0.000000   0.000000  -0.000000   0.000000
    21  H    0.000005  -0.000000  -0.000001  -0.000000  -0.000003   0.000000
    22  H    0.050068  -0.009792  -0.020824   0.007997  -0.020845   0.008018
    23  Cl  -0.002251  -0.036157   0.000272  -0.000539   0.000271  -0.000540
    24  H   -0.006106  -0.028154  -0.000282   0.000343  -0.000283   0.000344
    25  S   13.812866   0.036197   0.000572  -0.033010   0.000611  -0.033087
    26  H    0.036197   0.958596   0.009512  -0.037673   0.009511  -0.037714
    27  F    0.000572   0.009512   9.761262  -0.013698   0.013613   0.051639
    28  F   -0.033010  -0.037673  -0.013698   9.773860   0.051642   0.017654
    29  F    0.000611   0.009511   0.013613   0.051642   9.761234  -0.013699
    30  F   -0.033087  -0.037714   0.051639   0.017654  -0.013699   9.773895
    31  F    0.125634  -0.018358  -0.104140  -0.099743  -0.104152  -0.099733
              31
     1  C    0.007668
     2  N    0.001206
     3  C    0.002687
     4  O   -0.000010
     5  O   -0.000029
     6  C    0.000025
     7  C   -0.000002
     8  C    0.000000
     9  C   -0.037195
    10  C    0.264418
    11  C   -0.079831
    12  C   -0.003693
    13  C   -0.003670
    14  H    0.000038
    15  H    0.000016
    16  H    0.000016
    17  H   -0.000000
    18  H   -0.000000
    19  H   -0.000000
    20  H    0.000000
    21  H   -0.000000
    22  H   -0.021978
    23  Cl  -0.000125
    24  H    0.000089
    25  S    0.125634
    26  H   -0.018358
    27  F   -0.104140
    28  F   -0.099743
    29  F   -0.104152
    30  F   -0.099733
    31  F    9.694753
 Mulliken charges:
               1
     1  C    0.422689
     2  N   -0.180394
     3  C    0.374880
     4  O   -0.780983
     5  O   -0.400284
     6  C   -0.206365
     7  C   -0.482024
     8  C   -0.964875
     9  C   -0.822338
    10  C    0.991370
    11  C   -0.819440
    12  C    0.442281
    13  C   -0.679317
    14  H   -0.005487
    15  H    0.335018
    16  H    0.335218
    17  H    0.213452
    18  H    0.213452
    19  H    0.279516
    20  H    0.287681
    21  H    0.279526
    22  H    0.690010
    23  Cl  -0.417728
    24  H    0.523315
    25  S    2.712357
    26  H    0.520616
    27  F   -0.582692
    28  F   -0.586438
    29  F   -0.582695
    30  F   -0.586433
    31  F   -0.523890
 Sum of Mulliken charges =  -0.00000
 Mulliken charges with hydrogens summed into heavy atoms:
               1
     1  C    0.422689
     2  N   -0.185882
     3  C    0.374880
     4  O   -0.780983
     5  O   -0.400284
     6  C    0.463871
     7  C   -0.055120
     8  C   -0.118151
     9  C   -0.132328
    10  C    0.991370
    11  C   -0.298824
    12  C    0.442281
    13  C   -0.156002
    23  Cl  -0.417728
    25  S    2.712357
    27  F   -0.582692
    28  F   -0.586438
    29  F   -0.582695
    30  F   -0.586433
    31  F   -0.523890
 Electronic spatial extent (au):  <R**2>=           9657.9470
 Charge=             -0.0000 electrons
 Dipole moment (field-independent basis, Debye):
    X=              5.4657    Y=              3.4985    Z=             -0.0007  Tot=              6.4895
 Quadrupole moment (field-independent basis, Debye-Ang):
   XX=           -113.3786   YY=           -132.2847   ZZ=           -130.4762
   XY=             -0.9923   XZ=             -0.0015   YZ=              0.0007
 Traceless Quadrupole moment (field-independent basis, Debye-Ang):
   XX=             12.0013   YY=             -6.9049   ZZ=             -5.0964
   XY=             -0.9923   XZ=             -0.0015   YZ=              0.0007
 Octapole moment (field-independent basis, Debye-Ang**2):
  XXX=             77.5497  YYY=            -39.5886  ZZZ=             -0.0003  XYY=             -1.1159
  XXY=             -8.2926  XXZ=              0.0017  XZZ=            -14.0486  YZZ=            -20.8955
  YYZ=             -0.0044  XYZ=              0.0031
 Hexadecapole moment (field-independent basis, Debye-Ang**3):
 XXXX=          -8180.2970 YYYY=          -2749.6054 ZZZZ=           -298.9395 XXXY=              8.4109
 XXXZ=              0.0024 YYYX=            177.3063 YYYZ=             -0.0063 ZZZX=             -0.0087
 ZZZY=              0.0015 XXYY=          -1980.5458 XXZZ=          -1542.0133 YYZZ=           -519.4943
 XXYZ=              0.0176 YYXZ=             -0.0138 ZZXY=             40.8987
 N-N= 2.027302954486D+03 E-N=-8.661678532615D+03  KE= 1.941808656460D+03
 Unable to Open any file for archive entry.
 1\1\GINC-GADI-HMEM-CLX-0035\SP\RDSDPBEP86-FC\Aug-CC-pVTZ\C10H11Cl1F5N1
 O2S1\HIO507\22-Sep-2020\0\\# DSDPBEP86/AUG-cc-PVTZ SCF=Tight INT(grid=
 ultrafine) MaxDisk=1400000MB\\CP22CA.DSDPBEP86_AUG-cc-PVTZ\\0,1\C,0,-5
 .8850653888,1.2485276222,0.2169643586\N,0,-4.6148365768,0.6712965052,0
 .1442754525\C,0,-3.4042293798,1.3229091055,0.1061891376\O,0,-3.2363729
 909,2.5133960652,0.129457359\O,0,-2.4237232336,0.4107499718,0.03796789
 09\C,0,-1.0893537805,0.9438254586,-0.0088387146\C,0,-0.1301781247,-0.2
 240138484,-0.0834309874\C,0,1.3156248667,0.2623663639,-0.1365505101\C,
 0,-6.093613361,2.6300491127,0.2627860152\C,0,-7.3995706703,3.084345967
 ,0.3339561154\C,0,-8.5088886159,2.2562518753,0.3624483165\C,0,-8.26570
 85414,0.8906930633,0.3154629426\C,0,-6.9811981273,0.3811048469,0.24380
 57615\H,0,-4.5624644233,-0.336209351,0.1155702556\H,0,-0.9224485164,1.
 5507014193,0.8842424698\H,0,-1.0029293345,1.597293356,-0.8801912677\H,
 0,-0.3642618935,-0.8213069013,-0.9687968991\H,0,-0.2841523952,-0.86767
 09298,0.7868709884\H,0,1.4903205477,0.8931407982,-1.0114654601\H,0,2.0
 089540257,-0.5777224768,-0.1904668651\H,0,1.5707895556,0.8464498438,0.
 7509228164\H,0,-5.2582936836,3.312402964,0.2428738608\Cl,0,-9.60875541
 77,-0.2111412185,0.3473381294\H,0,-6.8344291654,-0.6926059542,0.208876
 6481\S,0,-7.6713237805,4.8765224224,0.3935065476\H,0,-9.5171530304,2.6
 416664965,0.4183148583\F,0,-6.610037443,5.1462458464,-0.7896323887\F,0
 ,-8.8624274017,4.795917381,-0.6954515179\F,0,-6.5063752001,5.086292760
 3,1.4879468545\F,0,-8.7588393883,4.7359846604,1.5803581536\F,0,-7.9181
 391312,6.461826774,0.4464796784\\Version=ES64L-G16RevC.01\State=1-A\HF
 =-1946.6037062\MP2=-1948.6104314\RMSD=2.673e-09\PG=C01 [X(C10H11Cl1F5N
 1O2S1)]\\@
 The archive entry for this job was punched.


 IN SO FAR AS QUANTUM MECHANICS IS CORRECT, CHEMICAL 
 QUESTIONS ARE PROBLEMS IN APPLIED MATHEMATICS.

                    -- EYRING, WALTER, & KIMBALL, 1944
 Job cpu time:       1 days 20 hours 58 minutes 52.2 seconds.
 Elapsed time:       0 days  7 hours 29 minutes 55.7 seconds.
 File lengths (MBytes):  RWF=    721 Int=      0 D2E=      0 Chk=     91 Scr=      1
 Normal termination of Gaussian 16 at Tue Sep 22 17:54:11 2020.
