 Entering Gaussian System, Link 0=/apps/gaussian/g09e01/g09/g09
 Initial command:
 /apps/gaussian/g09e01/g09/l1.exe "/jobfs/local/3588734.r-man2/Gau-11260.inp" -scrdir="/jobfs/local/3588734.r-man2/"
 Entering Link 1 = /apps/gaussian/g09e01/g09/l1.exe PID=     11263.
  
 Copyright (c) 1988,1990,1992,1993,1995,1998,2003,2009,2015,
            Gaussian, Inc.  All Rights Reserved.
  
 This is part of the Gaussian(R) 09 program.  It is based on
 the Gaussian(R) 03 system (copyright 2003, Gaussian, Inc.),
 the Gaussian(R) 98 system (copyright 1998, Gaussian, Inc.),
 the Gaussian(R) 94 system (copyright 1995, Gaussian, Inc.),
 the Gaussian 92(TM) system (copyright 1992, Gaussian, Inc.),
 the Gaussian 90(TM) system (copyright 1990, Gaussian, Inc.),
 the Gaussian 88(TM) system (copyright 1988, Gaussian, Inc.),
 the Gaussian 86(TM) system (copyright 1986, Carnegie Mellon
 University), and the Gaussian 82(TM) system (copyright 1983,
 Carnegie Mellon University). Gaussian is a federally registered
 trademark of Gaussian, Inc.
  
 This software contains proprietary and confidential information,
 including trade secrets, belonging to Gaussian, Inc.
  
 This software is provided under written license and may be
 used, copied, transmitted, or stored only in accord with that
 written license.
  
 The following legend is applicable only to US Government
 contracts under FAR:
  
                    RESTRICTED RIGHTS LEGEND
  
 Use, reproduction and disclosure by the US Government is
 subject to restrictions as set forth in subparagraphs (a)
 and (c) of the Commercial Computer Software - Restricted
 Rights clause in FAR 52.227-19.
  
 Gaussian, Inc.
 340 Quinnipiac St., Bldg. 40, Wallingford CT 06492
  
  
 ---------------------------------------------------------------
 Warning -- This program may not be used in any manner that
 competes with the business of Gaussian, Inc. or will provide
 assistance to any competitor of Gaussian, Inc.  The licensee
 of this program is prohibited from giving any competitor of
 Gaussian, Inc. access to this program.  By using this program,
 the user acknowledges that Gaussian, Inc. is engaged in the
 business of creating and licensing software in the field of
 computational chemistry and represents and warrants to the
 licensee that it is not a competitor of Gaussian, Inc. and that
 it will not use this program in any manner prohibited above.
 ---------------------------------------------------------------
  

 Cite this work as:
 Gaussian 09, Revision E.01,
 M. J. Frisch, G. W. Trucks, H. B. Schlegel, G. E. Scuseria, 
 M. A. Robb, J. R. Cheeseman, G. Scalmani, V. Barone, B. Mennucci, 
 G. A. Petersson, H. Nakatsuji, M. Caricato, X. Li, H. P. Hratchian, 
 A. F. Izmaylov, J. Bloino, G. Zheng, J. L. Sonnenberg, M. Hada, 
 M. Ehara, K. Toyota, R. Fukuda, J. Hasegawa, M. Ishida, T. Nakajima, 
 Y. Honda, O. Kitao, H. Nakai, T. Vreven, J. A. Montgomery, Jr., 
 J. E. Peralta, F. Ogliaro, M. Bearpark, J. J. Heyd, E. Brothers, 
 K. N. Kudin, V. N. Staroverov, T. Keith, R. Kobayashi, J. Normand, 
 K. Raghavachari, A. Rendell, J. C. Burant, S. S. Iyengar, J. Tomasi, 
 M. Cossi, N. Rega, J. M. Millam, M. Klene, J. E. Knox, J. B. Cross, 
 V. Bakken, C. Adamo, J. Jaramillo, R. Gomperts, R. E. Stratmann, 
 O. Yazyev, A. J. Austin, R. Cammi, C. Pomelli, J. W. Ochterski, 
 R. L. Martin, K. Morokuma, V. G. Zakrzewski, G. A. Voth, 
 P. Salvador, J. J. Dannenberg, S. Dapprich, A. D. Daniels, 
 O. Farkas, J. B. Foresman, J. V. Ortiz, J. Cioslowski, 
 and D. J. Fox, Gaussian, Inc., Wallingford CT, 2013.
 
 ******************************************
 Gaussian 09:  ES64L-G09RevE.01 30-Nov-2015
                14-Nov-2019 
 ******************************************
 %chk=CP22CA_c2.M062X_6-311pGd_opt_water_GD3.chk
 %mem=196608000
 %nproc=4
 Will use up to    4 processors via shared memory.
 ----------------------------------------------------------------------
 # M062X/6-311+G* SCF=Tight INT(grid=ultrafine) OPT IOP(2/17=4) Empiric
 alDispersion=GD3 SCRF=(SMD,Solvent=h2o) maxdisk=2684354560
 ----------------------------------------------------------------------
 1/14=-1,18=20,19=15,26=4,38=1/1,3;
 2/9=110,12=2,17=4,18=5,40=1/2;
 3/5=4,6=6,7=11,11=2,16=1,25=1,30=1,70=32201,71=1,72=1,74=-55,75=-5,124=31/1,2,3;
 4//1;
 5/5=2,32=2,38=5,53=1/2;
 6/7=2,8=2,9=2,10=2,28=1/1;
 7//1,2,3,16;
 1/14=-1,18=20,19=15,26=4/3(2);
 2/9=110,17=4/2;
 99//99;
 2/9=110,17=4/2;
 3/5=4,6=6,7=11,11=2,16=1,25=1,30=1,70=32205,71=1,72=1,74=-55,75=-5,124=31/1,2,3;
 4/5=5,16=3,69=1/1;
 5/5=2,32=2,38=5,53=1/2;
 7//1,2,3,16;
 1/14=-1,18=20,19=15,26=4/3(-5);
 2/9=110,17=4/2;
 6/7=2,8=2,9=2,10=2,19=2,28=1/1;
 99/9=1/99;
 --------------------------------------
 CP22CA_c2.M062X_6-311pGd_opt_water_GD3
 --------------------------------------
 Symbolic Z-matrix:
 Charge =  0 Multiplicity = 1
 C                    -5.89765   1.48962   0.15331 
 N                    -4.66872   0.86622  -0.07873 
 C                    -3.42946   1.37998   0.17742 
 O                    -3.196     2.4911    0.60756 
 O                    -2.49372   0.47251  -0.11514 
 C                    -1.12557   0.87469   0.1155 
 C                    -0.23732  -0.2873   -0.26583 
 C                     1.22864   0.06952  -0.0449 
 C                    -7.03053   0.66891   0.17372 
 C                    -8.26313   1.25291   0.38658 
 C                    -8.44701   2.61328   0.58446 
 C                    -7.30176   3.39302   0.54692 
 C                    -6.03596   2.86758   0.33076 
 H                    -4.69527  -0.10936  -0.3517 
 H                    -1.01346   1.13594   1.16969 
 H                    -0.91621   1.75722  -0.49233 
 H                    -0.41183  -0.54333  -1.31437 
 H                    -0.51042  -1.15915   0.33481 
 H                     1.51976   0.93148  -0.65045 
 H                     1.87742  -0.76454  -0.31696 
 H                     1.42055   0.31518   1.0026 
 H                    -6.92203  -0.39917   0.02945 
 Cl                   -7.45863   5.11437   0.76872 
 H                    -5.17806   3.52132   0.2946 
 S                    -9.71901   0.18291   0.41886 
 H                    -9.42026   3.05353   0.75474 
 F                    -8.98178  -0.93989   1.31775 
 F                    -10.29643   0.87245   1.76185 
 F                    -9.27585  -0.60568  -0.92067 
 F                    -10.59273   1.20517  -0.47758 
 F                    -11.02375  -0.77205   0.44889 
 

 GradGradGradGradGradGradGradGradGradGradGradGradGradGradGradGradGradGrad
 Berny optimization.
 Initialization pass.
                           ----------------------------
                           !    Initial Parameters    !
                           ! (Angstroms and Degrees)  !
 --------------------------                            --------------------------
 ! Name  Definition              Value          Derivative Info.                !
 --------------------------------------------------------------------------------
 ! R1    R(1,2)                  1.3974         estimate D2E/DX2                !
 ! R2    R(1,9)                  1.3991         estimate D2E/DX2                !
 ! R3    R(1,13)                 1.3962         estimate D2E/DX2                !
 ! R4    R(2,3)                  1.3658         estimate D2E/DX2                !
 ! R5    R(2,14)                 1.0134         estimate D2E/DX2                !
 ! R6    R(3,4)                  1.2141         estimate D2E/DX2                !
 ! R7    R(3,5)                  1.3359         estimate D2E/DX2                !
 ! R8    R(5,6)                  1.4446         estimate D2E/DX2                !
 ! R9    R(6,7)                  1.5115         estimate D2E/DX2                !
 ! R10   R(6,15)                 1.0918         estimate D2E/DX2                !
 ! R11   R(6,16)                 1.0919         estimate D2E/DX2                !
 ! R12   R(7,8)                  1.5249         estimate D2E/DX2                !
 ! R13   R(7,17)                 1.0934         estimate D2E/DX2                !
 ! R14   R(7,18)                 1.0934         estimate D2E/DX2                !
 ! R15   R(8,19)                 1.0929         estimate D2E/DX2                !
 ! R16   R(8,20)                 1.0911         estimate D2E/DX2                !
 ! R17   R(8,21)                 1.0929         estimate D2E/DX2                !
 ! R18   R(9,10)                 1.3805         estimate D2E/DX2                !
 ! R19   R(9,22)                 1.0832         estimate D2E/DX2                !
 ! R20   R(10,11)                1.3869         estimate D2E/DX2                !
 ! R21   R(10,25)                1.8071         estimate D2E/DX2                !
 ! R22   R(11,12)                1.386          estimate D2E/DX2                !
 ! R23   R(11,26)                1.0817         estimate D2E/DX2                !
 ! R24   R(12,13)                1.3875         estimate D2E/DX2                !
 ! R25   R(12,23)                1.7427         estimate D2E/DX2                !
 ! R26   R(13,24)                1.0792         estimate D2E/DX2                !
 ! R27   R(25,27)                1.6162         estimate D2E/DX2                !
 ! R28   R(25,28)                1.6163         estimate D2E/DX2                !
 ! R29   R(25,29)                1.6164         estimate D2E/DX2                !
 ! R30   R(25,30)                1.6162         estimate D2E/DX2                !
 ! R31   R(25,31)                1.6172         estimate D2E/DX2                !
 ! A1    A(2,1,9)              116.9263         estimate D2E/DX2                !
 ! A2    A(2,1,13)             123.2644         estimate D2E/DX2                !
 ! A3    A(9,1,13)             119.7935         estimate D2E/DX2                !
 ! A4    A(1,2,3)              126.7997         estimate D2E/DX2                !
 ! A5    A(1,2,14)             116.8172         estimate D2E/DX2                !
 ! A6    A(3,2,14)             115.8762         estimate D2E/DX2                !
 ! A7    A(2,3,4)              125.8151         estimate D2E/DX2                !
 ! A8    A(2,3,5)              109.814          estimate D2E/DX2                !
 ! A9    A(4,3,5)              124.3709         estimate D2E/DX2                !
 ! A10   A(3,5,6)              116.0601         estimate D2E/DX2                !
 ! A11   A(5,6,7)              107.5937         estimate D2E/DX2                !
 ! A12   A(5,6,15)             108.5429         estimate D2E/DX2                !
 ! A13   A(5,6,16)             108.527          estimate D2E/DX2                !
 ! A14   A(7,6,15)             111.5426         estimate D2E/DX2                !
 ! A15   A(7,6,16)             111.6078         estimate D2E/DX2                !
 ! A16   A(15,6,16)            108.9297         estimate D2E/DX2                !
 ! A17   A(6,7,8)              110.3968         estimate D2E/DX2                !
 ! A18   A(6,7,17)             109.1579         estimate D2E/DX2                !
 ! A19   A(6,7,18)             109.1247         estimate D2E/DX2                !
 ! A20   A(8,7,17)             110.3154         estimate D2E/DX2                !
 ! A21   A(8,7,18)             110.3118         estimate D2E/DX2                !
 ! A22   A(17,7,18)            107.472          estimate D2E/DX2                !
 ! A23   A(7,8,19)             111.1224         estimate D2E/DX2                !
 ! A24   A(7,8,20)             110.8934         estimate D2E/DX2                !
 ! A25   A(7,8,21)             111.1173         estimate D2E/DX2                !
 ! A26   A(19,8,20)            107.8394         estimate D2E/DX2                !
 ! A27   A(19,8,21)            107.8786         estimate D2E/DX2                !
 ! A28   A(20,8,21)            107.8418         estimate D2E/DX2                !
 ! A29   A(1,9,10)             118.4957         estimate D2E/DX2                !
 ! A30   A(1,9,22)             119.6938         estimate D2E/DX2                !
 ! A31   A(10,9,22)            121.8096         estimate D2E/DX2                !
 ! A32   A(9,10,11)            123.7336         estimate D2E/DX2                !
 ! A33   A(9,10,25)            118.1395         estimate D2E/DX2                !
 ! A34   A(11,10,25)           118.1259         estimate D2E/DX2                !
 ! A35   A(10,11,12)           116.001          estimate D2E/DX2                !
 ! A36   A(10,11,26)           122.7495         estimate D2E/DX2                !
 ! A37   A(12,11,26)           121.249          estimate D2E/DX2                !
 ! A38   A(11,12,13)           123.0253         estimate D2E/DX2                !
 ! A39   A(11,12,23)           118.5466         estimate D2E/DX2                !
 ! A40   A(13,12,23)           118.4263         estimate D2E/DX2                !
 ! A41   A(1,13,12)            118.9424         estimate D2E/DX2                !
 ! A42   A(1,13,24)            120.9872         estimate D2E/DX2                !
 ! A43   A(12,13,24)           120.0688         estimate D2E/DX2                !
 ! A44   A(10,25,27)            93.0836         estimate D2E/DX2                !
 ! A45   A(10,25,28)            92.8693         estimate D2E/DX2                !
 ! A46   A(10,25,29)            93.0493         estimate D2E/DX2                !
 ! A47   A(10,25,30)            92.93           estimate D2E/DX2                !
 ! A48   A(27,25,28)            89.8398         estimate D2E/DX2                !
 ! A49   A(27,25,29)            89.8236         estimate D2E/DX2                !
 ! A50   A(27,25,31)            86.988          estimate D2E/DX2                !
 ! A51   A(28,25,30)            89.8797         estimate D2E/DX2                !
 ! A52   A(28,25,31)            87.0342         estimate D2E/DX2                !
 ! A53   A(29,25,30)            89.8363         estimate D2E/DX2                !
 ! A54   A(29,25,31)            87.0472         estimate D2E/DX2                !
 ! A55   A(30,25,31)            86.9984         estimate D2E/DX2                !
 ! A56   L(10,25,31,27,-1)     180.0716         estimate D2E/DX2                !
 ! A57   L(27,25,30,10,-1)     186.0137         estimate D2E/DX2                !
 ! A58   L(28,25,29,10,-1)     185.9186         estimate D2E/DX2                !
 ! A59   L(10,25,31,27,-2)     179.9034         estimate D2E/DX2                !
 ! A60   L(27,25,30,10,-2)     179.9796         estimate D2E/DX2                !
 ! A61   L(28,25,29,10,-2)     179.9816         estimate D2E/DX2                !
 ! D1    D(9,1,2,3)           -162.6377         estimate D2E/DX2                !
 ! D2    D(9,1,2,14)             8.8119         estimate D2E/DX2                !
 ! D3    D(13,1,2,3)            18.8119         estimate D2E/DX2                !
 ! D4    D(13,1,2,14)         -169.7385         estimate D2E/DX2                !
 ! D5    D(2,1,9,10)          -179.3423         estimate D2E/DX2                !
 ! D6    D(2,1,9,22)             1.0005         estimate D2E/DX2                !
 ! D7    D(13,1,9,10)           -0.739          estimate D2E/DX2                !
 ! D8    D(13,1,9,22)          179.6038         estimate D2E/DX2                !
 ! D9    D(2,1,13,12)          179.5653         estimate D2E/DX2                !
 ! D10   D(2,1,13,24)            0.0108         estimate D2E/DX2                !
 ! D11   D(9,1,13,12)            1.0546         estimate D2E/DX2                !
 ! D12   D(9,1,13,24)         -178.4999         estimate D2E/DX2                !
 ! D13   D(1,2,3,4)             -2.8521         estimate D2E/DX2                !
 ! D14   D(1,2,3,5)            177.075          estimate D2E/DX2                !
 ! D15   D(14,2,3,4)          -174.3715         estimate D2E/DX2                !
 ! D16   D(14,2,3,5)             5.5556         estimate D2E/DX2                !
 ! D17   D(2,3,5,6)           -179.5974         estimate D2E/DX2                !
 ! D18   D(4,3,5,6)              0.331          estimate D2E/DX2                !
 ! D19   D(3,5,6,7)            179.5976         estimate D2E/DX2                !
 ! D20   D(3,5,6,15)            58.756          estimate D2E/DX2                !
 ! D21   D(3,5,6,16)           -59.4915         estimate D2E/DX2                !
 ! D22   D(5,6,7,8)           -179.9454         estimate D2E/DX2                !
 ! D23   D(5,6,7,17)            58.6347         estimate D2E/DX2                !
 ! D24   D(5,6,7,18)           -58.5513         estimate D2E/DX2                !
 ! D25   D(15,6,7,8)           -61.0079         estimate D2E/DX2                !
 ! D26   D(15,6,7,17)          177.5721         estimate D2E/DX2                !
 ! D27   D(15,6,7,18)           60.3862         estimate D2E/DX2                !
 ! D28   D(16,6,7,8)            61.0987         estimate D2E/DX2                !
 ! D29   D(16,6,7,17)          -60.3213         estimate D2E/DX2                !
 ! D30   D(16,6,7,18)         -177.5073         estimate D2E/DX2                !
 ! D31   D(6,7,8,19)           -60.1184         estimate D2E/DX2                !
 ! D32   D(6,7,8,20)           179.9479         estimate D2E/DX2                !
 ! D33   D(6,7,8,21)            60.0144         estimate D2E/DX2                !
 ! D34   D(17,7,8,19)           60.6125         estimate D2E/DX2                !
 ! D35   D(17,7,8,20)          -59.3213         estimate D2E/DX2                !
 ! D36   D(17,7,8,21)         -179.2547         estimate D2E/DX2                !
 ! D37   D(18,7,8,19)          179.1945         estimate D2E/DX2                !
 ! D38   D(18,7,8,20)           59.2608         estimate D2E/DX2                !
 ! D39   D(18,7,8,21)          -60.6727         estimate D2E/DX2                !
 ! D40   D(1,9,10,11)           -0.0866         estimate D2E/DX2                !
 ! D41   D(1,9,10,25)         -179.7153         estimate D2E/DX2                !
 ! D42   D(22,9,10,11)         179.563          estimate D2E/DX2                !
 ! D43   D(22,9,10,25)          -0.0657         estimate D2E/DX2                !
 ! D44   D(9,10,11,12)           0.5577         estimate D2E/DX2                !
 ! D45   D(9,10,11,26)        -179.6936         estimate D2E/DX2                !
 ! D46   D(25,10,11,12)       -179.8135         estimate D2E/DX2                !
 ! D47   D(25,10,11,26)         -0.0648         estimate D2E/DX2                !
 ! D48   D(9,10,25,27)          43.3032         estimate D2E/DX2                !
 ! D49   D(9,10,25,28)         133.2972         estimate D2E/DX2                !
 ! D50   D(9,10,25,29)         -46.6844         estimate D2E/DX2                !
 ! D51   D(9,10,25,30)        -136.6764         estimate D2E/DX2                !
 ! D52   D(11,10,25,27)       -136.3467         estimate D2E/DX2                !
 ! D53   D(11,10,25,28)        -46.3527         estimate D2E/DX2                !
 ! D54   D(11,10,25,29)        133.6657         estimate D2E/DX2                !
 ! D55   D(11,10,25,30)         43.6737         estimate D2E/DX2                !
 ! D56   D(10,11,12,13)         -0.218          estimate D2E/DX2                !
 ! D57   D(10,11,12,23)        179.2837         estimate D2E/DX2                !
 ! D58   D(26,11,12,13)       -179.9708         estimate D2E/DX2                !
 ! D59   D(26,11,12,23)         -0.4691         estimate D2E/DX2                !
 ! D60   D(11,12,13,1)          -0.5745         estimate D2E/DX2                !
 ! D61   D(11,12,13,24)        178.9842         estimate D2E/DX2                !
 ! D62   D(23,12,13,1)         179.9232         estimate D2E/DX2                !
 ! D63   D(23,12,13,24)         -0.518          estimate D2E/DX2                !
 --------------------------------------------------------------------------------
 Trust Radius=3.00D-01 FncErr=1.00D-07 GrdErr=1.00D-06
 Number of steps in this run=    165 maximum allowed number of steps=    186.
 GradGradGradGradGradGradGradGradGradGradGradGradGradGradGradGradGradGrad

                          Input orientation:                          
 ---------------------------------------------------------------------
 Center     Atomic      Atomic             Coordinates (Angstroms)
 Number     Number       Type             X           Y           Z
 ---------------------------------------------------------------------
      1          6           0       -5.897646    1.489616    0.153310
      2          7           0       -4.668718    0.866220   -0.078733
      3          6           0       -3.429461    1.379977    0.177424
      4          8           0       -3.196004    2.491102    0.607562
      5          8           0       -2.493719    0.472514   -0.115139
      6          6           0       -1.125569    0.874689    0.115501
      7          6           0       -0.237321   -0.287302   -0.265835
      8          6           0        1.228644    0.069517   -0.044904
      9          6           0       -7.030526    0.668909    0.173718
     10          6           0       -8.263125    1.252912    0.386577
     11          6           0       -8.447012    2.613283    0.584460
     12          6           0       -7.301762    3.393020    0.546917
     13          6           0       -6.035956    2.867577    0.330760
     14          1           0       -4.695274   -0.109358   -0.351704
     15          1           0       -1.013461    1.135935    1.169686
     16          1           0       -0.916208    1.757223   -0.492334
     17          1           0       -0.411832   -0.543332   -1.314375
     18          1           0       -0.510423   -1.159146    0.334811
     19          1           0        1.519758    0.931484   -0.650451
     20          1           0        1.877421   -0.764543   -0.316960
     21          1           0        1.420551    0.315181    1.002602
     22          1           0       -6.922034   -0.399173    0.029453
     23         17           0       -7.458629    5.114366    0.768722
     24          1           0       -5.178060    3.521324    0.294605
     25         16           0       -9.719005    0.182909    0.418859
     26          1           0       -9.420256    3.053531    0.754742
     27          9           0       -8.981781   -0.939895    1.317754
     28          9           0      -10.296431    0.872446    1.761855
     29          9           0       -9.275852   -0.605684   -0.920673
     30          9           0      -10.592735    1.205166   -0.477578
     31          9           0      -11.023746   -0.772049    0.448887
 ---------------------------------------------------------------------
                    Distance matrix (angstroms):
                    1          2          3          4          5
     1  C    0.000000
     2  N    1.397402   0.000000
     3  C    2.470736   1.365767   0.000000
     4  O    2.916881   2.297853   1.214134   0.000000
     5  O    3.562763   2.210644   1.335924   2.256146   0.000000
     6  C    4.811682   3.548479   2.359464   2.672380   1.444567
     7  C    5.947470   4.582891   3.628506   4.151645   2.385658
     8  C    7.269112   5.951030   4.844036   5.085990   3.744774
     9  C    1.399068   2.383443   3.670599   4.267572   4.550233
    10  C    2.388710   3.644971   4.839855   5.220888   5.843525
    11  C    2.819182   4.215159   5.182909   5.252481   6.365063
    12  C    2.397794   3.702577   4.379906   4.204091   5.664357
    13  C    1.396208   2.458141   3.005043   2.878138   4.299138
    14  H    2.063360   1.013396   2.024939   3.151254   2.289407
    15  H    5.001338   3.871976   2.623204   2.629820   2.069316
    16  H    5.030228   3.878954   2.628180   2.635492   2.069129
    17  H    6.031678   4.651314   3.876940   4.544584   2.608518
    18  H    6.005918   4.643764   3.872041   4.539939   2.607343
    19  H    7.481673   6.215171   5.037985   5.123809   4.074950
    20  H    8.108887   6.750412   5.745118   6.098656   4.547297
    21  H    7.460336   6.209036   5.033620   5.118913   4.073772
    22  H    2.152262   2.586572   3.922414   4.750916   4.515608
    23  Cl   3.994273   5.152527   5.525350   5.007740   6.854074
    24  H    2.160001   2.729173   2.767074   2.255626   4.082746
    25  S    4.047318   5.120539   6.406998   6.921916   7.250778
    26  H    3.900811   5.296803   6.246895   6.251344   7.442798
    27  F    4.095160   4.880035   6.124574   6.763973   6.792866
    28  F    4.724153   5.921060   7.065641   7.373500   8.035257
    29  F    4.117766   4.909282   6.271280   6.992149   6.914385
    30  F    4.745818   5.947095   7.195281   7.585697   8.140159
    31  F    5.610650   6.583972   7.897978   8.482151   8.638774
                    6          7          8          9         10
     6  C    0.000000
     7  C    1.511497   0.000000
     8  C    2.493261   1.524856   0.000000
     9  C    5.908828   6.874240   8.283776   0.000000
    10  C    7.152709   8.198258   9.574983   1.380460   0.000000
    11  C    7.539640   8.748453  10.024229   2.440437   1.386932
    12  C    6.683821   8.006975   9.174080   2.762902   2.351593
    13  C    5.303757   6.628224   7.793887   2.418258   2.751462
    14  H    3.732214   4.462329   5.934554   2.516976   3.889782
    15  H    1.091845   2.165345   2.763967   6.116791   7.292776
    16  H    1.091862   2.166165   2.765671   6.246033   7.416469
    17  H    2.136527   1.093362   2.162938   6.891375   8.231801
    18  H    2.136114   1.093376   2.162903   6.773439   8.119428
    19  H    2.754572   2.172717   1.092896   8.593925   9.842944
    20  H    3.448485   2.168526   1.091138   9.035876  10.363193
    21  H    2.753675   2.172662   1.092908   8.498993   9.748457
    22  H    5.935413   6.692166   8.164481   1.083228   2.157649
    23  Cl   7.649132   9.077203  10.078751   4.505484   3.962837
    24  H    4.843495   6.263436   7.285335   3.403309   3.830375
    25  S    8.626571   9.517995  10.958055   2.743030   1.807079
    26  H    8.599873   9.824919  11.087959   3.425612   2.171802
    27  F    8.152190   8.910623  10.350292   2.775692   2.488365
    28  F    9.317467  10.326772  11.693435   3.637271   2.484044
    29  F    8.348189   9.067812  10.562542   2.804241   2.487750
    30  F    9.491480  10.464554  11.883682   3.660750   2.485181
    31  F   10.039761  10.820941  12.291181   4.254161   3.424234
                   11         12         13         14         15
    11  C    0.000000
    12  C    1.386001   0.000000
    13  C    2.437667   1.387472   0.000000
    14  H    4.729135   4.457348   3.335465   0.000000
    15  H    7.601496   6.710067   5.378461   4.173864   0.000000
    16  H    7.655412   6.673168   5.303036   4.217256   1.777011
    17  H    8.839339   8.150485   6.780232   4.411683   3.058178
    18  H    8.791075   8.178599   6.837107   4.368792   2.493484
    19  H   10.182827   9.236453   7.861301   6.308663   3.126003
    20  H   10.900284  10.113803   8.731172   6.605361   3.765519
    21  H   10.140263   9.260642   7.909842   6.278352   2.574096
    22  H    3.421766   3.846126   3.398172   2.277659   6.210308
    23  Cl   2.695602   1.742652   2.695157   6.014880   7.584780
    24  H    3.405084   2.142482   1.079202   3.719227   4.878497
    25  S    2.748110   4.020482   4.558515   5.090880   8.789682
    26  H    1.081673   2.155565   3.415820   5.792542   8.632703
    27  F    3.667257   4.710712   4.914152   4.674508   8.235601
    28  F    2.799487   4.098465   4.917340   6.066632   9.305570
    29  F    3.648856   4.694730   4.911879   4.642387   8.698848
    30  F    2.777561   4.082499   4.917444   6.043497   9.720122
    31  F    4.256573   5.586643   6.175669   6.413241  10.215956
                   16         17         18         19         20
    16  H    0.000000
    17  H    2.494534   0.000000
    18  H    3.058437   1.763167   0.000000
    19  H    2.576971   2.519309   3.076217   0.000000
    20  H    3.767549   2.506880   2.506454   1.765119   0.000000
    21  H    3.126462   3.076208   2.519573   1.766990   1.765157
    22  H    6.402519   6.649014   6.463711   8.573026   8.813847
    23  Cl   7.460827   9.273952   9.371382  10.006098  11.086122
    24  H    4.679178   6.467393   6.610239   7.243009   8.277831
    25  S    8.988770   9.494999   9.306244  11.314309  11.658310
    26  H    8.692206   9.918184   9.864487  11.232166  11.973459
    27  F    8.695075   8.973817   8.531012  10.847037  10.982955
    28  F    9.687764  10.448584  10.096028  12.060059  12.458084
    29  F    8.697727   8.872978   8.872164  10.907846  11.170729
    30  F    9.692273  10.363796  10.387635  12.116818  12.625780
    31  F   10.461617  10.759838  10.521065  12.706300  12.923880
                   21         22         23         24         25
    21  H    0.000000
    22  H    8.429475   0.000000
    23  Cl  10.095877   5.588700   0.000000
    24  H    7.370365   4.299074   2.821979   0.000000
    25  S   11.155625   2.883315   5.436081   5.637432   0.000000
    26  H   11.184055   4.322999   2.845209   4.292642   2.905605
    27  F   10.482512   2.488907   6.267017   5.951269   1.616230
    28  F   11.754773   4.000598   5.199358   5.947024   1.616329
    29  F   10.906879   2.546732   6.235009   5.941464   1.616357
    30  F   12.136806   4.037949   5.163112   5.939659   1.616172
    31  F   12.503967   4.139928   6.889284   7.254577   1.617156
                   26         27         28         29         30
    26  H    0.000000
    27  F    4.056685   0.000000
    28  F    2.557165   2.282566   0.000000
    29  F    4.027124   2.282264   3.228375   0.000000
    30  F    2.511926   3.227952   2.283322   2.282475   0.000000
    31  F    4.159302   2.225471   2.226485   2.226770   2.225644
                   31
    31  F    0.000000
 Stoichiometry    C10H11ClF5NO2S
 Framework group  C1[X(C10H11ClF5NO2S)]
 Deg. of freedom    87
 Full point group                 C1      NOp   1
 Largest Abelian subgroup         C1      NOp   1
 Largest concise Abelian subgroup C1      NOp   1
                         Standard orientation:                         
 ---------------------------------------------------------------------
 Center     Atomic      Atomic             Coordinates (Angstroms)
 Number     Number       Type             X           Y           Z
 ---------------------------------------------------------------------
      1          6           0        0.594452    0.249756   -0.166484
      2          7           0        1.837634   -0.380029   -0.269448
      3          6           0        3.058630    0.171572   -0.004449
      4          8           0        3.262459    1.323663    0.319987
      5          8           0        4.013938   -0.750352   -0.153231
      6          6           0        5.365668   -0.310877    0.104571
      7          6           0        6.279752   -1.495641   -0.108529
      8          6           0        7.729947   -1.101151    0.149338
      9          6           0       -0.532885   -0.577470   -0.119584
     10          6           0       -1.778488    0.011119   -0.031795
     11          6           0       -1.980816    1.382424    0.014750
     12          6           0       -0.839977    2.167280   -0.044301
     13          6           0        0.438599    1.636980   -0.139713
     14          1           0        1.831372   -1.378754   -0.441149
     15          1           0        5.420918    0.058706    1.130475
     16          1           0        5.601090    0.506792   -0.579649
     17          1           0        6.161859   -1.860171   -1.132570
     18          1           0        5.980988   -2.304150    0.564171
     19          1           0        8.047015   -0.302763   -0.526284
     20          1           0        8.397166   -1.951257   -0.001396
     21          1           0        7.865330   -0.746837    1.174317
     22          1           0       -0.410445   -1.653408   -0.146944
     23         17           0       -1.018790    3.900393   -0.009908
     24          1           0        1.293181    2.293361   -0.199125
     25         16           0       -3.227468   -1.066558    0.036074
     26          1           0       -2.964314    1.826632    0.088422
     27          9           0       -2.531353   -2.082377    1.082848
     28          9           0       -3.878521   -0.249205    1.269192
     29          9           0       -2.710072   -1.983624   -1.190263
     30          9           0       -4.059409   -0.152063   -1.004880
     31          9           0       -4.526106   -2.028302    0.097577
 ---------------------------------------------------------------------
 Rotational constants (GHZ):      0.4442629      0.1177695      0.0969761
 Standard basis: 6-311+G(d) (5D, 7F)
 There are   509 symmetry adapted cartesian basis functions of A   symmetry.
 There are   489 symmetry adapted basis functions of A   symmetry.
   489 basis functions,   806 primitive gaussians,   509 cartesian basis functions
    86 alpha electrons       86 beta electrons
       nuclear repulsion energy      2007.0740409146 Hartrees.
 NAtoms=   31 NActive=   31 NUniq=   31 SFac= 1.00D+00 NAtFMM=   60 NAOKFM=F Big=F
 Integral buffers will be    131072 words long.
 Raffenetti 2 integral format.
 Two-electron integral symmetry is turned on.
 Nuclear repulsion after empirical dispersion term =     2007.0724917661 Hartrees.
 ------------------------------------------------------------------------------
 Polarizable Continuum Model (PCM)
 =================================
 Model                : PCM (using non-symmetric T matrix).
 Atomic radii         : SMD-Coulomb.
 Polarization charges : Total charges.
 Charge compensation  : None.
 Solution method      : On-the-fly selection.
 Cavity type          : VdW (van der Waals Surface) (Alpha=1.000).
 Cavity algorithm     : GePol (No added spheres)
                        Default sphere list used, NSphG=   31.
                        Lebedev-Laikov grids with approx.  5.0 points / Ang**2.
                        Smoothing algorithm: York/Karplus (Gamma=1.0000).
                        Polarization charges: spherical gaussians, with
                                              point-specific exponents (IZeta= 3).
                        Self-potential: point-specific (ISelfS= 7).
                        Self-field    : sphere-specific E.n sum rule (ISelfD= 2).
 1st derivatives      : Analytical E(r).r(x)/FMM algorithm (CHGder, D1EAlg=3).
                        Cavity 1st derivative terms included.
 Solvent              : Water, Eps=  78.355300 Eps(inf)=   1.777849
 ------------------------------------------------------------------------------
 ------------------------------------------------------------------------------
 Atomic radii for non-electrostatic terms: SMD-CDS.
 ------------------------------------------------------------------------------
 Nuclear repulsion after PCM non-electrostatic terms =     2007.0870534413 Hartrees.
 One-electron integrals computed using PRISM.
 NBasis=   489 RedAO= T EigKep=  1.58D-06  NBF=   489
 NBsUse=   487 1.00D-06 EigRej=  7.85D-07 NBFU=   487
 ExpMin= 4.05D-02 ExpMax= 1.06D+05 ExpMxC= 3.62D+03 IAcc=3 IRadAn=         5 AccDes= 0.00D+00
 Harris functional with IExCor= 1009 and IRadAn=       5 diagonalized for initial guess.
 HarFok:  IExCor= 1009 AccDes= 0.00D+00 IRadAn=         5 IDoV= 1 UseB2=F ITyADJ=14
 ICtDFT=  3500011 ScaDFX=  1.000000  1.000000  1.000000  1.000000
 FoFCou: FMM=F IPFlag=           0 FMFlag=      100000 FMFlg1=           0
         NFxFlg=           0 DoJE=T BraDBF=F KetDBF=T FulRan=T
         wScrn=  0.000000 ICntrl=     500 IOpCl=  0 I1Cent=   200000004 NGrid=           0
         NMat0=    1 NMatS0=      1 NMatT0=    0 NMatD0=    1 NMtDS0=    0 NMtDT0=    0
 Petite list used in FoFCou.
 Requested convergence on RMS density matrix=1.00D-08 within 128 cycles.
 Requested convergence on MAX density matrix=1.00D-06.
 Requested convergence on             energy=1.00D-06.
 No special actions if energy rises.
 Inv3:  Mode=1 IEnd=    19645443.
 Iteration    1 A*A^-1 deviation from unit magnitude is 4.88D-15 for   2550.
 Iteration    1 A*A^-1 deviation from orthogonality  is 5.34D-15 for   2552   1075.
 Iteration    1 A^-1*A deviation from unit magnitude is 4.88D-15 for   2550.
 Iteration    1 A^-1*A deviation from orthogonality  is 9.12D-13 for   2074   2055.
 Error on total polarization charges =  0.04005
 SCF Done:  E(RM062X) =  -1950.30074735     A.U. after   15 cycles
            NFock= 15  Conv=0.56D-08     -V/T= 2.0024
 SMD-CDS (non-electrostatic) energy       (kcal/mol) =       9.14
 (included in total energy above)

 **********************************************************************

            Population analysis using the SCF density.

 **********************************************************************

 Orbital symmetries:
       Occupied  (A) (A) (A) (A) (A) (A) (A) (A) (A) (A) (A) (A)
                 (A) (A) (A) (A) (A) (A) (A) (A) (A) (A) (A) (A)
                 (A) (A) (A) (A) (A) (A) (A) (A) (A) (A) (A) (A)
                 (A) (A) (A) (A) (A) (A) (A) (A) (A) (A) (A) (A)
                 (A) (A) (A) (A) (A) (A) (A) (A) (A) (A) (A) (A)
                 (A) (A) (A) (A) (A) (A) (A) (A) (A) (A) (A) (A)
                 (A) (A) (A) (A) (A) (A) (A) (A) (A) (A) (A) (A)
                 (A) (A)
       Virtual   (A) (A) (A) (A) (A) (A) (A) (A) (A) (A) (A) (A)
                 (A) (A) (A) (A) (A) (A) (A) (A) (A) (A) (A) (A)
                 (A) (A) (A) (A) (A) (A) (A) (A) (A) (A) (A) (A)
                 (A) (A) (A) (A) (A) (A) (A) (A) (A) (A) (A) (A)
                 (A) (A) (A) (A) (A) (A) (A) (A) (A) (A) (A) (A)
                 (A) (A) (A) (A) (A) (A) (A) (A) (A) (A) (A) (A)
                 (A) (A) (A) (A) (A) (A) (A) (A) (A) (A) (A) (A)
                 (A) (A) (A) (A) (A) (A) (A) (A) (A) (A) (A) (A)
                 (A) (A) (A) (A) (A) (A) (A) (A) (A) (A) (A) (A)
                 (A) (A) (A) (A) (A) (A) (A) (A) (A) (A) (A) (A)
                 (A) (A) (A) (A) (A) (A) (A) (A) (A) (A) (A) (A)
                 (A) (A) (A) (A) (A) (A) (A) (A) (A) (A) (A) (A)
                 (A) (A) (A) (A) (A) (A) (A) (A) (A) (A) (A) (A)
                 (A) (A) (A) (A) (A) (A) (A) (A) (A) (A) (A) (A)
                 (A) (A) (A) (A) (A) (A) (A) (A) (A) (A) (A) (A)
                 (A) (A) (A) (A) (A) (A) (A) (A) (A) (A) (A) (A)
                 (A) (A) (A) (A) (A) (A) (A) (A) (A) (A) (A) (A)
                 (A) (A) (A) (A) (A) (A) (A) (A) (A) (A) (A) (A)
                 (A) (A) (A) (A) (A) (A) (A) (A) (A) (A) (A) (A)
                 (A) (A) (A) (A) (A) (A) (A) (A) (A) (A) (A) (A)
                 (A) (A) (A) (A) (A) (A) (A) (A) (A) (A) (A) (A)
                 (A) (A) (A) (A) (A) (A) (A) (A) (A) (A) (A) (A)
                 (A) (A) (A) (A) (A) (A) (A) (A) (A) (A) (A) (A)
                 (A) (A) (A) (A) (A) (A) (A) (A) (A) (A) (A) (A)
                 (A) (A) (A) (A) (A) (A) (A) (A) (A) (A) (A) (A)
                 (A) (A) (A) (A) (A) (A) (A) (A) (A) (A) (A) (A)
                 (A) (A) (A) (A) (A) (A) (A) (A) (A) (A) (A) (A)
                 (A) (A) (A) (A) (A) (A) (A) (A) (A) (A) (A) (A)
                 (A) (A) (A) (A) (A) (A) (A) (A) (A) (A) (A) (A)
                 (A) (A) (A) (A) (A) (A) (A) (A) (A) (A) (A) (A)
                 (A) (A) (A) (A) (A) (A) (A) (A) (A) (A) (A) (A)
                 (A) (A) (A) (A) (A) (A) (A) (A) (A) (A) (A) (A)
                 (A) (A) (A) (A) (A) (A) (A) (A) (A) (A) (A) (A)
                 (A) (A) (A) (A) (A)
 The electronic state is 1-A.
 Alpha  occ. eigenvalues -- -102.69060 -90.29119 -25.29595 -25.29594 -25.29582
 Alpha  occ. eigenvalues --  -25.29579 -25.29468 -19.67775 -19.62277 -14.80323
 Alpha  occ. eigenvalues --  -10.71882 -10.63187 -10.62784 -10.61976 -10.59076
 Alpha  occ. eigenvalues --  -10.58248 -10.58209 -10.57353 -10.53098 -10.51918
 Alpha  occ. eigenvalues --   -9.83329  -8.61442  -7.55842  -7.55167  -7.55150
 Alpha  occ. eigenvalues --   -6.53866  -6.53855  -6.53406  -1.51400  -1.41362
 Alpha  occ. eigenvalues --   -1.41308  -1.38297  -1.36891  -1.25887  -1.15977
 Alpha  occ. eigenvalues --   -1.08258  -1.02423  -0.98123  -0.94017  -0.89863
 Alpha  occ. eigenvalues --   -0.87473  -0.86089  -0.80092  -0.77219  -0.75194
 Alpha  occ. eigenvalues --   -0.74858  -0.73364  -0.70807  -0.67714  -0.66532
 Alpha  occ. eigenvalues --   -0.65425  -0.65180  -0.63490  -0.62680  -0.61477
 Alpha  occ. eigenvalues --   -0.59965  -0.59475  -0.59424  -0.57126  -0.56635
 Alpha  occ. eigenvalues --   -0.56444  -0.56438  -0.56292  -0.55294  -0.53911
 Alpha  occ. eigenvalues --   -0.53532  -0.53368  -0.52740  -0.52220  -0.51092
 Alpha  occ. eigenvalues --   -0.50415  -0.49988  -0.47391  -0.47042  -0.45531
 Alpha  occ. eigenvalues --   -0.45093  -0.43525  -0.42754  -0.40335  -0.40166
 Alpha  occ. eigenvalues --   -0.39731  -0.39476  -0.38322  -0.38210  -0.33184
 Alpha  occ. eigenvalues --   -0.30121
 Alpha virt. eigenvalues --   -0.03035  -0.02408  -0.00808   0.00985   0.02214
 Alpha virt. eigenvalues --    0.02905   0.03273   0.03493   0.04037   0.04121
 Alpha virt. eigenvalues --    0.04420   0.04715   0.05327   0.05446   0.06192
 Alpha virt. eigenvalues --    0.06725   0.06974   0.07374   0.07995   0.08122
 Alpha virt. eigenvalues --    0.08682   0.09030   0.09557   0.09753   0.10194
 Alpha virt. eigenvalues --    0.10739   0.11095   0.11601   0.11663   0.11735
 Alpha virt. eigenvalues --    0.12773   0.13003   0.13462   0.13904   0.14074
 Alpha virt. eigenvalues --    0.14647   0.15280   0.16107   0.16575   0.17455
 Alpha virt. eigenvalues --    0.17728   0.18137   0.18568   0.18916   0.20153
 Alpha virt. eigenvalues --    0.20285   0.20422   0.20998   0.21126   0.21406
 Alpha virt. eigenvalues --    0.21745   0.22118   0.22472   0.22643   0.23717
 Alpha virt. eigenvalues --    0.24025   0.24400   0.24613   0.24993   0.25152
 Alpha virt. eigenvalues --    0.25806   0.26172   0.26541   0.26835   0.27044
 Alpha virt. eigenvalues --    0.27453   0.27723   0.28121   0.28661   0.28830
 Alpha virt. eigenvalues --    0.29015   0.29453   0.30045   0.30965   0.31160
 Alpha virt. eigenvalues --    0.31534   0.31827   0.31988   0.32323   0.32992
 Alpha virt. eigenvalues --    0.33529   0.33597   0.34030   0.34533   0.35050
 Alpha virt. eigenvalues --    0.35753   0.36260   0.37163   0.37424   0.38264
 Alpha virt. eigenvalues --    0.38535   0.38644   0.39189   0.39604   0.40852
 Alpha virt. eigenvalues --    0.41216   0.42129   0.42363   0.42748   0.44562
 Alpha virt. eigenvalues --    0.45151   0.45232   0.45618   0.47310   0.47704
 Alpha virt. eigenvalues --    0.47826   0.48302   0.48479   0.48840   0.49525
 Alpha virt. eigenvalues --    0.49932   0.50859   0.51074   0.52288   0.54096
 Alpha virt. eigenvalues --    0.54746   0.55365   0.55714   0.55898   0.57602
 Alpha virt. eigenvalues --    0.58263   0.58930   0.59979   0.60771   0.61458
 Alpha virt. eigenvalues --    0.62249   0.62992   0.63359   0.64465   0.65352
 Alpha virt. eigenvalues --    0.66376   0.66676   0.67598   0.68407   0.68963
 Alpha virt. eigenvalues --    0.69460   0.70157   0.70944   0.71354   0.71628
 Alpha virt. eigenvalues --    0.72137   0.73449   0.74006   0.75139   0.75717
 Alpha virt. eigenvalues --    0.76045   0.76745   0.77397   0.78269   0.78836
 Alpha virt. eigenvalues --    0.79970   0.81066   0.81826   0.84669   0.85762
 Alpha virt. eigenvalues --    0.87422   0.88474   0.90662   0.91340   0.92421
 Alpha virt. eigenvalues --    0.92670   0.93240   0.93328   0.94495   0.95184
 Alpha virt. eigenvalues --    0.97852   0.98816   0.99213   0.99806   1.01295
 Alpha virt. eigenvalues --    1.03373   1.04021   1.04595   1.05678   1.06817
 Alpha virt. eigenvalues --    1.07068   1.07587   1.11348   1.12662   1.13117
 Alpha virt. eigenvalues --    1.14680   1.15859   1.18735   1.20167   1.21051
 Alpha virt. eigenvalues --    1.21810   1.22647   1.22813   1.23993   1.24959
 Alpha virt. eigenvalues --    1.26633   1.30022   1.30682   1.32954   1.33046
 Alpha virt. eigenvalues --    1.33963   1.35424   1.36561   1.37275   1.38375
 Alpha virt. eigenvalues --    1.38947   1.39758   1.41597   1.43569   1.43812
 Alpha virt. eigenvalues --    1.44422   1.48683   1.49276   1.50460   1.50812
 Alpha virt. eigenvalues --    1.51164   1.51906   1.53430   1.54100   1.56127
 Alpha virt. eigenvalues --    1.58095   1.58678   1.61170   1.62285   1.62418
 Alpha virt. eigenvalues --    1.63062   1.64160   1.65208   1.67610   1.68391
 Alpha virt. eigenvalues --    1.69252   1.70886   1.74032   1.75040   1.76712
 Alpha virt. eigenvalues --    1.78698   1.79629   1.79841   1.83322   1.84446
 Alpha virt. eigenvalues --    1.85379   1.85600   1.88695   1.89148   1.90488
 Alpha virt. eigenvalues --    1.91803   1.93589   1.94051   1.96664   1.98414
 Alpha virt. eigenvalues --    1.99966   2.01670   2.03072   2.05658   2.06652
 Alpha virt. eigenvalues --    2.07137   2.09572   2.10298   2.15450   2.17823
 Alpha virt. eigenvalues --    2.19396   2.21532   2.24153   2.25022   2.28513
 Alpha virt. eigenvalues --    2.29862   2.33500   2.35909   2.36040   2.39589
 Alpha virt. eigenvalues --    2.42832   2.46773   2.51257   2.51813   2.53372
 Alpha virt. eigenvalues --    2.56164   2.57454   2.58064   2.59034   2.60986
 Alpha virt. eigenvalues --    2.62253   2.65504   2.66017   2.70389   2.72441
 Alpha virt. eigenvalues --    2.73624   2.76237   2.79750   2.82255   2.84926
 Alpha virt. eigenvalues --    2.87810   2.92110   2.93809   2.95162   2.99124
 Alpha virt. eigenvalues --    3.00610   3.02847   3.04517   3.07449   3.11078
 Alpha virt. eigenvalues --    3.12092   3.16328   3.19284   3.19753   3.22156
 Alpha virt. eigenvalues --    3.24946   3.27296   3.30055   3.30520   3.31169
 Alpha virt. eigenvalues --    3.34615   3.35460   3.38705   3.40546   3.43151
 Alpha virt. eigenvalues --    3.45713   3.53655   3.61370   3.68447   3.70186
 Alpha virt. eigenvalues --    3.75015   3.78442   3.78909   3.79412   3.79977
 Alpha virt. eigenvalues --    3.81005   3.82102   3.82629   3.82781   3.83194
 Alpha virt. eigenvalues --    3.83680   3.84810   3.85676   3.87521   3.87606
 Alpha virt. eigenvalues --    3.88353   3.88899   3.90274   3.90525   3.90887
 Alpha virt. eigenvalues --    3.93339   3.96896   3.99116   4.01721   4.02749
 Alpha virt. eigenvalues --    4.07018   4.09794   4.11057   4.18398   4.26507
 Alpha virt. eigenvalues --    4.28833   4.29416   4.32035   4.37399   4.56665
 Alpha virt. eigenvalues --    4.77137   5.07453   5.10920   5.16933   5.34853
 Alpha virt. eigenvalues --    5.48962   5.79565   5.95072   6.34768   6.36098
 Alpha virt. eigenvalues --    6.37324   6.40607   6.41474   6.42966   6.46541
 Alpha virt. eigenvalues --    6.51784   6.52028   6.53821   6.54835   6.62843
 Alpha virt. eigenvalues --    6.63936   6.64317   6.69589   8.21712   9.96139
 Alpha virt. eigenvalues --   17.50601  17.55046  17.60353  23.46210  23.58068
 Alpha virt. eigenvalues --   23.72987  23.82844  23.91180  23.92160  23.96464
 Alpha virt. eigenvalues --   24.08362  24.10699  24.19354  25.93203  26.23000
 Alpha virt. eigenvalues --   26.70291  35.65756  50.01521  50.12444  66.88615
 Alpha virt. eigenvalues --   66.90356  66.95666  66.97641  67.06141 189.45831
 Alpha virt. eigenvalues --  216.06209
          Condensed to atoms (all electrons):
               1          2          3          4          5          6
     1  C   35.663928  -0.515097  -0.797026  -0.128768  -0.240453  -0.675450
     2  N   -0.515097   7.507574   0.245470  -0.060963  -0.171759  -0.297416
     3  C   -0.797026   0.245470   8.623405   0.548332   0.302124  -0.577589
     4  O   -0.128768  -0.060963   0.548332   8.217094  -0.178712  -0.153814
     5  O   -0.240453  -0.171759   0.302124  -0.178712   8.297518   0.346645
     6  C   -0.675450  -0.297416  -0.577589  -0.153814   0.346645   8.152917
     7  C   -0.047296   0.028257   0.122981   0.028476  -0.156103  -0.914080
     8  C   -0.019646  -0.008299  -0.245879   0.000410   0.034259   0.327022
     9  C   -7.118450   0.136593  -1.094947  -0.097503  -0.154134  -0.190621
    10  C   -5.013995   0.346763  -1.177832  -0.010262   0.009234  -0.077364
    11  C  -10.021265   0.032474  -0.056659  -0.018591  -0.014113  -0.019001
    12  C   -5.318976   0.135363  -0.179354   0.070390   0.030587  -0.009823
    13  C    2.036328  -0.178453   0.225973   0.210172   0.046919  -0.137549
    14  H    0.035758   0.266654  -0.009918  -0.000183   0.015803  -0.001179
    15  H    0.010242   0.004529   0.042974  -0.000029  -0.041424   0.346072
    16  H   -0.001344   0.004011   0.019993  -0.000634  -0.042575   0.376027
    17  H    0.000840  -0.000949   0.005811  -0.000246   0.001579  -0.060063
    18  H   -0.000822  -0.000815   0.003449  -0.000270   0.001706  -0.067754
    19  H   -0.000198  -0.000014  -0.001868  -0.000054  -0.000261  -0.049829
    20  H    0.000156   0.000029   0.008148   0.000023  -0.000659   0.088771
    21  H   -0.000026  -0.000068  -0.002011  -0.000066  -0.000370  -0.046498
    22  H    0.162438  -0.019596   0.005083  -0.000111  -0.000361   0.000125
    23  Cl  -0.011948   0.001990  -0.000598   0.000107   0.000483   0.001680
    24  H   -0.067785  -0.016535   0.095264  -0.006064   0.000949   0.010507
    25  S   -0.692461   0.015335  -0.096353  -0.001010   0.000139  -0.004246
    26  H    0.000021   0.000997   0.000206   0.000010   0.000003   0.000010
    27  F   -0.289587   0.001625  -0.004180  -0.000000   0.000020  -0.000032
    28  F    0.161380   0.000408   0.001286  -0.000003   0.000002   0.000004
    29  F   -0.345899   0.000376  -0.008049   0.000002   0.000013  -0.000065
    30  F    0.143448   0.000030   0.000579  -0.000000   0.000001   0.000008
    31  F   -0.038851  -0.000188  -0.000031   0.000000  -0.000000   0.000000
               7          8          9         10         11         12
     1  C   -0.047296  -0.019646  -7.118450  -5.013995 -10.021265  -5.318976
     2  N    0.028257  -0.008299   0.136593   0.346763   0.032474   0.135363
     3  C    0.122981  -0.245879  -1.094947  -1.177832  -0.056659  -0.179354
     4  O    0.028476   0.000410  -0.097503  -0.010262  -0.018591   0.070390
     5  O   -0.156103   0.034259  -0.154134   0.009234  -0.014113   0.030587
     6  C   -0.914080   0.327022  -0.190621  -0.077364  -0.019001  -0.009823
     7  C    6.520759  -0.178627   0.057490  -0.006493   0.003413  -0.012098
     8  C   -0.178627   6.136055  -0.004067  -0.001220   0.000011   0.000396
     9  C    0.057490  -0.004067  33.901714 -10.218848   6.244219 -10.234932
    10  C   -0.006493  -0.001220 -10.218848  42.126646  -9.311639  -0.444393
    11  C    0.003413   0.000011   6.244219  -9.311639  26.129894  -5.802967
    12  C   -0.012098   0.000396 -10.234932  -0.444393  -5.802967  25.401346
    13  C   -0.025794  -0.004460  -6.258822  -6.436651  -2.560938   2.922308
    14  H   -0.002180  -0.000293  -0.117316  -0.023791  -0.010484   0.024947
    15  H   -0.021466  -0.017780   0.000378   0.000281  -0.000030  -0.000297
    16  H   -0.020135  -0.014196   0.001671  -0.000415   0.000209  -0.000005
    17  H    0.438291  -0.043690  -0.000601   0.000012  -0.000007   0.000052
    18  H    0.453255  -0.047489   0.000462   0.000003   0.000006  -0.000016
    19  H    0.017125   0.378681   0.000013  -0.000001   0.000000   0.000000
    20  H   -0.130969   0.384351  -0.000008   0.000001  -0.000000   0.000000
    21  H    0.006968   0.385757   0.000012   0.000000  -0.000000  -0.000004
    22  H   -0.000078   0.000000   0.218359  -0.011238  -0.070549  -0.003886
    23  Cl  -0.000091   0.000023   0.210910  -0.315692   0.225602  -1.122288
    24  H   -0.000365   0.000061  -0.037720   0.013920   0.020509  -0.055230
    25  S   -0.000075  -0.000032   0.447043  -2.423886   0.756612   0.192257
    26  H   -0.000000   0.000000  -0.106964   0.037175   0.195129   0.146094
    27  F   -0.000003  -0.000000  -0.256233   0.153986   0.301593   0.117924
    28  F   -0.000000   0.000000   0.343012   0.105897  -0.297923  -0.253253
    29  F   -0.000001  -0.000000  -0.269383   0.200867   0.321902   0.133267
    30  F    0.000000   0.000000   0.317057   0.129751  -0.285814  -0.227625
    31  F    0.000000  -0.000000   0.074249  -0.003581   0.065686  -0.037690
              13         14         15         16         17         18
     1  C    2.036328   0.035758   0.010242  -0.001344   0.000840  -0.000822
     2  N   -0.178453   0.266654   0.004529   0.004011  -0.000949  -0.000815
     3  C    0.225973  -0.009918   0.042974   0.019993   0.005811   0.003449
     4  O    0.210172  -0.000183  -0.000029  -0.000634  -0.000246  -0.000270
     5  O    0.046919   0.015803  -0.041424  -0.042575   0.001579   0.001706
     6  C   -0.137549  -0.001179   0.346072   0.376027  -0.060063  -0.067754
     7  C   -0.025794  -0.002180  -0.021466  -0.020135   0.438291   0.453255
     8  C   -0.004460  -0.000293  -0.017780  -0.014196  -0.043690  -0.047489
     9  C   -6.258822  -0.117316   0.000378   0.001671  -0.000601   0.000462
    10  C   -6.436651  -0.023791   0.000281  -0.000415   0.000012   0.000003
    11  C   -2.560938  -0.010484  -0.000030   0.000209  -0.000007   0.000006
    12  C    2.922308   0.024947  -0.000297  -0.000005   0.000052  -0.000016
    13  C   15.911158   0.091519  -0.000257  -0.001230   0.000509  -0.000145
    14  H    0.091519   0.247638  -0.000012  -0.000014   0.000017  -0.000014
    15  H   -0.000257  -0.000012   0.425212  -0.038350   0.004916  -0.007443
    16  H   -0.001230  -0.000014  -0.038350   0.425595  -0.007480   0.004949
    17  H    0.000509   0.000017   0.004916  -0.007480   0.431145  -0.036236
    18  H   -0.000145  -0.000014  -0.007443   0.004949  -0.036236   0.430978
    19  H    0.000038   0.000000  -0.000354   0.003164  -0.007654   0.005714
    20  H    0.000022  -0.000000  -0.000146  -0.000135  -0.003136  -0.003096
    21  H   -0.000053  -0.000000   0.003183  -0.000363   0.005680  -0.007523
    22  H    0.013961   0.004349  -0.000000  -0.000000  -0.000000  -0.000000
    23  Cl   0.170643   0.000335   0.000004   0.000006   0.000000   0.000000
    24  H    0.369546   0.000095   0.000004  -0.000027   0.000000  -0.000000
    25  S    0.125186   0.001554   0.000002  -0.000001   0.000000   0.000001
    26  H   -0.001747  -0.000005   0.000000  -0.000000   0.000000   0.000000
    27  F   -0.033225  -0.000216  -0.000000  -0.000000   0.000000   0.000000
    28  F   -0.005190   0.000011  -0.000000  -0.000000   0.000000  -0.000000
    29  F   -0.032552  -0.000189  -0.000000  -0.000000   0.000000   0.000000
    30  F    0.001766   0.000012  -0.000000  -0.000000  -0.000000  -0.000000
    31  F   -0.002604  -0.000003  -0.000000   0.000000  -0.000000  -0.000000
              19         20         21         22         23         24
     1  C   -0.000198   0.000156  -0.000026   0.162438  -0.011948  -0.067785
     2  N   -0.000014   0.000029  -0.000068  -0.019596   0.001990  -0.016535
     3  C   -0.001868   0.008148  -0.002011   0.005083  -0.000598   0.095264
     4  O   -0.000054   0.000023  -0.000066  -0.000111   0.000107  -0.006064
     5  O   -0.000261  -0.000659  -0.000370  -0.000361   0.000483   0.000949
     6  C   -0.049829   0.088771  -0.046498   0.000125   0.001680   0.010507
     7  C    0.017125  -0.130969   0.006968  -0.000078  -0.000091  -0.000365
     8  C    0.378681   0.384351   0.385757   0.000000   0.000023   0.000061
     9  C    0.000013  -0.000008   0.000012   0.218359   0.210910  -0.037720
    10  C   -0.000001   0.000001   0.000000  -0.011238  -0.315692   0.013920
    11  C    0.000000  -0.000000  -0.000000  -0.070549   0.225602   0.020509
    12  C    0.000000   0.000000  -0.000004  -0.003886  -1.122288  -0.055230
    13  C    0.000038   0.000022  -0.000053   0.013961   0.170643   0.369546
    14  H    0.000000  -0.000000  -0.000000   0.004349   0.000335   0.000095
    15  H   -0.000354  -0.000146   0.003183  -0.000000   0.000004   0.000004
    16  H    0.003164  -0.000135  -0.000363  -0.000000   0.000006  -0.000027
    17  H   -0.007654  -0.003136   0.005680  -0.000000   0.000000   0.000000
    18  H    0.005714  -0.003096  -0.007523  -0.000000   0.000000  -0.000000
    19  H    0.443600  -0.024065  -0.036255   0.000000  -0.000000  -0.000000
    20  H   -0.024065   0.420765  -0.024017   0.000000   0.000000   0.000000
    21  H   -0.036255  -0.024017   0.443033  -0.000000  -0.000000  -0.000000
    22  H    0.000000   0.000000  -0.000000   0.343888   0.000269   0.000039
    23  Cl  -0.000000   0.000000  -0.000000   0.000269  17.461632  -0.013857
    24  H   -0.000000   0.000000  -0.000000   0.000039  -0.013857   0.347921
    25  S    0.000000   0.000000  -0.000000   0.025771  -0.006164  -0.000069
    26  H    0.000000   0.000000   0.000000  -0.000020  -0.012625  -0.000255
    27  F    0.000000   0.000000   0.000000  -0.001513  -0.000099  -0.000010
    28  F   -0.000000   0.000000   0.000000  -0.000368  -0.000342   0.000005
    29  F    0.000000   0.000000   0.000000  -0.001254  -0.000123  -0.000013
    30  F    0.000000   0.000000  -0.000000  -0.000221  -0.000618   0.000004
    31  F    0.000000   0.000000   0.000000  -0.000882   0.000215   0.000000
              25         26         27         28         29         30
     1  C   -0.692461   0.000021  -0.289587   0.161380  -0.345899   0.143448
     2  N    0.015335   0.000997   0.001625   0.000408   0.000376   0.000030
     3  C   -0.096353   0.000206  -0.004180   0.001286  -0.008049   0.000579
     4  O   -0.001010   0.000010  -0.000000  -0.000003   0.000002  -0.000000
     5  O    0.000139   0.000003   0.000020   0.000002   0.000013   0.000001
     6  C   -0.004246   0.000010  -0.000032   0.000004  -0.000065   0.000008
     7  C   -0.000075  -0.000000  -0.000003  -0.000000  -0.000001   0.000000
     8  C   -0.000032   0.000000  -0.000000   0.000000  -0.000000   0.000000
     9  C    0.447043  -0.106964  -0.256233   0.343012  -0.269383   0.317057
    10  C   -2.423886   0.037175   0.153986   0.105897   0.200867   0.129751
    11  C    0.756612   0.195129   0.301593  -0.297923   0.321902  -0.285814
    12  C    0.192257   0.146094   0.117924  -0.253253   0.133267  -0.227625
    13  C    0.125186  -0.001747  -0.033225  -0.005190  -0.032552   0.001766
    14  H    0.001554  -0.000005  -0.000216   0.000011  -0.000189   0.000012
    15  H    0.000002   0.000000  -0.000000  -0.000000  -0.000000  -0.000000
    16  H   -0.000001  -0.000000  -0.000000  -0.000000  -0.000000  -0.000000
    17  H    0.000000   0.000000   0.000000   0.000000   0.000000  -0.000000
    18  H    0.000001   0.000000   0.000000  -0.000000   0.000000  -0.000000
    19  H    0.000000   0.000000   0.000000  -0.000000   0.000000   0.000000
    20  H    0.000000   0.000000   0.000000   0.000000   0.000000   0.000000
    21  H   -0.000000   0.000000   0.000000   0.000000   0.000000  -0.000000
    22  H    0.025771  -0.000020  -0.001513  -0.000368  -0.001254  -0.000221
    23  Cl  -0.006164  -0.012625  -0.000099  -0.000342  -0.000123  -0.000618
    24  H   -0.000069  -0.000255  -0.000010   0.000005  -0.000013   0.000004
    25  S   17.216052   0.044254   0.058809   0.006609   0.056697  -0.017975
    26  H    0.044254   0.340892   0.000084  -0.001640   0.000156  -0.000872
    27  F    0.058809   0.000084   8.973154  -0.029646  -0.004906  -0.052338
    28  F    0.006609  -0.001640  -0.029646   8.979629  -0.054734  -0.006661
    29  F    0.056697   0.000156  -0.004906  -0.054734   8.966971  -0.028921
    30  F   -0.017975  -0.000872  -0.052338  -0.006661  -0.028921   8.973569
    31  F   -0.256841  -0.000997   0.012448   0.013848   0.011635   0.015065
              31
     1  C   -0.038851
     2  N   -0.000188
     3  C   -0.000031
     4  O    0.000000
     5  O   -0.000000
     6  C    0.000000
     7  C    0.000000
     8  C   -0.000000
     9  C    0.074249
    10  C   -0.003581
    11  C    0.065686
    12  C   -0.037690
    13  C   -0.002604
    14  H   -0.000003
    15  H   -0.000000
    16  H    0.000000
    17  H   -0.000000
    18  H   -0.000000
    19  H    0.000000
    20  H    0.000000
    21  H    0.000000
    22  H   -0.000882
    23  Cl   0.000215
    24  H    0.000000
    25  S   -0.256841
    26  H   -0.000997
    27  F    0.012448
    28  F    0.013848
    29  F    0.011635
    30  F    0.015065
    31  F    9.153491
 Mulliken charges:
               1
     1  C   -0.869199
     2  N   -0.458325
     3  C    0.001217
     4  O   -0.417730
     5  O   -0.087060
     6  C   -0.367416
     7  C   -0.161159
     8  C   -1.061347
     9  C    0.207369
    10  C   -1.647236
    11  C    0.172721
    12  C    0.527905
    13  C   -0.446377
    14  H    0.477106
    15  H    0.289792
    16  H    0.291280
    17  H    0.271210
    18  H    0.271099
    19  H    0.272219
    20  H    0.283964
    21  H    0.272623
    22  H    0.335798
    23  Cl   0.410545
    24  H    0.339106
    25  S    0.552794
    26  H    0.360095
    27  F    0.052344
    28  F    0.037670
    29  F    0.054201
    30  F    0.039756
    31  F   -0.004968
 Sum of Mulliken charges =  -0.00000
 Mulliken charges with hydrogens summed into heavy atoms:
               1
     1  C   -0.869199
     2  N    0.018781
     3  C    0.001217
     4  O   -0.417730
     5  O   -0.087060
     6  C    0.213657
     7  C    0.381151
     8  C   -0.232540
     9  C    0.543167
    10  C   -1.647236
    11  C    0.532816
    12  C    0.527905
    13  C   -0.107271
    23  Cl   0.410545
    25  S    0.552794
    27  F    0.052344
    28  F    0.037670
    29  F    0.054201
    30  F    0.039756
    31  F   -0.004968
 Electronic spatial extent (au):  <R**2>=          10307.0023
 Charge=             -0.0000 electrons
 Dipole moment (field-independent basis, Debye):
    X=              6.0031    Y=             -2.5598    Z=             -0.9879  Tot=              6.6004
 Quadrupole moment (field-independent basis, Debye-Ang):
   XX=           -125.1309   YY=           -135.5780   ZZ=           -132.7679
   XY=            -17.8637   XZ=             -1.8088   YZ=             -0.9134
 Traceless Quadrupole moment (field-independent basis, Debye-Ang):
   XX=              6.0280   YY=             -4.4191   ZZ=             -1.6089
   XY=            -17.8637   XZ=             -1.8088   YZ=             -0.9134
 Octapole moment (field-independent basis, Debye-Ang**2):
  XXX=            128.4873  YYY=            -49.7896  ZZZ=              2.7817  XYY=            -21.4555
  XXY=            -20.9181  XXZ=             -3.5919  XZZ=            -15.3532  YZZ=            -12.3427
  YYZ=             -3.4945  XYZ=             -6.7215
 Hexadecapole moment (field-independent basis, Debye-Ang**3):
 XXXX=          -9373.5378 YYYY=          -2403.1165 ZZZZ=           -320.4768 XXXY=           -217.6168
 XXXZ=            -22.3473 YYYX=             65.3976 YYYZ=              0.3434 ZZZX=             -0.0805
 ZZZY=              0.0746 XXYY=          -2132.0125 XXZZ=          -1739.5081 YYZZ=           -464.1944
 XXYZ=            -20.2623 YYXZ=            -14.1789 ZZXY=             37.3663
 N-N= 2.007087053441D+03 E-N=-8.624016530310D+03  KE= 1.945622529570D+03
 D1PCM: PCM CHGder 1st derivatives, ID1Alg=3 FixD1E=F DoIter=F DoCFld=F I1PDM=0.
 Calling FoFJK, ICntrl=      2127 FMM=F ISym2X=0 I1Cent= 0 IOpClX= 0 NMat=1 NMatS=1 NMatT=0.
 ***** Axes restored to original set *****
 -------------------------------------------------------------------
 Center     Atomic                   Forces (Hartrees/Bohr)
 Number     Number              X              Y              Z
 -------------------------------------------------------------------
      1        6          -0.000001693    0.000001153    0.000000995
      2        7          -0.000000870   -0.000001514   -0.000000911
      3        6           0.000002330    0.000001145    0.000000645
      4        8          -0.000000222   -0.000000490    0.000005111
      5        8           0.000000761   -0.000000172   -0.000001945
      6        6          -0.000001222   -0.000000698   -0.000000808
      7        6           0.000000130    0.000000672   -0.000004133
      8        6           0.000000008   -0.000000220   -0.000003310
      9        6           0.000000791    0.000000876   -0.000001553
     10        6          -0.000001080   -0.000000383    0.000001179
     11        6           0.000000933   -0.000001151    0.000005320
     12        6           0.000000181    0.000000367    0.000008203
     13        6           0.000000923   -0.000000480    0.000005643
     14        1          -0.000000605    0.000002311   -0.000002232
     15        1           0.000000136   -0.000003347    0.000000399
     16        1           0.000000219    0.000001738    0.000002867
     17        1          -0.000000634    0.000004088   -0.000004563
     18        1          -0.000000330   -0.000001299   -0.000006996
     19        1          -0.000000254    0.000001523   -0.000000198
     20        1          -0.000000207    0.000000581   -0.000005151
     21        1           0.000000333   -0.000003634   -0.000002305
     22        1          -0.000000637    0.000000978   -0.000004574
     23       17           0.000000477   -0.000001215    0.000012175
     24        1           0.000001071   -0.000000505    0.000007965
     25       16          -0.000002921   -0.000001152   -0.000002478
     26        1           0.000000283   -0.000001445    0.000006538
     27        9           0.000000541   -0.000002346   -0.000005974
     28        9           0.000000471   -0.000003492   -0.000000365
     29        9           0.000000313    0.000004379   -0.000004939
     30        9           0.000000558    0.000003319    0.000000655
     31        9           0.000000218    0.000000411   -0.000005258
 -------------------------------------------------------------------
 Cartesian Forces:  Max     0.000012175 RMS     0.000002971

 GradGradGradGradGradGradGradGradGradGradGradGradGradGradGradGradGradGrad
 Berny optimization.
 FormGI is forming the generalized inverse of G from B-inverse, IUseBI=4.
 Internal  Forces:  Max     0.000002382 RMS     0.000000454
 Search for a local minimum.
 Step number   1 out of a maximum of  165
 All quantities printed in internal units (Hartrees-Bohrs-Radians)
 Mixed Optimization -- En-DIIS/RFO-DIIS
 Second derivative matrix not updated -- first step.
 ITU=  0
     Eigenvalues ---    0.00277   0.00437   0.00614   0.01102   0.01398
     Eigenvalues ---    0.01726   0.01972   0.02009   0.02141   0.02145
     Eigenvalues ---    0.02194   0.02226   0.02253   0.02263   0.02268
     Eigenvalues ---    0.02273   0.02299   0.02539   0.03894   0.05010
     Eigenvalues ---    0.05448   0.05549   0.05577   0.05741   0.08033
     Eigenvalues ---    0.09070   0.09071   0.11242   0.11950   0.13569
     Eigenvalues ---    0.13577   0.13579   0.13592   0.13600   0.15923
     Eigenvalues ---    0.16000   0.16000   0.16000   0.16000   0.16000
     Eigenvalues ---    0.16000   0.16729   0.21889   0.21984   0.22029
     Eigenvalues ---    0.23486   0.23513   0.23522   0.24992   0.24999
     Eigenvalues ---    0.25000   0.25000   0.25000   0.25000   0.25000
     Eigenvalues ---    0.25000   0.25567   0.29904   0.31200   0.31210
     Eigenvalues ---    0.34425   0.34427   0.34479   0.34480   0.34598
     Eigenvalues ---    0.34600   0.34682   0.35607   0.35793   0.36091
     Eigenvalues ---    0.38966   0.42712   0.43218   0.45409   0.46054
     Eigenvalues ---    0.46510   0.47185   0.47880   0.48038   0.48180
     Eigenvalues ---    0.48186   0.48203   0.48213   0.48643   0.51799
     Eigenvalues ---    0.58128   0.98030
 RFO step:  Lambda= 0.00000000D+00 EMin= 2.76654320D-03
 Linear search not attempted -- first point.
 Iteration  1 RMS(Cart)=  0.00003038 RMS(Int)=  0.00000000
 Iteration  2 RMS(Cart)=  0.00000000 RMS(Int)=  0.00000000
 Variable       Old X    -DE/DX   Delta X   Delta X   Delta X     New X
                                 (Linear)    (Quad)   (Total)
    R1        2.64071   0.00000   0.00000   0.00000   0.00000   2.64071
    R2        2.64386  -0.00000   0.00000  -0.00000  -0.00000   2.64385
    R3        2.63845  -0.00000   0.00000  -0.00000  -0.00000   2.63845
    R4        2.58092   0.00000   0.00000   0.00000   0.00000   2.58093
    R5        1.91504  -0.00000   0.00000  -0.00000  -0.00000   1.91504
    R6        2.29438   0.00000   0.00000   0.00000   0.00000   2.29438
    R7        2.52453   0.00000   0.00000   0.00000   0.00000   2.52453
    R8        2.72984  -0.00000   0.00000  -0.00000  -0.00000   2.72983
    R9        2.85632   0.00000   0.00000   0.00000   0.00000   2.85632
   R10        2.06329   0.00000   0.00000   0.00000   0.00000   2.06329
   R11        2.06332  -0.00000   0.00000  -0.00000  -0.00000   2.06332
   R12        2.88156   0.00000   0.00000   0.00000   0.00000   2.88156
   R13        2.06615  -0.00000   0.00000  -0.00000  -0.00000   2.06615
   R14        2.06618   0.00000   0.00000   0.00000   0.00000   2.06618
   R15        2.06527  -0.00000   0.00000  -0.00000  -0.00000   2.06527
   R16        2.06195  -0.00000   0.00000  -0.00000  -0.00000   2.06195
   R17        2.06530  -0.00000   0.00000  -0.00000  -0.00000   2.06530
   R18        2.60869  -0.00000   0.00000  -0.00000  -0.00000   2.60869
   R19        2.04700  -0.00000   0.00000  -0.00000  -0.00000   2.04700
   R20        2.62092  -0.00000   0.00000  -0.00000  -0.00000   2.62092
   R21        3.41489  -0.00000   0.00000  -0.00000  -0.00000   3.41488
   R22        2.61916   0.00000   0.00000   0.00000   0.00000   2.61916
   R23        2.04407  -0.00000   0.00000  -0.00000  -0.00000   2.04407
   R24        2.62194   0.00000   0.00000   0.00000   0.00000   2.62194
   R25        3.29314   0.00000   0.00000   0.00000   0.00000   3.29314
   R26        2.03940   0.00000   0.00000   0.00000   0.00000   2.03940
   R27        3.05423   0.00000   0.00000   0.00000   0.00000   3.05423
   R28        3.05442  -0.00000   0.00000  -0.00000  -0.00000   3.05442
   R29        3.05447   0.00000   0.00000   0.00000   0.00000   3.05447
   R30        3.05412  -0.00000   0.00000  -0.00000  -0.00000   3.05412
   R31        3.05598  -0.00000   0.00000  -0.00000  -0.00000   3.05598
    A1        2.04075  -0.00000   0.00000  -0.00000  -0.00000   2.04075
    A2        2.15137  -0.00000   0.00000   0.00000   0.00000   2.15137
    A3        2.09079   0.00000   0.00000   0.00000   0.00000   2.09079
    A4        2.21307   0.00000   0.00000   0.00000   0.00000   2.21307
    A5        2.03884  -0.00000   0.00000  -0.00000  -0.00000   2.03884
    A6        2.02242   0.00000   0.00000   0.00000   0.00000   2.02242
    A7        2.19589  -0.00000   0.00000  -0.00000  -0.00000   2.19589
    A8        1.91662  -0.00000   0.00000  -0.00000  -0.00000   1.91661
    A9        2.17068   0.00000   0.00000   0.00000   0.00000   2.17069
   A10        2.02563   0.00000   0.00000   0.00000   0.00000   2.02563
   A11        1.87786  -0.00000   0.00000  -0.00000  -0.00000   1.87786
   A12        1.89443   0.00000   0.00000   0.00000   0.00000   1.89443
   A13        1.89415   0.00000   0.00000   0.00000   0.00000   1.89415
   A14        1.94678   0.00000   0.00000   0.00000   0.00000   1.94679
   A15        1.94792   0.00000   0.00000  -0.00000  -0.00000   1.94792
   A16        1.90118  -0.00000   0.00000  -0.00000  -0.00000   1.90118
   A17        1.92679   0.00000   0.00000   0.00000   0.00000   1.92679
   A18        1.90516  -0.00000   0.00000  -0.00000  -0.00000   1.90516
   A19        1.90459   0.00000   0.00000   0.00000   0.00000   1.90459
   A20        1.92537   0.00000   0.00000   0.00000   0.00000   1.92537
   A21        1.92530  -0.00000   0.00000   0.00000   0.00000   1.92531
   A22        1.87574  -0.00000   0.00000  -0.00000  -0.00000   1.87574
   A23        1.93945  -0.00000   0.00000  -0.00000  -0.00000   1.93945
   A24        1.93545   0.00000   0.00000   0.00000   0.00000   1.93546
   A25        1.93936   0.00000   0.00000   0.00000   0.00000   1.93937
   A26        1.88215   0.00000   0.00000   0.00000   0.00000   1.88215
   A27        1.88284  -0.00000   0.00000  -0.00000  -0.00000   1.88284
   A28        1.88219  -0.00000   0.00000  -0.00000  -0.00000   1.88219
   A29        2.06814   0.00000   0.00000   0.00000   0.00000   2.06814
   A30        2.08905   0.00000   0.00000   0.00000   0.00000   2.08905
   A31        2.12598  -0.00000   0.00000  -0.00000  -0.00000   2.12598
   A32        2.15956  -0.00000   0.00000  -0.00000  -0.00000   2.15956
   A33        2.06192  -0.00000   0.00000  -0.00000  -0.00000   2.06192
   A34        2.06169   0.00000   0.00000   0.00000   0.00000   2.06169
   A35        2.02460   0.00000   0.00000   0.00000   0.00000   2.02460
   A36        2.14238  -0.00000   0.00000  -0.00000  -0.00000   2.14238
   A37        2.11620   0.00000   0.00000   0.00000   0.00000   2.11620
   A38        2.14720  -0.00000   0.00000  -0.00000  -0.00000   2.14719
   A39        2.06903   0.00000   0.00000  -0.00000  -0.00000   2.06903
   A40        2.06693   0.00000   0.00000   0.00000   0.00000   2.06693
   A41        2.07594  -0.00000   0.00000  -0.00000  -0.00000   2.07594
   A42        2.11163  -0.00000   0.00000  -0.00000  -0.00000   2.11162
   A43        2.09560   0.00000   0.00000   0.00000   0.00000   2.09560
   A44        1.62462  -0.00000   0.00000  -0.00001  -0.00001   1.62461
   A45        1.62088  -0.00000   0.00000  -0.00000  -0.00000   1.62087
   A46        1.62402  -0.00000   0.00000  -0.00000  -0.00000   1.62401
   A47        1.62193  -0.00000   0.00000  -0.00000  -0.00000   1.62193
   A48        1.56800   0.00000   0.00000   0.00000   0.00000   1.56800
   A49        1.56772  -0.00000   0.00000  -0.00000  -0.00000   1.56772
   A50        1.51823   0.00000   0.00000   0.00000   0.00000   1.51823
   A51        1.56870   0.00000   0.00000   0.00000   0.00000   1.56870
   A52        1.51903   0.00000   0.00000   0.00000   0.00000   1.51904
   A53        1.56794   0.00000   0.00000   0.00000   0.00000   1.56794
   A54        1.51926   0.00000   0.00000   0.00000   0.00000   1.51926
   A55        1.51841   0.00000   0.00000   0.00001   0.00001   1.51841
   A56        3.14284  -0.00000   0.00000  -0.00000  -0.00000   3.14284
   A57        3.24655  -0.00000   0.00000  -0.00001  -0.00001   3.24654
   A58        3.24489  -0.00000   0.00000  -0.00001  -0.00001   3.24488
   A59        3.13991  -0.00000   0.00000  -0.00000  -0.00000   3.13991
   A60        3.14124  -0.00000   0.00000  -0.00000  -0.00000   3.14123
   A61        3.14127  -0.00000   0.00000  -0.00000  -0.00000   3.14127
    D1       -2.83856  -0.00000   0.00000  -0.00001  -0.00001  -2.83857
    D2        0.15380  -0.00000   0.00000  -0.00002  -0.00002   0.15378
    D3        0.32833  -0.00000   0.00000  -0.00002  -0.00002   0.32831
    D4       -2.96250  -0.00000   0.00000  -0.00003  -0.00003  -2.96253
    D5       -3.13011  -0.00000   0.00000  -0.00002  -0.00002  -3.13014
    D6        0.01746  -0.00000   0.00000  -0.00002  -0.00002   0.01745
    D7       -0.01290  -0.00000   0.00000  -0.00001  -0.00001  -0.01291
    D8        3.13468  -0.00000   0.00000  -0.00001  -0.00001   3.13467
    D9        3.13401   0.00000   0.00000   0.00002   0.00002   3.13402
   D10        0.00019   0.00000   0.00000   0.00001   0.00001   0.00020
   D11        0.01841   0.00000   0.00000   0.00001   0.00001   0.01841
   D12       -3.11541   0.00000   0.00000   0.00000   0.00000  -3.11541
   D13       -0.04978   0.00000   0.00000   0.00001   0.00001  -0.04977
   D14        3.09054  -0.00000   0.00000  -0.00000  -0.00000   3.09054
   D15       -3.04336   0.00000   0.00000   0.00002   0.00002  -3.04333
   D16        0.09696   0.00000   0.00000   0.00001   0.00001   0.09698
   D17       -3.13457   0.00000   0.00000   0.00003   0.00003  -3.13454
   D18        0.00578   0.00000   0.00000   0.00002   0.00002   0.00579
   D19        3.13457   0.00000   0.00000   0.00004   0.00004   3.13461
   D20        1.02549   0.00000   0.00000   0.00004   0.00004   1.02553
   D21       -1.03832   0.00000   0.00000   0.00004   0.00004  -1.03828
   D22       -3.14064  -0.00000   0.00000  -0.00001  -0.00001  -3.14065
   D23        1.02337  -0.00000   0.00000  -0.00001  -0.00001   1.02336
   D24       -1.02191   0.00000   0.00000  -0.00000  -0.00000  -1.02192
   D25       -1.06479   0.00000   0.00000  -0.00001  -0.00001  -1.06480
   D26        3.09922  -0.00000   0.00000  -0.00001  -0.00001   3.09921
   D27        1.05394   0.00000   0.00000  -0.00000  -0.00000   1.05394
   D28        1.06637  -0.00000   0.00000  -0.00001  -0.00001   1.06636
   D29       -1.05281  -0.00000   0.00000  -0.00001  -0.00001  -1.05282
   D30       -3.09809   0.00000   0.00000  -0.00001  -0.00001  -3.09809
   D31       -1.04926   0.00000   0.00000   0.00000   0.00000  -1.04926
   D32        3.14068   0.00000   0.00000   0.00000   0.00000   3.14068
   D33        1.04745   0.00000   0.00000   0.00000   0.00000   1.04745
   D34        1.05789  -0.00000   0.00000  -0.00000  -0.00000   1.05789
   D35       -1.03535  -0.00000   0.00000  -0.00000  -0.00000  -1.03535
   D36       -3.12858   0.00000   0.00000  -0.00000  -0.00000  -3.12859
   D37        3.12753  -0.00000   0.00000  -0.00000  -0.00000   3.12753
   D38        1.03430  -0.00000   0.00000  -0.00001  -0.00001   1.03429
   D39       -1.05894  -0.00000   0.00000  -0.00000  -0.00000  -1.05894
   D40       -0.00151   0.00000   0.00000   0.00001   0.00001  -0.00150
   D41       -3.13662   0.00000   0.00000   0.00001   0.00001  -3.13661
   D42        3.13397   0.00000   0.00000   0.00000   0.00000   3.13397
   D43       -0.00115   0.00000   0.00000   0.00000   0.00000  -0.00114
   D44        0.00973   0.00000   0.00000   0.00000   0.00000   0.00974
   D45       -3.13624  -0.00000   0.00000  -0.00000  -0.00000  -3.13625
   D46       -3.13834   0.00000   0.00000   0.00000   0.00000  -3.13834
   D47       -0.00113  -0.00000   0.00000  -0.00000  -0.00000  -0.00114
   D48        0.75578  -0.00000   0.00000   0.00002   0.00002   0.75581
   D49        2.32648   0.00000   0.00000   0.00003   0.00003   2.32650
   D50       -0.81480   0.00000   0.00000   0.00003   0.00003  -0.81477
   D51       -2.38545   0.00000   0.00000   0.00003   0.00003  -2.38543
   D52       -2.37970  -0.00000   0.00000   0.00003   0.00003  -2.37967
   D53       -0.80901   0.00000   0.00000   0.00003   0.00003  -0.80898
   D54        2.33291   0.00000   0.00000   0.00003   0.00003   2.33294
   D55        0.76225   0.00000   0.00000   0.00003   0.00003   0.76228
   D56       -0.00381  -0.00000   0.00000  -0.00001  -0.00001  -0.00382
   D57        3.12909  -0.00000   0.00000  -0.00002  -0.00002   3.12907
   D58       -3.14108  -0.00000   0.00000  -0.00000  -0.00000  -3.14109
   D59       -0.00819  -0.00000   0.00000  -0.00002  -0.00002  -0.00820
   D60       -0.01003   0.00000   0.00000   0.00001   0.00001  -0.01002
   D61        3.12386   0.00000   0.00000   0.00001   0.00001   3.12388
   D62        3.14025   0.00000   0.00000   0.00002   0.00002   3.14027
   D63       -0.00904   0.00000   0.00000   0.00002   0.00002  -0.00902
         Item               Value     Threshold  Converged?
 Maximum Force            0.000002     0.000450     YES
 RMS     Force            0.000000     0.000300     YES
 Maximum Displacement     0.000149     0.001800     YES
 RMS     Displacement     0.000030     0.001200     YES
 Predicted change in Energy=-1.744130D-10
 Optimization completed.
    -- Stationary point found.
                           ----------------------------
                           !   Optimized Parameters   !
                           ! (Angstroms and Degrees)  !
 --------------------------                            --------------------------
 ! Name  Definition              Value          Derivative Info.                !
 --------------------------------------------------------------------------------
[...]
 00000072,0.00000175,-0.00000209,0.00000123,-0.00000197,-0.00000528,-0.
 00000030,0.00000467,0.00000083,0.00000114,0.00000229,0.00000017,0.0000
 0015,-0.00000050,0.00000080,-0.00000240,-0.00000146,-0.00000282,0.0005
 4226,0.00004415,-0.00160342,-0.00005022,-0.00030101,0.00019597,0.00000
 953,0.00000003,-0.00031759,-0.00294038,0.00353082,0.52842281,-0.000441
 62,-0.00082067,-0.00019017,0.00060438,0.00005705,-0.00008661,-0.000328
 07,-0.00032272,-0.00008682,-0.00005831,0.00023141,0.00003397,0.0000891
 6,-0.00001219,0.00000934,-0.00001962,-0.00000220,-0.00000428,0.0000033
 9,0.00000482,0.00000157,0.00000044,-0.00000253,-0.00000082,0.00165479,
 -0.00099608,0.00037832,0.00323908,0.00023641,-0.00024346,-0.29949427,0
 .11017466,0.04515353,-0.01645186,0.01039023,0.00355936,-0.00161510,-0.
 00321188,0.00049512,-0.00001425,0.00003610,-0.00001076,0.00000573,-0.0
 0000045,0.00000020,0.00000520,0.00000065,-0.00000047,-0.00000029,-0.00
 000019,-0.00000034,-0.00000021,-0.00000016,0.00000016,0.00000006,0.000
 00014,0.,0.00000118,0.00000012,0.00000016,-0.00000005,0.00000009,0.000
 00008,0.00026252,-0.00018193,0.00004819,0.00114310,0.00138823,-0.00039
 295,-0.00046323,0.00053739,0.00015026,-0.00026085,-0.00022046,-0.00009
 861,0.31424372,-0.00031764,-0.00085631,0.00007283,-0.00019163,0.000214
 65,0.00012016,0.00019163,-0.00006549,-0.00001720,-0.00017354,0.0000704
 5,-0.00002439,-0.00007308,0.00006324,0.00001389,0.00002541,0.00000753,
 -0.00000422,-0.00000136,-0.00000346,-0.00000164,-0.00000003,0.00000175
 ,0.00000138,-0.00134230,-0.00496745,-0.00125817,0.02552413,-0.00664935
 ,-0.00397385,0.11088891,-0.10650508,-0.02213843,-0.01758492,0.01043694
 ,0.00293162,-0.00336436,-0.00232757,-0.00050755,-0.00008798,-0.0000007
 4,0.00001769,-0.00000441,-0.00000014,0.00000076,-0.00000356,-0.0000012
 7,-0.00000082,-0.00000019,0.00000059,0.00000039,-0.00000019,0.00000060
 ,0.00000001,0.00000002,-0.00000021,0.00000005,-0.00000112,-0.00000015,
 -0.00000009,0.,-0.00000013,-0.00000011,0.00120376,-0.00011624,-0.00025
 527,-0.00062870,0.00170435,0.00088703,-0.00067247,0.00066922,0.0001699
 9,0.00236743,-0.00424587,-0.00075813,-0.11412542,0.11013659,-0.0001483
 7,0.00020127,-0.00123994,-0.00012952,0.00028263,-0.00040822,0.00006835
 ,0.00012544,-0.00007015,0.00011126,-0.00006744,-0.00001735,-0.00005038
 ,-0.00001488,0.00008018,0.00000796,-0.00000576,0.00002447,-0.00000178,
 -0.00000160,-0.00000013,-0.00000047,0.00000190,-0.00000143,-0.00000642
 ,-0.00122233,0.00551757,0.00306000,-0.00116573,0.00062404,0.04511676,-
 0.02187632,-0.04022821,-0.00009879,-0.00023618,0.00308851,0.00069892,-
 0.00078237,0.00541013,-0.00001162,-0.00004755,0.00003460,0.00000304,-0
 .00000418,-0.00000653,-0.00000549,0.00000455,-0.00000139,0.00000018,-0
 .00000050,-0.00000041,0.00000018,0.00000049,-0.00000009,0.00000005,0.0
 0000012,-0.00000006,-0.00000031,0.,-0.00000005,-0.00000028,-0.00000012
 ,-0.00000023,0.00022684,-0.00007128,0.00079208,-0.00059400,0.00053251,
 -0.00234421,-0.00006480,0.00002283,0.00015560,0.00018346,-0.00021095,-
 0.00149328,-0.04841430,0.02360224,0.03158713,0.00197605,-0.00024177,0.
 00040017,-0.00061384,0.00009561,0.00006103,0.00059835,0.00027246,0.000
 05133,-0.00016082,-0.00018257,-0.00008645,-0.00023555,0.00007414,0.000
 03276,0.00006018,0.00001608,0.00002201,-0.00000883,-0.00001013,-0.0000
 0499,-0.00000147,0.00000799,0.00000191,-0.00318296,-0.00096838,0.00259
 838,-0.00043948,-0.01302170,0.00381676,-0.00001619,0.00118995,0.001222
 29,-0.00123296,-0.00011631,-0.00025726,0.00025421,-0.00096601,-0.00018
 042,0.00003961,-0.00005154,-0.00001375,-0.00001053,-0.00000157,-0.0000
 0216,-0.00001210,-0.00000230,-0.00000052,0.00000014,0.00000129,0.00000
 112,0.00000034,0.00000096,0.00000063,-0.00000077,-0.00000082,0.0000003
 5,-0.00000350,0.00000014,-0.00000043,-0.00000017,-0.00000008,-0.000000
 53,-0.00012345,-0.00222106,-0.00009469,0.00003421,-0.00036751,-0.00008
 885,0.00006388,-0.00007172,-0.00011201,-0.07112380,0.02967638,-0.02242
 233,-0.00002881,-0.00029878,0.00004636,0.13177279,0.00184893,0.0005269
 1,-0.00094151,-0.00231416,-0.00010925,-0.00000806,0.00179681,0.0007841
 4,0.00037338,-0.00057186,-0.00048984,-0.00023430,-0.00084124,0.0002694
 9,0.00005227,0.00020146,0.00007335,0.00004761,-0.00003227,-0.00004170,
 -0.00001426,-0.00000425,0.00002679,0.00000813,-0.00222244,-0.00430543,
 0.00100612,0.01801605,-0.01954571,0.01517805,-0.00755002,0.00034080,0.
 00357341,-0.00033661,0.00003881,-0.00146500,-0.00026692,-0.00119786,0.
 00019803,-0.00000898,-0.00019171,-0.00004728,-0.00003828,-0.00000854,-
 0.00000618,-0.00003762,-0.00000617,-0.00000507,0.00000009,0.00000288,0
 .00000343,-0.00000040,0.00000680,-0.00000120,0.00000014,-0.00000100,-0
 .00000014,-0.00001244,-0.00000119,-0.00000093,-0.00000066,-0.00000142,
 -0.00000126,-0.00094816,-0.00016877,0.00059526,-0.00037333,-0.00169149
 ,-0.00033513,0.00012061,0.00001212,0.00005094,0.02618509,-0.12386629,0
 .04988068,0.00022402,0.00054186,0.00044770,-0.05831541,0.16637113,-0.0
 0084867,0.00019935,0.00028055,0.00106553,0.00006336,0.00001464,-0.0008
 8076,-0.00042027,-0.00015767,0.00025771,0.00025400,0.00011247,0.000406
 18,-0.00011741,-0.00003716,-0.00009903,-0.00003226,-0.00003717,0.00001
 452,0.00001970,0.00000700,0.00000170,-0.00001257,-0.00000327,0.0021586
 3,0.00144285,-0.00034133,-0.01290795,0.00731569,-0.00110464,0.00518793
 ,0.00092662,-0.00141043,-0.00082532,0.00028863,0.00051402,0.00043634,0
 .00016306,-0.00012285,-0.00000841,0.00008609,0.00000666,0.00001863,0.0
 0000464,0.00000448,0.00001767,0.00000316,0.00000182,-0.00000053,-0.000
 00129,-0.00000073,-0.00000051,-0.00000337,0.00000018,0.00000008,-0.000
 00005,0.00000006,0.00000582,0.00000078,0.00000032,0.00000071,0.0000009
 3,0.00000105,0.00043485,0.00094100,-0.00039742,0.00026166,0.00093040,0
 .00015406,-0.00004513,0.00001721,-0.00001071,-0.02072097,0.05101778,-0
 .08801462,-0.00009390,-0.00019106,-0.00013663,0.05058056,-0.07263920,0
 .13559976,-0.00018293,-0.00071060,-0.00158468,-0.00220676,-0.00032683,
 -0.00028414,0.00168924,0.00083574,0.00040222,-0.00053093,-0.00048748,-
 0.00021458,-0.00085677,0.00023607,0.00005164,0.00020965,0.00008325,0.0
 0004538,-0.00003315,-0.00004071,-0.00001730,-0.00000347,0.00002645,0.0
 0000945,0.00001356,-0.00629685,0.00161425,-0.01164746,0.01323342,0.023
 71035,-0.00407161,-0.00169421,0.00205343,0.00112759,0.00153407,-0.0003
 6370,-0.00152377,0.00041819,0.00041884,0.00001765,-0.00017923,-0.00004
 842,-0.00003756,-0.00000747,-0.00000680,-0.00003711,-0.00000931,-0.000
 00402,0.00000085,0.00000319,0.00000291,0.00000096,0.00000464,0.,-0.000
 00073,-0.00000177,0.00000058,-0.00001265,-0.00000109,-0.00000117,-0.00
 000063,-0.00000117,-0.00000170,0.00050495,-0.00001882,0.00047341,-0.00
 008180,-0.00107723,-0.00014498,0.00013876,-0.00002029,0.00002648,-0.08
 185717,0.01448009,0.04507296,-0.00093215,-0.00088609,0.00064614,-0.011
 29005,0.02058877,0.01197911,0.10357502,-0.00038767,-0.00099415,-0.0002
 0884,-0.00029973,0.00016896,0.00000689,0.00022370,0.00007476,-0.000011
 63,-0.00006013,-0.00005642,-0.00000913,-0.00008360,0.00004426,0.000024
 34,0.00002600,0.00001007,0.00000109,-0.00000213,-0.00000473,-0.0000016
 7,-0.00000006,0.00000057,0.00000198,0.00102944,-0.00005475,0.00047758,
 -0.00909508,0.00145104,0.00258384,-0.00059383,-0.00262031,0.00153141,0
 .00071745,0.00115085,0.00068993,-0.00075288,0.00063197,0.00018671,-0.0
 0003144,-0.00002431,0.00001691,-0.00000449,-0.00000080,-0.00000025,-0.
 00000416,-0.00000073,-0.00000014,-0.00000002,0.00000042,0.00000086,-0.
 00000014,0.00000115,-0.00000050,0.00000027,-0.00000014,-0.00000025,-0.
 00000134,-0.00000007,-0.00000008,0.00000007,-0.00000023,0.00000012,-0.
 00035752,0.00006229,0.00003473,0.00007205,-0.00000074,0.00002532,-0.00
 004700,0.00006962,-0.00009819,0.01647785,-0.06946699,-0.03420092,-0.00
 180037,0.00006605,0.00027478,0.02691059,-0.02702493,-0.01706261,-0.022
 54687,0.12214891,-0.00008503,-0.00101435,0.00067660,0.00191117,0.00051
 988,0.00023319,-0.00133661,-0.00077088,-0.00035567,0.00041259,0.000420
 98,0.00020224,0.00070391,-0.00016337,-0.00003344,-0.00016993,-0.000073
 28,-0.00004437,0.00003000,0.00003528,0.00001447,0.00000328,-0.00002245
 ,-0.00000819,0.00267038,0.00673762,-0.00087198,0.00266563,-0.01743982,
 -0.01152072,0.00307181,0.00122519,-0.00043110,-0.00034703,-0.00062269,
 0.00036213,0.00055134,0.00027155,-0.00016942,-0.00004242,0.00013948,0.
 00005411,0.00003106,0.00000707,0.00000704,0.00002926,0.00000672,0.0000
 0287,-0.00000088,-0.00000232,-0.00000154,-0.00000057,-0.00000460,-0.00
 000005,0.00000025,0.00000117,-0.00000031,0.00001026,0.00000115,0.00000
 089,0.00000081,0.00000115,0.00000188,-0.00053208,0.00001242,-0.0003048
 5,0.00011696,0.00091841,0.00010865,-0.00010553,0.00005703,-0.00005190,
 0.04723877,-0.03268123,-0.13376046,0.00066528,0.00083449,-0.00077375,0
 .00023409,0.00122842,0.00421580,-0.05407171,0.07189476,0.21060273,0.00
 205440,0.00007687,-0.00058704,-0.00091740,0.00013690,0.00002974,0.0008
 0499,0.00034120,0.00016474,-0.00023900,-0.00024073,-0.00009706,-0.0003
 2529,0.00010001,0.00001189,0.00008794,0.00003562,-0.00000667,-0.000010
 17,-0.00001516,-0.00000643,-0.00000048,0.00000799,0.00000669,-0.003560
 68,-0.00107748,-0.00216237,0.00156401,-0.01329115,-0.00946460,-0.00181
 873,0.00138954,-0.00100827,-0.00095947,-0.00033221,0.00069698,0.000195
 04,-0.00103922,-0.00023414,0.00002261,-0.00007687,0.00000177,-0.000016
 36,-0.00000280,-0.00000252,-0.00001580,-0.00000226,-0.00000164,0.00000
 109,0.00000131,0.00000082,0.00000039,0.00000166,0.00000026,0.00000006,
 -0.00000099,0.00000017,-0.00000503,-0.00000043,-0.00000026,-0.00000057
 ,-0.00000035,-0.00000080,-0.00049485,-0.00192814,-0.00044786,-0.000029
 13,-0.00062025,-0.00000766,0.00009023,-0.00007307,0.00006011,-0.060454
 11,0.00896486,0.01645709,-0.00002382,-0.00019396,-0.00013631,0.0054472
 7,0.00133312,-0.01047760,0.00470392,0.00199199,0.00133388,0.10347400,0
 .00170731,0.00035732,0.00060580,-0.00191499,-0.00007398,0.00007934,0.0
 0151088,0.00063461,0.00033546,-0.00048348,-0.00040843,-0.00018241,-0.0
 0070195,0.00022603,0.00004384,0.00017374,0.00007423,0.00000583,-0.0000
 2606,-0.00003395,-0.00001345,-0.00000294,0.00001973,0.00000955,-0.0018
 9110,-0.00357865,-0.00154143,0.00864743,-0.01171465,-0.02173151,-0.006
 06663,0.00121406,-0.00137815,-0.00028094,-0.00014622,0.00157621,-0.000
 19495,-0.00108997,-0.00043449,-0.00001616,-0.00015915,-0.00004760,-0.0
 0003237,-0.00000663,-0.00000365,-0.00003165,-0.00000561,-0.00000434,-0
 .00000035,0.00000298,0.00000405,0.00000005,0.00000447,-0.00000121,0.00
 000038,-0.00000155,-0.00000010,-0.00001051,-0.00000096,-0.00000080,-0.
 00000014,-0.00000080,-0.00000055,-0.00099239,-0.00003999,-0.00051970,-
 0.00024685,-0.00138960,0.00000278,0.00009498,0.00003146,-0.00007875,0.
 00705015,-0.09176508,-0.05394077,0.00010809,0.00057042,-0.00036774,0.0
 0256549,0.00483125,0.01687824,0.00496523,0.00224693,-0.00539825,-0.022
 92155,0.12108591,0.00092504,-0.00001565,0.00039795,-0.00148698,-0.0001
 3602,0.00004187,0.00117275,0.00055472,0.00022821,-0.00035596,-0.000324
 60,-0.00013254,-0.00055657,0.00016758,0.00004415,0.00013594,0.00004952
 ,0.00002047,-0.00001934,-0.00002694,-0.00001335,-0.00000206,0.00001726
 ,0.00000664,-0.00191141,-0.00251175,-0.00036129,0.01508332,-0.00697976
 ,-0.01083359,-0.00716532,-0.00069252,-0.00061239,0.00109113,-0.0003862
 6,0.00068666,-0.00053743,-0.00025258,-0.00018666,-0.00000783,-0.000113
 80,-0.00004861,-0.00002488,-0.00000494,-0.00000299,-0.00002527,-0.0000
 0575,-0.00000230,-0.00000053,0.00000283,0.00000399,0.00000085,0.000002
 26,-0.00000053,-0.00000048,-0.00000134,0.00000008,-0.00000839,-0.00000
 081,-0.00000099,0.00000042,-0.00000055,0.00000004,-0.00095502,-0.00038
 856,-0.00083139,-0.00033081,-0.00128290,-0.00000908,0.00004634,0.00002
 056,-0.00006851,0.01447877,-0.05564328,-0.13125562,0.00011095,0.000467
 33,-0.00023593,-0.00247963,-0.00203012,-0.04445240,0.00431736,-0.00317
 975,-0.00553989,-0.04847849,0.07518038,0.20911972,0.00026782,-0.000712
 99,0.00134126,-0.00275145,-0.00043505,0.00018417,0.00210535,0.00103669
 ,0.00062534,-0.00060956,-0.00063378,-0.00027184,-0.00103026,0.00029762
 ,0.00003034,0.00025866,0.00011107,0.00002290,-0.00004021,-0.00004885,-
 0.00002083,-0.00000315,0.00002981,0.00001258,-0.00165039,-0.00735659,-
 0.00335188,-0.01730921,0.02378358,-0.01592674,-0.00528015,-0.00200842,
 -0.00145797,0.00135944,0.00164132,0.00059392,-0.00165350,0.00034854,0.
 00000980,0.00002170,-0.00019752,-0.00011167,-0.00004845,-0.00000954,-0
 .00000721,-0.00004359,-0.00001144,-0.00000368,0.00000068,0.00000441,0.
 00000414,0.00000177,0.00000421,-0.00000019,-0.00000079,-0.00000270,0.0
 0000056,-0.00001535,-0.00000151,-0.00000134,-0.00000045,-0.00000126,-0
 .00000171,0.00051155,0.00010953,-0.00052486,-0.00009754,-0.00128047,-0
 .00012211,0.00014247,-0.00001551,-0.00008564,-0.10618007,0.03674378,-0
 .04201638,-0.00113631,-0.00042463,-0.00051262,0.00307498,0.00796260,-0
 .00441311,0.00559309,0.00156648,0.00127810,-0.01141959,0.02017434,-0.0
 0113950,0.13339827,-0.00035851,-0.00121289,-0.00021256,0.00013662,0.00
 029832,0.00005082,-0.00007024,-0.00008283,-0.00005365,0.00005096,0.000
 03456,0.00000716,0.00007837,0.00000427,0.00000815,-0.00001585,-0.00001
 168,-0.00001094,0.00000590,0.00000296,0.00000062,0.00000039,-0.0000027
 6,0.00000043,0.00166498,0.00168067,-0.00018917,-0.00816385,-0.00328036
 ,0.00117169,-0.00053608,-0.00219179,-0.00210760,0.00026966,0.00121365,
 -0.00069546,-0.00058901,0.00060457,0.00026939,-0.00003812,0.00000691,0
 .00003153,0.00000262,0.00000105,0.00000045,0.00000259,0.00000146,-0.00
 000038,0.00000022,-0.00000066,-0.00000031,-0.00000051,0.00000050,-0.00
 000049,0.00000065,0.00000046,-0.00000027,0.00000107,0.00000010,0.00000
 019,0.,-0.00000008,0.00000016,-0.00046805,0.00004842,0.00008979,0.0000
 9445,0.00022553,-0.00003271,-0.00005852,0.00005888,0.00014471,0.040626
 86,-0.09091896,0.03615903,-0.00165964,0.00082933,0.00053867,0.00349556
 ,-0.00042996,0.00376403,0.00207360,0.00458081,0.00056719,0.02728672,-0
 .02684365,0.00004807,-0.05907981,0.16563465,0.00014778,0.00081979,0.00
 037469,-0.00132230,-0.00034244,0.00005101,0.00090138,0.00051122,0.0002
 9944,-0.00026256,-0.00029181,-0.00012763,-0.00046087,0.00011395,0.0000
 1388,0.00011202,0.00005306,0.00000933,-0.00001925,-0.00002357,-0.00001
 009,-0.00000212,0.00001490,0.00000650,-0.00251703,-0.00447232,-0.00109
 713,-0.00262415,0.01410364,-0.00082748,-0.00202393,-0.00151139,-0.0001
 6851,0.00019955,0.00052559,0.00019949,-0.00032883,-0.00022890,-0.00006
 632,0.00002478,-0.00008206,-0.00006745,-0.00002100,-0.00000413,-0.0000
 0317,-0.00001890,-0.00000516,-0.00000124,0.00000018,0.00000253,0.00000
 247,0.00000051,0.00000177,-0.00000001,-0.00000064,-0.00000131,0.000000
 24,-0.00000687,-0.00000060,-0.00000087,0.00000010,-0.00000033,-0.00000
 037,0.00023270,0.00004172,-0.00014430,-0.00006386,-0.00057541,-0.00006
 442,0.00004545,-0.00002389,-0.00002953,-0.04353783,0.03484964,-0.08783
 556,-0.00098406,-0.00001295,-0.00037485,-0.00235494,0.00506725,-0.0012
 0776,-0.01444416,0.01414035,-0.04441335,0.01253593,-0.01646546,0.00421
 391,0.05606081,-0.07015885,0.13599759,0.00073765,-0.00019198,-0.000207
 80,-0.00084491,-0.00005168,0.00005161,0.00067233,0.00030493,0.00014178
 ,-0.00020016,-0.00020458,-0.00008712,-0.00030411,0.00009567,0.00002054
 ,0.00008041,0.00002818,0.00000846,-0.00001085,-0.00001351,-0.00000716,
 -0.00000053,0.00000809,0.00000412,0.00003462,-0.00022921,0.00005650,0.
 00157783,-0.00097914,-0.00012346,-0.00091578,0.00009582,0.00011411,-0.
 00006711,0.00022994,0.00007014,-0.00027802,-0.00022408,0.00002650,0.00
 001780,-0.00005123,-0.00002853,-0.00001424,-0.00000243,-0.00000163,-0.
 00001456,-0.00000323,-0.00000162,0.00000054,0.00000115,0.00000095,0.00
 000059,0.00000123,0.00000016,-0.00000029,-0.00000095,0.00000037,-0.000
 00472,-0.00000018,-0.00000035,-0.00000012,-0.00000048,-0.00000072,0.00
 044250,-0.00014887,-0.00003639,-0.00002912,-0.00049386,-0.00006040,0.0
 0004165,-0.00001794,-0.00000709,-0.12141953,-0.05109464,0.00165173,0.0
 0001603,0.00017507,0.00000596,-0.05483674,-0.00440264,-0.02150574,-0.0
 0226854,-0.01294743,-0.00626703,-0.03815546,-0.01118307,0.02812303,0.0
 0253426,-0.00475301,0.00073212,0.21320860,0.00010240,-0.00031073,0.000
 05385,-0.00064555,0.00001098,-0.00001360,0.00047424,0.00023348,0.00006
 693,-0.00013775,-0.00013892,-0.00005638,-0.00022988,0.00007324,0.00001
 544,0.00005373,0.00001695,0.00001750,-0.00000946,-0.00001058,-0.000003
 45,-0.00000139,0.00000703,0.00000183,-0.00025767,-0.00097154,-0.000088
 37,-0.00112305,0.00236597,0.00007496,0.00017598,0.00004369,-0.00001648
 ,0.00023237,0.00056679,0.00009927,-0.00036273,0.00002217,0.00002037,0.
 00000276,-0.00004705,-0.00000547,-0.00001004,-0.00000232,-0.00000161,-
 0.00000992,-0.00000205,-0.00000153,0.00000010,0.00000077,0.00000111,-0
 .00000017,0.00000193,-0.00000030,0.00000003,-0.00000033,-0.00000018,-0
 .00000342,-0.00000009,-0.00000025,-0.00000015,-0.00000033,-0.00000024,
 0.00004624,0.00003337,0.00000742,-0.00003342,-0.00030230,-0.00004396,0
 .00001978,0.00000831,-0.00000126,-0.05121383,-0.08957556,0.00100935,-0
 .00003252,0.00042587,0.00003980,0.01253100,0.00525493,0.00616259,-0.02
 417666,-0.03245937,-0.02668668,0.00014881,0.00595947,-0.00253262,-0.02
 159391,-0.05025147,0.02395516,0.08605408,0.15904770,-0.00006782,-0.000
 07554,0.00035880,0.00002267,0.00000724,-0.00004867,-0.00001556,-0.0000
 0138,-0.00001454,0.00000404,0.00001017,0.00000671,0.00000562,-0.000002
 65,-0.00000111,-0.00000090,0.00000063,-0.00001149,0.00000045,-0.000000
 12,0.00000029,0.00000037,-0.00000096,0.00000109,-0.00004693,-0.0000727
 6,-0.00026131,-0.00008692,0.00013681,0.00220396,0.00009394,0.00003478,
 -0.00025204,0.00007547,0.00002285,0.00022692,-0.00004488,0.00006113,-0
 .00028614,-0.00000424,0.00000059,0.00000506,0.00000069,0.00000033,0.00
 000083,-0.00000024,-0.00000015,-0.00000008,-0.00000028,0.00000026,0.00
 000068,-0.00000020,-0.00000058,-0.00000020,0.00000015,-0.00000037,-0.0
 0000011,-0.00000004,-0.00000001,-0.00000008,0.00000025,0.00000020,0.00
 000037,-0.00004903,0.00000619,0.00002299,-0.00000513,0.00002138,-0.000
 01624,-0.00000126,0.00000095,0.00000366,0.00177467,0.00099972,-0.05102
 183,0.00000107,0.00002401,0.00001853,-0.03097078,0.00001895,-0.0034780
 9,-0.01963715,-0.03711765,-0.01820163,0.04181965,0.00738887,-0.0201756
 7,0.00980536,0.03061030,-0.00472850,-0.00267305,-0.00207319,0.09564784
 \\0.00000171,-0.00000117,-0.00000100,0.00000086,0.00000151,0.00000091,
 -0.00000231,-0.00000114,-0.00000064,0.00000022,0.00000048,-0.00000511,
 -0.00000077,0.00000018,0.00000195,0.00000122,0.00000070,0.00000081,-0.
 00000013,-0.00000067,0.00000413,-0.00000001,0.00000022,0.00000331,-0.0
 0000078,-0.00000088,0.00000155,0.00000107,0.00000039,-0.00000118,-0.00
 000094,0.00000113,-0.00000532,-0.00000015,-0.00000036,-0.00000820,-0.0
 0000094,0.00000049,-0.00000564,0.00000061,-0.00000231,0.00000223,-0.00
 000014,0.00000335,-0.00000040,-0.00000022,-0.00000174,-0.00000287,0.00
 000064,-0.00000409,0.00000456,0.00000033,0.00000130,0.00000700,0.00000
 025,-0.00000152,0.00000020,0.00000021,-0.00000058,0.00000515,-0.000000
 33,0.00000363,0.00000231,0.00000064,-0.00000098,0.00000457,-0.00000048
 ,0.00000122,-0.00001217,-0.00000107,0.00000051,-0.00000796,0.00000293,
 0.00000115,0.00000248,-0.00000028,0.00000145,-0.00000654,-0.00000054,0
 .00000234,0.00000598,-0.00000047,0.00000349,0.00000037,-0.00000031,-0.
 00000438,0.00000494,-0.00000056,-0.00000332,-0.00000066,-0.00000022,-0
 .00000041,0.00000526\\\@


 IT IS DOUBTED WHETHER A MAN EVER BRINGS HIS FACULTIES TO BEAR WITH THEIR FULL FORCE
 ON A SUBJECT UNTIL HE WRITES UPON IT.

                          -- CICERO
 Job cpu time:       0 days  5 hours 41 minutes  6.1 seconds.
 File lengths (MBytes):  RWF=    912 Int=      0 D2E=      0 Chk=     27 Scr=      1
 Normal termination of Gaussian 09 at Thu Nov 14 19:00:21 2019.
pbs_rusage has been removed.
Please contact help@nci.org.au if you require this functionality.
