 Entering Gaussian System, Link 0=/apps/gaussian/g09e01/g09/g09
 AtFile(1): /home/507/hio507/Basis/GTMP2LARGE.gbs
 Initial command:
 /apps/gaussian/g09e01/g09/l1.exe "/jobfs/local/4046963.r-man2/Gau-1294.inp" -scrdir="/jobfs/local/4046963.r-man2/"
 Entering Link 1 = /apps/gaussian/g09e01/g09/l1.exe PID=      1297.
  
 Copyright (c) 1988,1990,1992,1993,1995,1998,2003,2009,2015,
            Gaussian, Inc.  All Rights Reserved.
  
 This is part of the Gaussian(R) 09 program.  It is based on
 the Gaussian(R) 03 system (copyright 2003, Gaussian, Inc.),
 the Gaussian(R) 98 system (copyright 1998, Gaussian, Inc.),
 the Gaussian(R) 94 system (copyright 1995, Gaussian, Inc.),
 the Gaussian 92(TM) system (copyright 1992, Gaussian, Inc.),
 the Gaussian 90(TM) system (copyright 1990, Gaussian, Inc.),
 the Gaussian 88(TM) system (copyright 1988, Gaussian, Inc.),
 the Gaussian 86(TM) system (copyright 1986, Carnegie Mellon
 University), and the Gaussian 82(TM) system (copyright 1983,
 Carnegie Mellon University). Gaussian is a federally registered
 trademark of Gaussian, Inc.
  
 This software contains proprietary and confidential information,
 including trade secrets, belonging to Gaussian, Inc.
  
 This software is provided under written license and may be
 used, copied, transmitted, or stored only in accord with that
 written license.
  
 The following legend is applicable only to US Government
 contracts under FAR:
  
                    RESTRICTED RIGHTS LEGEND
  
 Use, reproduction and disclosure by the US Government is
 subject to restrictions as set forth in subparagraphs (a)
 and (c) of the Commercial Computer Software - Restricted
 Rights clause in FAR 52.227-19.
  
 Gaussian, Inc.
 340 Quinnipiac St., Bldg. 40, Wallingford CT 06492
  
  
 ---------------------------------------------------------------
 Warning -- This program may not be used in any manner that
 competes with the business of Gaussian, Inc. or will provide
 assistance to any competitor of Gaussian, Inc.  The licensee
 of this program is prohibited from giving any competitor of
 Gaussian, Inc. access to this program.  By using this program,
 the user acknowledges that Gaussian, Inc. is engaged in the
 business of creating and licensing software in the field of
 computational chemistry and represents and warrants to the
 licensee that it is not a competitor of Gaussian, Inc. and that
 it will not use this program in any manner prohibited above.
 ---------------------------------------------------------------
  

 Cite this work as:
 Gaussian 09, Revision E.01,
 M. J. Frisch, G. W. Trucks, H. B. Schlegel, G. E. Scuseria, 
 M. A. Robb, J. R. Cheeseman, G. Scalmani, V. Barone, B. Mennucci, 
 G. A. Petersson, H. Nakatsuji, M. Caricato, X. Li, H. P. Hratchian, 
 A. F. Izmaylov, J. Bloino, G. Zheng, J. L. Sonnenberg, M. Hada, 
 M. Ehara, K. Toyota, R. Fukuda, J. Hasegawa, M. Ishida, T. Nakajima, 
 Y. Honda, O. Kitao, H. Nakai, T. Vreven, J. A. Montgomery, Jr., 
 J. E. Peralta, F. Ogliaro, M. Bearpark, J. J. Heyd, E. Brothers, 
 K. N. Kudin, V. N. Staroverov, T. Keith, R. Kobayashi, J. Normand, 
 K. Raghavachari, A. Rendell, J. C. Burant, S. S. Iyengar, J. Tomasi, 
 M. Cossi, N. Rega, J. M. Millam, M. Klene, J. E. Knox, J. B. Cross, 
 V. Bakken, C. Adamo, J. Jaramillo, R. Gomperts, R. E. Stratmann, 
 O. Yazyev, A. J. Austin, R. Cammi, C. Pomelli, J. W. Ochterski, 
 R. L. Martin, K. Morokuma, V. G. Zakrzewski, G. A. Voth, 
 P. Salvador, J. J. Dannenberg, S. Dapprich, A. D. Daniels, 
 O. Farkas, J. B. Foresman, J. V. Ortiz, J. Cioslowski, 
 and D. J. Fox, Gaussian, Inc., Wallingford CT, 2013.
 
 ******************************************
 Gaussian 09:  ES64L-G09RevE.01 30-Nov-2015
                 9-Dec-2019 
 ******************************************
 %chk=CP22CA.MP2_GTMP2LARGE.chk
 %mem=1114112000
 %nproc=4
 Will use up to    4 processors via shared memory.
 -------------------------------------------------------------
 # MP2/Gen 5D SCF=Tight INT(grid=ultrafine) maxdisk=3489660928
 -------------------------------------------------------------
 1/38=1/1;
 2/12=2,17=6,18=5,40=1/2;
 3/5=7,8=1,11=9,16=1,25=1,30=1,75=-5/1,2,3;
 4//1;
 5/5=2,32=2,38=5/2;
 8/10=1/1;
 9/16=-3/6;
 6/7=2,8=2,9=2,10=2/1;
 99/5=1,9=1/99;
 ---------------------
 CP22CA.MP2_GTMP2LARGE
 ---------------------
 Symbolic Z-matrix:
 Charge =  0 Multiplicity = 1
 C                    -5.88507   1.24853   0.21696 
 N                    -4.61484   0.6713    0.14428 
 C                    -3.40423   1.32291   0.10619 
 O                    -3.23637   2.5134    0.12946 
 O                    -2.42372   0.41075   0.03797 
 C                    -1.08935   0.94383  -0.00884 
 C                    -0.13018  -0.22401  -0.08343 
 C                     1.31562   0.26237  -0.13655 
 C                    -6.09361   2.63005   0.26279 
 C                    -7.39957   3.08435   0.33396 
 C                    -8.50889   2.25625   0.36245 
 C                    -8.26571   0.89069   0.31546 
 C                    -6.9812    0.3811    0.24381 
 H                    -4.56246  -0.33621   0.11557 
 H                    -0.92245   1.5507    0.88424 
 H                    -1.00293   1.59729  -0.88019 
 H                    -0.36426  -0.82131  -0.9688 
 H                    -0.28415  -0.86767   0.78687 
 H                     1.49032   0.89314  -1.01147 
 H                     2.00895  -0.57772  -0.19047 
 H                     1.57079   0.84645   0.75092 
 H                    -5.25829   3.3124    0.24287 
 Cl                   -9.60876  -0.21114   0.34734 
 H                    -6.83443  -0.69261   0.20888 
 S                    -7.67132   4.87652   0.39351 
 H                    -9.51715   2.64167   0.41831 
 F                    -6.61004   5.14625  -0.78963 
 F                    -8.86243   4.79592  -0.69545 
 F                    -6.50638   5.08629   1.48795 
 F                    -8.75884   4.73598   1.58036 
 F                    -7.91814   6.46183   0.44648 
 
                          Input orientation:                          
 ---------------------------------------------------------------------
 Center     Atomic      Atomic             Coordinates (Angstroms)
 Number     Number       Type             X           Y           Z
 ---------------------------------------------------------------------
      1          6           0       -5.885065    1.248528    0.216964
      2          7           0       -4.614837    0.671297    0.144275
      3          6           0       -3.404229    1.322909    0.106189
      4          8           0       -3.236373    2.513396    0.129457
      5          8           0       -2.423723    0.410750    0.037968
      6          6           0       -1.089354    0.943825   -0.008839
      7          6           0       -0.130178   -0.224014   -0.083431
      8          6           0        1.315625    0.262366   -0.136551
      9          6           0       -6.093613    2.630049    0.262786
     10          6           0       -7.399571    3.084346    0.333956
     11          6           0       -8.508889    2.256252    0.362448
     12          6           0       -8.265709    0.890693    0.315463
     13          6           0       -6.981198    0.381105    0.243806
     14          1           0       -4.562464   -0.336209    0.115570
     15          1           0       -0.922449    1.550701    0.884242
     16          1           0       -1.002929    1.597293   -0.880191
     17          1           0       -0.364262   -0.821307   -0.968797
     18          1           0       -0.284152   -0.867671    0.786871
     19          1           0        1.490321    0.893141   -1.011465
     20          1           0        2.008954   -0.577722   -0.190467
     21          1           0        1.570790    0.846450    0.750923
     22          1           0       -5.258294    3.312403    0.242874
     23         17           0       -9.608755   -0.211141    0.347338
     24          1           0       -6.834429   -0.692606    0.208877
     25         16           0       -7.671324    4.876522    0.393507
     26          1           0       -9.517153    2.641666    0.418315
     27          9           0       -6.610037    5.146246   -0.789632
     28          9           0       -8.862427    4.795917   -0.695452
     29          9           0       -6.506375    5.086293    1.487947
     30          9           0       -8.758839    4.735985    1.580358
     31          9           0       -7.918139    6.461827    0.446480
 ---------------------------------------------------------------------
                    Distance matrix (angstroms):
                    1          2          3          4          5
     1  C    0.000000
     2  N    1.397126   0.000000
     3  C    2.484422   1.375362   0.000000
     4  O    2.936515   2.300807   1.202488   0.000000
     5  O    3.565782   2.209109   1.340925   2.256079   0.000000
     6  C    4.810684   3.539314   2.348528   2.663150   1.437672
     7  C    5.947886   4.578820   3.626064   4.145743   2.382858
     8  C    7.276498   5.951173   4.843624   5.085133   3.746358
     9  C    1.397925   2.457140   2.994315   2.862727   4.294639
    10  C    2.382780   3.689652   4.372332   4.207139   5.656393
    11  C    2.814449   4.209908   5.195608   5.283922   6.367135
    12  C    2.409400   3.661462   4.885139   5.287909   5.868232
    13  C    1.398088   2.386165   3.701437   4.310853   4.562217
    14  H    2.066627   1.009274   2.023430   3.143082   2.266756
    15  H    5.016387   3.867122   2.610841   2.617390   2.066276
    16  H    5.016038   3.866895   2.610455   2.616659   2.066291
    17  H    6.014110   4.640494   3.872294   4.536015   2.602484
    18  H    6.014426   4.640708   3.872577   4.536454   2.602495
    19  H    7.485430   6.217547   5.038896   5.125287   4.080901
    20  H    8.112751   6.748830   5.744820   6.096788   4.547295
    21  H    7.485757   6.217771   5.039197   5.125792   4.080965
    22  H    2.157103   2.720147   2.722925   2.177025   4.061572
    23  Cl   4.001687   5.075348   6.395905   6.933818   7.218528
    24  H    2.160869   2.605954   3.979839   4.819830   4.549828
    25  S    4.047744   5.204628   5.560469   5.032184   6.899771
    26  H    3.895310   5.290573   6.261340   6.288727   7.445697
    27  F    4.090358   4.987803   5.069281   4.377012   6.374564
    28  F    4.720293   5.979939   6.518922   6.127223   7.824609
    29  F    4.090216   4.987541   5.069085   4.377009   6.374260
    30  F    4.720146   5.979698   6.518750   6.127206   7.824341
    31  F    5.600407   6.673333   6.848332   6.132662   8.183582
                    6          7          8          9         10
     6  C    0.000000
     7  C    1.513086   0.000000
     8  C    2.502922   1.526347   0.000000
     9  C    5.287697   6.620280   7.788594   0.000000
    10  C    6.672194   7.997720   9.172763   1.384549   0.000000
    11  C    7.543859   8.749475  10.037213   2.446060   1.384608
    12  C    7.183875   8.221225   9.612547   2.783187   2.358527
    13  C    5.924045   6.885472   8.306386   2.417833   2.736910
    14  H    3.703575   4.438170   5.913864   3.341374   4.449389
    15  H    1.092589   2.171105   2.776832   5.319036   6.678921
    16  H    1.092586   2.171101   2.776819   5.318651   6.678510
    17  H    2.136111   1.093356   2.165410   6.801038   8.151494
    18  H    2.136123   1.093356   2.165405   6.801364   8.151855
    19  H    2.768131   2.176074   1.092644   7.883947   9.254280
    20  H    3.456531   2.170818   1.090579   8.726215  10.109703
    21  H    2.768227   2.176081   1.092644   7.884325   9.254696
    22  H    4.801414   6.237811   7.256934   1.078778   2.155313
    23  Cl   8.604709   9.488369  10.945339   4.520590   3.967482
    24  H    5.977558   6.726961   8.213079   3.404666   3.821046
    25  S    7.677911   9.116568  10.116158   2.748254   1.813641
    26  H    8.607725   9.827470  11.104865   3.427090   2.165003
    27  F    6.981971   8.445531   9.332466   2.775883   2.477346
    28  F    8.702340  10.090910  11.156084   3.643561   2.475703
    29  F    6.981728   8.445382   9.332360   2.775702   2.477354
    30  F    8.702128  10.090767  11.155979   3.643404   2.475690
    31  F    8.791357  10.277821  11.137128   4.247959   3.418911
                   11         12         13         14         15
    11  C    0.000000
    12  C    1.387838   0.000000
    13  C    2.421588   1.383756   0.000000
    14  H    4.728220   3.906311   2.526115   0.000000
    15  H    7.637025   7.394768   6.203754   4.171451   0.000000
    16  H    7.636609   7.394379   6.203401   4.171362   1.766883
    17  H    8.807867   8.186155   6.833743   4.363035   3.061332
    18  H    8.808253   8.186532   6.834090   4.363147   2.503084
    19  H   10.184787   9.845854   8.579307   6.278353   3.138080
    20  H   10.906977  10.391386   9.051562   6.582973   3.778665
    21  H   10.185203   9.846232   8.579639   6.278468   2.594221
    22  H    3.419959   3.861929   3.400134   3.716552   4.723823
    23  Cl   2.701474   1.737478   2.695465   5.053159   8.879430
    24  H    3.394578   2.136997   1.084258   2.301640   6.359250
    25  S    2.751054   4.030660   4.550545   6.075757   7.539842
    26  H    1.080862   2.154669   3.401714   5.788639   8.676188
    27  F    3.644858   4.698107   4.890023   5.921931   6.933864
    28  F    2.773814   4.077842   4.889969   6.744343   8.721819
    29  F    3.644988   4.698194   4.890004   5.921633   6.636648
    30  F    2.773960   4.077917   4.889924   6.744058   8.487616
    31  F    4.247694   5.583503   6.155820   7.588369   8.558649
                   16         17         18         19         20
    16  H    0.000000
    17  H    2.503073   0.000000
    18  H    3.061337   1.758106   0.000000
    19  H    2.594101   2.525990   3.079485   0.000000
    20  H    3.778605   2.509439   2.509501   1.762515   0.000000
    21  H    3.138205   3.079492   2.525928   1.764842   1.762518
    22  H    4.723452   6.519758   6.520048   7.278049   8.254317
    23  Cl   8.879049   9.357627   9.358015  11.236337  11.635927
    24  H    6.358938   6.577731   6.578058   8.561851   8.853141
    25  S    7.539439   9.365590   9.365938  10.088459  11.126437
    26  H    8.675762   9.883910   9.884310  11.236818  11.982747
    27  F    6.636484   8.640226   8.869576   9.151716  10.363871
    28  F    8.487463  10.190522  10.385582  11.068465  12.137461
    29  F    6.933189   8.869097   8.640443   9.368924  10.363830
    30  F    8.721229  10.385115  10.190726  11.248568  12.137408
    31  F    8.558263  10.588112  10.588444  11.029732  12.186391
                   21         22         23         24         25
    21  H    0.000000
    22  H    7.278421   0.000000
    23  Cl  11.236708   5.599357   0.000000
    24  H    8.562138   4.304121   2.819196   0.000000
    25  S   10.088899   2.879561   5.444272   5.634685   0.000000
    26  H   11.237255   4.314922   2.855160   4.284652   2.898669
    27  F    9.369498   2.501252   6.243926   5.927863   1.612110
    28  F   11.249103   4.008871   5.168661   5.920682   1.615876
    29  F    9.152052   2.500920   6.244082   5.927842   1.612113
    30  F   11.068770   4.008649   5.168825   5.920634   1.615877
    31  F   11.030182   4.127360   6.884513   7.239944   1.605277
                   26         27         28         29         30
    26  H    0.000000
    27  F    4.022857   0.000000
    28  F    2.511959   2.281416   0.000000
    29  F    4.023070   2.280725   3.225295   0.000000
    30  F    2.512280   3.225294   2.278954   2.281414   0.000000
    31  F    4.141408   2.229317   2.229561   2.229310   2.229571
                   31
    31  F    0.000000
 Stoichiometry    C10H11ClF5NO2S
 Framework group  C1[X(C10H11ClF5NO2S)]
 Deg. of freedom    87
 Full point group                 C1      NOp   1
 Largest Abelian subgroup         C1      NOp   1
 Largest concise Abelian subgroup C1      NOp   1
                         Standard orientation:                         
 ---------------------------------------------------------------------
 Center     Atomic      Atomic             Coordinates (Angstroms)
 Number     Number       Type             X           Y           Z
 ---------------------------------------------------------------------
      1          6           0        0.509254    1.098254   -0.000146
      2          7           0        1.906379    1.099830   -0.000352
      3          6           0        2.741028    0.006678   -0.000087
      4          8           0        2.401871   -1.146990    0.000377
      5          8           0        4.012411    0.432900   -0.000424
      6          6           0        5.008944   -0.603354   -0.000181
      7          6           0        6.366629    0.064570    0.000087
      8          6           0        7.484100   -0.975138    0.000351
      9          6           0       -0.252198   -0.074087   -0.000108
     10          6           0       -1.631079    0.051061    0.000002
     11          6           0       -2.300359    1.263168    0.000082
     12          6           0       -1.513922    2.406676    0.000055
     13          6           0       -0.131737    2.340744   -0.000050
     14          1           0        2.370735    1.995937   -0.000562
     15          1           0        4.864067   -1.229659   -0.883642
     16          1           0        4.863705   -1.229625    0.883241
     17          1           0        6.446047    0.709847    0.879141
     18          1           0        6.446434    0.709804   -0.878965
     19          1           0        7.428694   -1.617173    0.882730
     20          1           0        8.463809   -0.496044    0.000650
     21          1           0        7.429192   -1.617101   -0.882112
     22          1           0        0.227459   -1.040364   -0.000162
     23         17           0       -2.283170    3.964587    0.000157
     24          1           0        0.446095    3.258200   -0.000068
     25         16           0       -2.619983   -1.469256   -0.000001
     26          1           0       -3.379262    1.328203    0.000160
     27          9           0       -1.704039   -2.146951    1.140469
     28          9           0       -3.613420   -0.898302    1.139362
     29          9           0       -1.703856   -2.147075   -1.140256
     30          9           0       -3.613220   -0.898404   -1.139592
     31          9           0       -3.500602   -2.811427   -0.000009
 ---------------------------------------------------------------------
 Rotational constants (GHZ):      0.3799363      0.1349909      0.1038363
 General basis read from cards:  (5D, 7F)
 There are   938 symmetry adapted cartesian basis functions of A   symmetry.
 There are   830 symmetry adapted basis functions of A   symmetry.
   830 basis functions,  1232 primitive gaussians,   938 cartesian basis functions
    86 alpha electrons       86 beta electrons
       nuclear repulsion energy      2027.3286052258 Hartrees.
 NAtoms=   31 NActive=   31 NUniq=   31 SFac= 1.00D+00 NAtFMM=   60 NAOKFM=F Big=F
 Integral buffers will be    131072 words long.
 Raffenetti 1 integral format.
 Two-electron integral symmetry is turned on.
 One-electron integrals computed using PRISM.
 NBasis=   830 RedAO= T EigKep=  1.68D-06  NBF=   830
 NBsUse=   827 1.00D-06 EigRej=  6.83D-07 NBFU=   827
 ExpMin= 3.60D-02 ExpMax= 1.06D+05 ExpMxC= 3.62D+03 IAcc=3 IRadAn=         5 AccDes= 0.00D+00
 Harris functional with IExCor=  205 and IRadAn=       5 diagonalized for initial guess.
 HarFok:  IExCor=  205 AccDes= 0.00D+00 IRadAn=         5 IDoV= 1 UseB2=F ITyADJ=14
 ICtDFT=  3500011 ScaDFX=  1.000000  1.000000  1.000000  1.000000
 FoFCou: FMM=F IPFlag=           0 FMFlag=      100000 FMFlg1=           0
         NFxFlg=           0 DoJE=T BraDBF=F KetDBF=T FulRan=T
         wScrn=  0.000000 ICntrl=     500 IOpCl=  0 I1Cent=   200000004 NGrid=           0
         NMat0=    1 NMatS0=      1 NMatT0=    0 NMatD0=    1 NMtDS0=    0 NMtDT0=    0
 Petite list used in FoFCou.
 Requested convergence on RMS density matrix=1.00D-08 within 128 cycles.
 Requested convergence on MAX density matrix=1.00D-06.
 Requested convergence on             energy=1.00D-06.
 No special actions if energy rises.
 Initial convergence to 1.0D-05 achieved.  Increase integral accuracy.
 SCF Done:  E(RHF) =  -1943.79151332     A.U. after   15 cycles
            NFock= 15  Conv=0.50D-08     -V/T= 2.0008
 ExpMin= 3.60D-02 ExpMax= 1.06D+05 ExpMxC= 3.62D+03 IAcc=3 IRadAn=         5 AccDes= 0.00D+00
 HarFok:  IExCor=  205 AccDes= 0.00D+00 IRadAn=         5 IDoV=-2 UseB2=F ITyADJ=14
 ICtDFT= 12500011 ScaDFX=  1.000000  1.000000  1.000000  1.000000
 Range of M.O.s used for correlation:    29   827
 NBasis=   830 NAE=    86 NBE=    86 NFC=    28 NFV=     0
 NROrb=    799 NOA=    58 NOB=    58 NVA=   741 NVB=   741

 **** Warning!!: The largest alpha MO coefficient is  0.12558660D+03

 Fully direct method using O(OVN) memory.
 JobTyp=1 Pass  1:  I=   1 to   6 NPSUse=  4 ParTrn=T ParDer=T DoDerP=F.
 JobTyp=1 Pass  2:  I=   7 to  13 NPSUse=  4 ParTrn=T ParDer=T DoDerP=F.
 JobTyp=1 Pass  3:  I=  14 to  22 NPSUse=  4 ParTrn=T ParDer=T DoDerP=F.
 JobTyp=1 Pass  4:  I=  23 to  34 NPSUse=  4 ParTrn=T ParDer=T DoDerP=F.
 JobTyp=1 Pass  5:  I=  35 to  58 NPSUse=  4 ParTrn=T ParDer=T DoDerP=F.
 Spin components of T(2) and E(2):
     alpha-alpha T2 =       0.1488794647D+00 E2=     -0.5171527304D+00
     alpha-beta  T2 =       0.7700201506D+00 E2=     -0.2897971331D+01
     beta-beta   T2 =       0.1488794647D+00 E2=     -0.5171527304D+00
 ANorm=    0.1437977427D+01
 E2 =    -0.3932276792D+01 EUMP2 =    -0.19477237901164D+04

 **********************************************************************

            Population analysis using the SCF density.

 **********************************************************************

 Orbital symmetries:
       Occupied  (A) (A) (A) (A) (A) (A) (A) (A) (A) (A) (A) (A)
                 (A) (A) (A) (A) (A) (A) (A) (A) (A) (A) (A) (A)
                 (A) (A) (A) (A) (A) (A) (A) (A) (A) (A) (A) (A)
                 (A) (A) (A) (A) (A) (A) (A) (A) (A) (A) (A) (A)
                 (A) (A) (A) (A) (A) (A) (A) (A) (A) (A) (A) (A)
                 (A) (A) (A) (A) (A) (A) (A) (A) (A) (A) (A) (A)
                 (A) (A) (A) (A) (A) (A) (A) (A) (A) (A) (A) (A)
                 (A) (A)
       Virtual   (A) (A) (A) (A) (A) (A) (A) (A) (A) (A) (A) (A)
                 (A) (A) (A) (A) (A) (A) (A) (A) (A) (A) (A) (A)
                 (A) (A) (A) (A) (A) (A) (A) (A) (A) (A) (A) (A)
                 (A) (A) (A) (A) (A) (A) (A) (A) (A) (A) (A) (A)
                 (A) (A) (A) (A) (A) (A) (A) (A) (A) (A) (A) (A)
                 (A) (A) (A) (A) (A) (A) (A) (A) (A) (A) (A) (A)
                 (A) (A) (A) (A) (A) (A) (A) (A) (A) (A) (A) (A)
                 (A) (A) (A) (A) (A) (A) (A) (A) (A) (A) (A) (A)
                 (A) (A) (A) (A) (A) (A) (A) (A) (A) (A) (A) (A)
                 (A) (A) (A) (A) (A) (A) (A) (A) (A) (A) (A) (A)
                 (A) (A) (A) (A) (A) (A) (A) (A) (A) (A) (A) (A)
                 (A) (A) (A) (A) (A) (A) (A) (A) (A) (A) (A) (A)
                 (A) (A) (A) (A) (A) (A) (A) (A) (A) (A) (A) (A)
                 (A) (A) (A) (A) (A) (A) (A) (A) (A) (A) (A) (A)
                 (A) (A) (A) (A) (A) (A) (A) (A) (A) (A) (A) (A)
                 (A) (A) (A) (A) (A) (A) (A) (A) (A) (A) (A) (A)
                 (A) (A) (A) (A) (A) (A) (A) (A) (A) (A) (A) (A)
                 (A) (A) (A) (A) (A) (A) (A) (A) (A) (A) (A) (A)
                 (A) (A) (A) (A) (A) (A) (A) (A) (A) (A) (A) (A)
                 (A) (A) (A) (A) (A) (A) (A) (A) (A) (A) (A) (A)
                 (A) (A) (A) (A) (A) (A) (A) (A) (A) (A) (A) (A)
                 (A) (A) (A) (A) (A) (A) (A) (A) (A) (A) (A) (A)
                 (A) (A) (A) (A) (A) (A) (A) (A) (A) (A) (A) (A)
                 (A) (A) (A) (A) (A) (A) (A) (A) (A) (A) (A) (A)
                 (A) (A) (A) (A) (A) (A) (A) (A) (A) (A) (A) (A)
                 (A) (A) (A) (A) (A) (A) (A) (A) (A) (A) (A) (A)
                 (A) (A) (A) (A) (A) (A) (A) (A) (A) (A) (A) (A)
                 (A) (A) (A) (A) (A) (A) (A) (A) (A) (A) (A) (A)
                 (A) (A) (A) (A) (A) (A) (A) (A) (A) (A) (A) (A)
                 (A) (A) (A) (A) (A) (A) (A) (A) (A) (A) (A) (A)
                 (A) (A) (A) (A) (A) (A) (A) (A) (A) (A) (A) (A)
                 (A) (A) (A) (A) (A) (A) (A) (A) (A) (A) (A) (A)
                 (A) (A) (A) (A) (A) (A) (A) (A) (A) (A) (A) (A)
                 (A) (A) (A) (A) (A) (A) (A) (A) (A) (A) (A) (A)
                 (A) (A) (A) (A) (A) (A) (A) (A) (A) (A) (A) (A)
                 (A) (A) (A) (A) (A) (A) (A) (A) (A) (A) (A) (A)
                 (A) (A) (A) (A) (A) (A) (A) (A) (A) (A) (A) (A)
                 (A) (A) (A) (A) (A) (A) (A) (A) (A) (A) (A) (A)
                 (A) (A) (A) (A) (A) (A) (A) (A) (A) (A) (A) (A)
                 (A) (A) (A) (A) (A) (A) (A) (A) (A) (A) (A) (A)
                 (A) (A) (A) (A) (A) (A) (A) (A) (A) (A) (A) (A)
                 (A) (A) (A) (A) (A) (A) (A) (A) (A) (A) (A) (A)
                 (A) (A) (A) (A) (A) (A) (A) (A) (A) (A) (A) (A)
                 (A) (A) (A) (A) (A) (A) (A) (A) (A) (A) (A) (A)
                 (A) (A) (A) (A) (A) (A) (A) (A) (A) (A) (A) (A)
                 (A) (A) (A) (A) (A) (A) (A) (A) (A) (A) (A) (A)
                 (A) (A) (A) (A) (A) (A) (A) (A) (A) (A) (A) (A)
                 (A) (A) (A) (A) (A) (A) (A) (A) (A) (A) (A) (A)
                 (A) (A) (A) (A) (A) (A) (A) (A) (A) (A) (A) (A)
                 (A) (A) (A) (A) (A) (A) (A) (A) (A) (A) (A) (A)
                 (A) (A) (A) (A) (A) (A) (A) (A) (A) (A) (A) (A)
                 (A) (A) (A) (A) (A) (A) (A) (A) (A) (A) (A) (A)
                 (A) (A) (A) (A) (A) (A) (A) (A) (A) (A) (A) (A)
                 (A) (A) (A) (A) (A) (A) (A) (A) (A) (A) (A) (A)
                 (A) (A) (A) (A) (A) (A) (A) (A) (A) (A) (A) (A)
                 (A) (A) (A) (A) (A) (A) (A) (A) (A) (A) (A) (A)
                 (A) (A) (A) (A) (A) (A) (A) (A) (A) (A) (A) (A)
                 (A) (A) (A) (A) (A) (A) (A) (A) (A) (A) (A) (A)
                 (A) (A) (A) (A) (A) (A) (A) (A) (A) (A) (A) (A)
                 (A) (A) (A) (A) (A) (A) (A) (A) (A) (A) (A) (A)
                 (A) (A) (A) (A) (A) (A) (A) (A) (A) (A) (A) (A)
                 (A) (A) (A) (A) (A) (A) (A) (A) (A)
 The electronic state is 1-A.
 Alpha  occ. eigenvalues -- -104.86289 -92.36696 -26.34264 -26.34262 -26.34262
 Alpha  occ. eigenvalues --  -26.34261 -26.34192 -20.62025 -20.55381 -15.62854
 Alpha  occ. eigenvalues --  -11.42840 -11.33040 -11.32812 -11.30818 -11.29898
 Alpha  occ. eigenvalues --  -11.27500 -11.27397 -11.26758 -11.23906 -11.22963
 Alpha  occ. eigenvalues --  -10.58725  -9.30982  -8.05503  -8.05330  -8.05326
 Alpha  occ. eigenvalues --   -6.99867  -6.99855  -6.99538  -1.74886  -1.65255
 Alpha  occ. eigenvalues --   -1.65185  -1.62283  -1.60896  -1.49353  -1.38598
 Alpha  occ. eigenvalues --   -1.29366  -1.21727  -1.15477  -1.10115  -1.08079
 Alpha  occ. eigenvalues --   -1.04117  -1.02492  -0.96432  -0.90092  -0.89172
 Alpha  occ. eigenvalues --   -0.85901  -0.85886  -0.83135  -0.81928  -0.81105
 Alpha  occ. eigenvalues --   -0.77773  -0.77130  -0.75741  -0.75015  -0.72620
 Alpha  occ. eigenvalues --   -0.71838  -0.71278  -0.69120  -0.68726  -0.68587
 Alpha  occ. eigenvalues --   -0.68110  -0.67961  -0.67152  -0.66274  -0.65241
 Alpha  occ. eigenvalues --   -0.64523  -0.64506  -0.64252  -0.62355  -0.61762
 Alpha  occ. eigenvalues --   -0.60166  -0.59463  -0.57164  -0.56623  -0.56126
 Alpha  occ. eigenvalues --   -0.53790  -0.52997  -0.51934  -0.50345  -0.50065
 Alpha  occ. eigenvalues --   -0.48071  -0.47908  -0.47457  -0.47098  -0.37473
 Alpha  occ. eigenvalues --   -0.34204
 Alpha virt. eigenvalues --    0.03047   0.03922   0.05238   0.05390   0.05782
 Alpha virt. eigenvalues --    0.06092   0.06740   0.07678   0.08214   0.08370
 Alpha virt. eigenvalues --    0.08944   0.09132   0.09626   0.10063   0.10603
 Alpha virt. eigenvalues --    0.10995   0.11555   0.12191   0.12659   0.13768
 Alpha virt. eigenvalues --    0.14186   0.14211   0.14575   0.14967   0.16503
 Alpha virt. eigenvalues --    0.16666   0.16810   0.17026   0.17377   0.17630
 Alpha virt. eigenvalues --    0.18034   0.18083   0.18697   0.18820   0.18999
 Alpha virt. eigenvalues --    0.19291   0.19495   0.19543   0.20528   0.20619
 Alpha virt. eigenvalues --    0.20888   0.21990   0.22040   0.23078   0.23164
 Alpha virt. eigenvalues --    0.23934   0.24316   0.24452   0.24515   0.25449
 Alpha virt. eigenvalues --    0.25622   0.26417   0.26788   0.28085   0.28183
 Alpha virt. eigenvalues --    0.28579   0.28588   0.29604   0.30080   0.30371
 Alpha virt. eigenvalues --    0.30903   0.30964   0.31448   0.31827   0.32459
 Alpha virt. eigenvalues --    0.33399   0.33972   0.34189   0.34404   0.35595
 Alpha virt. eigenvalues --    0.36157   0.36678   0.36775   0.37221   0.37656
 Alpha virt. eigenvalues --    0.38178   0.39006   0.39070   0.39264   0.39704
 Alpha virt. eigenvalues --    0.40327   0.40672   0.41043   0.41072   0.41706
 Alpha virt. eigenvalues --    0.42020   0.42291   0.42915   0.43060   0.43415
 Alpha virt. eigenvalues --    0.44016   0.44461   0.44704   0.45092   0.45877
 Alpha virt. eigenvalues --    0.46028   0.46711   0.47354   0.48324   0.48550
 Alpha virt. eigenvalues --    0.48768   0.48963   0.49663   0.50016   0.50428
 Alpha virt. eigenvalues --    0.51536   0.51744   0.53346   0.53866   0.54371
 Alpha virt. eigenvalues --    0.55057   0.55127   0.55216   0.55455   0.56175
 Alpha virt. eigenvalues --    0.56479   0.57746   0.58078   0.58403   0.59144
 Alpha virt. eigenvalues --    0.60070   0.61169   0.62436   0.62742   0.62835
 Alpha virt. eigenvalues --    0.63130   0.64046   0.64771   0.65562   0.67127
 Alpha virt. eigenvalues --    0.67289   0.68226   0.68521   0.69421   0.69606
 Alpha virt. eigenvalues --    0.69811   0.70159   0.70465   0.71104   0.71704
 Alpha virt. eigenvalues --    0.72557   0.73026   0.73300   0.74835   0.75026
 Alpha virt. eigenvalues --    0.76487   0.77158   0.77937   0.78273   0.78985
 Alpha virt. eigenvalues --    0.79581   0.79693   0.80460   0.80671   0.81191
 Alpha virt. eigenvalues --    0.81690   0.81837   0.82397   0.83596   0.84513
 Alpha virt. eigenvalues --    0.84953   0.85403   0.85612   0.85949   0.86813
 Alpha virt. eigenvalues --    0.87807   0.88455   0.88808   0.89504   0.90673
 Alpha virt. eigenvalues --    0.92490   0.92801   0.93506   0.94233   0.94377
 Alpha virt. eigenvalues --    0.95116   0.96078   0.96640   0.96816   0.97064
 Alpha virt. eigenvalues --    0.98131   0.99013   0.99706   1.01111   1.01492
 Alpha virt. eigenvalues --    1.02279   1.03065   1.03221   1.03858   1.04418
 Alpha virt. eigenvalues --    1.05558   1.06326   1.07287   1.07489   1.07885
 Alpha virt. eigenvalues --    1.10398   1.11575   1.11976   1.12312   1.12894
 Alpha virt. eigenvalues --    1.14825   1.15742   1.16460   1.16801   1.17299
 Alpha virt. eigenvalues --    1.18025   1.19164   1.20343   1.22564   1.22630
 Alpha virt. eigenvalues --    1.23172   1.23670   1.25289   1.25574   1.25925
 Alpha virt. eigenvalues --    1.27455   1.27554   1.29222   1.29667   1.29978
 Alpha virt. eigenvalues --    1.30026   1.30879   1.31408   1.31918   1.33152
 Alpha virt. eigenvalues --    1.33823   1.34023   1.34213   1.34943   1.35489
 Alpha virt. eigenvalues --    1.36754   1.37071   1.37473   1.37995   1.39001
 Alpha virt. eigenvalues --    1.39426   1.39834   1.40343   1.41611   1.41997
 Alpha virt. eigenvalues --    1.42017   1.42625   1.43914   1.44991   1.45167
 Alpha virt. eigenvalues --    1.45961   1.46334   1.47868   1.48626   1.48794
 Alpha virt. eigenvalues --    1.50078   1.51023   1.51558   1.51857   1.53412
 Alpha virt. eigenvalues --    1.53431   1.55039   1.55839   1.57413   1.57626
 Alpha virt. eigenvalues --    1.58241   1.58909   1.59628   1.61029   1.61370
 Alpha virt. eigenvalues --    1.63094   1.63618   1.63737   1.64487   1.65535
 Alpha virt. eigenvalues --    1.65943   1.66415   1.67505   1.67758   1.68872
 Alpha virt. eigenvalues --    1.69070   1.70874   1.71226   1.72003   1.72237
 Alpha virt. eigenvalues --    1.73676   1.73847   1.74016   1.74588   1.75391
 Alpha virt. eigenvalues --    1.75647   1.77017   1.77675   1.78010   1.78485
 Alpha virt. eigenvalues --    1.78824   1.78959   1.79905   1.80004   1.82035
 Alpha virt. eigenvalues --    1.83029   1.83199   1.84425   1.85163   1.85471
 Alpha virt. eigenvalues --    1.86377   1.86944   1.87804   1.89635   1.91301
 Alpha virt. eigenvalues --    1.91879   1.92727   1.93558   1.95064   1.95976
 Alpha virt. eigenvalues --    1.96280   1.96672   1.99961   2.00591   2.01869
 Alpha virt. eigenvalues --    2.03010   2.03202   2.06193   2.08508   2.09581
 Alpha virt. eigenvalues --    2.12766   2.13405   2.18833   2.21293   2.22306
 Alpha virt. eigenvalues --    2.24742   2.27108   2.27743   2.29684   2.29693
 Alpha virt. eigenvalues --    2.31155   2.31821   2.33325   2.34067   2.35482
 Alpha virt. eigenvalues --    2.36554   2.39394   2.41627   2.41858   2.43692
 Alpha virt. eigenvalues --    2.45804   2.46469   2.47136   2.49284   2.49451
 Alpha virt. eigenvalues --    2.52862   2.57328   2.59657   2.61601   2.63889
 Alpha virt. eigenvalues --    2.67862   2.68267   2.68974   2.69200   2.71109
 Alpha virt. eigenvalues --    2.72676   2.76093   2.76611   2.79547   2.81389
 Alpha virt. eigenvalues --    2.81436   2.82882   2.86746   2.89695   2.89816
 Alpha virt. eigenvalues --    2.93911   2.96289   2.96936   2.97665   2.99847
 Alpha virt. eigenvalues --    3.00564   3.01845   3.02926   3.04480   3.06006
 Alpha virt. eigenvalues --    3.06582   3.07214   3.08745   3.08827   3.09952
 Alpha virt. eigenvalues --    3.10922   3.11084   3.11960   3.12527   3.12969
 Alpha virt. eigenvalues --    3.13996   3.16366   3.16472   3.16719   3.17510
 Alpha virt. eigenvalues --    3.17819   3.19210   3.19665   3.20385   3.20863
 Alpha virt. eigenvalues --    3.22958   3.23093   3.25399   3.25572   3.25666
 Alpha virt. eigenvalues --    3.26176   3.26556   3.28985   3.32126   3.34674
 Alpha virt. eigenvalues --    3.34753   3.35158   3.35478   3.36043   3.37256
 Alpha virt. eigenvalues --    3.37688   3.38688   3.39417   3.40685   3.41513
 Alpha virt. eigenvalues --    3.42186   3.42570   3.44808   3.45282   3.46035
 Alpha virt. eigenvalues --    3.46233   3.47619   3.49024   3.49809   3.49975
 Alpha virt. eigenvalues --    3.49986   3.50748   3.51823   3.52937   3.53421
 Alpha virt. eigenvalues --    3.54829   3.57069   3.57108   3.58550   3.61603
 Alpha virt. eigenvalues --    3.61941   3.62264   3.64279   3.65779   3.65976
 Alpha virt. eigenvalues --    3.66714   3.67620   3.68679   3.68717   3.69277
 Alpha virt. eigenvalues --    3.69693   3.70757   3.71642   3.72089   3.72393
 Alpha virt. eigenvalues --    3.73014   3.74583   3.76294   3.76313   3.78649
 Alpha virt. eigenvalues --    3.79168   3.80005   3.81858   3.82680   3.82912
 Alpha virt. eigenvalues --    3.84183   3.85353   3.86717   3.87597   3.87828
 Alpha virt. eigenvalues --    3.88349   3.90238   3.90745   3.91243   3.92479
 Alpha virt. eigenvalues --    3.93164   3.93280   3.95413   3.96070   3.98538
 Alpha virt. eigenvalues --    3.99306   3.99653   3.99819   4.02205   4.03838
 Alpha virt. eigenvalues --    4.04725   4.07115   4.07245   4.08290   4.10330
 Alpha virt. eigenvalues --    4.10761   4.10865   4.14407   4.14973   4.15379
 Alpha virt. eigenvalues --    4.17551   4.19338   4.21056   4.23954   4.24714
 Alpha virt. eigenvalues --    4.25992   4.26499   4.28233   4.30252   4.31879
 Alpha virt. eigenvalues --    4.32592   4.32878   4.34515   4.35677   4.37456
 Alpha virt. eigenvalues --    4.38802   4.39157   4.39170   4.40786   4.41573
 Alpha virt. eigenvalues --    4.44409   4.44924   4.48996   4.49218   4.53001
 Alpha virt. eigenvalues --    4.55587   4.55852   4.56110   4.58215   4.58709
 Alpha virt. eigenvalues --    4.60879   4.61079   4.61320   4.62607   4.62747
 Alpha virt. eigenvalues --    4.63890   4.67148   4.67494   4.69119   4.70652
 Alpha virt. eigenvalues --    4.72095   4.72878   4.73066   4.76138   4.76359
 Alpha virt. eigenvalues --    4.77760   4.78098   4.78679   4.79035   4.79999
 Alpha virt. eigenvalues --    4.81683   4.83271   4.83301   4.84969   4.86052
 Alpha virt. eigenvalues --    4.86301   4.89282   4.89613   4.91490   4.91895
 Alpha virt. eigenvalues --    4.92531   4.93101   4.94709   4.95452   4.96003
 Alpha virt. eigenvalues --    4.97980   4.99650   5.00682   5.01258   5.04359
 Alpha virt. eigenvalues --    5.05007   5.06108   5.06528   5.08924   5.09942
 Alpha virt. eigenvalues --    5.13128   5.15788   5.16456   5.17637   5.26261
 Alpha virt. eigenvalues --    5.31525   5.31739   5.34346   5.38563   5.40849
 Alpha virt. eigenvalues --    5.49584   5.50032   5.52303   5.54957   5.60289
 Alpha virt. eigenvalues --    5.60335   5.62616   5.63717   5.65472   5.65742
 Alpha virt. eigenvalues --    5.66401   5.67409   5.68726   5.71236   5.71883
 Alpha virt. eigenvalues --    5.73390   5.76034   5.79119   5.82335   5.85332
 Alpha virt. eigenvalues --    5.85878   5.87712   5.91172   5.93594   5.94341
 Alpha virt. eigenvalues --    5.98076   5.98820   6.00941   6.05445   6.05819
 Alpha virt. eigenvalues --    6.11962   6.13296   6.14736   6.15084   6.21860
 Alpha virt. eigenvalues --    6.23880   6.27927   6.31096   6.32428   6.40022
 Alpha virt. eigenvalues --    6.42348   6.48889   6.50997   6.63545   6.65995
 Alpha virt. eigenvalues --    6.85881   6.89198   6.91606   6.93702   6.95526
 Alpha virt. eigenvalues --    6.96107   6.96261   6.96674   6.98243   6.99369
 Alpha virt. eigenvalues --    6.99997   7.04276   7.07009   7.07091   7.08215
 Alpha virt. eigenvalues --    7.08338   7.08848   7.09087   7.09362   7.09652
 Alpha virt. eigenvalues --    7.10182   7.10690   7.11108   7.11776   7.11846
 Alpha virt. eigenvalues --    7.12460   7.13462   7.14447   7.14634   7.15642
 Alpha virt. eigenvalues --    7.16077   7.17133   7.17203   7.18055   7.20328
 Alpha virt. eigenvalues --    7.20962   7.21028   7.23091   7.23512   7.25354
 Alpha virt. eigenvalues --    7.27726   7.30088   7.30101   7.31769   7.33344
 Alpha virt. eigenvalues --    7.35739   7.36942   7.37664   7.38266   7.39944
 Alpha virt. eigenvalues --    7.40439   7.41104   7.44018   7.56967   7.60126
 Alpha virt. eigenvalues --    7.67359   7.68275   7.73067   7.76210   7.79293
 Alpha virt. eigenvalues --    7.83419   7.85044   7.87315   7.95126   8.15781
 Alpha virt. eigenvalues --    8.29042   8.42918   8.45546   9.26065   9.65221
 Alpha virt. eigenvalues --    9.67525   9.69601   9.72800   9.75981   9.76120
 Alpha virt. eigenvalues --    9.77065   9.79698   9.93034   9.97515   9.98459
 Alpha virt. eigenvalues --   10.00019  10.08096  10.22855  10.23459  10.24000
 Alpha virt. eigenvalues --   10.26488  10.41908  10.46547  10.47930  10.53478
 Alpha virt. eigenvalues --   10.57339  10.62431  10.63182  10.64316  10.67617
 Alpha virt. eigenvalues --   18.79117  18.86908  18.88467  21.79388  21.89841
 Alpha virt. eigenvalues --   22.18215  25.03766  25.38085  25.50962  25.58266
 Alpha virt. eigenvalues --   25.60747  25.66065  25.85495  25.87341  26.10552
 Alpha virt. eigenvalues --   26.28908  37.35981  51.79409  51.94794  68.85750
 Alpha virt. eigenvalues --   68.91747  68.92620  68.95648  69.01026 193.13658
 Alpha virt. eigenvalues --  220.07735
          Condensed to atoms (all electrons):
               1          2          3          4          5          6
     1  C   31.729201  -0.692879   0.625734  -0.186556  -0.105911  -0.062025
     2  N   -0.692879   7.000607   0.454726   0.009746   0.106831  -0.223555
     3  C    0.625734   0.454726   6.537441   0.454261   0.268501  -0.653942
     4  O   -0.186556   0.009746   0.454261   8.133228  -0.072837  -0.120668
     5  O   -0.105911   0.106831   0.268501  -0.072837   8.081132   0.204954
     6  C   -0.062025  -0.223555  -0.653942  -0.120668   0.204954   6.728126
     7  C    0.037111  -0.049357   0.126190   0.058055  -0.214403  -0.606391
     8  C   -0.006373  -0.005318  -0.166591   0.002538   0.026622   0.357525
     9  C  -12.850692   0.362909  -0.881938   0.151532  -0.000624  -0.475204
    10  C  -12.555901   0.252307  -0.576102   0.060751   0.003992  -0.070528
    11  C    1.122720  -0.027174  -0.041042   0.005096  -0.002350  -0.002099
    12  C   -0.085590  -0.004300  -0.284332  -0.009547   0.006285  -0.029932
    13  C    1.075087  -0.144433  -0.168962  -0.012982   0.013458   0.018435
    14  H    0.128073   0.402655   0.008445   0.007607  -0.010879   0.007100
    15  H   -0.000544   0.006706   0.042171  -0.010393  -0.048334   0.455811
    16  H   -0.000550   0.006694   0.041986  -0.010376  -0.048299   0.455782
    17  H    0.001018   0.001732   0.001382  -0.001109   0.001158  -0.021521
    18  H    0.000989   0.001735   0.001329  -0.001110   0.001153  -0.021562
    19  H   -0.000187   0.000064  -0.000678   0.000335  -0.000151  -0.023653
    20  H    0.000291  -0.000759   0.003236   0.000502  -0.002593   0.013452
    21  H   -0.000183   0.000062  -0.000666   0.000337  -0.000152  -0.023637
    22  H   -0.709881  -0.019323  -0.003968  -0.021293   0.005538   0.005472
    23  Cl  -0.098522  -0.002233  -0.012355  -0.000186  -0.000136  -0.000875
    24  H   -0.270581  -0.022194  -0.017050  -0.000818   0.001022  -0.001524
    25  S   -0.867641   0.025899  -0.154553   0.010120   0.000247  -0.018870
    26  H   -0.082392   0.000291  -0.003175   0.000018  -0.000003  -0.000196
    27  F    0.067190   0.000619   0.016082  -0.001169   0.000056   0.000646
    28  F    0.023698  -0.000098   0.000223   0.000080  -0.000002   0.000005
    29  F    0.067127   0.000619   0.016091  -0.001170   0.000056   0.000647
    30  F    0.023666  -0.000097   0.000223   0.000080  -0.000002   0.000005
    31  F    0.002151  -0.000229  -0.000133   0.000059  -0.000000   0.000035
               7          8          9         10         11         12
     1  C    0.037111  -0.006373 -12.850692 -12.555901   1.122720  -0.085590
     2  N   -0.049357  -0.005318   0.362909   0.252307  -0.027174  -0.004300
     3  C    0.126190  -0.166591  -0.881938  -0.576102  -0.041042  -0.284332
     4  O    0.058055   0.002538   0.151532   0.060751   0.005096  -0.009547
     5  O   -0.214403   0.026622  -0.000624   0.003992  -0.002350   0.006285
     6  C   -0.606391   0.357525  -0.475204  -0.070528  -0.002099  -0.029932
     7  C    5.827766  -0.081520  -0.015118  -0.008240   0.000933   0.000715
     8  C   -0.081520   5.157887  -0.008746  -0.000472  -0.000033   0.000020
     9  C   -0.015118  -0.008746  19.277261   4.284679  -1.811813  -2.211818
    10  C   -0.008240  -0.000472   4.284679  21.096361  -1.280371  -3.249023
    11  C    0.000933  -0.000033  -1.811813  -1.280371  10.479424   0.108202
    12  C    0.000715   0.000020  -2.211818  -3.249023   0.108202  10.848175
    13  C   -0.001596   0.001823  -0.702213  -1.037704  -2.463107   1.382720
    14  H   -0.005928  -0.004226  -0.106645  -0.014282  -0.005885  -0.031919
    15  H   -0.070743  -0.009547   0.001166   0.000412  -0.000124   0.000214
    16  H   -0.070455  -0.009536   0.001109   0.000401  -0.000124   0.000213
    17  H    0.427792  -0.027488  -0.000177  -0.000052   0.000015   0.000077
    18  H    0.427899  -0.027507  -0.000150  -0.000048   0.000014   0.000077
    19  H   -0.005361   0.419285   0.000364   0.000028   0.000000  -0.000012
    20  H   -0.033835   0.407297  -0.000446  -0.000049   0.000003  -0.000004
    21  H   -0.005339   0.419261   0.000359   0.000027   0.000000  -0.000012
    22  H    0.003714   0.000396   0.804511   0.430950  -0.102142  -0.043925
    23  Cl  -0.000012  -0.000001   0.132688   0.129510  -0.122950  -0.560985
    24  H    0.000063   0.000253   0.165424   0.095077  -0.006434  -0.041661
    25  S   -0.000265  -0.000166  -0.124352  -1.325495   0.070602  -0.267607
    26  H    0.000016   0.000000   0.030620   0.144368   0.419792  -0.074561
    27  F   -0.000015   0.000002   0.056033  -0.130327   0.014091  -0.005638
    28  F    0.000000  -0.000000   0.016447  -0.085154   0.016150   0.048494
    29  F   -0.000015   0.000002   0.055977  -0.130216   0.014048  -0.005668
    30  F    0.000000  -0.000000   0.016448  -0.085179   0.016178   0.048450
    31  F    0.000001   0.000000   0.000685  -0.139302  -0.011449  -0.017180
              13         14         15         16         17         18
     1  C    1.075087   0.128073  -0.000544  -0.000550   0.001018   0.000989
     2  N   -0.144433   0.402655   0.006706   0.006694   0.001732   0.001735
     3  C   -0.168962   0.008445   0.042171   0.041986   0.001382   0.001329
     4  O   -0.012982   0.007607  -0.010393  -0.010376  -0.001109  -0.001110
     5  O    0.013458  -0.010879  -0.048334  -0.048299   0.001158   0.001153
     6  C    0.018435   0.007100   0.455811   0.455782  -0.021521  -0.021562
     7  C   -0.001596  -0.005928  -0.070743  -0.070455   0.427792   0.427899
     8  C    0.001823  -0.004226  -0.009547  -0.009536  -0.027488  -0.027507
     9  C   -0.702213  -0.106645   0.001166   0.001109  -0.000177  -0.000150
    10  C   -1.037704  -0.014282   0.000412   0.000401  -0.000052  -0.000048
    11  C   -2.463107  -0.005885  -0.000124  -0.000124   0.000015   0.000014
    12  C    1.382720  -0.031919   0.000214   0.000213   0.000077   0.000077
    13  C    8.173543  -0.042115   0.000064   0.000070   0.000081   0.000078
    14  H   -0.042115   0.461321   0.000398   0.000398   0.000462   0.000463
    15  H    0.000064   0.000398   0.585969  -0.051165   0.007647  -0.010288
    16  H    0.000070   0.000398  -0.051165   0.585937  -0.010292   0.007641
    17  H    0.000081   0.000462   0.007647  -0.010292   0.627913  -0.048313
    18  H    0.000078   0.000463  -0.010288   0.007641  -0.048313   0.627893
    19  H   -0.000055   0.000012   0.000215  -0.000139  -0.007997   0.005592
    20  H   -0.000014   0.000032  -0.002007  -0.001994  -0.005653  -0.005631
    21  H   -0.000055   0.000012  -0.000138   0.000212   0.005594  -0.008001
    22  H    0.053764  -0.011482  -0.001531  -0.001531  -0.000088  -0.000087
    23  Cl  -0.046026  -0.004895   0.000012   0.000012  -0.000002  -0.000002
    24  H    0.439282  -0.001843  -0.000024  -0.000024  -0.000065  -0.000065
    25  S   -0.220071  -0.000445   0.000381   0.000382   0.000013   0.000014
    26  H    0.021671  -0.000479  -0.000011  -0.000011  -0.000001  -0.000001
    27  F    0.003523   0.000158   0.000015  -0.000016   0.000000  -0.000001
    28  F    0.003775   0.000058   0.000000  -0.000001   0.000000  -0.000000
    29  F    0.003523   0.000158  -0.000016   0.000015  -0.000001   0.000000
    30  F    0.003769   0.000058  -0.000001   0.000000  -0.000000   0.000000
    31  F   -0.004487  -0.000020   0.000000   0.000000  -0.000000  -0.000000
              19         20         21         22         23         24
     1  C   -0.000187   0.000291  -0.000183  -0.709881  -0.098522  -0.270581
     2  N    0.000064  -0.000759   0.000062  -0.019323  -0.002233  -0.022194
     3  C   -0.000678   0.003236  -0.000666  -0.003968  -0.012355  -0.017050
     4  O    0.000335   0.000502   0.000337  -0.021293  -0.000186  -0.000818
     5  O   -0.000151  -0.002593  -0.000152   0.005538  -0.000136   0.001022
     6  C   -0.023653   0.013452  -0.023637   0.005472  -0.000875  -0.001524
     7  C   -0.005361  -0.033835  -0.005339   0.003714  -0.000012   0.000063
     8  C    0.419285   0.407297   0.419261   0.000396  -0.000001   0.000253
     9  C    0.000364  -0.000446   0.000359   0.804511   0.132688   0.165424
    10  C    0.000028  -0.000049   0.000027   0.430950   0.129510   0.095077
    11  C    0.000000   0.000003   0.000000  -0.102142  -0.122950  -0.006434
    12  C   -0.000012  -0.000004  -0.000012  -0.043925  -0.560985  -0.041661
    13  C   -0.000055  -0.000014  -0.000055   0.053764  -0.046026   0.439282
    14  H    0.000012   0.000032   0.000012  -0.011482  -0.004895  -0.001843
    15  H    0.000215  -0.002007  -0.000138  -0.001531   0.000012  -0.000024
    16  H   -0.000139  -0.001994   0.000212  -0.001531   0.000012  -0.000024
    17  H   -0.007997  -0.005653   0.005594  -0.000088  -0.000002  -0.000065
    18  H    0.005592  -0.005631  -0.008001  -0.000087  -0.000002  -0.000065
    19  H    0.621476  -0.025598  -0.042429   0.000076  -0.000000   0.000003
    20  H   -0.025598   0.588818  -0.025612   0.000037  -0.000000  -0.000003
    21  H   -0.042429  -0.025612   0.621479   0.000076  -0.000000   0.000003
    22  H    0.000076   0.000037   0.000076   0.477509   0.002043   0.007702
    23  Cl  -0.000000  -0.000000  -0.000000   0.002043  17.789402   0.013397
    24  H    0.000003  -0.000003   0.000003   0.007702   0.013397   0.507803
    25  S   -0.000007  -0.000004  -0.000007  -0.154770  -0.005388  -0.004460
    26  H    0.000000   0.000000   0.000000   0.007042  -0.003707   0.001903
    27  F   -0.000000  -0.000000   0.000000  -0.017312  -0.000015   0.000016
    28  F   -0.000000   0.000000   0.000000   0.002949  -0.000898  -0.000164
    29  F    0.000000  -0.000000  -0.000000  -0.017313  -0.000015   0.000016
    30  F    0.000000   0.000000  -0.000000   0.002946  -0.000897  -0.000164
    31  F   -0.000000   0.000000  -0.000000  -0.008360  -0.000126  -0.000043
              25         26         27         28         29         30
     1  C   -0.867641  -0.082392   0.067190   0.023698   0.067127   0.023666
     2  N    0.025899   0.000291   0.000619  -0.000098   0.000619  -0.000097
     3  C   -0.154553  -0.003175   0.016082   0.000223   0.016091   0.000223
     4  O    0.010120   0.000018  -0.001169   0.000080  -0.001170   0.000080
     5  O    0.000247  -0.000003   0.000056  -0.000002   0.000056  -0.000002
     6  C   -0.018870  -0.000196   0.000646   0.000005   0.000647   0.000005
     7  C   -0.000265   0.000016  -0.000015   0.000000  -0.000015   0.000000
     8  C   -0.000166   0.000000   0.000002  -0.000000   0.000002  -0.000000
     9  C   -0.124352   0.030620   0.056033   0.016447   0.055977   0.016448
    10  C   -1.325495   0.144368  -0.130327  -0.085154  -0.130216  -0.085179
    11  C    0.070602   0.419792   0.014091   0.016150   0.014048   0.016178
    12  C   -0.267607  -0.074561  -0.005638   0.048494  -0.005668   0.048450
    13  C   -0.220071   0.021671   0.003523   0.003775   0.003523   0.003769
    14  H   -0.000445  -0.000479   0.000158   0.000058   0.000158   0.000058
    15  H    0.000381  -0.000011   0.000015   0.000000  -0.000016  -0.000001
    16  H    0.000382  -0.000011  -0.000016  -0.000001   0.000015   0.000000
    17  H    0.000013  -0.000001   0.000000   0.000000  -0.000001  -0.000000
    18  H    0.000014  -0.000001  -0.000001  -0.000000   0.000000   0.000000
    19  H   -0.000007   0.000000  -0.000000  -0.000000   0.000000   0.000000
    20  H   -0.000004   0.000000  -0.000000   0.000000  -0.000000   0.000000
    21  H   -0.000007   0.000000   0.000000   0.000000  -0.000000  -0.000000
    22  H   -0.154770   0.007042  -0.017312   0.002949  -0.017313   0.002946
    23  Cl  -0.005388  -0.003707  -0.000015  -0.000898  -0.000015  -0.000897
    24  H   -0.004460   0.001903   0.000016  -0.000164   0.000016  -0.000164
    25  S   17.202309  -0.068760  -0.182335  -0.215503  -0.182261  -0.215463
    26  H   -0.068760   0.439864   0.003422  -0.005983   0.003422  -0.005983
    27  F   -0.182335   0.003422   9.529210   0.036593   0.090839  -0.061792
    28  F   -0.215503  -0.005983   0.036593   9.561532  -0.061794   0.103993
    29  F   -0.182261   0.003422   0.090839  -0.061794   9.529213   0.036602
    30  F   -0.215463  -0.005983  -0.061792   0.103993   0.036602   9.561557
    31  F    0.154360  -0.004383   0.043321   0.050350   0.043307   0.050360
              31
     1  C    0.002151
     2  N   -0.000229
     3  C   -0.000133
     4  O    0.000059
     5  O   -0.000000
     6  C    0.000035
     7  C    0.000001
     8  C    0.000000
     9  C    0.000685
    10  C   -0.139302
    11  C   -0.011449
    12  C   -0.017180
    13  C   -0.004487
    14  H   -0.000020
    15  H    0.000000
    16  H    0.000000
    17  H   -0.000000
    18  H   -0.000000
    19  H   -0.000000
    20  H    0.000000
    21  H   -0.000000
    22  H   -0.008360
    23  Cl  -0.000126
    24  H   -0.000043
    25  S    0.154360
    26  H   -0.004383
    27  F    0.043321
    28  F    0.050350
    29  F    0.043307
    30  F    0.050360
    31  F    9.238595
 Mulliken charges:
               1
     1  C   -0.327648
     2  N   -0.442252
     3  C    0.367465
     4  O   -0.444133
     5  O   -0.214330
     6  C    0.108185
     7  C    0.258338
     8  C   -0.445389
     9  C   -0.168275
    10  C    0.189583
    11  C   -0.390170
    12  C    0.480072
    13  C   -0.350846
    14  H    0.223636
    15  H    0.103681
    16  H    0.103661
    17  H    0.047875
    18  H    0.047888
    19  H    0.058815
    20  H    0.090536
    21  H    0.058810
    22  H    0.308281
    23  Cl  -0.206836
    24  H    0.135152
    25  S    2.544093
    26  H    0.177215
    27  F   -0.463197
    28  F   -0.494750
    29  F   -0.463191
    30  F   -0.494758
    31  F   -0.397512
 Sum of Mulliken charges =  -0.00000
 Mulliken charges with hydrogens summed into heavy atoms:
               1
     1  C   -0.327648
     2  N   -0.218616
     3  C    0.367465
     4  O   -0.444133
     5  O   -0.214330
     6  C    0.315528
     7  C    0.354102
     8  C   -0.237228
     9  C    0.140006
    10  C    0.189583
    11  C   -0.212955
    12  C    0.480072
    13  C   -0.215694
    23  Cl  -0.206836
    25  S    2.544093
    27  F   -0.463197
    28  F   -0.494750
    29  F   -0.463191
    30  F   -0.494758
    31  F   -0.397512
 Electronic spatial extent (au):  <R**2>=           9659.6300
 Charge=             -0.0000 electrons
 Dipole moment (field-independent basis, Debye):
    X=              5.5624    Y=              3.6309    Z=             -0.0007  Tot=              6.6426
 Quadrupole moment (field-independent basis, Debye-Ang):
   XX=           -114.0991   YY=           -133.0676   ZZ=           -131.2365
   XY=             -1.1575   XZ=             -0.0015   YZ=              0.0008
 Traceless Quadrupole moment (field-independent basis, Debye-Ang):
   XX=             12.0353   YY=             -6.9332   ZZ=             -5.1021
   XY=             -1.1575   XZ=             -0.0015   YZ=              0.0008
 Octapole moment (field-independent basis, Debye-Ang**2):
  XXX=             79.2635  YYY=            -39.5645  ZZZ=             -0.0003  XYY=              0.0288
  XXY=             -8.2504  XXZ=              0.0018  XZZ=            -13.1975  YZZ=            -21.1050
  YYZ=             -0.0045  XYZ=              0.0033
 Hexadecapole moment (field-independent basis, Debye-Ang**3):
 XXXX=          -8213.9629 YYYY=          -2757.2455 ZZZZ=           -299.3477 XXXY=              3.2309
 XXXZ=              0.0018 YYYX=            178.2190 YYYZ=             -0.0066 ZZZX=             -0.0088
 ZZZY=              0.0015 XXYY=          -1986.6642 XXZZ=          -1546.8588 YYZZ=           -521.4293
 XXYZ=              0.0183 YYXZ=             -0.0140 ZZXY=             41.0246
 N-N= 2.027328605226D+03 E-N=-8.661062717484D+03  KE= 1.942219971380D+03
 1\1\GINC-R3714\SP\RMP2-FC\Gen\C10H11Cl1F5N1O2S1\ROOT\09-Dec-2019\0\\# 
 MP2/Gen 5D SCF=Tight INT(grid=ultrafine) maxdisk=3489660928\\CP22CA.MP
 2_GTMP2LARGE\\0,1\C,0,-5.8850653888,1.2485276222,0.2169643586\N,0,-4.6
 148365768,0.6712965052,0.1442754525\C,0,-3.4042293798,1.3229091055,0.1
 061891376\O,0,-3.2363729909,2.5133960652,0.129457359\O,0,-2.4237232336
 ,0.4107499718,0.0379678909\C,0,-1.0893537805,0.9438254586,-0.008838714
 6\C,0,-0.1301781247,-0.2240138484,-0.0834309874\C,0,1.3156248667,0.262
 3663639,-0.1365505101\C,0,-6.093613361,2.6300491127,0.2627860152\C,0,-
 7.3995706703,3.084345967,0.3339561154\C,0,-8.5088886159,2.2562518753,0
 .3624483165\C,0,-8.2657085414,0.8906930633,0.3154629426\C,0,-6.9811981
 273,0.3811048469,0.2438057615\H,0,-4.5624644233,-0.336209351,0.1155702
 556\H,0,-0.9224485164,1.5507014193,0.8842424698\H,0,-1.0029293345,1.59
 7293356,-0.8801912677\H,0,-0.3642618935,-0.8213069013,-0.9687968991\H,
 0,-0.2841523952,-0.8676709298,0.7868709884\H,0,1.4903205477,0.89314079
 82,-1.0114654601\H,0,2.0089540257,-0.5777224768,-0.1904668651\H,0,1.57
 07895556,0.8464498438,0.7509228164\H,0,-5.2582936836,3.312402964,0.242
 8738608\Cl,0,-9.6087554177,-0.2111412185,0.3473381294\H,0,-6.834429165
 4,-0.6926059542,0.2088766481\S,0,-7.6713237805,4.8765224224,0.39350654
 76\H,0,-9.5171530304,2.6416664965,0.4183148583\F,0,-6.610037443,5.1462
 458464,-0.7896323887\F,0,-8.8624274017,4.795917381,-0.6954515179\F,0,-
 6.5063752001,5.0862927603,1.4879468545\F,0,-8.7588393883,4.7359846604,
 1.5803581536\F,0,-7.9181391312,6.461826774,0.4464796784\\Version=ES64L
 -G09RevE.01\State=1-A\HF=-1943.7915133\MP2=-1947.7237901\RMSD=5.013e-0
 9\PG=C01 [X(C10H11Cl1F5N1O2S1)]\\@


 BRING ME INTO THE COMPANY OF THOSE WHO SEEK TRUTH,
 AND DELIVER ME FROM THOSE WHO HAVE FOUND IT.
 Job cpu time:       0 days  5 hours 37 minutes 44.7 seconds.
 File lengths (MBytes):  RWF=    368 Int=      0 D2E=      0 Chk=     40 Scr=      1
 Normal termination of Gaussian 09 at Mon Dec  9 12:51:54 2019.
pbs_rusage has been removed.
Please contact help@nci.org.au if you require this functionality.
