 Entering Gaussian System, Link 0=/apps/gaussian/g09e01/g09/g09
 Initial command:
 /apps/gaussian/g09e01/g09/l1.exe "/jobfs/local/3709723.r-man2/Gau-49598.inp" -scrdir="/jobfs/local/3709723.r-man2/"
 Entering Link 1 = /apps/gaussian/g09e01/g09/l1.exe PID=     49599.
  
 Copyright (c) 1988,1990,1992,1993,1995,1998,2003,2009,2015,
            Gaussian, Inc.  All Rights Reserved.
  
 This is part of the Gaussian(R) 09 program.  It is based on
 the Gaussian(R) 03 system (copyright 2003, Gaussian, Inc.),
 the Gaussian(R) 98 system (copyright 1998, Gaussian, Inc.),
 the Gaussian(R) 94 system (copyright 1995, Gaussian, Inc.),
 the Gaussian 92(TM) system (copyright 1992, Gaussian, Inc.),
 the Gaussian 90(TM) system (copyright 1990, Gaussian, Inc.),
 the Gaussian 88(TM) system (copyright 1988, Gaussian, Inc.),
 the Gaussian 86(TM) system (copyright 1986, Carnegie Mellon
 University), and the Gaussian 82(TM) system (copyright 1983,
 Carnegie Mellon University). Gaussian is a federally registered
 trademark of Gaussian, Inc.
  
 This software contains proprietary and confidential information,
 including trade secrets, belonging to Gaussian, Inc.
  
 This software is provided under written license and may be
 used, copied, transmitted, or stored only in accord with that
 written license.
  
 The following legend is applicable only to US Government
 contracts under FAR:
  
                    RESTRICTED RIGHTS LEGEND
  
 Use, reproduction and disclosure by the US Government is
 subject to restrictions as set forth in subparagraphs (a)
 and (c) of the Commercial Computer Software - Restricted
 Rights clause in FAR 52.227-19.
  
 Gaussian, Inc.
 340 Quinnipiac St., Bldg. 40, Wallingford CT 06492
  
  
 ---------------------------------------------------------------
 Warning -- This program may not be used in any manner that
 competes with the business of Gaussian, Inc. or will provide
 assistance to any competitor of Gaussian, Inc.  The licensee
 of this program is prohibited from giving any competitor of
 Gaussian, Inc. access to this program.  By using this program,
 the user acknowledges that Gaussian, Inc. is engaged in the
 business of creating and licensing software in the field of
 computational chemistry and represents and warrants to the
 licensee that it is not a competitor of Gaussian, Inc. and that
 it will not use this program in any manner prohibited above.
 ---------------------------------------------------------------
  

 Cite this work as:
 Gaussian 09, Revision E.01,
 M. J. Frisch, G. W. Trucks, H. B. Schlegel, G. E. Scuseria, 
 M. A. Robb, J. R. Cheeseman, G. Scalmani, V. Barone, B. Mennucci, 
 G. A. Petersson, H. Nakatsuji, M. Caricato, X. Li, H. P. Hratchian, 
 A. F. Izmaylov, J. Bloino, G. Zheng, J. L. Sonnenberg, M. Hada, 
 M. Ehara, K. Toyota, R. Fukuda, J. Hasegawa, M. Ishida, T. Nakajima, 
 Y. Honda, O. Kitao, H. Nakai, T. Vreven, J. A. Montgomery, Jr., 
 J. E. Peralta, F. Ogliaro, M. Bearpark, J. J. Heyd, E. Brothers, 
 K. N. Kudin, V. N. Staroverov, T. Keith, R. Kobayashi, J. Normand, 
 K. Raghavachari, A. Rendell, J. C. Burant, S. S. Iyengar, J. Tomasi, 
 M. Cossi, N. Rega, J. M. Millam, M. Klene, J. E. Knox, J. B. Cross, 
 V. Bakken, C. Adamo, J. Jaramillo, R. Gomperts, R. E. Stratmann, 
 O. Yazyev, A. J. Austin, R. Cammi, C. Pomelli, J. W. Ochterski, 
 R. L. Martin, K. Morokuma, V. G. Zakrzewski, G. A. Voth, 
 P. Salvador, J. J. Dannenberg, S. Dapprich, A. D. Daniels, 
 O. Farkas, J. B. Foresman, J. V. Ortiz, J. Cioslowski, 
 and D. J. Fox, Gaussian, Inc., Wallingford CT, 2013.
 
 ******************************************
 Gaussian 09:  ES64L-G09RevE.01 30-Nov-2015
                20-Nov-2019 
 ******************************************
 %chk=CP22_carboxy.M062X_6-311pGd_opt_GD3.chk
 %mem=196608000
 %nproc=8
 Will use up to    8 processors via shared memory.
 ----------------------------------------------------------------------
 # M062X/6-311+G* SCF=Tight INT(grid=ultrafine) OPT=CalcFC IOP(2/17=4) 
 EmpiricalDispersion=GD3 maxdisk=3221225472
 ----------------------------------------------------------------------
 1/10=4,14=-1,18=20,19=15,26=4,38=1/1,3;
 2/9=110,12=2,17=4,18=5,40=1/2;
 3/5=4,6=6,7=11,11=2,16=1,25=1,30=1,71=2,74=-55,75=-5,124=31,140=1/1,2,3;
 4//1;
 5/5=2,32=2,38=5/2;
 8/6=4,10=90,11=11/1;
 11/6=1,8=1,9=11,15=111,16=1/1,2,10;
 10/6=1,13=1/2;
 6/7=2,8=2,9=2,10=2,28=1/1;
 7/10=1,18=20,25=1/1,2,3,16;
 1/10=4,14=-1,18=20,19=15,26=4/3(2);
 2/9=110,17=4/2;
 99//99;
 2/9=110,17=4/2;
 3/5=4,6=6,7=11,11=2,16=1,25=1,30=1,71=1,74=-55,75=-5,124=31/1,2,3;
 4/5=5,16=3,69=1/1;
 5/5=2,32=2,38=5/2;
 7//1,2,3,16;
 1/14=-1,18=20,19=15,26=4/3(-5);
 2/9=110,17=4/2;
 6/7=2,8=2,9=2,10=2,19=2,28=1/1;
 99/9=1/99;
 -----------------------------------
 CP22_carboxy.M062X_6-311pGd_opt_GD3
 -----------------------------------
 Symbolic Z-matrix:
 Charge = -1 Multiplicity = 1
 C                    -5.89862   1.22189   0.1251 
 N                    -4.66213   0.62671   0.03801 
 C                    -3.4246    1.26019   0.04136 
 O                    -3.28337   2.47695   0.12204 
 N                    -2.39219   0.39603  -0.05172 
 C                    -1.03037   0.88863  -0.0873 
 C                    -0.05453  -0.27876  -0.13841 
 C                     1.39108   0.20175  -0.19265 
 C                    -6.11187   2.6075    0.23866 
 C                    -7.41661   3.06017   0.32005 
 C                    -8.53782   2.24634   0.29831 
 C                    -8.28864   0.88411   0.18375 
 C                    -7.01485   0.36174   0.0978 
 H                    -4.68181  -0.41038  -0.04416 
 H                    -2.55736  -0.61689  -0.14315 
 H                    -0.83668   1.50681   0.79641 
 H                    -0.88741   1.53877  -0.9589 
 H                    -0.28157  -0.89992  -1.00988 
 H                    -0.21021  -0.91485   0.73808 
 H                     1.57098   0.81669  -1.07917 
 H                     2.08819  -0.6386   -0.22563 
 H                     1.641     0.80598   0.68428 
 H                    -5.2673    3.27821   0.26005 
 Cl                   -9.65531  -0.2075    0.14714 
 H                    -6.85221  -0.70748   0.00827 
 S                    -7.6802    4.84509   0.46454 
 H                    -9.54494   2.63203   0.36418 
 F                    -6.62826   5.19355  -0.71025 
 F                    -8.88543   4.84294  -0.62184 
 F                    -6.51389   5.02729   1.56645 
 F                    -8.77106   4.67536   1.65371 
 F                    -7.92991   6.4424    0.59416 
 O                    -5.00267  -2.09265  -0.19114 
 O                    -2.79445  -2.39969  -0.32484 
 C                    -3.97528  -2.81034  -0.32464 
 C                    -4.22598  -4.31144  -0.50695 
 C                    -2.96403  -5.15545  -0.60028 
 H                    -4.84076  -4.42451  -1.40587 
 H                    -4.85886  -4.63698   0.3243 
 H                    -2.34384  -4.83847  -1.44048 
 H                    -3.20507  -6.21446  -0.73189 
 H                    -2.35767  -5.05246   0.30172 
 
 Add virtual bond connecting atoms O33        and H14        Dist= 3.25D+00.
 Add virtual bond connecting atoms O34        and H15        Dist= 3.42D+00.

 GradGradGradGradGradGradGradGradGradGradGradGradGradGradGradGradGradGrad
 Berny optimization.
 Initialization pass.
                           ----------------------------
                           !    Initial Parameters    !
                           ! (Angstroms and Degrees)  !
 --------------------------                            --------------------------
 ! Name  Definition              Value          Derivative Info.                !
 --------------------------------------------------------------------------------
 ! R1    R(1,2)                  1.375          calculate D2E/DX2 analytically  !
 ! R2    R(1,9)                  1.4065         calculate D2E/DX2 analytically  !
 ! R3    R(1,13)                 1.4095         calculate D2E/DX2 analytically  !
 ! R4    R(2,3)                  1.3902         calculate D2E/DX2 analytically  !
 ! R5    R(2,14)                 1.0405         calculate D2E/DX2 analytically  !
 ! R6    R(3,4)                  1.2276         calculate D2E/DX2 analytically  !
 ! R7    R(3,5)                  1.3496         calculate D2E/DX2 analytically  !
 ! R8    R(5,6)                  1.4486         calculate D2E/DX2 analytically  !
 ! R9    R(5,15)                 1.0304         calculate D2E/DX2 analytically  !
 ! R10   R(6,7)                  1.5224         calculate D2E/DX2 analytically  !
 ! R11   R(6,16)                 1.0957         calculate D2E/DX2 analytically  !
 ! R12   R(6,17)                 1.0967         calculate D2E/DX2 analytically  !
 ! R13   R(7,8)                  1.5243         calculate D2E/DX2 analytically  !
 ! R14   R(7,18)                 1.094          calculate D2E/DX2 analytically  !
 ! R15   R(7,19)                 1.0941         calculate D2E/DX2 analytically  !
 ! R16   R(8,20)                 1.0938         calculate D2E/DX2 analytically  !
 ! R17   R(8,21)                 1.0924         calculate D2E/DX2 analytically  !
 ! R18   R(8,22)                 1.0939         calculate D2E/DX2 analytically  !
 ! R19   R(9,10)                 1.3834         calculate D2E/DX2 analytically  !
 ! R20   R(9,23)                 1.0787         calculate D2E/DX2 analytically  !
 ! R21   R(10,11)                1.3856         calculate D2E/DX2 analytically  !
 ! R22   R(10,26)                1.8101         calculate D2E/DX2 analytically  !
 ! R23   R(11,12)                1.3896         calculate D2E/DX2 analytically  !
 ! R24   R(11,27)                1.0805         calculate D2E/DX2 analytically  !
 ! R25   R(12,13)                1.3794         calculate D2E/DX2 analytically  !
 ! R26   R(12,24)                1.7495         calculate D2E/DX2 analytically  !
 ! R27   R(13,25)                1.0852         calculate D2E/DX2 analytically  !
 ! R28   R(14,33)                1.7189         calculate D2E/DX2 analytically  !
 ! R29   R(15,34)                1.8077         calculate D2E/DX2 analytically  !
 ! R30   R(26,28)                1.615          calculate D2E/DX2 analytically  !
 ! R31   R(26,29)                1.6226         calculate D2E/DX2 analytically  !
 ! R32   R(26,30)                1.6148         calculate D2E/DX2 analytically  !
 ! R33   R(26,31)                1.6226         calculate D2E/DX2 analytically  !
 ! R34   R(26,32)                1.6219         calculate D2E/DX2 analytically  !
 ! R35   R(33,35)                1.2603         calculate D2E/DX2 analytically  !
 ! R36   R(34,35)                1.2502         calculate D2E/DX2 analytically  !
 ! R37   R(35,36)                1.5328         calculate D2E/DX2 analytically  !
 ! R38   R(36,37)                1.521          calculate D2E/DX2 analytically  !
 ! R39   R(36,38)                1.0949         calculate D2E/DX2 analytically  !
 ! R40   R(36,39)                1.0943         calculate D2E/DX2 analytically  !
 ! R41   R(37,40)                1.0914         calculate D2E/DX2 analytically  !
 ! R42   R(37,41)                1.094          calculate D2E/DX2 analytically  !
 ! R43   R(37,42)                1.0917         calculate D2E/DX2 analytically  !
 ! A1    A(2,1,9)              124.6016         calculate D2E/DX2 analytically  !
 ! A2    A(2,1,13)             116.5374         calculate D2E/DX2 analytically  !
 ! A3    A(9,1,13)             118.861          calculate D2E/DX2 analytically  !
 ! A4    A(1,2,3)              127.0903         calculate D2E/DX2 analytically  !
 ! A5    A(1,2,14)             114.7974         calculate D2E/DX2 analytically  !
 ! A6    A(3,2,14)             118.1111         calculate D2E/DX2 analytically  !
 ! A7    A(2,3,4)              123.6566         calculate D2E/DX2 analytically  !
 ! A8    A(2,3,5)              112.8936         calculate D2E/DX2 analytically  !
 ! A9    A(4,3,5)              123.4497         calculate D2E/DX2 analytically  !
 ! A10   A(3,5,6)              120.2062         calculate D2E/DX2 analytically  !
 ! A11   A(3,5,15)             120.8627         calculate D2E/DX2 analytically  !
 ! A12   A(6,5,15)             118.869          calculate D2E/DX2 analytically  !
 ! A13   A(5,6,7)              110.0387         calculate D2E/DX2 analytically  !
 ! A14   A(5,6,16)             109.7684         calculate D2E/DX2 analytically  !
 ! A15   A(5,6,17)             110.0992         calculate D2E/DX2 analytically  !
 ! A16   A(7,6,16)             110.2663         calculate D2E/DX2 analytically  !
 ! A17   A(7,6,17)             110.1406         calculate D2E/DX2 analytically  !
 ! A18   A(16,6,17)            106.4681         calculate D2E/DX2 analytically  !
 ! A19   A(6,7,8)              111.5529         calculate D2E/DX2 analytically  !
 ! A20   A(6,7,18)             109.2146         calculate D2E/DX2 analytically  !
 ! A21   A(6,7,19)             109.13           calculate D2E/DX2 analytically  !
 ! A22   A(8,7,18)             110.3309         calculate D2E/DX2 analytically  !
 ! A23   A(8,7,19)             110.2859         calculate D2E/DX2 analytically  !
 ! A24   A(18,7,19)            106.1716         calculate D2E/DX2 analytically  !
 ! A25   A(7,8,20)             111.2254         calculate D2E/DX2 analytically  !
 ! A26   A(7,8,21)             111.3329         calculate D2E/DX2 analytically  !
 ! A27   A(7,8,22)             111.2392         calculate D2E/DX2 analytically  !
 ! A28   A(20,8,21)            107.6417         calculate D2E/DX2 analytically  !
 ! A29   A(20,8,22)            107.555          calculate D2E/DX2 analytically  !
 ! A30   A(21,8,22)            107.6587         calculate D2E/DX2 analytically  !
 ! A31   A(1,9,10)             118.0403         calculate D2E/DX2 analytically  !
 ! A32   A(1,9,23)             119.6974         calculate D2E/DX2 analytically  !
 ! A33   A(10,9,23)            122.2623         calculate D2E/DX2 analytically  !
 ! A34   A(9,10,11)            124.7533         calculate D2E/DX2 analytically  !
 ! A35   A(9,10,26)            117.6914         calculate D2E/DX2 analytically  !
 ! A36   A(11,10,26)           117.5553         calculate D2E/DX2 analytically  !
 ! A37   A(10,11,12)           115.5935         calculate D2E/DX2 analytically  !
 ! A38   A(10,11,27)           122.9315         calculate D2E/DX2 analytically  !
 ! A39   A(12,11,27)           121.475          calculate D2E/DX2 analytically  !
 ! A40   A(11,12,13)           122.8178         calculate D2E/DX2 analytically  !
 ! A41   A(11,12,24)           118.2503         calculate D2E/DX2 analytically  !
 ! A42   A(13,12,24)           118.9319         calculate D2E/DX2 analytically  !
 ! A43   A(1,13,12)            119.9341         calculate D2E/DX2 analytically  !
 ! A44   A(1,13,25)            118.959          calculate D2E/DX2 analytically  !
 ! A45   A(12,13,25)           121.1069         calculate D2E/DX2 analytically  !
 ! A46   A(10,26,28)            93.431          calculate D2E/DX2 analytically  !
 ! A47   A(10,26,29)            93.062          calculate D2E/DX2 analytically  !
 ! A48   A(10,26,30)            93.4718         calculate D2E/DX2 analytically  !
 ! A49   A(10,26,31)            93.0528         calculate D2E/DX2 analytically  !
 ! A50   A(28,26,29)            89.8318         calculate D2E/DX2 analytically  !
 ! A51   A(28,26,30)            90.0909         calculate D2E/DX2 analytically  !
 ! A52   A(28,26,32)            86.9002         calculate D2E/DX2 analytically  !
 ! A53   A(29,26,31)            89.4948         calculate D2E/DX2 analytically  !
 ! A54   A(29,26,32)            86.586          calculate D2E/DX2 analytically  !
 ! A55   A(30,26,31)            89.8436         calculate D2E/DX2 analytically  !
 ! A56   A(30,26,32)            86.8784         calculate D2E/DX2 analytically  !
 ! A57   A(31,26,32)            86.6142         calculate D2E/DX2 analytically  !
 ! A58   A(14,33,35)           114.4695         calculate D2E/DX2 analytically  !
 ! A59   A(15,34,35)           116.604          calculate D2E/DX2 analytically  !
 ! A60   A(33,35,34)           125.6558         calculate D2E/DX2 analytically  !
 ! A61   A(33,35,36)           115.9097         calculate D2E/DX2 analytically  !
 ! A62   A(34,35,36)           118.4339         calculate D2E/DX2 analytically  !
 ! A63   A(35,36,37)           114.5208         calculate D2E/DX2 analytically  !
 ! A64   A(35,36,38)           106.8953         calculate D2E/DX2 analytically  !
 ! A65   A(35,36,39)           107.192          calculate D2E/DX2 analytically  !
 ! A66   A(37,36,38)           110.9881         calculate D2E/DX2 analytically  !
 ! A67   A(37,36,39)           111.1843         calculate D2E/DX2 analytically  !
 ! A68   A(38,36,39)           105.557          calculate D2E/DX2 analytically  !
 ! A69   A(36,37,40)           110.9496         calculate D2E/DX2 analytically  !
 ! A70   A(36,37,41)           111.2053         calculate D2E/DX2 analytically  !
 ! A71   A(36,37,42)           110.9626         calculate D2E/DX2 analytically  !
 ! A72   A(40,37,41)           108.2849         calculate D2E/DX2 analytically  !
 ! A73   A(40,37,42)           107.0402         calculate D2E/DX2 analytically  !
 ! A74   A(41,37,42)           108.2449         calculate D2E/DX2 analytically  !
 ! A75   L(2,14,33,7,-1)       189.6617         calculate D2E/DX2 analytically  !
 ! A76   L(5,15,34,1,-1)       181.7035         calculate D2E/DX2 analytically  !
 ! A77   L(10,26,32,28,-1)     180.3311         calculate D2E/DX2 analytically  !
 ! A78   L(28,26,31,10,-1)     186.4838         calculate D2E/DX2 analytically  !
 ! A79   L(29,26,30,10,-1)     186.5338         calculate D2E/DX2 analytically  !
 ! A80   L(2,14,33,7,-2)       180.6876         calculate D2E/DX2 analytically  !
 ! A81   L(5,15,34,1,-2)       179.3469         calculate D2E/DX2 analytically  !
 ! A82   L(10,26,32,28,-2)     179.6476         calculate D2E/DX2 analytically  !
 ! A83   L(28,26,31,10,-2)     180.3281         calculate D2E/DX2 analytically  !
 ! A84   L(29,26,30,10,-2)     180.3146         calculate D2E/DX2 analytically  !
 ! D1    D(9,1,2,3)             -0.2011         calculate D2E/DX2 analytically  !
 ! D2    D(9,1,2,14)          -179.8082         calculate D2E/DX2 analytically  !
 ! D3    D(13,1,2,3)           179.8632         calculate D2E/DX2 analytically  !
 ! D4    D(13,1,2,14)            0.256          calculate D2E/DX2 analytically  !
 ! D5    D(2,1,9,10)          -179.8617         calculate D2E/DX2 analytically  !
 ! D6    D(2,1,9,23)             0.114          calculate D2E/DX2 analytically  !
 ! D7    D(13,1,9,10)            0.0727         calculate D2E/DX2 analytically  !
 ! D8    D(13,1,9,23)         -179.9517         calculate D2E/DX2 analytically  !
 ! D9    D(2,1,13,12)          179.8511         calculate D2E/DX2 analytically  !
 ! D10   D(2,1,13,25)           -0.1784         calculate D2E/DX2 analytically  !
 ! D11   D(9,1,13,12)           -0.0885         calculate D2E/DX2 analytically  !
 ! D12   D(9,1,13,25)          179.8821         calculate D2E/DX2 analytically  !
 ! D13   D(1,2,3,4)             -0.2217         calculate D2E/DX2 analytically  !
 ! D14   D(1,2,3,5)            179.6933         calculate D2E/DX2 analytically  !
 ! D15   D(14,2,3,4)           179.374          calculate D2E/DX2 analytically  !
 ! D16   D(14,2,3,5)            -0.7111         calculate D2E/DX2 analytically  !
 ! D17   D(1,2,33,35)          177.8678         calculate D2E/DX2 analytically  !
 ! D18   D(3,2,33,35)           -1.2693         calculate D2E/DX2 analytically  !
 ! D19   D(2,3,5,6)            178.8507         calculate D2E/DX2 analytically  !
 ! D20   D(2,3,5,15)             1.7493         calculate D2E/DX2 analytically  !
 ! D21   D(4,3,5,6)             -1.2341         calculate D2E/DX2 analytically  !
 ! D22   D(4,3,5,15)          -178.3355         calculate D2E/DX2 analytically  !
 ! D23   D(3,5,6,7)            177.7779         calculate D2E/DX2 analytically  !
 ! D24   D(3,5,6,16)            56.2523         calculate D2E/DX2 analytically  !
 ! D25   D(3,5,6,17)           -60.638          calculate D2E/DX2 analytically  !
 ! D26   D(15,5,6,7)            -5.0634         calculate D2E/DX2 analytically  !
 ! D27   D(15,5,6,16)         -126.589          calculate D2E/DX2 analytically  !
 ! D28   D(15,5,6,17)          116.5207         calculate D2E/DX2 analytically  !
 ! D29   D(3,5,34,35)           -1.6381         calculate D2E/DX2 analytically  !
 ! D30   D(6,5,34,35)         -178.3424         calculate D2E/DX2 analytically  !
 ! D31   D(5,6,7,8)            179.3635         calculate D2E/DX2 analytically  !
 ! D32   D(5,6,7,18)            57.1376         calculate D2E/DX2 analytically  !
 ! D33   D(5,6,7,19)           -58.5254         calculate D2E/DX2 analytically  !
 ! D34   D(16,6,7,8)           -59.4084         calculate D2E/DX2 analytically  !
 ! D35   D(16,6,7,18)          178.3657         calculate D2E/DX2 analytically  !
 ! D36   D(16,6,7,19)           62.7028         calculate D2E/DX2 analytically  !
 ! D37   D(17,6,7,8)            57.804          calculate D2E/DX2 analytically  !
 ! D38   D(17,6,7,18)          -64.4218         calculate D2E/DX2 analytically  !
 ! D39   D(17,6,7,19)          179.9152         calculate D2E/DX2 analytically  !
 ! D40   D(6,7,8,20)           -60.1546         calculate D2E/DX2 analytically  !
 ! D41   D(6,7,8,21)           179.7981         calculate D2E/DX2 analytically  !
 ! D42   D(6,7,8,22)            59.7198         calculate D2E/DX2 analytically  !
 ! D43   D(18,7,8,20)           61.4266         calculate D2E/DX2 analytically  !
 ! D44   D(18,7,8,21)          -58.6207         calculate D2E/DX2 analytically  !
 ! D45   D(18,7,8,22)         -178.699          calculate D2E/DX2 analytically  !
 ! D46   D(19,7,8,20)          178.4027         calculate D2E/DX2 analytically  !
 ! D47   D(19,7,8,21)           58.3553         calculate D2E/DX2 analytically  !
 ! D48   D(19,7,8,22)          -61.7229         calculate D2E/DX2 analytically  !
 ! D49   D(1,9,10,11)            0.0139         calculate D2E/DX2 analytically  !
 ! D50   D(1,9,10,26)         -179.9502         calculate D2E/DX2 analytically  !
 ! D51   D(23,9,10,11)        -179.9611         calculate D2E/DX2 analytically  !
 ! D52   D(23,9,10,26)           0.0748         calculate D2E/DX2 analytically  !
 ! D53   D(9,10,11,12)          -0.0816         calculate D2E/DX2 analytically  !
 ! D54   D(9,10,11,27)         179.982          calculate D2E/DX2 analytically  !
 ! D55   D(26,10,11,12)        179.8825         calculate D2E/DX2 analytically  !
 ! D56   D(26,10,11,27)         -0.0538         calculate D2E/DX2 analytically  !
 ! D57   D(9,10,26,28)          45.9707         calculate D2E/DX2 analytically  !
 ! D58   D(9,10,26,29)         135.9857         calculate D2E/DX2 analytically  !
 ! D59   D(9,10,26,30)         -44.3289         calculate D2E/DX2 analytically  !
 ! D60   D(9,10,26,31)        -134.3574         calculate D2E/DX2 analytically  !
 ! D61   D(11,10,26,28)       -133.996          calculate D2E/DX2 analytically  !
 ! D62   D(11,10,26,29)        -43.981          calculate D2E/DX2 analytically  !
 ! D63   D(11,10,26,30)        135.7044         calculate D2E/DX2 analytically  !
 ! D64   D(11,10,26,31)         45.6758         calculate D2E/DX2 analytically  !
 ! D65   D(10,11,12,13)          0.0646         calculate D2E/DX2 analytically  !
 ! D66   D(10,11,12,24)       -179.9105         calculate D2E/DX2 analytically  !
 ! D67   D(27,11,12,13)       -179.9981         calculate D2E/DX2 analytically  !
 ! D68   D(27,11,12,24)          0.0268         calculate D2E/DX2 analytically  !
 ! D69   D(11,12,13,1)           0.0179         calculate D2E/DX2 analytically  !
 ! D70   D(11,12,13,25)       -179.952          calculate D2E/DX2 analytically  !
 ! D71   D(24,12,13,1)         179.9929         calculate D2E/DX2 analytically  !
 ! D72   D(24,12,13,25)          0.023          calculate D2E/DX2 analytically  !
 ! D73   D(14,33,35,34)          1.7342         calculate D2E/DX2 analytically  !
 ! D74   D(14,33,35,36)       -177.9768         calculate D2E/DX2 analytically  !
 ! D75   D(15,34,35,33)         -1.0241         calculate D2E/DX2 analytically  !
 ! D76   D(15,34,35,36)        178.6803         calculate D2E/DX2 analytically  !
 ! D77   D(33,35,36,37)       -177.2977         calculate D2E/DX2 analytically  !
 ! D78   D(33,35,36,38)         59.3358         calculate D2E/DX2 analytically  !
 ! D79   D(33,35,36,39)        -53.4557         calculate D2E/DX2 analytically  !
 ! D80   D(34,35,36,37)          2.9693         calculate D2E/DX2 analytically  !
 ! D81   D(34,35,36,38)       -120.3971         calculate D2E/DX2 analytically  !
 ! D82   D(34,35,36,39)        126.8113         calculate D2E/DX2 analytically  !
 ! D83   D(35,36,37,40)        -59.267          calculate D2E/DX2 analytically  !
 ! D84   D(35,36,37,41)       -179.857          calculate D2E/DX2 analytically  !
 ! D85   D(35,36,37,42)         59.5951         calculate D2E/DX2 analytically  !
 ! D86   D(38,36,37,40)         61.8729         calculate D2E/DX2 analytically  !
 ! D87   D(38,36,37,41)        -58.7171         calculate D2E/DX2 analytically  !
 ! D88   D(38,36,37,42)       -179.2651         calculate D2E/DX2 analytically  !
 ! D89   D(39,36,37,40)        179.0505         calculate D2E/DX2 analytically  !
 ! D90   D(39,36,37,41)         58.4606         calculate D2E/DX2 analytically  !
 ! D91   D(39,36,37,42)        -62.0874         calculate D2E/DX2 analytically  !
 --------------------------------------------------------------------------------
 Trust Radius=3.00D-01 FncErr=1.00D-07 GrdErr=1.00D-06
 Number of steps in this run=    228 maximum allowed number of steps=    252.
 GradGradGradGradGradGradGradGradGradGradGradGradGradGradGradGradGradGrad

                          Input orientation:                          
 ---------------------------------------------------------------------
 Center     Atomic      Atomic             Coordinates (Angstroms)
 Number     Number       Type             X           Y           Z
 ---------------------------------------------------------------------
      1          6           0       -5.898618    1.221887    0.125098
      2          7           0       -4.662128    0.626708    0.038010
      3          6           0       -3.424600    1.260194    0.041356
      4          8           0       -3.283369    2.476947    0.122041
      5          7           0       -2.392191    0.396033   -0.051718
      6          6           0       -1.030372    0.888635   -0.087298
      7          6           0       -0.054533   -0.278757   -0.138406
      8          6           0        1.391080    0.201752   -0.192650
      9          6           0       -6.111873    2.607501    0.238662
     10          6           0       -7.416605    3.060174    0.320045
     11          6           0       -8.537817    2.246337    0.298312
     12          6           0       -8.288637    0.884113    0.183749
     13          6           0       -7.014847    0.361741    0.097797
     14          1           0       -4.681806   -0.410377   -0.044162
     15          1           0       -2.557356   -0.616892   -0.143150
     16          1           0       -0.836682    1.506811    0.796412
     17          1           0       -0.887407    1.538767   -0.958905
     18          1           0       -0.281571   -0.899924   -1.009881
     19          1           0       -0.210206   -0.914847    0.738080
     20          1           0        1.570985    0.816692   -1.079165
     21          1           0        2.088194   -0.638597   -0.225633
     22          1           0        1.640996    0.805985    0.684285
     23          1           0       -5.267298    3.278210    0.260051
     24         17           0       -9.655314   -0.207502    0.147136
     25          1           0       -6.852210   -0.707482    0.008269
     26         16           0       -7.680200    4.845089    0.464540
     27          1           0       -9.544941    2.632030    0.364182
     28          9           0       -6.628264    5.193550   -0.710246
     29          9           0       -8.885426    4.842941   -0.621838
     30          9           0       -6.513894    5.027292    1.566447
     31          9           0       -8.771058    4.675358    1.653706
     32          9           0       -7.929914    6.442402    0.594160
     33          8           0       -5.002667   -2.092649   -0.191141
     34          8           0       -2.794452   -2.399695   -0.324842
     35          6           0       -3.975281   -2.810344   -0.324635
     36          6           0       -4.225978   -4.311442   -0.506951
     37          6           0       -2.964030   -5.155453   -0.600280
     38          1           0       -4.840759   -4.424507   -1.405873
     39          1           0       -4.858859   -4.636975    0.324297
     40          1           0       -2.343838   -4.838470   -1.440481
     41          1           0       -3.205070   -6.214456   -0.731885
     42          1           0       -2.357671   -5.052457    0.301715
 ---------------------------------------------------------------------
                    Distance matrix (angstroms):
                    1          2          3          4          5
     1  C    0.000000
     2  N    1.375038   0.000000
     3  C    2.475731   1.390249   0.000000
     4  O    2.900812   2.308987   1.227577   0.000000
     5  N    3.606706   2.283392   1.349558   2.270374   0.000000
     6  C    4.884259   3.643344   2.426300   2.764517   1.448610
     7  C    6.039428   4.699034   3.709182   4.252896   2.434645
     8  C    7.367587   6.072489   4.936176   5.208265   3.790876
     9  C    1.406521   2.462836   3.012574   2.833915   4.337159
    10  C    2.391984   3.686250   4.387904   4.178875   5.699175
    11  C    2.836349   4.208553   5.213780   5.262459   6.427665
    12  C    2.414482   3.638553   4.880633   5.252964   5.921297
    13  C    1.409455   2.368347   3.701389   4.289360   4.625201
    14  H    2.042930   1.040521   2.092531   3.212458   2.427487
    15  H    3.823231   2.451413   2.075959   3.188928   1.030367
    16  H    5.114200   3.997974   2.707073   2.717024   2.091115
    17  H    5.136897   4.009266   2.741436   2.790925   2.095997
    18  H    6.110767   4.755835   3.955988   4.657822   2.655616
    19  H    6.107324   4.762993   3.943165   4.618236   2.665191
    20  H    7.576899   6.335288   5.138884   5.269165   4.115745
    21  H    8.208141   6.872944   5.836744   6.219420   4.601581
    22  H    7.571753   6.338706   5.126395   5.230450   4.120238
    23  H    2.155282   2.728735   2.741487   2.144071   4.082939
    24  Cl   4.019503   5.063568   6.402119   6.914375   7.290868
    25  H    2.155331   2.564645   3.952386   4.784366   4.594901
    26  S    4.051771   5.204366   5.580384   5.005748   6.929911
    27  H    3.916802   5.288626   6.280504   6.268171   7.505631
    28  F    4.123626   5.028084   5.128320   4.388730   6.433829
    29  F    4.752996   6.004021   6.564795   6.126526   7.890637
    30  F    4.115478   5.013012   5.104965   4.361978   6.407454
    31  F    4.744894   5.990438   6.545810   6.106860   7.868357
    32  F    5.621384   6.694028   6.889029   6.126834   8.224483
    33  O    3.448026   2.750160   3.712938   4.892370   3.609372
    34  O    4.791048   3.574771   3.731752   4.921421   2.837693
    35  C    4.490031   3.523720   4.123892   5.351048   3.586295
    36  C    5.815062   4.987238   5.655615   6.882323   5.072508
    37  C    7.057510   6.060061   6.464082   7.673152   5.607755
    38  H    5.945141   5.256565   6.034551   7.238097   5.573762
    39  H    5.953742   5.275133   6.075669   7.289099   5.617563
    40  H    7.198293   6.117890   6.368485   7.539199   5.415812
    41  H    7.955427   7.036852   7.517745   8.733603   6.694921
    42  H    7.206725   6.134572   6.407471   7.588223   5.460050
                    6          7          8          9         10
     6  C    0.000000
     7  C    1.522392   0.000000
     8  C    2.519194   1.524345   0.000000
     9  C    5.374234   6.720419   7.891005   0.000000
    10  C    6.757624   8.096835   9.274090   1.383424   0.000000
    11  C    7.638964   8.861881  10.149107   2.453407   1.385612
    12  C    7.263325   8.322050   9.711036   2.776938   2.348245
    13  C    6.010475   6.993711   8.412465   2.424591   2.737215
    14  H    3.875856   4.630104   6.105464   3.351517   4.433564
    15  H    2.145089   2.525565   4.032713   4.814258   6.111274
    16  H    1.095720   2.161920   2.764841   5.417586   6.777555
    17  H    1.096727   2.161086   2.750683   5.465474   6.825014
    18  H    2.147279   1.094013   2.163173   6.917609   8.267998
    19  H    2.146269   1.094108   2.162677   6.891010   8.240614
    20  H    2.784966   2.174246   1.093813   7.998122   9.368445
    21  H    3.475202   2.174482   1.092356   8.831411  10.213710
    22  H    2.781795   2.174466   1.093878   7.971889   9.340995
    23  H    4.876705   6.323266   7.348709   1.078710   2.161172
    24  Cl   8.697476   9.605291  11.059194   4.526433   3.964772
    25  H    6.037426   6.812763   8.295716   3.404451   3.822430
    26  S    7.757465   9.206961  10.211787   2.741801   1.810051
    27  H    8.702939   9.939473  11.216634   3.435450   2.171421
    28  F    7.089200   8.572461   9.460224   2.802631   2.496853
    29  F    8.810457  10.220087  11.284123   3.664731   2.494562
    30  F    7.066283   8.531355   9.427029   2.789269   2.497591
    31  F    8.791392  10.184926  11.255720   3.653717   2.494396
    32  F    8.883264  10.379415  11.244808   4.258887   3.431922
    33  O    4.967692   5.270391   6.792959   4.848348   5.713142
    34  O    3.739186   3.469912   4.929876   6.032812   7.182642
    35  C    4.734053   4.670747   6.155321   5.851100   6.835299
    36  C    6.117909   5.813719   7.212423   7.210015   8.074945
    37  C    6.366568   5.697427   6.916126   8.418800   9.389832
    38  H    6.669870   6.457683   7.855571   7.332759   8.101494
    39  H    6.734916   6.503054   7.921001   7.352537   8.110991
    40  H    6.029596   5.265672   6.396134   8.512350   9.550968
    41  H    7.456454   6.746157   7.910948   9.339079  10.240232
    42  H    6.099969   5.318493   6.473349   8.530707   9.560749
                   11         12         13         14         15
    11  C    0.000000
    12  C    1.389557   0.000000
    13  C    2.431326   1.379421   0.000000
    14  H    4.695129   3.838864   2.461584   0.000000
    15  H    6.645216   5.933588   4.570012   2.136758   0.000000
    16  H    7.752579   7.502982   6.322102   4.378031   2.890261
    17  H    7.785244   7.517476   6.328312   4.362726   2.846235
    18  H    8.931737   8.289792   6.939435   4.531483   2.451638
    19  H    8.918272   8.294853   6.952897   4.567450   2.524768
    20  H   10.301903   9.940405   8.678060   6.455565   4.469282
    21  H   11.023134  10.495945   9.163549   6.776276   4.646332
    22  H   10.287460   9.942548   8.687056   6.479815   4.509477
    23  H    3.429654   3.855647   3.403828   3.747135   4.762161
    24  Cl   2.700552   1.749506   2.701581   4.981319   7.115678
    25  H    3.413274   2.151114   1.085220   2.191272   4.298478
    26  S    2.741652   4.017259   4.547264   6.071990   7.513059
    27  H    1.080461   2.160108   3.409773   5.750919   7.722644
    28  F    3.653717   4.703968   4.914139   5.969620   7.117242
    29  F    2.776664   4.083803   4.908982   6.752887   8.371583
    30  F    3.665808   4.714605   4.916834   5.959769   7.101671
    31  F    2.791350   4.094757   4.910440   6.743103   8.357434
    32  F    4.250180   5.584952   6.169130   7.610403   8.901777
    33  O    5.618154   4.449636   3.186908   1.718894   2.856521
    34  O    7.413513   6.420914   5.061213   2.756496   1.807654
    35  C    6.839212   5.701975   4.413563   2.517476   2.618145
    36  C    7.889542   6.631445   5.475596   3.954777   4.070179
    37  C    9.309192   8.089654   6.880106   5.076984   4.579617
    38  H    7.814898   6.526577   5.467709   4.241787   4.615878
    39  H    7.804831   6.501196   5.448554   4.246321   4.655802
    40  H    9.569915   8.409919   7.157291   5.198443   4.421581
    41  H   10.054080   8.778994   7.645204   6.028354   5.665586
    42  H    9.563818   8.392446   7.144537   5.202898   4.462288
                   16         17         18         19         20
    16  H    0.000000
    17  H    1.756341   0.000000
    18  H    3.059938   2.513335   0.000000
    19  H    2.502060   3.059180   1.749481   0.000000
    20  H    3.129044   2.565062   2.526565   3.077865   0.000000
    21  H    3.768588   3.759362   2.509805   2.507529   1.764622
    22  H    2.577328   3.103203   3.078407   2.528064   1.764872
    23  H    4.801655   4.867747   6.627745   6.586684   7.390174
    24  Cl   9.007147   9.008273   9.470227   9.489974  11.339425
    25  H    6.458393   6.446700   6.651839   6.685196   8.628779
    26  S    7.621546   7.687652   9.482553   9.436763  10.207616
    27  H    8.791286   8.826023  10.008635   9.992868  11.355286
    28  F    7.028833   6.810045   8.803450   8.977841   9.301649
    29  F    8.827428   8.660225  10.351687  10.500521  11.214114
    30  F    6.724394   7.085518   8.978374   8.702395   9.491769
    31  F    8.586557   8.877832  10.499993  10.265327  11.371708
    32  F    8.643778   8.720926  10.722866  10.665069  11.167618
    33  O    5.593462   5.541842   4.937781   5.021788   7.243325
    34  O    4.511193   4.421576   3.005522   3.164317   5.474594
    35  C    5.453933   5.371409   4.214589   4.347190   6.669765
    36  C    6.858437   6.750946   5.239250   5.404941   7.760797
    37  C    7.131769   7.018088   5.047067   5.230439   7.514134
    38  H    7.487538   7.168641   5.776304   6.193244   8.287784
    39  H    7.358459   7.453780   6.057817   5.969542   8.547227
    40  H    6.894767   6.559136   4.466599   4.969238   6.887470
    41  H    8.219667   8.095405   6.071934   6.262257   8.506959
    42  H    6.751454   6.869867   4.824314   4.682076   7.196393
                   21         22         23         24         25
    21  H    0.000000
    22  H    1.764866   0.000000
    23  H    8.347486   7.349585   0.000000
    24  Cl  11.757329  11.354396   5.605143   0.000000
    25  H    8.943729   8.653446   4.296636   2.850729   0.000000
    26  S   11.223576  10.161070   2.884271   5.434197   5.632476
    27  H   12.098542  11.338523   4.327427   2.849954   4.304627
    28  F   10.498830   9.464466   2.542093   6.250560   5.948831
    29  F   12.272921  11.349385   4.039427   5.166336   5.944594
    30  F   10.455131   9.224959   2.513953   6.267857   5.952311
    31  F   12.234925  11.150009   4.021273   5.185941   5.946797
    32  F   12.295328  11.107639   4.148887   6.884625   7.254346
    33  O    7.238492   7.301145   5.396270   5.031434   2.319324
    34  O    5.191487   5.564883   6.220584   7.218026   4.409076
    35  C    6.441429   6.755614   6.251533   6.265791   3.579047
    36  C    7.310110   7.875817   7.699056   6.837239   4.488995
    37  C    6.787291   7.641670   8.784753   8.355485   5.939085
    38  H    7.983512   8.587197   7.892343   6.585962   4.456681
    39  H    8.034364   8.485489   7.925976   6.531278   4.417493
    40  H    6.225568   7.228652   8.793118   8.799095   6.284057
    41  H    7.704878   8.647340   9.764601   8.857868   6.646520
    42  H    6.286968   7.103312   8.824266   8.760883   6.258259
                   26         27         28         29         30
    26  S    0.000000
    27  H    2.895680   0.000000
    28  F    1.614966   4.027752   0.000000
    29  F    1.622588   2.509048   2.285940   0.000000
    30  F    1.614827   4.045982   2.285619   3.232142   0.000000
    31  F    1.622621   2.537115   3.232392   2.284571   2.286102
    32  F    1.621902   4.144892   2.226072   2.224843   2.225531
    33  O    7.465341   6.577479   7.483364   7.960134   7.487756
    34  O    8.773856   8.447610   8.514929   9.468049   8.518882
    35  C    8.541363   7.817610   8.440933   9.097837   8.452768
    36  C    9.834506   8.789883   9.805977  10.272604   9.835929
    37  C   11.107967  10.241263  10.979097  11.620296  10.999297
    38  H    9.873513   8.663552   9.807450  10.141974  10.048411
    39  H    9.893895   8.648664  10.041927  10.342980   9.883326
    40  H   11.219500  10.531908  10.933023  11.712911  11.124938
    41  H   11.990486  10.938723  11.910556  12.431597  11.941840
    42  H   11.239094  10.521982  11.146421  11.890477  10.976114
                   31         32         33         34         35
    31  F    0.000000
    32  F    2.225445   0.000000
    33  O    7.963049   9.057183   0.000000
    34  O    9.470525  10.266460   2.233465   0.000000
    35  C    9.107637  10.104287   1.260329   1.250196   0.000000
    36  C   10.299940  11.427018   2.371924   2.395247   1.532770
    37  C   11.638164  12.672684   3.701919   2.774676   2.568685
    38  H   10.373804  11.473129   2.634264   3.075039   2.126887
    39  H   10.187844  11.500295   2.599990   3.112649   2.130353
    40  H   11.891008  12.751552   4.021164   2.719436   2.831963
    41  H   12.460310  13.574925   4.529134   3.858329   3.513838
    42  H   11.729868  12.777605   3.999922   2.760525   2.834792
                   36         37         38         39         40
    36  C    0.000000
    37  C    1.521045   0.000000
    38  H    1.094897   2.169188   0.000000
    39  H    1.094296   2.171184   1.743261   0.000000
    40  H    2.166031   1.091355   2.531241   3.079022   0.000000
    41  H    2.171247   1.094033   2.516676   2.517735   1.771205
    42  H    2.166476   1.091730   3.078296   2.535563   1.755343
                   41         42
    41  H    0.000000
    42  H    1.771061   0.000000
 Stoichiometry    C13H17ClF5N2O3S(1-)
 Framework group  C1[X(C13H17ClF5N2O3S)]
 Deg. of freedom   120
 Full point group                 C1      NOp   1
 Largest Abelian subgroup         C1      NOp   1
 Largest concise Abelian subgroup C1      NOp   1
                         Standard orientation:                         
 ---------------------------------------------------------------------
 Center     Atomic      Atomic             Coordinates (Angstroms)
 Number     Number       Type             X           Y           Z
 ---------------------------------------------------------------------
      1          6           0       -0.184614    0.363570   -0.017948
      2          7           0        1.103124   -0.118553   -0.022152
      3          6           0        1.499559   -1.451018   -0.009146
      4          8           0        0.714252   -2.394297    0.012315
      5          7           0        2.840793   -1.599897   -0.024448
      6          6           0        3.427573   -2.923867    0.011098
      7          6           0        4.944517   -2.824521   -0.070685
      8          6           0        5.599323   -4.200135   -0.020250
      9          6           0       -1.338497   -0.440570   -0.003315
     10          6           0       -2.570201    0.189325   -0.003725
     11          6           0       -2.755123    1.562469   -0.017834
     12          6           0       -1.593238    2.324525   -0.030562
     13          6           0       -0.332298    1.765209   -0.030715
     14          1           0        1.842991    0.613031   -0.030271
     15          1           0        3.463814   -0.779264   -0.016657
     16          1           0        3.041051   -3.522992   -0.820919
     17          1           0        3.132156   -3.442459    0.931208
     18          1           0        5.309176   -2.199650    0.749938
     19          1           0        5.220658   -2.306582   -0.994027
     20          1           0        5.355953   -4.720676    0.910467
     21          1           0        6.687291   -4.124893   -0.082745
     22          1           0        5.262152   -4.830114   -0.848509
     23          1           0       -1.241135   -1.514824    0.007353
     24         17           0       -1.746092    4.067269   -0.046380
     25          1           0        0.556942    2.387195   -0.040059
     26         16           0       -4.048794   -0.854530    0.016563
     27          1           0       -3.732244    2.023588   -0.018021
     28          9           0       -3.475044   -1.812140    1.183571
     29          9           0       -4.785416    0.060342    1.136023
     30          9           0       -3.469904   -1.865809   -1.101412
     31          9           0       -4.779226    0.007631   -1.147931
     32          9           0       -5.381533   -1.778672    0.034843
     33          8           0        2.845220    2.009470   -0.020715
     34          8           0        4.599063    0.627063    0.016047
     35          6           0        4.081005    1.764870    0.017175
     36          6           0        5.004176    2.987053    0.075526
     37          6           0        6.489083    2.658105    0.055007
     38          1           0        4.738295    3.543766    0.980058
     39          1           0        4.731829    3.638331   -0.760625
     40          1           0        6.759601    2.022238    0.899725
     41          1           0        7.096402    3.566918    0.101165
     42          1           0        6.756147    2.114308   -0.853199
 ---------------------------------------------------------------------
 Rotational constants (GHZ):      0.2460120      0.0891752      0.0673225
 Standard basis: 6-311+G(d) (5D, 7F)
 There are   642 symmetry adapted cartesian basis functions of A   symmetry.
 There are   617 symmetry adapted basis functions of A   symmetry.
   617 basis functions,  1016 primitive gaussians,   642 cartesian basis functions
   106 alpha electrons      106 beta electrons
       nuclear repulsion energy      2747.9545777453 Hartrees.
 NAtoms=   42 NActive=   42 NUniq=   42 SFac= 1.00D+00 NAtFMM=   60 NAOKFM=F Big=F
 Integral buffers will be    131072 words long.
 Raffenetti 2 integral format.
 Two-electron integral symmetry is turned on.
 Nuclear repulsion after empirical dispersion term =     2747.9518127816 Hartrees.
 One-electron integrals computed using PRISM.
 NBasis=   617 RedAO= T EigKep=  1.03D-06  NBF=   617
 NBsUse=   614 1.00D-06 EigRej=  6.12D-07 NBFU=   614
 ExpMin= 4.05D-02 ExpMax= 1.06D+05 ExpMxC= 3.62D+03 IAcc=3 IRadAn=         5 AccDes= 0.00D+00
 Harris functional with IExCor= 1009 and IRadAn=       5 diagonalized for initial guess.
 HarFok:  IExCor= 1009 AccDes= 0.00D+00 IRadAn=         5 IDoV= 1 UseB2=F ITyADJ=14
 ICtDFT=  3500011 ScaDFX=  1.000000  1.000000  1.000000  1.000000
 FoFCou: FMM=F IPFlag=           0 FMFlag=      100000 FMFlg1=           0
         NFxFlg=           0 DoJE=T BraDBF=F KetDBF=T FulRan=T
         wScrn=  0.000000 ICntrl=     500 IOpCl=  0 I1Cent=   200000004 NGrid=           0
         NMat0=    1 NMatS0=      1 NMatT0=    0 NMatD0=    1 NMtDS0=    0 NMtDT0=    0
 Petite list used in FoFCou.
 Requested convergence on RMS density matrix=1.00D-08 within 128 cycles.
 Requested convergence on MAX density matrix=1.00D-06.
 Requested convergence on             energy=1.00D-06.
 No special actions if energy rises.
 SCF Done:  E(RM062X) =  -2198.30037053     A.U. after   16 cycles
            NFock= 16  Conv=0.23D-08     -V/T= 2.0025
 DoSCS=F DFT=T ScalE2(SS,OS)=  1.000000  1.000000
 Range of M.O.s used for correlation:     1   614
 NBasis=   617 NAE=   106 NBE=   106 NFC=     0 NFV=     0
 NROrb=    614 NOA=   106 NOB=   106 NVA=   508 NVB=   508

 **** Warning!!: The largest alpha MO coefficient is  0.13310696D+03

 PrsmSu:  requested number of processors reduced to:   6 ShMem   1 Linda.
 Symmetrizing basis deriv contribution to polar:
 IMax=3 JMax=2 DiffMx= 0.00D+00
 G2DrvN: will do    22 centers at a time, making    2 passes.
 Calling FoFCou, ICntrl=  3107 FMM=F I1Cent=   0 AccDes= 0.00D+00.
 Calling FoFCou, ICntrl=  3107 FMM=F I1Cent=   0 AccDes= 0.00D+00.
 End of G2Drv F.D. properties file   721 does not exist.
 End of G2Drv F.D. properties file   722 does not exist.
 End of G2Drv F.D. properties file   788 does not exist.
          IDoAtm=111111111111111111111111111111111111111111
          Differentiating once with respect to nuclear coordinates.
          There are   129 degrees of freedom in the 1st order CPHF.  IDoFFX=6 NUNeed=     0.
    126 vectors produced by pass  0 Test12= 5.38D-14 1.00D-09 XBig12= 7.87D-01 1.39D-01.
 AX will form    64 AO Fock derivatives at one time.
    126 vectors produced by pass  1 Test12= 5.38D-14 1.00D-09 XBig12= 5.16D-02 5.10D-02.
    123 vectors produced by pass  2 Test12= 5.38D-14 1.00D-09 XBig12= 1.37D-03 5.42D-03.
    123 vectors produced by pass  3 Test12= 5.38D-14 1.00D-09 XBig12= 1.35D-05 4.93D-04.
    123 vectors produced by pass  4 Test12= 5.38D-14 1.00D-09 XBig12= 1.10D-07 4.92D-05.
    123 vectors produced by pass  5 Test12= 5.38D-14 1.00D-09 XBig12= 6.93D-10 2.57D-06.
    107 vectors produced by pass  6 Test12= 5.38D-14 1.00D-09 XBig12= 3.61D-12 2.12D-07.
     38 vectors produced by pass  7 Test12= 5.38D-14 1.00D-09 XBig12= 3.15D-14 1.90D-08.
      9 vectors produced by pass  8 Test12= 5.38D-14 1.00D-09 XBig12= 2.64D-15 3.54D-09.
      9 vectors produced by pass  9 Test12= 5.38D-14 1.00D-09 XBig12= 1.34D-14 9.59D-09.
      9 vectors produced by pass 10 Test12= 5.38D-14 1.00D-09 XBig12= 3.11D-14 1.54D-08.
      8 vectors produced by pass 11 Test12= 5.38D-14 1.00D-09 XBig12= 1.58D-14 1.05D-08.
      8 vectors produced by pass 12 Test12= 5.38D-14 1.00D-09 XBig12= 3.95D-14 1.45D-08.
      8 vectors produced by pass 13 Test12= 5.38D-14 1.00D-09 XBig12= 2.39D-14 1.19D-08.
      6 vectors produced by pass 14 Test12= 5.38D-14 1.00D-09 XBig12= 1.45D-14 8.11D-09.
      6 vectors produced by pass 15 Test12= 5.38D-14 1.00D-09 XBig12= 1.70D-14 7.72D-09.
      6 vectors produced by pass 16 Test12= 5.38D-14 1.00D-09 XBig12= 1.32D-14 7.88D-09.
      6 vectors produced by pass 17 Test12= 5.38D-14 1.00D-09 XBig12= 1.15D-14 9.34D-09.
      6 vectors produced by pass 18 Test12= 5.38D-14 1.00D-09 XBig12= 4.04D-14 1.48D-08.
      6 vectors produced by pass 19 Test12= 5.38D-14 1.00D-09 XBig12= 1.46D-14 6.82D-09.
      4 vectors produced by pass 20 Test12= 5.38D-14 1.00D-09 XBig12= 3.29D-15 2.95D-09.
      4 vectors produced by pass 21 Test12= 5.38D-14 1.00D-09 XBig12= 2.55D-14 7.88D-09.
      2 vectors produced by pass 22 Test12= 5.38D-14 1.00D-09 XBig12= 1.41D-15 2.20D-09.
 InvSVY:  IOpt=1 It=  1 EMax= 1.44D-15
 Solved reduced A of dimension   986 with   129 vectors.
 End of Minotr F.D. properties file   721 does not exist.
 End of Minotr F.D. properties file   722 does not exist.
 End of Minotr F.D. properties file   788 does not exist.

 **********************************************************************

            Population analysis using the SCF density.

 **********************************************************************

 Orbital symmetries:
       Occupied  (A) (A) (A) (A) (A) (A) (A) (A) (A) (A) (A) (A)
                 (A) (A) (A) (A) (A) (A) (A) (A) (A) (A) (A) (A)
                 (A) (A) (A) (A) (A) (A) (A) (A) (A) (A) (A) (A)
                 (A) (A) (A) (A) (A) (A) (A) (A) (A) (A) (A) (A)
                 (A) (A) (A) (A) (A) (A) (A) (A) (A) (A) (A) (A)
                 (A) (A) (A) (A) (A) (A) (A) (A) (A) (A) (A) (A)
                 (A) (A) (A) (A) (A) (A) (A) (A) (A) (A) (A) (A)
                 (A) (A) (A) (A) (A) (A) (A) (A) (A) (A) (A) (A)
                 (A) (A) (A) (A) (A) (A) (A) (A) (A) (A)
       Virtual   (A) (A) (A) (A) (A) (A) (A) (A) (A) (A) (A) (A)
                 (A) (A) (A) (A) (A) (A) (A) (A) (A) (A) (A) (A)
                 (A) (A) (A) (A) (A) (A) (A) (A) (A) (A) (A) (A)
                 (A) (A) (A) (A) (A) (A) (A) (A) (A) (A) (A) (A)
                 (A) (A) (A) (A) (A) (A) (A) (A) (A) (A) (A) (A)
                 (A) (A) (A) (A) (A) (A) (A) (A) (A) (A) (A) (A)
                 (A) (A) (A) (A) (A) (A) (A) (A) (A) (A) (A) (A)
                 (A) (A) (A) (A) (A) (A) (A) (A) (A) (A) (A) (A)
                 (A) (A) (A) (A) (A) (A) (A) (A) (A) (A) (A) (A)
                 (A) (A) (A) (A) (A) (A) (A) (A) (A) (A) (A) (A)
                 (A) (A) (A) (A) (A) (A) (A) (A) (A) (A) (A) (A)
                 (A) (A) (A) (A) (A) (A) (A) (A) (A) (A) (A) (A)
                 (A) (A) (A) (A) (A) (A) (A) (A) (A) (A) (A) (A)
                 (A) (A) (A) (A) (A) (A) (A) (A) (A) (A) (A) (A)
                 (A) (A) (A) (A) (A) (A) (A) (A) (A) (A) (A) (A)
                 (A) (A) (A) (A) (A) (A) (A) (A) (A) (A) (A) (A)
                 (A) (A) (A) (A) (A) (A) (A) (A) (A) (A) (A) (A)
                 (A) (A) (A) (A) (A) (A) (A) (A) (A) (A) (A) (A)
                 (A) (A) (A) (A) (A) (A) (A) (A) (A) (A) (A) (A)
                 (A) (A) (A) (A) (A) (A) (A) (A) (A) (A) (A) (A)
                 (A) (A) (A) (A) (A) (A) (A) (A) (A) (A) (A) (A)
                 (A) (A) (A) (A) (A) (A) (A) (A) (A) (A) (A) (A)
                 (A) (A) (A) (A) (A) (A) (A) (A) (A) (A) (A) (A)
                 (A) (A) (A) (A) (A) (A) (A) (A) (A) (A) (A) (A)
                 (A) (A) (A) (A) (A) (A) (A) (A) (A) (A) (A) (A)
                 (A) (A) (A) (A) (A) (A) (A) (A) (A) (A) (A) (A)
                 (A) (A) (A) (A) (A) (A) (A) (A) (A) (A) (A) (A)
                 (A) (A) (A) (A) (A) (A) (A) (A) (A) (A) (A) (A)
                 (A) (A) (A) (A) (A) (A) (A) (A) (A) (A) (A) (A)
                 (A) (A) (A) (A) (A) (A) (A) (A) (A) (A) (A) (A)
                 (A) (A) (A) (A) (A) (A) (A) (A) (A) (A) (A) (A)
                 (A) (A) (A) (A) (A) (A) (A) (A) (A) (A) (A) (A)
                 (A) (A) (A) (A) (A) (A) (A) (A) (A) (A) (A) (A)
                 (A) (A) (A) (A) (A) (A) (A) (A) (A) (A) (A) (A)
                 (A) (A) (A) (A) (A) (A) (A) (A) (A) (A) (A) (A)
                 (A) (A) (A) (A) (A) (A) (A) (A) (A) (A) (A) (A)
                 (A) (A) (A) (A) (A) (A) (A) (A) (A) (A) (A) (A)
                 (A) (A) (A) (A) (A) (A) (A) (A) (A) (A) (A) (A)
                 (A) (A) (A) (A) (A) (A) (A) (A) (A) (A) (A) (A)
                 (A) (A) (A) (A) (A) (A) (A) (A) (A) (A) (A) (A)
                 (A) (A) (A) (A) (A) (A) (A) (A) (A) (A) (A) (A)
                 (A) (A) (A) (A) (A) (A) (A) (A) (A) (A) (A) (A)
                 (A) (A) (A) (A)
 The electronic state is 1-A.
 Alpha  occ. eigenvalues -- -102.59399 -90.18865 -25.19490 -25.19479 -25.19399
 Alpha  occ. eigenvalues --  -25.19391 -25.19316 -19.47340 -19.44901 -19.44638
 Alpha  occ. eigenvalues --  -14.65939 -14.63984 -10.55756 -10.52811 -10.51453
 Alpha  occ. eigenvalues --  -10.51365 -10.51121 -10.47832 -10.46667 -10.46524
 Alpha  occ. eigenvalues --  -10.46229 -10.44563 -10.44086 -10.42136 -10.42041
 Alpha  occ. eigenvalues --   -9.73673  -8.51205  -7.46180  -7.45517  -7.45509
 Alpha  occ. eigenvalues --   -6.43622  -6.43610  -6.43153  -1.41100  -1.31141
 Alpha  occ. eigenvalues --   -1.31079  -1.28048  -1.26708  -1.06249  -1.03953
 Alpha  occ. eigenvalues --   -0.95177  -0.94062  -0.92235  -0.90632  -0.87830
 Alpha  occ. eigenvalues --   -0.83082  -0.79193  -0.76377  -0.75472  -0.75148
 Alpha  occ. eigenvalues --   -0.68822  -0.66513  -0.64859  -0.64644  -0.62500
 Alpha  occ. eigenvalues --   -0.61843  -0.58740  -0.58237  -0.56035  -0.55042
 Alpha  occ. eigenvalues --   -0.53298  -0.53283  -0.51391  -0.50580  -0.49298
 Alpha  occ. eigenvalues --   -0.49191  -0.46719  -0.46478  -0.46338  -0.46143
 Alpha  occ. eigenvalues --   -0.46094  -0.45875  -0.45011  -0.43631  -0.43607
 Alpha  occ. eigenvalues --   -0.43203  -0.42617  -0.42074  -0.41819  -0.41589
 Alpha  occ. eigenvalues --   -0.41528  -0.40163  -0.39351  -0.39164  -0.38571
 Alpha  occ. eigenvalues --   -0.37248  -0.36580  -0.36508  -0.34761  -0.34237
 Alpha  occ. eigenvalues --   -0.33820  -0.33299  -0.32696  -0.31412  -0.30973
 Alpha  occ. eigenvalues --   -0.30566  -0.29850  -0.29233  -0.28333  -0.23692
 Alpha  occ. eigenvalues --   -0.22603  -0.20960  -0.20423  -0.19895  -0.19775
 Alpha  occ. eigenvalues --   -0.16977
 Alpha virt. eigenvalues --    0.06662   0.08256   0.09103   0.09596   0.10225
 Alpha virt. eigenvalues --    0.10369   0.11415   0.11776   0.11876   0.12062
 Alpha virt. eigenvalues --    0.12410   0.12649   0.12818   0.13085   0.13529
 Alpha virt. eigenvalues --    0.14270   0.14612   0.14802   0.15257   0.15495
 Alpha virt. eigenvalues --    0.15792   0.16119   0.16785   0.17031   0.17373
 Alpha virt. eigenvalues --    0.17696   0.18384   0.18540   0.19018   0.19691
 Alpha virt. eigenvalues --    0.19954   0.20059   0.20243   0.20498   0.20706
 Alpha virt. eigenvalues --    0.21056   0.21326   0.21768   0.22045   0.22241
 Alpha virt. eigenvalues --    0.22995   0.23914   0.24110   0.24362   0.24568
 Alpha virt. eigenvalues --    0.24753   0.25161   0.26193   0.27143   0.27297
 Alpha virt. eigenvalues --    0.27457   0.27548   0.27946   0.28357   0.29540
 Alpha virt. eigenvalues --    0.29565   0.29701   0.29884   0.30151   0.30482
 Alpha virt. eigenvalues --    0.31066   0.31283   0.31660   0.31836   0.32167
 Alpha virt. eigenvalues --    0.32626   0.33119   0.33439   0.33627   0.33695
 Alpha virt. eigenvalues --    0.33834   0.34442   0.34928   0.35154   0.35692
 Alpha virt. eigenvalues --    0.35861   0.36033   0.36096   0.36533   0.36656
 Alpha virt. eigenvalues --    0.36950   0.37108   0.37342   0.37922   0.38392
 Alpha virt. eigenvalues --    0.38878   0.39201   0.39478   0.39657   0.40024
 Alpha virt. eigenvalues --    0.40709   0.40940   0.41139   0.41581   0.41612
 Alpha virt. eigenvalues --    0.42218   0.42881   0.43097   0.43170   0.43603
 Alpha virt. eigenvalues --    0.43847   0.44244   0.44499   0.44809   0.45480
 Alpha virt. eigenvalues --    0.45704   0.45974   0.46340   0.46642   0.47713
 Alpha virt. eigenvalues --    0.48102   0.48248   0.48767   0.49059   0.49169
 Alpha virt. eigenvalues --    0.49297   0.49703   0.50426   0.50587   0.51351
 Alpha virt. eigenvalues --    0.52084   0.52603   0.53002   0.53762   0.53936
 Alpha virt. eigenvalues --    0.54417   0.54762   0.55420   0.55910   0.57104
 Alpha virt. eigenvalues --    0.57181   0.57546   0.58112   0.58613   0.59101
 Alpha virt. eigenvalues --    0.59509   0.60090   0.60367   0.61633   0.61929
 Alpha virt. eigenvalues --    0.63018   0.63352   0.64065   0.64623   0.64854
 Alpha virt. eigenvalues --    0.65225   0.65919   0.66388   0.67191   0.67494
 Alpha virt. eigenvalues --    0.67909   0.68238   0.68616   0.69310   0.69611
 Alpha virt. eigenvalues --    0.70665   0.71247   0.71873   0.72381   0.73633
 Alpha virt. eigenvalues --    0.74394   0.74494   0.75244   0.75770   0.75917
 Alpha virt. eigenvalues --    0.76999   0.77436   0.78201   0.78545   0.78743
 Alpha virt. eigenvalues --    0.79174   0.79369   0.80657   0.81003   0.81473
 Alpha virt. eigenvalues --    0.82235   0.82598   0.83141   0.83534   0.83719
 Alpha virt. eigenvalues --    0.84271   0.84864   0.85926   0.86863   0.87475
 Alpha virt. eigenvalues --    0.87598   0.87925   0.88542   0.89134   0.89357
 Alpha virt. eigenvalues --    0.90522   0.90560   0.91899   0.92708   0.92893
 Alpha virt. eigenvalues --    0.94712   0.97214   0.98662   0.99066   1.00060
 Alpha virt. eigenvalues --    1.01600   1.01875   1.02671   1.03397   1.03727
 Alpha virt. eigenvalues --    1.04132   1.04938   1.06649   1.07371   1.07618
 Alpha virt. eigenvalues --    1.08622   1.09320   1.09655   1.10181   1.10872
 Alpha virt. eigenvalues --    1.12696   1.13171   1.16135   1.16742   1.17047
 Alpha virt. eigenvalues --    1.17736   1.17963   1.19923   1.20526   1.21997
 Alpha virt. eigenvalues --    1.24024   1.25711   1.26038   1.27714   1.28046
 Alpha virt. eigenvalues --    1.28762   1.29090   1.29926   1.31226   1.31973
 Alpha virt. eigenvalues --    1.33082   1.33323   1.34295   1.35102   1.36584
 Alpha virt. eigenvalues --    1.37554   1.38173   1.39404   1.40719   1.41245
 Alpha virt. eigenvalues --    1.42938   1.43066   1.43927   1.44618   1.45180
 Alpha virt. eigenvalues --    1.47121   1.47254   1.48198   1.48588   1.50355
 Alpha virt. eigenvalues --    1.51215   1.51585   1.53110   1.55213   1.55688
 Alpha virt. eigenvalues --    1.56012   1.57135   1.58337   1.59314   1.59915
 Alpha virt. eigenvalues --    1.61298   1.61336   1.61483   1.62171   1.63209
 Alpha virt. eigenvalues --    1.63477   1.64138   1.68780   1.69119   1.69472
 Alpha virt. eigenvalues --    1.70032   1.71895   1.72329   1.72363   1.72480
 Alpha virt. eigenvalues --    1.73054   1.73282   1.74611   1.75965   1.78160
 Alpha virt. eigenvalues --    1.79323   1.80102   1.80338   1.82805   1.83982
 Alpha virt. eigenvalues --    1.85232   1.87120   1.87496   1.88092   1.88741
 Alpha virt. eigenvalues --    1.89707   1.91168   1.92288   1.93005   1.93978
 Alpha virt. eigenvalues --    1.96463   1.98089   1.98457   2.00186   2.00353
 Alpha virt. eigenvalues --    2.00523   2.02342   2.02524   2.04655   2.05438
 Alpha virt. eigenvalues --    2.07445   2.08963   2.09790   2.12159   2.12816
 Alpha virt. eigenvalues --    2.14013   2.16004   2.16300   2.17047   2.21519
 Alpha virt. eigenvalues --    2.22197   2.23516   2.25236   2.26693   2.28151
 Alpha virt. eigenvalues --    2.28966   2.32986   2.33771   2.36317   2.37779
 Alpha virt. eigenvalues --    2.38292   2.39590   2.40133   2.43996   2.45523
 Alpha virt. eigenvalues --    2.48386   2.50616   2.51837   2.54378   2.56829
 Alpha virt. eigenvalues --    2.59099   2.62211   2.63196   2.64223   2.64575
 Alpha virt. eigenvalues --    2.65678   2.67849   2.68885   2.69022   2.69986
 Alpha virt. eigenvalues --    2.70462   2.71186   2.72517   2.75947   2.76487
 Alpha virt. eigenvalues --    2.77544   2.78704   2.81351   2.82251   2.85797
 Alpha virt. eigenvalues --    2.86722   2.91061   2.94572   2.94676   2.97511
 Alpha virt. eigenvalues --    2.98002   3.02761   3.03510   3.05983   3.07837
 Alpha virt. eigenvalues --    3.08584   3.09893   3.10434   3.12395   3.13369
 Alpha virt. eigenvalues --    3.15268   3.17247   3.18125   3.21362   3.22513
 Alpha virt. eigenvalues --    3.24730   3.25921   3.27991   3.29700   3.31114
 Alpha virt. eigenvalues --    3.35012   3.35786   3.36020   3.37587   3.38308
 Alpha virt. eigenvalues --    3.39233   3.42704   3.43853   3.47486   3.48163
 Alpha virt. eigenvalues --    3.50421   3.51702   3.53124   3.54481   3.54587
 Alpha virt. eigenvalues --    3.55396   3.58288   3.59350   3.71319   3.73667
 Alpha virt. eigenvalues --    3.75897   3.79737   3.83844   3.84636   3.88595
 Alpha virt. eigenvalues --    3.89091   3.89591   3.89829   3.90247   3.91728
 Alpha virt. eigenvalues --    3.92256   3.92785   3.92961   3.93361   3.93817
 Alpha virt. eigenvalues --    3.95117   3.95472   3.96868   3.97595   3.98460
 Alpha virt. eigenvalues --    3.98767   4.00493   4.00576   4.00888   4.01368
 Alpha virt. eigenvalues --    4.03675   4.08557   4.11225   4.12279   4.12514
 Alpha virt. eigenvalues --    4.17302   4.18096   4.19430   4.21433   4.33165
 Alpha virt. eigenvalues --    4.36016   4.36054   4.38187   4.39330   4.41970
 Alpha virt. eigenvalues --    4.47990   4.76256   4.81696   4.89264   5.04579
 Alpha virt. eigenvalues --    5.30357   5.31600   5.33420   5.35679   5.53083
 Alpha virt. eigenvalues --    5.56486   5.58301   5.90159   6.03593   6.16552
 Alpha virt. eigenvalues --    6.44901   6.46212   6.48223   6.50422   6.51982
 Alpha virt. eigenvalues --    6.52953   6.57844   6.61364   6.62084   6.63636
 Alpha virt. eigenvalues --    6.64939   6.72986   6.74239   6.74742   6.80312
 Alpha virt. eigenvalues --    8.32213  10.05969  17.60622  17.65916  17.70693
 Alpha virt. eigenvalues --   23.59135  23.69820  23.73483  23.85312  23.91615
 Alpha virt. eigenvalues --   23.92219  24.01603  24.06843  24.09688  24.10431
 Alpha virt. eigenvalues --   24.17978  24.22180  24.29725  26.02678  26.33743
 Alpha virt. eigenvalues --   26.81834  35.76750  35.86351  50.20936  50.28291
 Alpha virt. eigenvalues --   50.29347  66.98693  67.00538  67.05687  67.07767
 Alpha virt. eigenvalues --   67.16229 189.56727 216.16196
          Condensed to atoms (all electrons):
               1          2          3          4          5          6
     1  C   43.433483  -0.515192  -0.568287  -0.287116  -0.211006  -0.783198
     2  N   -0.515192   8.503527   0.507215  -0.066379  -0.788949  -0.913924
     3  C   -0.568287   0.507215  11.133033   0.642224   0.261658  -2.272722
     4  O   -0.287116  -0.066379   0.642224   8.106544  -0.200601  -0.159958
     5  N   -0.211006  -0.788949   0.261658  -0.200601   8.241230   0.912179
     6  C   -0.783198  -0.913924  -2.272722  -0.159958   0.912179  10.919260
     7  C    0.030530   0.121331   0.638753   0.038765  -0.130211  -1.784530
     8  C   -0.018340  -0.032428  -0.409271  -0.001784  -0.045403   0.677371
     9  C   -9.664760   0.474581  -0.688575   0.296596  -0.084575  -0.465637
    10  C  -16.920150   0.297459   0.141440   0.060188   0.142104   0.062410
    11  C   -4.366523  -0.029872  -0.581985   0.002906  -0.046724  -0.034282
    12  C   -6.446660   0.040922  -1.065841  -0.003551  -0.090899  -0.150104
    13  C    4.694628  -0.136356  -1.544321  -0.040269  -0.542141  -0.390227
    14  H   -0.104503   0.045809  -0.058533  -0.003723   0.038120   0.045136
    15  H   -0.017769   0.028388  -0.035659  -0.008299   0.112760   0.008116
    16  H    0.013087   0.006101   0.057212  -0.000005  -0.065213   0.355254
    17  H    0.011029   0.008426   0.053057  -0.002596  -0.060708   0.383492
    18  H   -0.000235  -0.002235  -0.006530  -0.000204   0.008881  -0.066118
    19  H    0.000904  -0.001204   0.002075  -0.000239   0.006814  -0.057011
    20  H   -0.000010  -0.000009  -0.003000  -0.000019   0.000109  -0.033623
    21  H    0.000130   0.000018   0.007245   0.000019  -0.001985   0.094610
    22  H   -0.000071  -0.000044  -0.002808  -0.000036   0.000258  -0.053911
    23  H    0.099471  -0.032525   0.127090   0.008656   0.010655   0.014144
    24  Cl  -0.359683  -0.020802  -0.097515   0.000188  -0.001466  -0.003894
    25  H    0.100380  -0.032199  -0.011003   0.000142   0.002075  -0.000304
    26  S   -0.369454   0.021144  -0.149750   0.003594  -0.003407  -0.003070
    27  H   -0.010728   0.001759   0.005911  -0.000022   0.000025   0.000054
    28  F   -0.214883   0.001493   0.013389   0.000164   0.000361   0.000583
    29  F    0.104603  -0.000375  -0.004704   0.000033  -0.000019  -0.000045
    30  F   -0.230475   0.001677   0.011711   0.000168   0.000325   0.000535
    31  F    0.103926  -0.000358  -0.004823   0.000025  -0.000023  -0.000047
    32  F   -0.016699  -0.000202  -0.002988   0.000028  -0.000009  -0.000029
    33  O   -0.267712   0.052640   0.018458  -0.001032  -0.073338  -0.020463
    34  O   -0.000062  -0.053626  -0.071220   0.000457   0.027162   0.068722
    35  C    0.304011  -0.010821  -0.000198  -0.001665   0.038657   0.023840
    36  C   -0.325097  -0.047060  -0.076757  -0.001627  -0.055044   0.110309
    37  C   -0.014290   0.001866   0.004146   0.000225   0.012462  -0.019756
    38  H    0.002946   0.000252   0.000072   0.000000   0.000125  -0.000299
    39  H    0.001333   0.000486   0.000270  -0.000000  -0.000096  -0.000397
    40  H    0.000144   0.000005  -0.000376  -0.000001   0.000098   0.000349
    41  H    0.000153   0.000030   0.000244   0.000000  -0.000097  -0.000141
    42  H    0.000335  -0.000015  -0.000354  -0.000000   0.000178   0.000342
               7          8          9         10         11         12
     1  C    0.030530  -0.018340  -9.664760 -16.920150  -4.366523  -6.446660
     2  N    0.121331  -0.032428   0.474581   0.297459  -0.029872   0.040922
     3  C    0.638753  -0.409271  -0.688575   0.141440  -0.581985  -1.065841
     4  O    0.038765  -0.001784   0.296596   0.060188   0.002906  -0.003551
     5  N   -0.130211  -0.045403  -0.084575   0.142104  -0.046724  -0.090899
     6  C   -1.784530   0.677371  -0.465637   0.062410  -0.034282  -0.150104
     7  C    7.142438  -0.671180  -0.001178  -0.014110   0.001713   0.006442
     8  C   -0.671180   6.676838  -0.003647   0.002472  -0.000334  -0.002040
     9  C   -0.001178  -0.003647  29.295437   8.163586  -5.221623  -4.166377
    10  C   -0.014110   0.002472   8.163586  30.148935   2.804275 -11.014227
    11  C    0.001713  -0.000334  -5.221623   2.804275  19.801823  -3.850601
    12  C    0.006442  -0.002040  -4.166377 -11.014227  -3.850601  28.966453
    13  C    0.054464  -0.016262 -11.818453  -6.998129  -2.650471   4.429958
    14  H   -0.011731   0.000415  -0.001973   0.027869   0.000035   0.030648
    15  H   -0.041035   0.009259  -0.050211  -0.010281   0.001265   0.002334
    16  H   -0.011740  -0.020608  -0.007071  -0.000167   0.000038   0.000188
    17  H   -0.039923  -0.024503  -0.002363  -0.000162   0.000031   0.000179
    18  H    0.459967  -0.061538  -0.001517  -0.000060   0.000003   0.000042
    19  H    0.440115  -0.062567  -0.001189  -0.000063   0.000004   0.000042
    20  H    0.041672   0.341007  -0.000117  -0.000008   0.000000   0.000001
    21  H   -0.181398   0.432865   0.000057   0.000002  -0.000000  -0.000000
    22  H    0.031106   0.370643  -0.000097  -0.000008   0.000000   0.000001
    23  H   -0.000924   0.000133   0.250489  -0.132589  -0.002092  -0.018152
    24  Cl   0.000028  -0.000013   0.031910   0.068789   0.567058  -1.308666
    25  H    0.000059   0.000009   0.005488   0.047179   0.010722  -0.121720
    26  S    0.000591  -0.000114   0.344881  -1.450825  -0.157489   0.063086
    27  H   -0.000001   0.000000  -0.005462  -0.157517   0.283987   0.131381
    28  F   -0.000016   0.000003  -0.157580   0.121817   0.190403   0.160760
    29  F    0.000000  -0.000000   0.143252   0.266141  -0.195089  -0.301430
    30  F   -0.000012   0.000003  -0.156501   0.149969   0.184398   0.154661
    31  F    0.000000  -0.000000   0.141952   0.272572  -0.200638  -0.302023
    32  F    0.000000  -0.000000  -0.087211   0.242292  -0.047641  -0.029464
    33  O    0.000271  -0.000088   0.059685   0.011072  -0.008778   0.025601
    34  O   -0.009879   0.013358  -0.011525   0.000505  -0.000314   0.000176
    35  C   -0.006090  -0.014711  -0.221424  -0.061194   0.029369  -0.047703
    36  C   -0.048501   0.013108  -0.163183  -0.022559   0.019507   0.104526
    37  C    0.014440  -0.006073  -0.008253  -0.001066   0.002642   0.011895
    38  H    0.000183  -0.000002   0.000439   0.000029  -0.000081  -0.000951
    39  H    0.000273   0.000002   0.000229  -0.000005  -0.000064  -0.000776
    40  H    0.000076   0.000205   0.000025   0.000003  -0.000004  -0.000049
    41  H   -0.000036  -0.000010   0.000025   0.000000  -0.000001  -0.000029
    42  H    0.000177   0.000191   0.000038   0.000004  -0.000005  -0.000062
              13         14         15         16         17         18
     1  C    4.694628  -0.104503  -0.017769   0.013087   0.011029  -0.000235
     2  N   -0.136356   0.045809   0.028388   0.006101   0.008426  -0.002235
     3  C   -1.544321  -0.058533  -0.035659   0.057212   0.053057  -0.006530
     4  O   -0.040269  -0.003723  -0.008299  -0.000005  -0.002596  -0.000204
     5  N   -0.542141   0.038120   0.112760  -0.065213  -0.060708   0.008881
     6  C   -0.390227   0.045136   0.008116   0.355254   0.383492  -0.066118
     7  C    0.054464  -0.011731  -0.041035  -0.011740  -0.039923   0.459967
     8  C   -0.016262   0.000415   0.009259  -0.020608  -0.024503  -0.061538
     9  C  -11.818453  -0.001973  -0.050211  -0.007071  -0.002363  -0.001517
    10  C   -6.998129   0.027869  -0.010281  -0.000167  -0.000162  -0.000060
    11  C   -2.650471   0.000035   0.001265   0.000038   0.000031   0.000003
    12  C    4.429958   0.030648   0.002334   0.000188   0.000179   0.000042
    13  C   20.696172   0.026395   0.046214   0.000768   0.000393   0.000832
    14  H    0.026395   0.329539   0.027755  -0.000074  -0.000163   0.000102
    15  H    0.046214   0.027755   0.322085   0.001730   0.002535   0.003507
    16  H    0.000768  -0.000074   0.001730   0.488947  -0.054574   0.006133
    17  H    0.000393  -0.000163   0.002535  -0.054574   0.480707  -0.008581
    18  H    0.000832   0.000102   0.003507   0.006133  -0.008581   0.437249
    19  H    0.000615   0.000081   0.002621  -0.009413   0.006264  -0.035405
    20  H    0.000050   0.000000  -0.000024  -0.000968   0.003251  -0.007597
    21  H   -0.000021   0.000000  -0.000063  -0.000146  -0.000096  -0.004191
    22  H    0.000044   0.000000  -0.000004   0.003844  -0.000742   0.006536
    23  H   -0.009553  -0.000424   0.000009  -0.000025  -0.000035   0.000000
    24  Cl   0.132294   0.001583  -0.000012   0.000001   0.000001   0.000000
    25  H    0.276491   0.012957  -0.000195   0.000000   0.000000  -0.000001
    26  S    0.094908   0.001270  -0.000191  -0.000043  -0.000039  -0.000001
    27  H    0.018338   0.000008  -0.000000  -0.000000  -0.000000   0.000000
    28  F   -0.041062   0.000018  -0.000001   0.000001  -0.000000   0.000000
    29  F    0.006123   0.000001  -0.000000   0.000000  -0.000000  -0.000000
    30  F   -0.042801   0.000018  -0.000001   0.000000   0.000000  -0.000000
    31  F    0.006951   0.000000  -0.000000  -0.000000   0.000000  -0.000000
    32  F   -0.002596  -0.000000   0.000000  -0.000000  -0.000000  -0.000000
    33  O    0.221435   0.078485   0.012368  -0.000016  -0.000042  -0.000126
    34  O    0.002923   0.014542   0.069414  -0.000608  -0.000066  -0.005554
    35  C   -0.075543  -0.015983  -0.009235  -0.000295   0.000425   0.002282
    36  C    0.314766   0.056905   0.051781  -0.000292  -0.000177  -0.000517
    37  C    0.011251  -0.003921  -0.006634   0.000067   0.000071   0.001684
    38  H   -0.001958  -0.000322  -0.000074   0.000000   0.000000   0.000001
    39  H   -0.000625  -0.000391  -0.000028   0.000000   0.000000   0.000001
    40  H   -0.000101  -0.000024  -0.000334  -0.000000  -0.000000  -0.000034
    41  H   -0.000155  -0.000002   0.000060  -0.000000  -0.000000  -0.000000
    42  H   -0.000253  -0.000020  -0.000340  -0.000000   0.000000  -0.000044
              19         20         21         22         23         24
     1  C    0.000904  -0.000010   0.000130  -0.000071   0.099471  -0.359683
     2  N   -0.001204  -0.000009   0.000018  -0.000044  -0.032525  -0.020802
     3  C    0.002075  -0.003000   0.007245  -0.002808   0.127090  -0.097515
     4  O   -0.000239  -0.000019   0.000019  -0.000036   0.008656   0.000188
     5  N    0.006814   0.000109  -0.001985   0.000258   0.010655  -0.001466
     6  C   -0.057011  -0.033623   0.094610  -0.053911   0.014144  -0.003894
     7  C    0.440115   0.041672  -0.181398   0.031106  -0.000924   0.000028
     8  C   -0.062567   0.341007   0.432865   0.370643   0.000133  -0.000013
     9  C   -0.001189  -0.000117   0.000057  -0.000097   0.250489   0.031910
    10  C   -0.000063  -0.000008   0.000002  -0.000008  -0.132589   0.068789
    11  C    0.000004   0.000000  -0.000000   0.000000  -0.002092   0.567058
    12  C    0.000042   0.000001  -0.000000   0.000001  -0.018152  -1.308666
    13  C    0.000615   0.000050  -0.000021   0.000044  -0.009553   0.132294
    14  H    0.000081   0.000000   0.000000   0.000000  -0.000424   0.001583
    15  H    0.002621  -0.000024  -0.000063  -0.000004   0.000009  -0.000012
    16  H   -0.009413  -0.000968  -0.000146   0.003844  -0.000025   0.000001
    17  H    0.006264   0.003251  -0.000096  -0.000742  -0.000035   0.000001
    18  H   -0.035405  -0.007597  -0.004191   0.006536   0.000000   0.000000
    19  H    0.442004   0.006805  -0.004436  -0.008251   0.000000   0.000000
    20  H    0.006805   0.474890  -0.027871  -0.040886  -0.000000  -0.000000
    21  H   -0.004436  -0.027871   0.458509  -0.027939   0.000000   0.000000
    22  H   -0.008251  -0.040886  -0.027939   0.476759  -0.000000  -0.000000
    23  H    0.000000  -0.000000   0.000000  -0.000000   0.339225  -0.000188
    24  Cl   0.000000  -0.000000   0.000000  -0.000000  -0.000188  17.645760
    25  H   -0.000000  -0.000000   0.000000  -0.000000   0.000013  -0.014619
    26  S   -0.000001   0.000000   0.000000  -0.000000   0.000725   0.002460
    27  H    0.000000   0.000000  -0.000000  -0.000000   0.000001  -0.020664
    28  F   -0.000000  -0.000000  -0.000000  -0.000000  -0.001625  -0.000365
    29  F   -0.000000  -0.000000   0.000000  -0.000000  -0.000967   0.001220
    30  F   -0.000000  -0.000000  -0.000000  -0.000000  -0.001619  -0.000405
    31  F   -0.000000  -0.000000   0.000000  -0.000000  -0.001024   0.001082
    32  F   -0.000000  -0.000000   0.000000  -0.000000  -0.000837   0.000306
    33  O   -0.000175  -0.000000  -0.000001  -0.000001  -0.000034  -0.001268
    34  O   -0.003666   0.000022   0.000013  -0.000052  -0.000006   0.000005
    35  C    0.001874   0.000184  -0.000211   0.000019   0.000606  -0.003914
    36  C    0.000024  -0.000028   0.000118  -0.000038   0.000104   0.000920
    37  C    0.001193   0.000036  -0.000085   0.000027  -0.000002   0.000053
    38  H    0.000001   0.000000  -0.000000   0.000000   0.000000   0.000006
    39  H    0.000000   0.000000  -0.000000   0.000000  -0.000000   0.000011
    40  H   -0.000030  -0.000000   0.000001  -0.000000   0.000000   0.000000
    41  H   -0.000000  -0.000000  -0.000000  -0.000000  -0.000000   0.000000
    42  H   -0.000022  -0.000000   0.000001  -0.000000   0.000000  -0.000000
              25         26         27         28         29         30
     1  C    0.100380  -0.369454  -0.010728  -0.214883   0.104603  -0.230475
     2  N   -0.032199   0.021144   0.001759   0.001493  -0.000375   0.001677
     3  C   -0.011003  -0.149750   0.005911   0.013389  -0.004704   0.011711
     4  O    0.000142   0.003594  -0.000022   0.000164   0.000033   0.000168
     5  N    0.002075  -0.003407   0.000025   0.000361  -0.000019   0.000325
     6  C   -0.000304  -0.003070   0.000054   0.000583  -0.000045   0.000535
     7  C    0.000059   0.000591  -0.000001  -0.000016   0.000000  -0.000012
     8  C    0.000009  -0.000114   0.000000   0.000003  -0.000000   0.000003
     9  C    0.005488   0.344881  -0.005462  -0.157580   0.143252  -0.156501
    10  C    0.047179  -1.450825  -0.157517   0.121817   0.266141   0.149969
    11  C    0.010722  -0.157489   0.283987   0.190403  -0.195089   0.184398
    12  C   -0.121720   0.063086   0.131381   0.160760  -0.301430   0.154661
    13  C    0.276491   0.094908   0.018338  -0.041062   0.006123  -0.042801
    14  H    0.012957   0.001270   0.000008   0.000018   0.000001   0.000018
    15  H   -0.000195  -0.000191  -0.000000  -0.000001  -0.000000  -0.000001
    16  H    0.000000  -0.000043  -0.000000   0.000001   0.000000   0.000000
    17  H    0.000000  -0.000039  -0.000000  -0.000000  -0.000000   0.000000
    18  H   -0.000001  -0.000001   0.000000   0.000000  -0.000000  -0.000000
    19  H   -0.000000  -0.000001   0.000000  -0.000000  -0.000000  -0.000000
    20  H   -0.000000   0.000000   0.000000  -0.000000  -0.000000  -0.000000
    21  H    0.000000   0.000000  -0.000000  -0.000000   0.000000  -0.000000
    22  H   -0.000000  -0.000000  -0.000000  -0.000000  -0.000000  -0.000000
    23  H    0.000013   0.000725   0.000001  -0.001625  -0.000967  -0.001619
    24  Cl  -0.014619   0.002460  -0.020664  -0.000365   0.001220  -0.000405
    25  H    0.325220   0.000962  -0.000310  -0.000006  -0.000000  -0.000005
    26  S    0.000962  17.300951   0.058340   0.001779  -0.009703   0.002776
    27  H   -0.000310   0.058340   0.402247   0.000286  -0.002243   0.000295
    28  F   -0.000006   0.001779   0.000286   8.971768  -0.034334  -0.005670
    29  F   -0.000000  -0.009703  -0.002243  -0.034334   9.006299  -0.054811
    30  F   -0.000005   0.002776   0.000295  -0.005670  -0.054811   8.972169
[...]
 0,0.00005534,0.00001529,0.00000025,-0.00009410,-0.00005889,-0.00000008
 ,0.00008307,0.00001869,0.00000924,-0.00000670,0.00015535,0.00001703,0.
 00003748,0.00030416,0.00000379,-0.00000506,-0.00000857,-0.00000573,-0.
 00000382,-0.00001102,0.00000831,0.00001071,0.00000612,-0.00001864,0.00
 001210,0.00000392,0.00001875,-0.00000561,-0.00000611,0.00000646,-0.000
 00090,0.00000370,-0.00000071,-0.00000578,-0.00000448,-0.00000496,-0.00
 001539,0.00000788,-0.00000117,0.00005080,0.00004774,0.00000692,-0.0000
 4091,-0.00003656,-0.00003353,-0.00004587,0.00000434,-0.00001775,-0.000
 00086,-0.00000253,-0.00000210,0.00000869,-0.00000017,-0.00000072,0.000
 01338,-0.00000205,0.00000952,0.00001304,0.00000071,0.00000920,0.000008
 97,-0.00000133,-0.00000158,0.00000567,-0.00000321,0.00000169,0.0017829
 5,-0.00093934,0.00129570,0.00056628,-0.00089183,-0.00014736,-0.0025234
 6,0.00264424,-0.00231939,-0.12595821,-0.02761011,-0.21093831,0.0039572
 1,0.00107546,0.00491868,0.13778161,0.02932815,0.22716349,0.00003462,-0
 .00000286,0.00000880,0.00007951,0.00010877,0.00003648,-0.00026026,0.00
 003265,0.00002667,0.00006731,-0.00003235,-0.00001698,0.00006815,-0.000
 25115,-0.00003585,-0.00000004,-0.00000542,0.00000120,0.00000196,0.0000
 1087,0.00003597,0.00000389,-0.00000412,-0.00001013,-0.00000464,-0.0000
 0179,-0.00000643,-0.00000132,0.00000155,-0.00000047,-0.00000982,0.0000
 0276,-0.00000312,0.00003601,0.00001590,0.00000400,-0.00001565,-0.00001
 196,-0.00000528,-0.00005050,-0.00022115,-0.00008951,0.00000304,0.00033
 226,0.00000107,-0.00000090,-0.00001219,-0.00000369,-0.00000127,-0.0000
 0162,0.00000023,0.00000604,0.00001491,-0.00002529,-0.00000041,0.000006
 83,0.00001020,-0.00000121,0.00000080,0.00000138,0.00000631,0.00000108,
 0.00000495,-0.00000580,-0.00000920,-0.00000550,-0.00000383,0.00000037,
 0.00000258,-0.00001240,-0.00001245,-0.00000071,0.00003132,0.00000155,-
 0.00000239,0.00000388,-0.00001885,0.00001722,0.00000004,0.00000166,0.0
 0000109,0.00000299,0.00000495,-0.00000570,-0.00000415,0.00000390,-0.00
 000503,-0.00000095,0.00000326,-0.00000247,-0.00000084,0.00000340,-0.00
 000172,-0.00000146,0.00000327,-0.00000200,0.00041113,0.00198691,-0.001
 05959,-0.00006489,-0.00250864,-0.00158923,-0.00639898,-0.00263396,0.00
 681278,-0.11617960,-0.03926647,0.11187678,-0.01423683,-0.00820340,0.02
 227892,0.01066865,0.00674119,-0.01607788,0.12831275,-0.00019665,0.0001
 0814,0.00001367,0.00024438,0.00003655,0.00006953,-0.00046082,0.0001927
 4,0.00006467,0.00009845,-0.00019588,-0.00004314,0.00012547,-0.00061129
 ,0.00000008,0.00011081,0.00001649,0.00000239,-0.00001725,0.00001653,-0
 .00000562,0.00001211,-0.00001233,0.00000146,0.00004681,-0.00005494,-0.
 00001141,-0.00003618,0.00001356,0.00000196,0.00004348,0.00000579,-0.00
 000142,-0.00004868,-0.00003531,-0.00000255,0.00007119,0.00000882,-0.00
 002344,-0.00004740,0.00004994,-0.00013863,0.00005847,0.00092473,-0.000
 10257,-0.00002202,-0.00002073,-0.00000985,-0.00001746,-0.00001719,0.00
 001042,0.00002874,0.00000565,-0.00002698,0.00002260,0.00000756,0.00002
 835,-0.00000697,-0.00000693,0.00000405,-0.00001243,0.00000590,-0.00000
 007,-0.00000932,-0.00000788,-0.00000429,-0.00001615,0.00000776,0.00000
 316,0.00002541,0.00002916,-0.00000361,-0.00003876,-0.00002119,0.000036
 60,-0.00003018,0.00000626,0.00002600,0.00000005,-0.00000054,0.00000199
 ,0.00000866,0.00000003,-0.00000705,0.00000576,-0.00000165,-0.00000044,
 0.00000461,-0.00000224,-0.00000481,0.00000931,-0.00000145,-0.00001091,
 0.00000365,-0.00000280,-0.00000336,0.00155082,0.00046177,-0.00423131,-
 0.00250421,-0.00545059,-0.00439804,-0.01670465,-0.00680629,0.03147667,
 -0.03905206,-0.06939079,0.06669116,0.01077481,0.00540579,-0.01720438,0
 .00294111,0.00086407,-0.00429729,0.04114860,0.07533555,0.00018762,-0.0
 0008093,-0.00002127,-0.00016636,0.00009831,0.00003389,0.00019812,-0.00
 009336,-0.00001977,-0.00004049,0.00008466,0.00001149,-0.00006972,0.000
 14292,0.00005041,-0.00000898,-0.00000274,-0.00000195,-0.00000165,-0.00
 001256,-0.00001647,-0.00000554,0.00000619,0.00000434,-0.00004788,0.000
 04507,0.00000485,0.00003374,-0.00001033,-0.00000230,-0.00004634,-0.000
 01433,0.00000369,0.00008390,0.00005017,-0.00000044,-0.00006678,-0.0000
 1836,0.00001146,0.00000388,-0.00011332,-0.00002930,-0.00002940,-0.0001
 5447,-0.00007823,0.00000195,0.00000906,0.00000615,-0.00000102,0.000003
 53,-0.00000345,-0.00000957,-0.00000417,0.00001801,-0.00000356,-0.00000
 430,-0.00001081,0.00000270,0.00000167,-0.00000399,-0.00000182,-0.00000
 285,-0.00000182,0.00000596,0.00000667,0.00000613,0.00001237,-0.0000060
 8,-0.00000304,-0.00004516,-0.00004157,0.00000172,0.00002736,0.00003688
 ,-0.00002051,0.00003819,-0.00000055,-0.00002185,0.00000072,0.00000243,
 -0.00000121,-0.00001085,-0.00000265,0.00000986,-0.00000751,0.00000099,
 0.00000039,-0.00000729,0.00000013,-0.00000009,-0.00001153,0.00000049,0
 .00000994,-0.00000467,0.00000286,0.00000302,-0.00141884,0.00049861,0.0
 0090304,-0.00110839,0.00005483,-0.00061161,-0.00050961,-0.00338840,0.0
 0274052,0.11054219,0.06378661,-0.21669685,0.00029682,-0.00015897,-0.00
 093986,0.01355237,0.00868069,-0.02211892,-0.12175982,-0.06794305,0.234
 63896,0.00001363,0.00000010,0.00001053,0.00001630,0.00009807,-0.000012
 53,-0.00005996,-0.00002331,0.00001516,0.00001728,0.00003010,-0.0000066
 6,0.00000981,0.00000869,-0.00003148,0.00000742,-0.00000466,0.00001415,
 -0.00000916,0.00000039,-0.00001318,-0.00000065,-0.00000511,0.00000396,
 0.00000337,0.00000745,-0.00000190,-0.00000501,0.00000213,-0.00000092,-
 0.00000273,0.00001145,-0.00000133,0.00000799,-0.00000785,0.00000053,-0
 .00000949,-0.00001105,-0.00001581,-0.00001313,-0.00014329,0.00000425,-
 0.00000407,-0.00002260,0.00003044,-0.00000247,0.00000414,-0.00000122,0
 .00000209,0.00000832,-0.00000226,0.00001192,-0.00001076,0.00002235,0.0
 0000296,-0.00000130,-0.00001366,0.00000227,0.00000497,-0.00000300,-0.0
 0000745,-0.00000077,-0.00000152,0.00000068,0.00000390,0.00000197,-0.00
 000089,-0.00000081,0.00000242,-0.00000020,0.00000675,-0.00000227,0.000
 01240,-0.00002459,0.00001453,0.00000828,-0.00005153,0.00001792,-0.0000
 0002,0.00000006,0.00000172,0.00000554,0.00001312,-0.00001073,-0.000009
 72,0.00001087,-0.00000973,0.00000164,0.00001039,0.00000234,-0.00000471
 ,0.00000967,0.00000211,-0.00000198,0.00000956,-0.00000185,0.00055803,0
 .00039863,-0.00032588,0.00135153,0.00016001,-0.00069449,-0.00130196,-0
 .00165664,0.00021037,-0.01552523,-0.00803464,0.02436796,-0.11662681,-0
 .04083719,0.11158335,0.00062243,-0.00091519,-0.00044258,-0.00417591,0.
 00380270,-0.00013555,0.12883976,0.00013726,-0.00006080,-0.00001340,-0.
 00012789,0.00007295,0.00001325,0.00017825,-0.00013485,-0.00001240,-0.0
 0003062,0.00011594,0.00001084,-0.00004256,0.00021240,0.00003776,-0.000
 02664,-0.00000698,0.00000562,-0.00000511,-0.00003064,-0.00004701,-0.00
 001496,0.00001743,0.00001453,-0.00002734,0.00003828,0.00000308,0.00001
 959,-0.00000829,-0.00000182,-0.00003151,0.00000463,0.00000198,0.000047
 24,0.00001748,-0.00000268,-0.00005080,-0.00001522,0.00000698,0.0000129
 3,-0.00012485,-0.00001719,-0.00004981,-0.00029404,-0.00004238,0.000002
 24,0.00001671,0.00000900,0.00000157,0.00000674,-0.00000912,-0.00002586
 ,-0.00001399,0.00003779,-0.00000899,-0.00000406,-0.00001248,0.00000427
 ,0.00000521,-0.00000602,0.00000651,-0.00000764,-0.00000043,0.00001431,
 0.00000924,0.00000637,0.00000905,-0.00000562,-0.00000122,-0.00002201,-
 0.00001499,0.00000006,0.00002293,-0.00000504,-0.00000610,0.00003476,-0
 .00006350,-0.00000570,0.00000037,0.00000048,0.00000029,-0.00000196,0.0
 0001405,-0.00000276,-0.00001457,0.00001378,-0.00000806,-0.00000149,0.0
 0001347,0.00000498,-0.00001315,0.00001195,0.00001055,-0.00000531,0.000
 01430,0.00000118,-0.00077966,0.00023299,0.00030977,-0.00072554,-0.0003
 8518,0.00047785,0.00151308,0.00050709,-0.00104835,0.00950379,0.0058245
 9,-0.01650405,-0.04201731,-0.07082757,0.06681032,-0.00084398,0.0007890
 1,0.00034673,0.00341188,-0.00208855,-0.00060833,0.04226729,0.07416746,
 0.00006184,-0.00003593,-0.00001037,-0.00013397,-0.00007300,0.00001344,
 0.00022490,-0.00005257,-0.00002137,-0.00006077,0.00003052,0.00001039,-
 0.00009366,0.00010331,0.00003859,0.00006541,0.00000660,0.00000799,-0.0
 0002117,-0.00001888,-0.00006733,-0.00000668,0.00000445,0.00001921,-0.0
 0001893,0.00001708,0.00000262,0.00001592,-0.00000744,-0.00000203,-0.00
 001664,-0.00000802,0.00000126,0.00001807,0.00001802,-0.00000064,-0.000
 01918,-0.00000035,0.00000925,0.00002901,0.00009129,-0.00000980,-0.0000
 0681,-0.00009218,-0.00004193,-0.00001238,0.00001611,0.00000388,-0.0000
 0981,0.00000035,-0.00000012,0.00000441,-0.00003743,0.00004972,0.000007
 83,-0.00001032,-0.00002038,0.00000183,0.00000049,-0.00000524,-0.000020
 99,-0.00000294,-0.00000897,0.00000996,0.00001720,0.00001115,0.00000852
 ,-0.00000248,-0.00000180,-0.00001302,-0.00001439,0.00000042,0.00000085
 ,0.00000898,-0.00000595,0.00001716,0.00002658,-0.00001851,-0.00000005,
 0.00000041,-0.00000030,-0.00000855,-0.00000759,0.00000893,0.00000050,-
 0.00000548,0.00000341,-0.00000470,-0.00000486,0.00000002,-0.00000296,-
 0.00000458,0.00000432,-0.00000164,-0.00000405,0.00000256,-0.00084500,-
 0.00051701,-0.00003793,-0.00204533,0.00026179,0.00087348,0.00262357,0.
 00166450,-0.00009147,0.00093522,-0.00021785,-0.00189955,0.11182790,0.0
 6452375,-0.22631838,0.00024197,-0.00044961,0.00069618,0.00023571,-0.00
 031216,0.00153781,-0.12292438,-0.07226619,0.24228125,0.00008539,-0.000
 00422,-0.00000418,0.00010407,0.00033928,0.00002219,-0.00027131,0.00003
 068,0.00001269,0.00007901,0.00002182,-0.00000132,0.00008186,-0.0000831
 0,-0.00000678,-0.00005550,-0.00001259,-0.00000290,0.00001494,0.0000252
 9,0.00000695,0.00001102,-0.00001115,-0.00000242,-0.00001460,0.00001151
 ,0.00000212,0.00000139,0.00000262,0.00000058,-0.00001659,0.00000852,0.
 00000135,0.00004352,0.00001853,0.,-0.00003781,-0.00003201,-0.00000173,
 -0.00010263,-0.00048458,-0.00003421,-0.00000123,0.00006906,0.00000874,
 0.00000977,-0.00000476,-0.00000353,0.00001144,-0.00000268,0.00000266,-
 0.00000136,0.00001782,-0.00002673,-0.00000030,0.00001234,0.00002454,-0
 .00000477,-0.00000502,0.00000575,0.00001138,0.00000389,0.00000050,-0.0
 0000647,-0.00000681,-0.00000588,-0.00000306,-0.00000013,-0.00000009,-0
 .00001751,-0.00001024,-0.00000028,0.00004067,-0.00001145,-0.00000164,0
 .00000212,-0.00003145,-0.00000061,-0.00000015,0.00000238,0.00000002,0.
 00000350,0.00000832,-0.00000526,-0.00000635,0.00000731,-0.00000455,0.0
 0000350,0.00000720,0.00000521,-0.00000566,0.00000636,0.00000533,-0.000
 00051,0.00000454,0.,-0.00020829,0.00329896,0.00036755,0.00232488,-0.00
 070258,-0.00017529,-0.00732094,-0.00168851,0.00027207,0.00800991,0.030
 62596,0.00270915,-0.06088996,-0.05675964,-0.00543811,0.00105922,-0.000
 85653,-0.00057632,0.00107293,-0.00098066,0.00027149,-0.00442885,-0.015
 13841,-0.00370648,0.06505510,-0.00039924,0.00013025,0.00002429,0.00017
 042,-0.00055333,-0.00005200,-0.00004445,0.00031121,0.00002348,-0.00003
 117,-0.00031654,-0.00002199,-0.00001217,-0.00035990,-0.00003665,0.0001
 1672,0.00003895,-0.00001083,-0.00000357,0.00002368,0.00001708,0.000017
 25,-0.00001169,-0.00000653,0.00006714,-0.00010409,-0.00001109,-0.00003
 541,0.00000904,0.00000288,0.00009261,-0.00003267,-0.00000544,-0.000173
 09,-0.00004919,0.00000203,0.00015801,0.00008833,0.00000180,0.00005951,
 0.00089792,0.00007518,0.00013275,0.00057028,0.00005899,-0.00001914,-0.
 00002703,-0.00001530,-0.00001839,-0.00002410,0.00001828,0.00003080,0.0
 0001602,-0.00004371,0.00002179,0.00001014,0.00003507,-0.00000951,-0.00
 001261,0.00001087,-0.00001326,0.00001391,0.00000111,-0.00001352,-0.000
 01518,-0.00001042,-0.00001573,0.00001347,0.00000149,0.00007356,0.00003
 733,0.00000046,-0.00010304,0.00005712,0.00000836,-0.00009503,0.0002652
 7,0.00002441,-0.00000136,-0.00000317,-0.00000054,-0.00000440,-0.000058
 62,0.00001711,0.00005173,-0.00005552,0.00002968,-0.00000608,-0.0000552
 4,-0.00002556,0.00004861,-0.00004998,-0.00004188,0.00001532,-0.0000570
 6,-0.00000515,0.00161085,-0.00321357,-0.00044499,0.00053610,-0.0010323
 6,-0.00021059,0.00187213,0.00254767,0.00012165,-0.00602913,-0.01599014
 ,-0.00121257,-0.05659226,-0.29475954,-0.02279855,0.00018724,0.00029065
 ,0.00067498,0.00016627,0.00048539,-0.00060524,-0.00173398,-0.00839128,
 -0.00090742,0.06077301,0.32216228,-0.00004610,0.00001401,-0.00000014,0
 .00001256,-0.00007537,-0.00000793,0.00000877,0.00003198,-0.00000295,-0
 .00000732,-0.00003451,-0.00000297,-0.00000319,-0.00003635,0.00002974,0
 .00001314,0.00000466,0.00000382,-0.00000197,-0.00000046,-0.00003496,0.
 00000217,-0.00000076,0.00001059,0.00000770,-0.00001149,0.00000240,-0.0
 0000370,0.00000127,-0.00000158,0.00001056,-0.00000406,-0.00000118,-0.0
 0002044,-0.00000617,0.00000090,0.00001835,0.00001095,-0.00000389,0.000
 01147,0.00011941,0.00000485,0.00001212,0.00005703,-0.00002619,-0.00000
 396,0.00000051,-0.00000134,-0.00000060,-0.00000686,0.00000190,-0.00000
 168,-0.00000326,-0.00000152,0.00000713,0.00000814,0.00001711,-0.000003
 83,-0.00000433,0.00000171,-0.00000123,0.00000156,-0.00000257,0.0000010
 5,0.00000073,-0.00000037,-0.00000146,0.00000139,0.00000047,0.00000852,
 0.00000440,-0.00000125,-0.00001255,0.00000641,0.00000408,-0.00000989,0
 .00002856,0.00000896,-0.00000002,-0.00000049,0.00000079,-0.00000013,-0
 .00000630,0.00000083,0.00000475,-0.00000603,0.00000175,-0.00000132,-0.
 00000619,-0.00000423,0.00000629,-0.00000542,-0.00000633,0.00000165,-0.
 00000610,-0.00000109,0.00017539,-0.00052197,-0.00000152,-0.00005319,-0
 .00011849,0.00061876,0.00065143,0.00031547,0.00062686,-0.00111531,-0.0
 0320064,-0.00159039,-0.00542487,-0.02278744,-0.05248703,0.00015818,0.0
 0039794,0.00009722,-0.00023536,-0.00020665,-0.00012831,0.00445547,0.02
 664157,0.00430604,0.00548265,0.02578255,0.04969888,0.00000510,0.000005
 50,-0.00000668,0.00003323,0.00010149,0.00002663,-0.00008743,-0.0000155
 9,-0.00001250,0.00002462,0.00002559,0.00000832,0.00002543,-0.00000590,
 0.00003571,-0.00000134,-0.00000240,-0.00000666,-0.00000708,0.00000493,
 -0.00001548,0.00000073,-0.00000570,0.00000314,0.00000691,0.00000361,0.
 00000373,-0.00000689,0.00000364,0.00000086,-0.00000074,0.00001243,0.00
 000098,0.00000634,-0.00001020,-0.00000063,-0.00000647,-0.00001323,0.00
 001091,-0.00001674,-0.00014797,-0.00002891,-0.00000921,-0.00001294,-0.
 00003743,0.00000174,0.00000776,0.00000149,0.00000044,0.00000111,0.0000
 0099,0.00000556,-0.00000205,0.00001737,0.00000874,-0.00000342,-0.00001
 049,-0.00000139,0.00000082,0.00000033,-0.00000493,-0.00000102,-0.00000
 170,0.00000187,0.00000593,0.00000259,-0.00000203,-0.00000014,-0.000002
 21,0.00000124,0.00000808,0.00000410,0.00001139,-0.00002267,-0.00002011
 ,0.00000426,-0.00005286,-0.00002925,-0.00000002,0.00000002,-0.00000129
 ,0.00000214,0.00001173,-0.00000038,-0.00000527,0.00001090,0.00000012,0
 .00000788,0.00001247,0.00001350,-0.00000906,0.00001017,0.00001263,-0.0
 0000145,0.00000996,0.00000379,0.00064764,0.00038519,0.00032974,0.00159
 417,0.00002045,0.00058204,-0.00154170,-0.00175648,-0.00038145,-0.01794
 566,-0.00283643,-0.02357740,-0.14204412,-0.02027783,-0.12824340,-0.004
 04185,0.00360207,0.00150713,0.00062111,-0.00093614,0.00025896,0.010695
 05,0.00281816,0.01364251,-0.00463180,-0.00084789,-0.00410123,0.1566595
 6,0.00014697,-0.00006707,-0.00000516,-0.00015384,0.00005921,0.00000657
 ,0.00022149,-0.00014288,-0.00001794,-0.00004279,0.00012074,0.00000747,
 -0.00006595,0.00023164,0.00000037,-0.00000852,-0.00000843,0.00000578,-
 0.00000590,-0.00003058,0.00003385,-0.00001896,0.00001949,-0.00000850,-
 0.00003036,0.00004043,0.00000495,0.00002158,-0.00000995,-0.00000265,-0
 .00003480,0.00000368,0.00000064,0.00005155,0.00002044,0.00000265,-0.00
 005443,-0.00001417,-0.00000620,0.00001928,-0.00010489,-0.00000338,-0.0
 0004715,-0.00030716,-0.00001970,0.00000146,0.00001091,0.00000788,-0.00
 000204,0.00001863,-0.00001056,-0.00001206,-0.00001516,0.00003578,-0.00
 001837,-0.00001799,-0.00005389,0.00001392,0.00001242,-0.00000906,0.000
 00098,-0.00000870,0.00000129,0.00000879,0.00000859,0.00000698,0.000010
 55,-0.00000615,-0.00000004,-0.00002422,-0.00001723,-0.00000127,0.00002
 283,-0.00000383,0.00000413,0.00003661,-0.00005589,-0.00000426,0.000000
 16,0.00000042,0.00000027,-0.00000282,0.00001243,-0.00000214,-0.0000138
 6,0.00001185,-0.00000772,-0.00000326,0.00001181,0.00000336,-0.00001330
 ,0.00001082,0.00001038,-0.00000539,0.00001323,0.00000133,-0.00092717,0
 .00016374,-0.00015246,-0.00117315,-0.00016649,-0.00054232,0.00209641,0
 .00062350,0.00095104,0.01104913,0.00211419,0.01598683,-0.02160065,-0.0
 5133995,-0.02855008,0.00332879,-0.00202644,-0.00049894,-0.00080802,0.0
 0074038,-0.00024619,0.00661653,0.00037687,0.00826133,-0.01846887,-0.00
 279612,-0.02637918,0.01988882,0.05251366,-0.00003354,0.00002347,0.0000
 0222,0.00010490,0.00007608,0.00001210,-0.00018018,0.00002837,-0.000000
 12,0.00005222,-0.00001005,0.00000228,0.00008676,-0.00006122,0.00001853
 ,-0.00007404,-0.00000605,-0.00000711,0.00001910,0.00000874,-0.00001214
 ,0.00000431,0.00000109,0.00000239,0.00001306,-0.00001107,0.00000006,-0
 .00001152,0.00000486,0.00000146,0.00000966,0.00000847,0.00000030,-0.00
 000721,-0.00001307,-0.00000033,0.00000898,-0.00000267,0.00000250,-0.00
 002515,-0.00009979,-0.00001944,-0.00000808,0.00003298,-0.00002560,0.00
 001107,-0.00000489,0.00000059,0.00001290,-0.00001126,0.00000187,-0.000
 01498,0.00002539,-0.00004163,-0.00000684,0.00002649,0.00004601,-0.0000
 0553,-0.00001270,0.00000931,0.00002536,0.00000219,-0.00000348,-0.00000
 396,-0.00000694,-0.00000572,-0.00000648,0.00000167,-0.00000134,0.00000
 800,0.00001028,0.00000184,0.00000266,-0.00000688,-0.00000466,-0.000011
 71,-0.00003079,-0.00001484,-0.00000008,-0.00000034,-0.00000104,0.00000
 439,0.00000699,-0.00000091,0.00000022,0.00000616,0.00000213,0.00000767
 ,0.00000730,0.00000788,-0.00000185,0.00000599,0.00000422,0.00000086,0.
 00000561,0.00000173,0.00057996,0.00053848,-0.00010780,0.00174222,-0.00
 042499,0.00041716,-0.00206782,-0.00135467,0.00013180,0.00316051,0.0013
 6545,0.00421890,-0.12875955,-0.02644134,-0.22027451,0.00107780,-0.0008
 3690,0.00136136,-0.00041187,0.00056087,0.00073636,-0.01610861,-0.00413
 481,-0.02131985,0.00079679,-0.00046529,-0.00112992,0.14000963,0.031188
 78,0.23598743\\-0.00000070,0.00000008,-0.00000017,0.00000092,0.0000000
 9,-0.00000014,0.00000005,-0.00000132,0.00000015,-0.00000018,0.00000040
 ,0.00000047,-0.00000068,0.00000074,0.00000037,0.00000063,0.00000006,0.
 00000064,-0.00000003,0.,0.00000082,-0.00000018,-0.00000011,0.00000082,
 0.00000005,-0.00000029,-0.00000005,-0.00000020,-0.00000030,-0.00000021
 ,0.00000006,0.00000006,-0.00000049,-0.00000021,0.00000015,-0.00000037,
 0.00000019,0.00000018,-0.00000053,-0.00000035,-0.00000007,-0.00000012,
 -0.00000014,-0.00000020,0.00000021,-0.00000007,-0.00000034,0.00000078,
 0.00000015,-0.00000012,0.00000071,0.00000013,0.00000029,0.00000032,-0.
 00000011,-0.00000008,0.00000074,0.00000022,0.00000010,0.00000106,0.000
 00002,0.,0.00000100,-0.00000014,-0.00000016,0.00000116,-0.00000012,0.,
 0.00000020,0.00000021,-0.00000010,-0.00000129,-0.00000008,0.00000011,-
 0.00000056,-0.00000085,-0.00000007,0.00000008,-0.00000018,-0.00000008,
 -0.00000058,0.00000030,0.00000015,0.00000020,0.00000034,0.00000016,-0.
 00000016,-0.00000018,-0.00000013,0.00000035,-0.00000007,-0.00000010,-0
 .00000031,0.00000001,-0.00000022,0.00000015,-0.00000081,0.00000065,-0.
 00000056,0.00000046,0.00000049,-0.00000036,0.00000127,-0.00000044,-0.0
 0000024,0.00000001,0.00000046,-0.00000038,0.00000006,0.00000032,-0.000
 00073,0.00000018,-0.00000009,-0.00000086,-0.00000013,-0.00000021,-0.00
 000089,0.00000029,-0.00000005,-0.00000030,0.00000003,0.00000009,-0.000
 00066,-0.00000015,-0.00000010,-0.00000028\\\@


 ALL SCIENCE IS EITHER PHYSICS, OR STAMP COLLECTING.
   --ERNEST RUTHERFORD, 1871-1937.
 Job cpu time:       0 days 15 hours 44 minutes 26.2 seconds.
 File lengths (MBytes):  RWF=   1548 Int=      0 D2E=      0 Chk=     29 Scr=      1
 Normal termination of Gaussian 09 at Wed Nov 20 15:05:01 2019.
pbs_rusage has been removed.
Please contact help@nci.org.au if you require this functionality.
