 Entering Gaussian System, Link 0=/apps/gaussian/g16c01/g16/g16
 Initial command:
 /apps/gaussian/g16c01/g16/l1.exe "/jobfs/11546467.gadi-pbs/Gau-599049.inp" -scrdir="/jobfs/11546467.gadi-pbs/"
 Entering Link 1 = /apps/gaussian/g16c01/g16/l1.exe PID=    599050.
  
 Copyright (c) 1988-2019, Gaussian, Inc.  All Rights Reserved.
  
 This is part of the Gaussian(R) 16 program.  It is based on
 the Gaussian(R) 09 system (copyright 2009, Gaussian, Inc.),
 the Gaussian(R) 03 system (copyright 2003, Gaussian, Inc.),
 the Gaussian(R) 98 system (copyright 1998, Gaussian, Inc.),
 the Gaussian(R) 94 system (copyright 1995, Gaussian, Inc.),
 the Gaussian 92(TM) system (copyright 1992, Gaussian, Inc.),
 the Gaussian 90(TM) system (copyright 1990, Gaussian, Inc.),
 the Gaussian 88(TM) system (copyright 1988, Gaussian, Inc.),
 the Gaussian 86(TM) system (copyright 1986, Carnegie Mellon
 University), and the Gaussian 82(TM) system (copyright 1983,
 Carnegie Mellon University). Gaussian is a federally registered
 trademark of Gaussian, Inc.
  
 This software contains proprietary and confidential information,
 including trade secrets, belonging to Gaussian, Inc.
  
 This software is provided under written license and may be
 used, copied, transmitted, or stored only in accord with that
 written license.
  
 The following legend is applicable only to US Government
 contracts under FAR:
  
                    RESTRICTED RIGHTS LEGEND
  
 Use, reproduction and disclosure by the US Government is
 subject to restrictions as set forth in subparagraphs (a)
 and (c) of the Commercial Computer Software - Restricted
 Rights clause in FAR 52.227-19.
  
 Gaussian, Inc.
 340 Quinnipiac St., Bldg. 40, Wallingford CT 06492
  
  
 ---------------------------------------------------------------
 Warning -- This program may not be used in any manner that
 competes with the business of Gaussian, Inc. or will provide
 assistance to any competitor of Gaussian, Inc.  The licensee
 of this program is prohibited from giving any competitor of
 Gaussian, Inc. access to this program.  By using this program,
 the user acknowledges that Gaussian, Inc. is engaged in the
 business of creating and licensing software in the field of
 computational chemistry and represents and warrants to the
 licensee that it is not a competitor of Gaussian, Inc. and that
 it will not use this program in any manner prohibited above.
 ---------------------------------------------------------------
  

 Cite this work as:
 Gaussian 16, Revision C.01,
 M. J. Frisch, G. W. Trucks, H. B. Schlegel, G. E. Scuseria, 
 M. A. Robb, J. R. Cheeseman, G. Scalmani, V. Barone, 
 G. A. Petersson, H. Nakatsuji, X. Li, M. Caricato, A. V. Marenich, 
 J. Bloino, B. G. Janesko, R. Gomperts, B. Mennucci, H. P. Hratchian, 
 J. V. Ortiz, A. F. Izmaylov, J. L. Sonnenberg, D. Williams-Young, 
 F. Ding, F. Lipparini, F. Egidi, J. Goings, B. Peng, A. Petrone, 
 T. Henderson, D. Ranasinghe, V. G. Zakrzewski, J. Gao, N. Rega, 
 G. Zheng, W. Liang, M. Hada, M. Ehara, K. Toyota, R. Fukuda, 
 J. Hasegawa, M. Ishida, T. Nakajima, Y. Honda, O. Kitao, H. Nakai, 
 T. Vreven, K. Throssell, J. A. Montgomery, Jr., J. E. Peralta, 
 F. Ogliaro, M. J. Bearpark, J. J. Heyd, E. N. Brothers, K. N. Kudin, 
 V. N. Staroverov, T. A. Keith, R. Kobayashi, J. Normand, 
 K. Raghavachari, A. P. Rendell, J. C. Burant, S. S. Iyengar, 
 J. Tomasi, M. Cossi, J. M. Millam, M. Klene, C. Adamo, R. Cammi, 
 J. W. Ochterski, R. L. Martin, K. Morokuma, O. Farkas, 
 J. B. Foresman, and D. J. Fox, Gaussian, Inc., Wallingford CT, 2019.
 
 ******************************************
 Gaussian 16:  ES64L-G16RevC.01  3-Jul-2019
                21-Sep-2020 
 ******************************************
 %NprocShared=32
 Will use up to   32 processors via shared memory.
 %Mem=1194000MB
 %chk=CP22_carboxy.DSDPBEP86_AUG-cc-PVTZ.chk
 ----------------------------------------------------------------------
 # DSDPBEP86/AUG-cc-PVTZ SCF=Tight INT(grid=ultrafine) MaxDisk=1400000M
 B
 ----------------------------------------------------------------------
 1/38=1,172=1/1;
 2/12=2,17=6,18=5,40=1/2;
 3/5=16,6=1,7=10,11=9,25=1,30=1,74=-77,75=-5/1,2,3;
 4//1;
 5/5=2,32=2,38=5/2;
 8/10=1/1;
 9/16=-3/6;
 6/7=2,8=2,9=2,10=2/1;
 99/5=1,9=1/99;
 ----------------------------------
 CP22_carboxy.DSDPBEP86_AUG-cc-PVTZ
 ----------------------------------
 Symbolic Z-matrix:
 Charge = -1 Multiplicity = 1
 C                    -5.90451   1.22829   0.12049 
 N                    -4.67101   0.63335   0.03133 
 C                    -3.43177   1.26719   0.03625 
 O                    -3.28543   2.48153   0.12419 
 N                    -2.40495   0.39559  -0.06394 
 C                    -1.04259   0.87761  -0.09906 
 C                    -0.08036  -0.30266  -0.12694 
 C                     1.37271   0.15766  -0.1794 
 C                    -6.1153    2.61525   0.2382 
 C                    -7.4191    3.06955   0.31988 
 C                    -8.54104   2.25594   0.29467 
 C                    -8.29436   0.8937    0.17712 
 C                    -7.02205   0.36833   0.09059 
 H                    -4.68787  -0.40475  -0.05093 
 H                    -2.57348  -0.61663  -0.16841 
 H                    -0.85021   1.50885   0.77613 
 H                    -0.88741   1.51571  -0.9786 
 H                    -0.31385  -0.93667  -0.9872 
 H                    -0.25386  -0.92479   0.75602 
 H                     1.56454   0.75743  -1.07377 
 H                     2.0603   -0.69095  -0.19504 
 H                     1.62373   0.77364   0.68902 
 H                    -5.26779   3.28276   0.26176 
 Cl                   -9.66588  -0.19348   0.13817 
 H                    -6.85929  -0.70113  -0.00115 
 S                    -7.68578   4.85347   0.47065 
 H                    -9.54662   2.64414   0.36097 
 F                    -6.62451   5.2097   -0.6919 
 F                    -8.8822    4.85344  -0.62747 
 F                    -6.5321    5.03162   1.58508 
 F                    -8.78988   4.67475   1.64804 
 F                    -7.942     6.44982   0.60611 
 O                    -4.97357  -2.08558  -0.1875 
 O                    -2.76432  -2.3889   -0.35979 
 C                    -3.94509  -2.79813  -0.32804 
 C                    -4.1928   -4.30625  -0.4725 
 C                    -2.92642  -5.13645  -0.62755 
 H                    -4.86163  -4.43998  -1.32851 
 H                    -4.76968  -4.62168   0.4024 
 H                    -2.36203  -4.81982  -1.50614 
 H                    -3.15755  -6.20137  -0.72769 
 H                    -2.2695   -5.00379   0.23368 
 
                          Input orientation:                          
 ---------------------------------------------------------------------
 Center     Atomic      Atomic             Coordinates (Angstroms)
 Number     Number       Type             X           Y           Z
 ---------------------------------------------------------------------
      1          6           0       -5.904509    1.228289    0.120490
      2          7           0       -4.671010    0.633351    0.031328
      3          6           0       -3.431766    1.267190    0.036247
      4          8           0       -3.285428    2.481533    0.124186
      5          7           0       -2.404953    0.395591   -0.063943
      6          6           0       -1.042586    0.877608   -0.099064
      7          6           0       -0.080360   -0.302662   -0.126940
      8          6           0        1.372707    0.157663   -0.179402
      9          6           0       -6.115304    2.615249    0.238196
     10          6           0       -7.419098    3.069555    0.319882
     11          6           0       -8.541042    2.255939    0.294669
     12          6           0       -8.294363    0.893701    0.177117
     13          6           0       -7.022052    0.368328    0.090594
     14          1           0       -4.687873   -0.404745   -0.050929
     15          1           0       -2.573476   -0.616628   -0.168411
     16          1           0       -0.850210    1.508851    0.776129
     17          1           0       -0.887414    1.515714   -0.978605
     18          1           0       -0.313846   -0.936673   -0.987200
     19          1           0       -0.253856   -0.924793    0.756017
     20          1           0        1.564544    0.757435   -1.073774
     21          1           0        2.060296   -0.690950   -0.195044
     22          1           0        1.623732    0.773638    0.689024
     23          1           0       -5.267787    3.282758    0.261760
     24         17           0       -9.665879   -0.193482    0.138170
     25          1           0       -6.859289   -0.701126   -0.001147
     26         16           0       -7.685781    4.853467    0.470648
     27          1           0       -9.546619    2.644139    0.360974
     28          9           0       -6.624514    5.209702   -0.691896
     29          9           0       -8.882197    4.853440   -0.627466
     30          9           0       -6.532103    5.031616    1.585076
     31          9           0       -8.789878    4.674755    1.648042
     32          9           0       -7.941998    6.449818    0.606111
     33          8           0       -4.973565   -2.085575   -0.187497
     34          8           0       -2.764318   -2.388902   -0.359788
     35          6           0       -3.945090   -2.798131   -0.328039
     36          6           0       -4.192799   -4.306254   -0.472497
     37          6           0       -2.926421   -5.136451   -0.627547
     38          1           0       -4.861627   -4.439983   -1.328512
     39          1           0       -4.769676   -4.621679    0.402399
     40          1           0       -2.362031   -4.819818   -1.506140
     41          1           0       -3.157552   -6.201368   -0.727691
     42          1           0       -2.269499   -5.003790    0.233684
 ---------------------------------------------------------------------
                    Distance matrix (angstroms):
                    1          2          3          4          5
     1  C    0.000000
     2  N    1.372378   0.000000
     3  C    2.474484   1.391942   0.000000
     4  O    2.903484   2.311760   1.226285   0.000000
     5  N    3.601985   2.280487   1.350581   2.271956   0.000000
     6  C    4.879496   3.638973   2.424513   2.766362   1.445551
     7  C    6.027084   4.687775   3.704455   4.252913   2.428015
     8  C    7.361661   6.066069   4.935637   5.214476   3.786905
     9  C    1.407816   2.461036   3.009888   2.835326   4.334152
    10  C    2.392488   3.683795   4.384950   4.179867   5.695530
    11  C    2.835085   4.204675   5.210481   5.263215   6.421922
    12  C    2.413826   3.635619   4.878955   5.254849   5.915351
    13  C    1.410435   2.366675   3.701495   4.292915   4.619765
    14  H    2.043621   1.041487   2.093030   3.213739   2.419180
    15  H    3.818765   2.449897   2.080221   3.192349   1.031456
    16  H    5.104362   3.989954   2.696341   2.702115   2.088611
    17  H    5.144110   4.014241   2.750530   2.810592   2.096236
    18  H    6.096684   4.742072   3.952958   4.663647   2.645762
    19  H    6.080258   4.739645   3.927082   4.603553   2.653859
    20  H    7.578570   6.333939   5.143453   5.284870   4.111884
    21  H    8.198851   6.864073   5.835285   6.224413   4.597413
    22  H    7.563357   6.330563   5.121306   5.228365   4.115846
    23  H    2.155508   2.725546   2.735753   2.142577   4.078926
    24  Cl   4.021150   5.063969   6.403758   6.918529   7.287586
    25  H    2.156163   2.563289   3.952668   4.787223   4.587792
    26  S    4.054313   5.204923   5.580926   5.010909   6.931493
    27  H    3.915026   5.284269   6.276374   6.267776   7.499328
    28  F    4.126746   5.028143   5.125157   4.388439   6.432316
    29  F    4.750556   5.998105   6.558117   6.124928   7.883189
    30  F    4.123613   5.022204   5.116822   4.379272   6.422256
    31  F    4.747304   5.992644   6.551240   6.118114   7.874605
    32  F    5.625971   6.697837   6.893952   6.137034   8.231738
    33  O    3.455895   2.744446   3.697059   4.879080   3.573405
    34  O    4.814097   3.594782   3.737558   4.922085   2.823131
    35  C    4.500285   3.525787   4.113763   5.339898   3.555507
    36  C    5.823466   4.988209   5.648121   6.874111   5.046846
    37  C    7.066717   6.063689   6.457757   7.663398   5.585076
    38  H    5.942770   5.255875   6.039777   7.245834   5.569305
    39  H    5.965688   5.269039   6.050029   7.261956   5.566182
    40  H    7.195462   6.118190   6.369848   7.537927   5.411309
    41  H    7.966491   7.041310   7.512533   8.725526   6.672843
    42  H    7.215603   6.130707   6.380834   7.554744   5.409274
                    6          7          8          9         10
     6  C    0.000000
     7  C    1.523054   0.000000
     8  C    2.521589   1.525141   0.000000
     9  C    5.372673   6.713276   7.892048   0.000000
    10  C    6.755742   8.088793   9.274925   1.383093   0.000000
    11  C    7.634243   8.849143  10.144452   2.452854   1.386133
    12  C    7.257053   8.306238   9.701603   2.777725   2.349641
    13  C    6.004111   6.977437   8.401741   2.427474   2.739863
    14  H    3.864565   4.609270   6.087975   3.352837   4.434845
    15  H    2.140367   2.513149   4.021443   4.811955   6.107899
    16  H    1.096102   2.165591   2.771301   5.406912   6.767144
    17  H    1.097657   2.164062   2.755208   5.479089   6.838376
    18  H    2.147431   1.093862   2.166696   6.911921   8.260928
    19  H    2.145206   1.093966   2.166201   6.867067   8.214970
    20  H    2.785970   2.173939   1.093813   8.009545   9.380512
    21  H    3.478140   2.176652   1.092322   8.829444  10.211046
    22  H    2.782292   2.174432   1.093894   7.967902   9.337038
    23  H    4.875168   6.317889   7.352346   1.079078   2.162631
    24  Cl   8.692795   9.589806  11.048734   4.528306   3.965911
    25  H    6.027936   6.791794   8.278590   3.407218   3.825504
    26  S    7.762993   9.207888  10.223959   2.744094   1.810026
    27  H    8.697749   9.926316  11.211880   3.433632   2.170026
    28  F    7.090587   8.575039   9.473188   2.802776   2.497056
    29  F    8.806018  10.213141  11.287787   3.662590   2.494068
    30  F    7.087095   8.544619   9.452768   2.797613   2.497431
    31  F    8.802911  10.187293  11.270394   3.658220   2.493935
    32  F    8.896555  10.389355  11.268184   4.263343   3.432423
    33  O    4.923502   5.208253   6.731074   4.856184   5.728301
    34  O    3.701678   3.407381   4.861328   6.052125   7.205809
    35  C    4.689138   4.604774   6.085867   5.859619   6.849692
    36  C    6.077476   5.749809   7.140540   7.218609   8.089464
    37  C    6.324321   5.631712   6.834543   8.426585   9.403207
    38  H    6.661335   6.435970   7.831074   7.335024   8.102532
    39  H    6.662193   6.397170   7.804452   7.362798   8.135190
    40  H    6.015102   5.245275   6.362690   8.509405   9.547276
    41  H    7.414860   6.680175   7.826950   9.349543  10.257105
    42  H    6.017215   5.198363   6.330632   8.534635   9.576257
                   11         12         13         14         15
    11  C    0.000000
    12  C    1.389375   0.000000
    13  C    2.431471   1.379232   0.000000
    14  H    4.695273   3.839888   2.462937   0.000000
    15  H    6.639121   5.926976   4.563667   2.128233   0.000000
    16  H    7.742017   7.493507   6.313666   4.367325   2.894730
    17  H    7.794048   7.522333   6.331940   4.358008   2.836565
    18  H    8.917550   8.270100   6.918431   4.504627   2.424617
    19  H    8.888608   8.263886   6.922675   4.536752   2.515983
    20  H   10.307328   9.938881   8.673914   6.441242   4.453194
    21  H   11.014188  10.481822   9.148372   6.755773   4.634444
    22  H   10.279852   9.932023   8.675943   6.463164   4.503842
    23  H    3.430691   3.856802   3.405972   3.745898   4.759157
    24  Cl   2.699891   1.750582   2.703279   4.986074   7.111626
    25  H    3.414679   2.152833   1.085651   2.192114   4.289908
    26  S    2.740364   4.016999   4.549885   6.075219   7.514386
    27  H    1.079945   2.160088   3.409672   5.750893   7.716060
    28  F    3.656652   4.708656   4.920288   5.973561   7.115552
    29  F    2.777360   4.083189   4.908358   6.750797   8.362556
    30  F    3.661334   4.712776   4.921360   5.969231   7.116749
    31  F    2.782842   4.087239   4.908785   6.746426   8.363127
    32  F    4.247878   5.583783   6.172243   7.616171   8.908175
    33  O    5.639869   4.476241   3.208625   1.710398   2.814001
    34  O    7.441330   6.453305   5.092490   2.780708   1.792763
    35  C    6.859604   5.727215   4.435021   2.521272   2.581814
    36  C    7.909371   6.654650   5.493038   3.955324   4.040794
    37  C    9.328552   8.113262   6.898733   5.081756   4.556773
    38  H    7.810774   6.519109   5.459043   4.236220   4.604293
    39  H    7.844516   6.549319   5.483665   4.242019   4.603211
    40  H    9.565010   8.406558   7.154174   5.198081   4.415997
    41  H   10.077362   8.805993   7.665823   6.033301   5.642983
    42  H    9.593729   8.431049   7.174042   5.203917   4.416024
                   16         17         18         19         20
    16  H    0.000000
    17  H    1.755142   0.000000
    18  H    3.062288   2.518582   0.000000
    19  H    2.505727   3.060455   1.744290   0.000000
    20  H    3.133338   2.568296   2.530977   3.079708   0.000000
    21  H    3.775361   3.764615   2.514845   2.512867   1.765150
    22  H    2.582347   3.104436   3.080439   2.532685   1.763866
    23  H    4.788142   4.883504   6.626087   6.564090   7.405515
    24  Cl   9.001163   9.012768   9.448773   9.460588  11.335583
    25  H    6.449588   6.444617   6.623489   6.652448   8.616199
    26  S    7.616088   7.710948   9.486646   9.418239  10.233828
    27  H    8.780020   8.834571   9.994192   9.962368  11.361166
    28  F    7.013842   6.829500   8.814174   8.961795   9.328944
    29  F    8.813011   8.670656  10.347533  10.476177  11.229909
    30  F    6.734105   7.127169   8.994654   8.693822   9.533824
    31  F    8.591943   8.906612  10.501225  10.247649  11.400339
    32  F    8.644970   8.753505  10.737206  10.654337  11.207122
    33  O    5.554326   5.503796   4.865438   4.951090   7.184363
    34  O    4.488496   4.376269   2.916750   3.113047   5.398913
    35  C    5.417339   5.327465   4.133455   4.278993   6.599563
    36  C    6.822567   6.713943   5.163842   5.334679   7.690869
    37  C    7.102183   6.966498   4.959137   5.176381   7.423326
    38  H    7.477273   7.168482   5.750825   6.159008   8.268840
    39  H    7.285965   7.392342   5.946820   5.846763   8.440159
    40  H    6.895390   6.526236   4.420766   4.973226   6.834521
    41  H    8.187355   8.047971   5.989242   6.202829   8.416822
    42  H    6.687535   6.773754   4.675102   4.579723   7.042801
                   21         22         23         24         25
    21  H    0.000000
    22  H    1.765554   0.000000
    23  H    8.348642   7.346514   0.000000
    24  Cl  11.741452  11.344342   5.607382   0.000000
    25  H    8.921698   8.637877   4.298061   2.855531   0.000000
    26  S   11.232529  10.166598   2.890926   5.431669   5.635529
    27  H   12.089353  11.330628   4.327364   2.848852   4.306236
    28  F   10.511445   9.466741   2.542299   6.255662   5.955681
    29  F   12.274584  11.346915   4.040016   5.164472   5.944546
    30  F   10.475968   9.243968   2.531436   6.262247   5.957137
    31  F   12.243938  11.161617   4.032934   5.171733   5.945342
    32  F   12.315774  11.123358   4.159357   6.879256   7.257894
    33  O    7.170791   7.243461   5.395127   5.069900   2.346781
    34  O    5.117332   5.509688   6.230682   7.259433   4.443646
    35  C    6.365734   6.693559   6.250968   6.303093   3.605114
    36  C    7.228319   7.809384   7.699860   6.873312   4.508802
    37  C    6.694542   7.574062   8.783846   8.392828   5.960867
    38  H    7.953177   8.562254   7.895231   6.577596   4.442027
    39  H    7.902917   8.370620   7.921364   6.606932   4.460949
    40  H    6.190598   7.210535   8.787527   8.800735   6.281238
    41  H    7.607520   8.574292   9.766307   8.899591   6.669586
    42  H    6.126298   6.981637   8.812344   8.823527   6.295573
                   26         27         28         29         30
    26  S    0.000000
    27  H    2.890654   0.000000
    28  F    1.613908   4.028566   0.000000
    29  F    1.623967   2.509876   2.286527   0.000000
    30  F    1.613895   4.035564   2.285794   3.232651   0.000000
    31  F    1.623954   2.520437   3.232689   2.284380   2.286670
    32  F    1.622447   4.137402   2.226763   2.225783   2.226538
    33  O    7.479276   6.601806   7.496741   7.976271   7.498365
    34  O    8.795585   8.476473   8.529372   9.484282   8.546507
    35  C    8.554392   7.840292   8.452047   9.111050   8.465081
    36  C    9.848398   8.812833   9.824195  10.291476   9.843870
    37  C   11.120072  10.263614  10.987398  11.630528  11.013003
    38  H    9.878312   8.659579   9.830030  10.150082  10.049412
    39  H    9.913966   8.695574  10.064490  10.380333   9.883875
    40  H   11.217060  10.526874  10.928084  11.698570  11.135344
    41  H   12.006259  10.965781  11.926174  12.449513  11.954766
    42  H   11.249790  10.557628  11.141736  11.901023  10.986603
                   31         32         33         34         35
    31  F    0.000000
    32  F    2.226066   0.000000
    33  O    7.977187   9.071623   0.000000
    34  O    9.499157  10.289038   2.236619   0.000000
    35  C    9.122548  10.117928   1.259067   1.250079   0.000000
    36  C   10.309624  11.441721   2.371126   2.393637   1.535143
    37  C   11.654106  12.685407   3.700309   2.765321   2.568099
    38  H   10.361925  11.481255   2.618718   3.089347   2.129945
    39  H   10.204770  11.518818   2.611775   3.096398   2.130447
    40  H   11.891719  12.751562   4.004374   2.717593   2.825104
    41  H   12.476267  13.591264   4.530945   3.850309   3.515957
    42  H   11.755423  12.786754   4.000668   2.726664   2.826317
                   36         37         38         39         40
    36  C    0.000000
    37  C    1.522163   0.000000
    38  H    1.094522   2.172888   0.000000
    39  H    1.094405   2.173331   1.742848   0.000000
    40  H    2.164226   1.091200   2.534523   3.078723   0.000000
    41  H    2.174469   1.094302   2.523357   2.524176   1.774124
    42  H    2.164331   1.091268   3.078549   2.534829   1.751969
                   41         42
    41  H    0.000000
    42  H    1.774000   0.000000
 Stoichiometry    C13H17ClF5N2O3S(1-)
 Framework group  C1[X(C13H17ClF5N2O3S)]
 Deg. of freedom   120
 Full point group                 C1      NOp   1
 Largest Abelian subgroup         C1      NOp   1
 Largest concise Abelian subgroup C1      NOp   1
                         Standard orientation:                         
 ---------------------------------------------------------------------
 Center     Atomic      Atomic             Coordinates (Angstroms)
 Number     Number       Type             X           Y           Z
 ---------------------------------------------------------------------
      1          6           0       -0.189184    0.365481   -0.014082
      2          7           0        1.096818   -0.113703   -0.016149
      3          6           0        1.494954   -1.447425   -0.002860
      4          8           0        0.714932   -2.393516    0.012999
      5          7           0        2.838377   -1.585972   -0.012172
      6          6           0        3.434025   -2.902610    0.023696
      7          6           0        4.948739   -2.784557   -0.083051
      8          6           0        5.624007   -4.151204   -0.034637
      9          6           0       -1.342141   -0.442281   -0.001526
     10          6           0       -2.574823    0.184967   -0.002350
     11          6           0       -2.761045    1.558475   -0.015019
     12          6           0       -1.601140    2.323229   -0.026635
     13          6           0       -0.338637    1.767922   -0.026343
     14          1           0        1.838862    0.617028   -0.025987
     15          1           0        3.459143   -0.762454    0.007069
     16          1           0        3.037809   -3.511036   -0.797443
     17          1           0        3.157277   -3.420172    0.951269
     18          1           0        5.317323   -2.145059    0.724242
     19          1           0        5.201071   -2.264876   -1.012041
     20          1           0        5.401380   -4.668304    0.903165
     21          1           0        6.709779   -4.063421   -0.115640
     22          1           0        5.279789   -4.791287   -0.852202
     23          1           0       -1.239905   -1.516460    0.008248
     24         17           0       -1.761504    4.066381   -0.042261
     25          1           0        0.550620    2.390645   -0.035054
     26         16           0       -4.054643   -0.857169    0.014287
     27          1           0       -3.739250    2.016072   -0.015583
     28          9           0       -3.479722   -1.825124    1.170672
     29          9           0       -4.785627    0.051609    1.144356
     30          9           0       -3.482635   -1.858393   -1.114878
     31          9           0       -4.788047    0.018876   -1.139788
     32          9           0       -5.391039   -1.777038    0.029170
     33          8           0        2.862476    1.987304   -0.030598
     34          8           0        4.618609    0.604339    0.045978
     35          6           0        4.096106    1.739542    0.014345
     36          6           0        5.022366    2.963635    0.031768
     37          6           0        6.505878    2.625345    0.073379
     38          1           0        4.730605    3.573278    0.892691
     39          1           0        4.776667    3.564199   -0.849525
     40          1           0        6.742413    2.033129    0.958845
     41          1           0        7.121008    3.530312    0.085560
     42          1           0        6.789752    2.024849   -0.792465
 ---------------------------------------------------------------------
 Rotational constants (GHZ):           0.2483711           0.0887549           0.0672566
 Standard basis: Aug-CC-pVTZ (5D, 7F)
 There are  1808 symmetry adapted cartesian basis functions of A   symmetry.
 There are  1549 symmetry adapted basis functions of A   symmetry.
  1549 basis functions,  2343 primitive gaussians,  1808 cartesian basis functions
   106 alpha electrons      106 beta electrons
       nuclear repulsion energy      2748.3907526729 Hartrees.
 NAtoms=   42 NActive=   42 NUniq=   42 SFac= 1.00D+00 NAtFMM=   60 NAOKFM=F Big=F
 Integral buffers will be    131072 words long.
 Regular integral format.
 Two-electron integral symmetry is turned on.
 Nuclear repulsion after empirical dispersion term =     2748.3573475290 Hartrees.
 One-electron integrals computed using PRISM.
 NBasis=  1549 RedAO= T EigKep=  1.17D-06  NBF=  1549
 NBsUse=  1545 1.00D-06 EigRej=  6.61D-07 NBFU=  1545
 ExpMin= 2.53D-02 ExpMax= 4.56D+05 ExpMxC= 1.44D+03 IAcc=3 IRadAn=         5 AccDes= 0.00D+00
 Harris functional with IExCor= 1004 and IRadAn=       5 diagonalized for initial guess.
 HarFok:  IExCor= 1004 AccDes= 0.00D+00 IRadAn=         5 IDoV= 1 UseB2=F ITyADJ=14
 ICtDFT=  3500011 ScaDFX=  1.000000  1.000000  1.000000  1.000000
 FoFCou: FMM=F IPFlag=           0 FMFlag=      100000 FMFlg1=           0
         NFxFlg=           0 DoJE=T BraDBF=F KetDBF=T FulRan=T
         wScrn=  0.000000 ICntrl=       500 IOpCl=  0 I1Cent=   200000004 NGrid=           0
         NMat0=    1 NMatS0=      1 NMatT0=    0 NMatD0=    1 NMtDS0=    0 NMtDT0=    0
 Petite list used in FoFCou.
 Requested convergence on RMS density matrix=1.00D-08 within 128 cycles.
 Requested convergence on MAX density matrix=1.00D-06.
 Requested convergence on             energy=1.00D-06.
 No special actions if energy rises.
 SCF Done:  E(RDSDPBEP86) =  -2193.81151490     A.U. after   14 cycles
            NFock= 14  Conv=0.29D-08     -V/T= 2.0026
 DoSCS=T DFT=T ScalE2(SS,OS)=  0.220000  0.520000
 ExpMin= 2.53D-02 ExpMax= 4.56D+05 ExpMxC= 1.44D+03 IAcc=3 IRadAn=         5 AccDes= 0.00D+00
 HarFok:  IExCor=  205 AccDes= 0.00D+00 IRadAn=         5 IDoV=-2 UseB2=F ITyADJ=14
 ICtDFT= 12500011 ScaDFX=  1.000000  1.000000  1.000000  1.000000
 GSVD:  LWork=       -1353 too small for GESVD, short by        5940 words or        5940 for optimal perf.
 Range of M.O.s used for correlation:    34  1545
 NBasis=  1549 NAE=   106 NBE=   106 NFC=    33 NFV=     0
 NROrb=   1512 NOA=    73 NOB=    73 NVA=  1439 NVB=  1439

 **** Warning!!: The largest alpha MO coefficient is  0.12088471D+03

 DoSCS=T DFT=T ScalE2(SS,OS)=  0.220000  0.520000
 Fully direct method using O(OVN) memory.
 JobTyp=1 Pass  1:  I=   1 to  31 NPSUse= 32 ParTrn=T ParDer=T DoDerP=F.
 JobTyp=1 Pass  2:  I=  32 to  73 NPSUse= 32 ParTrn=T ParDer=T DoDerP=F.
 Spin components of T(2) and E(2):
     alpha-alpha T2 =       0.2539555185D+00 E2=     -0.1636002574D+00
     alpha-beta  T2 =       0.1313979273D+01 E2=     -0.2184732084D+01
     beta-beta   T2 =       0.2539555185D+00 E2=     -0.1636002574D+00
 E2(DSDPBEP86) =    -0.2511932599D+01 E(DSDPBEP86) =    -0.21963234475007D+04

 **********************************************************************

            Population analysis using the SCF Density.

 **********************************************************************

 Orbital symmetries:
       Occupied  (A) (A) (A) (A) (A) (A) (A) (A) (A) (A) (A) (A)
                 (A) (A) (A) (A) (A) (A) (A) (A) (A) (A) (A) (A)
                 (A) (A) (A) (A) (A) (A) (A) (A) (A) (A) (A) (A)
                 (A) (A) (A) (A) (A) (A) (A) (A) (A) (A) (A) (A)
                 (A) (A) (A) (A) (A) (A) (A) (A) (A) (A) (A) (A)
                 (A) (A) (A) (A) (A) (A) (A) (A) (A) (A) (A) (A)
                 (A) (A) (A) (A) (A) (A) (A) (A) (A) (A) (A) (A)
                 (A) (A) (A) (A) (A) (A) (A) (A) (A) (A) (A) (A)
                 (A) (A) (A) (A) (A) (A) (A) (A) (A) (A)
       Virtual   (A) (A) (A) (A) (A) (A) (A) (A) (A) (A) (A) (A)
                 (A) (A) (A) (A) (A) (A) (A) (A) (A) (A) (A) (A)
                 (A) (A) (A) (A) (A) (A) (A) (A) (A) (A) (A) (A)
                 (A) (A) (A) (A) (A) (A) (A) (A) (A) (A) (A) (A)
                 (A) (A) (A) (A) (A) (A) (A) (A) (A) (A) (A) (A)
                 (A) (A) (A) (A) (A) (A) (A) (A) (A) (A) (A) (A)
                 (A) (A) (A) (A) (A) (A) (A) (A) (A) (A) (A) (A)
                 (A) (A) (A) (A) (A) (A) (A) (A) (A) (A) (A) (A)
                 (A) (A) (A) (A) (A) (A) (A) (A) (A) (A) (A) (A)
                 (A) (A) (A) (A) (A) (A) (A) (A) (A) (A) (A) (A)
                 (A) (A) (A) (A) (A) (A) (A) (A) (A) (A) (A) (A)
                 (A) (A) (A) (A) (A) (A) (A) (A) (A) (A) (A) (A)
                 (A) (A) (A) (A) (A) (A) (A) (A) (A) (A) (A) (A)
                 (A) (A) (A) (A) (A) (A) (A) (A) (A) (A) (A) (A)
                 (A) (A) (A) (A) (A) (A) (A) (A) (A) (A) (A) (A)
                 (A) (A) (A) (A) (A) (A) (A) (A) (A) (A) (A) (A)
                 (A) (A) (A) (A) (A) (A) (A) (A) (A) (A) (A) (A)
                 (A) (A) (A) (A) (A) (A) (A) (A) (A) (A) (A) (A)
                 (A) (A) (A) (A) (A) (A) (A) (A) (A) (A) (A) (A)
                 (A) (A) (A) (A) (A) (A) (A) (A) (A) (A) (A) (A)
                 (A) (A) (A) (A) (A) (A) (A) (A) (A) (A) (A) (A)
                 (A) (A) (A) (A) (A) (A) (A) (A) (A) (A) (A) (A)
                 (A) (A) (A) (A) (A) (A) (A) (A) (A) (A) (A) (A)
                 (A) (A) (A) (A) (A) (A) (A) (A) (A) (A) (A) (A)
                 (A) (A) (A) (A) (A) (A) (A) (A) (A) (A) (A) (A)
                 (A) (A) (A) (A) (A) (A) (A) (A) (A) (A) (A) (A)
                 (A) (A) (A) (A) (A) (A) (A) (A) (A) (A) (A) (A)
                 (A) (A) (A) (A) (A) (A) (A) (A) (A) (A) (A) (A)
                 (A) (A) (A) (A) (A) (A) (A) (A) (A) (A) (A) (A)
                 (A) (A) (A) (A) (A) (A) (A) (A) (A) (A) (A) (A)
                 (A) (A) (A) (A) (A) (A) (A) (A) (A) (A) (A) (A)
                 (A) (A) (A) (A) (A) (A) (A) (A) (A) (A) (A) (A)
                 (A) (A) (A) (A) (A) (A) (A) (A) (A) (A) (A) (A)
                 (A) (A) (A) (A) (A) (A) (A) (A) (A) (A) (A) (A)
                 (A) (A) (A) (A) (A) (A) (A) (A) (A) (A) (A) (A)
                 (A) (A) (A) (A) (A) (A) (A) (A) (A) (A) (A) (A)
                 (A) (A) (A) (A) (A) (A) (A) (A) (A) (A) (A) (A)
                 (A) (A) (A) (A) (A) (A) (A) (A) (A) (A) (A) (A)
                 (A) (A) (A) (A) (A) (A) (A) (A) (A) (A) (A) (A)
                 (A) (A) (A) (A) (A) (A) (A) (A) (A) (A) (A) (A)
                 (A) (A) (A) (A) (A) (A) (A) (A) (A) (A) (A) (A)
                 (A) (A) (A) (A) (A) (A) (A) (A) (A) (A) (A) (A)
                 (A) (A) (A) (A) (A) (A) (A) (A) (A) (A) (A) (A)
                 (A) (A) (A) (A) (A) (A) (A) (A) (A) (A) (A) (A)
                 (A) (A) (A) (A) (A) (A) (A) (A) (A) (A) (A) (A)
                 (A) (A) (A) (A) (A) (A) (A) (A) (A) (A) (A) (A)
                 (A) (A) (A) (A) (A) (A) (A) (A) (A) (A) (A) (A)
                 (A) (A) (A) (A) (A) (A) (A) (A) (A) (A) (A) (A)
                 (A) (A) (A) (A) (A) (A) (A) (A) (A) (A) (A) (A)
                 (A) (A) (A) (A) (A) (A) (A) (A) (A) (A) (A) (A)
                 (A) (A) (A) (A) (A) (A) (A) (A) (A) (A) (A) (A)
                 (A) (A) (A) (A) (A) (A) (A) (A) (A) (A) (A) (A)
                 (A) (A) (A) (A) (A) (A) (A) (A) (A) (A) (A) (A)
                 (A) (A) (A) (A) (A) (A) (A) (A) (A) (A) (A) (A)
                 (A) (A) (A) (A) (A) (A) (A) (A) (A) (A) (A) (A)
                 (A) (A) (A) (A) (A) (A) (A) (A) (A) (A) (A) (A)
                 (A) (A) (A) (A) (A) (A) (A) (A) (A) (A) (A) (A)
                 (A) (A) (A) (A) (A) (A) (A) (A) (A) (A) (A) (A)
                 (A) (A) (A) (A) (A) (A) (A) (A) (A) (A) (A) (A)
                 (A) (A) (A) (A) (A) (A) (A) (A) (A) (A) (A) (A)
                 (A) (A) (A) (A) (A) (A) (A) (A) (A) (A) (A) (A)
                 (A) (A) (A) (A) (A) (A) (A) (A) (A) (A) (A) (A)
                 (A) (A) (A) (A) (A) (A) (A) (A) (A) (A) (A) (A)
                 (A) (A) (A) (A) (A) (A) (A) (A) (A) (A) (A) (A)
                 (A) (A) (A) (A) (A) (A) (A) (A) (A) (A) (A) (A)
                 (A) (A) (A) (A) (A) (A) (A) (A) (A) (A) (A) (A)
                 (A) (A) (A) (A) (A) (A) (A) (A) (A) (A) (A) (A)
                 (A) (A) (A) (A) (A) (A) (A) (A) (A) (A) (A) (A)
                 (A) (A) (A) (A) (A) (A) (A) (A) (A) (A) (A) (A)
                 (A) (A) (A) (A) (A) (A) (A) (A) (A) (A) (A) (A)
                 (A) (A) (A) (A) (A) (A) (A) (A) (A) (A) (A) (A)
                 (A) (A) (A) (A) (A) (A) (A) (A) (A) (A) (A) (A)
                 (A) (A) (A) (A) (A) (A) (A) (A) (A) (A) (A) (A)
                 (A) (A) (A) (A) (A) (A) (A) (A) (A) (A) (A) (A)
                 (A) (A) (A) (A) (A) (A) (A) (A) (A) (A) (A) (A)
                 (A) (A) (A) (A) (A) (A) (A) (A) (A) (A) (A) (A)
                 (A) (A) (A) (A) (A) (A) (A) (A) (A) (A) (A) (A)
                 (A) (A) (A) (A) (A) (A) (A) (A) (A) (A) (A) (A)
                 (A) (A) (A) (A) (A) (A) (A) (A) (A) (A) (A) (A)
                 (A) (A) (A) (A) (A) (A) (A) (A) (A) (A) (A) (A)
                 (A) (A) (A) (A) (A) (A) (A) (A) (A) (A) (A) (A)
                 (A) (A) (A) (A) (A) (A) (A) (A) (A) (A) (A) (A)
                 (A) (A) (A) (A) (A) (A) (A) (A) (A) (A) (A) (A)
                 (A) (A) (A) (A) (A) (A) (A) (A) (A) (A) (A) (A)
                 (A) (A) (A) (A) (A) (A) (A) (A) (A) (A) (A) (A)
                 (A) (A) (A) (A) (A) (A) (A) (A) (A) (A) (A) (A)
                 (A) (A) (A) (A) (A) (A) (A) (A) (A) (A) (A) (A)
                 (A) (A) (A) (A) (A) (A) (A) (A) (A) (A) (A) (A)
                 (A) (A) (A) (A) (A) (A) (A) (A) (A) (A) (A) (A)
                 (A) (A) (A) (A) (A) (A) (A) (A) (A) (A) (A) (A)
                 (A) (A) (A) (A) (A) (A) (A) (A) (A) (A) (A) (A)
                 (A) (A) (A) (A) (A) (A) (A) (A) (A) (A) (A) (A)
                 (A) (A) (A) (A) (A) (A) (A) (A) (A) (A) (A) (A)
                 (A) (A) (A) (A) (A) (A) (A) (A) (A) (A) (A) (A)
                 (A) (A) (A) (A) (A) (A) (A) (A) (A) (A) (A) (A)
                 (A) (A) (A) (A) (A) (A) (A) (A) (A) (A) (A) (A)
                 (A) (A) (A) (A) (A) (A) (A) (A) (A) (A) (A) (A)
                 (A) (A) (A) (A) (A) (A) (A) (A) (A) (A) (A) (A)
                 (A) (A) (A) (A) (A) (A) (A) (A) (A) (A) (A) (A)
                 (A) (A) (A) (A) (A) (A) (A) (A) (A) (A) (A) (A)
                 (A) (A) (A) (A) (A) (A) (A) (A) (A) (A) (A) (A)
                 (A) (A) (A) (A) (A) (A) (A) (A) (A) (A) (A) (A)
                 (A) (A) (A) (A) (A) (A) (A) (A) (A) (A) (A) (A)
                 (A) (A) (A) (A) (A) (A) (A) (A) (A) (A) (A) (A)
                 (A) (A) (A) (A) (A) (A) (A) (A) (A) (A) (A) (A)
                 (A) (A) (A) (A) (A) (A) (A) (A) (A) (A) (A) (A)
                 (A) (A) (A) (A) (A) (A) (A) (A) (A) (A) (A) (A)
                 (A) (A) (A) (A) (A) (A) (A) (A) (A) (A) (A) (A)
                 (A) (A) (A) (A) (A) (A) (A) (A) (A) (A) (A) (A)
                 (A) (A) (A) (A) (A) (A) (A) (A) (A) (A) (A) (A)
                 (A) (A) (A) (A) (A) (A) (A) (A) (A) (A) (A) (A)
                 (A) (A) (A) (A) (A) (A) (A) (A) (A) (A) (A) (A)
                 (A) (A) (A) (A) (A) (A) (A) (A) (A) (A) (A) (A)
                 (A) (A) (A) (A) (A) (A) (A) (A) (A) (A) (A) (A)
                 (A) (A) (A) (A) (A) (A) (A) (A) (A) (A) (A) (A)
                 (A) (A) (A) (A) (A) (A) (A) (A) (A) (A) (A) (A)
                 (A) (A) (A) (A) (A) (A) (A) (A) (A) (A) (A) (A)
                 (A) (A) (A) (A) (A) (A) (A) (A) (A) (A) (A) (A)
                 (A) (A) (A) (A) (A) (A) (A) (A) (A) (A) (A) (A)
                 (A) (A) (A) (A) (A) (A) (A) (A) (A) (A) (A)
 The electronic state is 1-A.
 Alpha  occ. eigenvalues -- -103.48677 -91.07479 -25.62270 -25.62266 -25.62234
 Alpha  occ. eigenvalues --  -25.62232 -25.62091 -19.84817 -19.82479 -19.82231
 Alpha  occ. eigenvalues --  -14.98621 -14.96576 -10.83779 -10.80598 -10.79246
 Alpha  occ. eigenvalues --  -10.79032 -10.78883 -10.75165 -10.74014 -10.73868
 Alpha  occ. eigenvalues --  -10.73701 -10.72104 -10.71443 -10.69956 -10.69835
 Alpha  occ. eigenvalues --  -10.06175  -8.82024  -7.63846  -7.63391  -7.63380
 Alpha  occ. eigenvalues --   -6.61116  -6.61103  -6.60684  -1.50188  -1.40771
 Alpha  occ. eigenvalues --   -1.40722  -1.37653  -1.36482  -1.15181  -1.13009
 Alpha  occ. eigenvalues --   -1.03524  -1.02829  -1.00127  -0.98316  -0.94475
 Alpha  occ. eigenvalues --   -0.88937  -0.85869  -0.82623  -0.82544  -0.81604
 Alpha  occ. eigenvalues --   -0.74576  -0.70917  -0.68724  -0.68181  -0.67653
 Alpha  occ. eigenvalues --   -0.67341  -0.63530  -0.62555  -0.60391  -0.59233
 Alpha  occ. eigenvalues --   -0.57469  -0.57410  -0.55288  -0.54026  -0.53128
 Alpha  occ. eigenvalues --   -0.52528  -0.50904  -0.50666  -0.50339  -0.50173
 Alpha  occ. eigenvalues --   -0.49677  -0.49025  -0.48760  -0.47358  -0.46882
 Alpha  occ. eigenvalues --   -0.46711  -0.46413  -0.45228  -0.45165  -0.44689
 Alpha  occ. eigenvalues --   -0.44472  -0.43562  -0.42412  -0.41968  -0.41498
 Alpha  occ. eigenvalues --   -0.40318  -0.39569  -0.38997  -0.37322  -0.37287
 Alpha  occ. eigenvalues --   -0.36619  -0.35957  -0.34705  -0.34336  -0.33453
 Alpha  occ. eigenvalues --   -0.32863  -0.32184  -0.31935  -0.29876  -0.26518
 Alpha  occ. eigenvalues --   -0.23187  -0.23086  -0.22786  -0.22522  -0.22388
 Alpha  occ. eigenvalues --   -0.17601
 Alpha virt. eigenvalues --    0.08039   0.08772   0.09466   0.10023   0.10136
 Alpha virt. eigenvalues --    0.10729   0.10996   0.11088   0.11562   0.12599
 Alpha virt. eigenvalues --    0.12655   0.12892   0.12921   0.13213   0.13378
 Alpha virt. eigenvalues --    0.13725   0.13981   0.14269   0.14720   0.14908
 Alpha virt. eigenvalues --    0.15109   0.15506   0.15904   0.16732   0.16871
 Alpha virt. eigenvalues --    0.17012   0.17402   0.17933   0.18200   0.18362
 Alpha virt. eigenvalues --    0.18525   0.18792   0.18998   0.19333   0.19570
 Alpha virt. eigenvalues --    0.19641   0.19750   0.20218   0.20524   0.20884
 Alpha virt. eigenvalues --    0.20963   0.21300   0.21529   0.21654   0.22127
 Alpha virt. eigenvalues --    0.22194   0.22385   0.22731   0.23087   0.23159
 Alpha virt. eigenvalues --    0.23471   0.23596   0.23748   0.24108   0.24185
 Alpha virt. eigenvalues --    0.24794   0.24973   0.25318   0.25800   0.26265
 Alpha virt. eigenvalues --    0.26435   0.26644   0.26980   0.27293   0.27700
 Alpha virt. eigenvalues --    0.27917   0.28028   0.28135   0.28320   0.28725
 Alpha virt. eigenvalues --    0.29060   0.29511   0.29521   0.29893   0.30113
 Alpha virt. eigenvalues --    0.30275   0.30787   0.30900   0.31222   0.31396
 Alpha virt. eigenvalues --    0.31560   0.31735   0.32121   0.32554   0.33080
 Alpha virt. eigenvalues --    0.33204   0.33340   0.33647   0.33937   0.33975
 Alpha virt. eigenvalues --    0.34150   0.34533   0.34903   0.35328   0.35604
 Alpha virt. eigenvalues --    0.35662   0.35752   0.36034   0.36192   0.36389
 Alpha virt. eigenvalues --    0.36747   0.36949   0.37137   0.37346   0.37582
 Alpha virt. eigenvalues --    0.37760   0.37963   0.38090   0.38186   0.38295
 Alpha virt. eigenvalues --    0.38796   0.38955   0.39115   0.39249   0.39570
 Alpha virt. eigenvalues --    0.39912   0.40152   0.40371   0.40403   0.40735
 Alpha virt. eigenvalues --    0.41060   0.41188   0.41357   0.41486   0.41879
 Alpha virt. eigenvalues --    0.41972   0.42395   0.42518   0.42649   0.42995
 Alpha virt. eigenvalues --    0.43281   0.43403   0.43562   0.43907   0.43987
 Alpha virt. eigenvalues --    0.44296   0.44560   0.44910   0.45209   0.45283
 Alpha virt. eigenvalues --    0.45453   0.45715   0.45958   0.46354   0.46443
 Alpha virt. eigenvalues --    0.46579   0.46760   0.47012   0.47242   0.47722
 Alpha virt. eigenvalues --    0.48005   0.48115   0.48305   0.48620   0.48752
 Alpha virt. eigenvalues --    0.49053   0.49314   0.49491   0.49705   0.49816
 Alpha virt. eigenvalues --    0.50385   0.50805   0.50926   0.51047   0.51274
 Alpha virt. eigenvalues --    0.51566   0.51788   0.52001   0.52148   0.52547
 Alpha virt. eigenvalues --    0.52701   0.52853   0.53024   0.53569   0.53730
 Alpha virt. eigenvalues --    0.53908   0.54048   0.54209   0.54432   0.54514
 Alpha virt. eigenvalues --    0.54671   0.54839   0.54858   0.55144   0.55482
 Alpha virt. eigenvalues --    0.55759   0.56081   0.56133   0.56500   0.56757
 Alpha virt. eigenvalues --    0.57111   0.57362   0.57550   0.58183   0.58446
 Alpha virt. eigenvalues --    0.58521   0.58727   0.58756   0.59171   0.59250
 Alpha virt. eigenvalues --    0.59304   0.59586   0.59762   0.59909   0.60079
 Alpha virt. eigenvalues --    0.60566   0.60868   0.61042   0.61269   0.61334
 Alpha virt. eigenvalues --    0.61612   0.61795   0.62073   0.62318   0.62655
 Alpha virt. eigenvalues --    0.62900   0.62983   0.63399   0.63679   0.64450
 Alpha virt. eigenvalues --    0.64945   0.65264   0.65558   0.65633   0.65902
 Alpha virt. eigenvalues --    0.66140   0.66343   0.66669   0.66693   0.67200
 Alpha virt. eigenvalues --    0.67322   0.67844   0.68188   0.68282   0.68763
 Alpha virt. eigenvalues --    0.68961   0.69412   0.69755   0.70218   0.70320
 Alpha virt. eigenvalues --    0.70527   0.70981   0.71569   0.71860   0.72031
 Alpha virt. eigenvalues --    0.72081   0.72434   0.72662   0.73135   0.73238
 Alpha virt. eigenvalues --    0.73819   0.74029   0.74313   0.74695   0.75103
 Alpha virt. eigenvalues --    0.75188   0.75445   0.75986   0.76922   0.76995
 Alpha virt. eigenvalues --    0.77183   0.77441   0.77596   0.77783   0.78567
 Alpha virt. eigenvalues --    0.79047   0.79073   0.79544   0.79922   0.80480
 Alpha virt. eigenvalues --    0.80561   0.81382   0.81449   0.81799   0.82209
 Alpha virt. eigenvalues --    0.82325   0.82828   0.82879   0.82951   0.83542
 Alpha virt. eigenvalues --    0.84095   0.84454   0.84850   0.85376   0.85462
 Alpha virt. eigenvalues --    0.85865   0.86034   0.86319   0.86834   0.87332
 Alpha virt. eigenvalues --    0.87442   0.87655   0.88547   0.88649   0.88955
 Alpha virt. eigenvalues --    0.89050   0.89367   0.89676   0.89957   0.90239
 Alpha virt. eigenvalues --    0.90275   0.90764   0.91055   0.91375   0.91904
 Alpha virt. eigenvalues --    0.91974   0.92198   0.92688   0.93013   0.93098
 Alpha virt. eigenvalues --    0.93306   0.93629   0.93820   0.93921   0.94603
 Alpha virt. eigenvalues --    0.94804   0.95305   0.95465   0.95969   0.96197
 Alpha virt. eigenvalues --    0.96303   0.96457   0.96574   0.96745   0.96921
 Alpha virt. eigenvalues --    0.97337   0.97496   0.97928   0.98206   0.98269
 Alpha virt. eigenvalues --    0.98579   0.98826   0.99290   0.99515   0.99830
 Alpha virt. eigenvalues --    0.99941   1.00063   1.00654   1.00889   1.01498
 Alpha virt. eigenvalues --    1.01672   1.02215   1.02344   1.02547   1.03103
 Alpha virt. eigenvalues --    1.03229   1.03418   1.03674   1.03950   1.04337
 Alpha virt. eigenvalues --    1.04766   1.04862   1.05077   1.05592   1.05785
 Alpha virt. eigenvalues --    1.05854   1.06052   1.06332   1.06527   1.06687
 Alpha virt. eigenvalues --    1.07025   1.07306   1.07520   1.07862   1.08408
 Alpha virt. eigenvalues --    1.08557   1.08976   1.09158   1.09519   1.09865
 Alpha virt. eigenvalues --    1.10225   1.10780   1.10928   1.11180   1.11267
 Alpha virt. eigenvalues --    1.11644   1.11891   1.12315   1.12547   1.12722
 Alpha virt. eigenvalues --    1.12907   1.13092   1.13374   1.13450   1.13984
 Alpha virt. eigenvalues --    1.14360   1.14554   1.14639   1.14978   1.15247
 Alpha virt. eigenvalues --    1.15853   1.15961   1.16222   1.16542   1.16741
 Alpha virt. eigenvalues --    1.16843   1.17082   1.17406   1.17544   1.17864
 Alpha virt. eigenvalues --    1.18579   1.18823   1.19388   1.19546   1.19908
 Alpha virt. eigenvalues --    1.20147   1.20478   1.20501   1.20749   1.21124
 Alpha virt. eigenvalues --    1.21306   1.21508   1.21857   1.22033   1.22549
 Alpha virt. eigenvalues --    1.23055   1.23502   1.23840   1.23926   1.24223
 Alpha virt. eigenvalues --    1.24458   1.24714   1.25131   1.25404   1.25784
 Alpha virt. eigenvalues --    1.25867   1.26075   1.26438   1.26880   1.27334
 Alpha virt. eigenvalues --    1.27623   1.27881   1.28157   1.28343   1.28980
 Alpha virt. eigenvalues --    1.29125   1.29368   1.29742   1.30061   1.30246
 Alpha virt. eigenvalues --    1.30575   1.30845   1.31305   1.31613   1.31812
 Alpha virt. eigenvalues --    1.32037   1.32097   1.32446   1.32730   1.33001
 Alpha virt. eigenvalues --    1.33312   1.33764   1.34315   1.34716   1.35042
 Alpha virt. eigenvalues --    1.35130   1.35447   1.35656   1.35817   1.36415
 Alpha virt. eigenvalues --    1.36703   1.36803   1.37321   1.37522   1.37853
 Alpha virt. eigenvalues --    1.38046   1.38427   1.38726   1.39171   1.39261
 Alpha virt. eigenvalues --    1.39962   1.40270   1.40781   1.40855   1.41248
 Alpha virt. eigenvalues --    1.41549   1.41762   1.42060   1.42753   1.43303
 Alpha virt. eigenvalues --    1.43557   1.43955   1.44344   1.44675   1.45172
 Alpha virt. eigenvalues --    1.45724   1.45751   1.46007   1.46490   1.46683
 Alpha virt. eigenvalues --    1.46783   1.47273   1.47727   1.47814   1.48029
 Alpha virt. eigenvalues --    1.48623   1.48852   1.48998   1.49573   1.49752
 Alpha virt. eigenvalues --    1.50228   1.50416   1.50975   1.51496   1.52134
 Alpha virt. eigenvalues --    1.52539   1.52612   1.53366   1.53493   1.54509
 Alpha virt. eigenvalues --    1.54922   1.55438   1.55591   1.56016   1.56206
 Alpha virt. eigenvalues --    1.56449   1.57196   1.57522   1.57780   1.57857
 Alpha virt. eigenvalues --    1.58604   1.58822   1.59076   1.59188   1.60141
 Alpha virt. eigenvalues --    1.60335   1.60659   1.61020   1.61664   1.61971
 Alpha virt. eigenvalues --    1.62443   1.62546   1.63234   1.63354   1.63565
 Alpha virt. eigenvalues --    1.64041   1.64220   1.64630   1.65352   1.65664
 Alpha virt. eigenvalues --    1.65842   1.66863   1.67131   1.67282   1.67468
 Alpha virt. eigenvalues --    1.67770   1.67896   1.68250   1.68400   1.69327
 Alpha virt. eigenvalues --    1.69422   1.69729   1.69932   1.70468   1.70947
 Alpha virt. eigenvalues --    1.71513   1.71745   1.71978   1.72076   1.72508
 Alpha virt. eigenvalues --    1.72693   1.73079   1.73236   1.73323   1.74191
 Alpha virt. eigenvalues --    1.74351   1.74708   1.74932   1.75097   1.75825
 Alpha virt. eigenvalues --    1.76062   1.76225   1.76540   1.76813   1.77479
 Alpha virt. eigenvalues --    1.77966   1.78216   1.78546   1.78590   1.79975
 Alpha virt. eigenvalues --    1.80463   1.80613   1.80760   1.81220   1.81294
 Alpha virt. eigenvalues --    1.81898   1.82195   1.82290   1.82763   1.82986
 Alpha virt. eigenvalues --    1.83568   1.84022   1.84267   1.84998   1.85081
 Alpha virt. eigenvalues --    1.85547   1.86072   1.86519   1.86675   1.87176
 Alpha virt. eigenvalues --    1.87746   1.87859   1.88671   1.88938   1.89204
 Alpha virt. eigenvalues --    1.89453   1.89665   1.89832   1.90005   1.90753
 Alpha virt. eigenvalues --    1.91393   1.92101   1.92192   1.92703   1.92889
 Alpha virt. eigenvalues --    1.93389   1.93501   1.93807   1.94259   1.95003
 Alpha virt. eigenvalues --    1.95391   1.95838   1.96016   1.96337   1.97345
 Alpha virt. eigenvalues --    1.97511   1.97788   1.97842   1.98352   1.99044
 Alpha virt. eigenvalues --    1.99222   1.99295   1.99904   2.00529   2.01041
 Alpha virt. eigenvalues --    2.01505   2.01890   2.02093   2.02456   2.03019
 Alpha virt. eigenvalues --    2.03978   2.04124   2.04383   2.04833   2.05076
 Alpha virt. eigenvalues --    2.05757   2.06007   2.06456   2.07069   2.07374
 Alpha virt. eigenvalues --    2.07928   2.08070   2.08521   2.09093   2.09726
 Alpha virt. eigenvalues --    2.10466   2.10579   2.10939   2.11578   2.12037
 Alpha virt. eigenvalues --    2.12221   2.13187   2.13271   2.14387   2.14901
 Alpha virt. eigenvalues --    2.15227   2.15628   2.16256   2.16626   2.17165
 Alpha virt. eigenvalues --    2.18039   2.18483   2.18784   2.19456   2.19855
 Alpha virt. eigenvalues --    2.20304   2.20808   2.21247   2.21360   2.22296
 Alpha virt. eigenvalues --    2.23014   2.23287   2.23758   2.24700   2.25026
 Alpha virt. eigenvalues --    2.25708   2.25992   2.26250   2.26990   2.27554
 Alpha virt. eigenvalues --    2.27981   2.29115   2.29582   2.29970   2.30078
 Alpha virt. eigenvalues --    2.30968   2.31164   2.31585   2.32285   2.33047
 Alpha virt. eigenvalues --    2.33113   2.34004   2.34580   2.35074   2.35636
 Alpha virt. eigenvalues --    2.36151   2.36422   2.36624   2.37430   2.37768
 Alpha virt. eigenvalues --    2.38229   2.39246   2.39540   2.40176   2.40556
 Alpha virt. eigenvalues --    2.40789   2.41328   2.41452   2.42289   2.42718
 Alpha virt. eigenvalues --    2.43251   2.43610   2.44290   2.45002   2.46052
 Alpha virt. eigenvalues --    2.46262   2.47150   2.47788   2.48322   2.48863
 Alpha virt. eigenvalues --    2.49288   2.50131   2.50591   2.50885   2.51190
 Alpha virt. eigenvalues --    2.52176   2.52492   2.53347   2.53593   2.54617
 Alpha virt. eigenvalues --    2.55132   2.55408   2.56329   2.56372   2.56884
 Alpha virt. eigenvalues --    2.57420   2.57810   2.58281   2.59830   2.60575
 Alpha virt. eigenvalues --    2.61319   2.61537   2.62550   2.62794   2.63743
 Alpha virt. eigenvalues --    2.63953   2.64020   2.64778   2.65545   2.65845
 Alpha virt. eigenvalues --    2.66755   2.66864   2.67610   2.68884   2.69652
 Alpha virt. eigenvalues --    2.70309   2.70931   2.72013   2.72565   2.72811
 Alpha virt. eigenvalues --    2.73016   2.73555   2.73847   2.74268   2.75081
 Alpha virt. eigenvalues --    2.75497   2.76126   2.76386   2.76576   2.78643
 Alpha virt. eigenvalues --    2.78943   2.79746   2.80235   2.80894   2.81709
 Alpha virt. eigenvalues --    2.82402   2.82526   2.82855   2.83767   2.84184
 Alpha virt. eigenvalues --    2.84732   2.84852   2.85358   2.85780   2.86629
 Alpha virt. eigenvalues --    2.87894   2.88321   2.89132   2.89771   2.90214
 Alpha virt. eigenvalues --    2.90917   2.91201   2.92009   2.92661   2.93689
 Alpha virt. eigenvalues --    2.94383   2.94678   2.95433   2.95951   2.96826
 Alpha virt. eigenvalues --    2.98135   2.98967   2.99426   2.99505   3.00555
 Alpha virt. eigenvalues --    3.01361   3.01892   3.02304   3.03118   3.04305
 Alpha virt. eigenvalues --    3.04882   3.05881   3.05952   3.06540   3.06718
 Alpha virt. eigenvalues --    3.07916   3.08535   3.09108   3.09330   3.10133
 Alpha virt. eigenvalues --    3.10511   3.10863   3.11700   3.13193   3.13758
 Alpha virt. eigenvalues --    3.14351   3.15407   3.16182   3.16884   3.17215
 Alpha virt. eigenvalues --    3.17354   3.17530   3.17997   3.18425   3.18949
 Alpha virt. eigenvalues --    3.19615   3.19766   3.21552   3.21930   3.22768
 Alpha virt. eigenvalues --    3.23233   3.23426   3.23583   3.24592   3.25480
 Alpha virt. eigenvalues --    3.25797   3.26352   3.26558   3.27722   3.27799
 Alpha virt. eigenvalues --    3.29232   3.29382   3.29537   3.31176   3.31399
 Alpha virt. eigenvalues --    3.32078   3.32551   3.32687   3.33216   3.33387
 Alpha virt. eigenvalues --    3.34463   3.35400   3.36334   3.36728   3.38291
 Alpha virt. eigenvalues --    3.38518   3.39494   3.39857   3.40894   3.41021
 Alpha virt. eigenvalues --    3.41407   3.41755   3.42522   3.43312   3.43777
 Alpha virt. eigenvalues --    3.43945   3.44488   3.44549   3.45414   3.45744
 Alpha virt. eigenvalues --    3.46587   3.47665   3.48243   3.48469   3.48924
 Alpha virt. eigenvalues --    3.49182   3.49472   3.49802   3.51301   3.51986
 Alpha virt. eigenvalues --    3.52554   3.52701   3.53483   3.54469   3.55900
 Alpha virt. eigenvalues --    3.56178   3.56490   3.57751   3.57999   3.58218
 Alpha virt. eigenvalues --    3.58778   3.59170   3.59661   3.60046   3.60416
 Alpha virt. eigenvalues --    3.61222   3.61675   3.62281   3.62569   3.63493
 Alpha virt. eigenvalues --    3.63867   3.64054   3.65183   3.66051   3.66243
 Alpha virt. eigenvalues --    3.66414   3.67625   3.68061   3.68301   3.68873
 Alpha virt. eigenvalues --    3.69682   3.70412   3.70871   3.71011   3.71615
 Alpha virt. eigenvalues --    3.71786   3.72233   3.72668   3.73054   3.73263
 Alpha virt. eigenvalues --    3.73617   3.74232   3.74607   3.75136   3.75256
 Alpha virt. eigenvalues --    3.75402   3.76656   3.76922   3.77799   3.78066
 Alpha virt. eigenvalues --    3.78843   3.79647   3.80178   3.81063   3.81500
 Alpha virt. eigenvalues --    3.82187   3.82761   3.83404   3.83932   3.84202
 Alpha virt. eigenvalues --    3.84625   3.85186   3.85497   3.85929   3.86246
 Alpha virt. eigenvalues --    3.87039   3.87194   3.87534   3.87920   3.88831
 Alpha virt. eigenvalues --    3.89060   3.89267   3.90535   3.90722   3.91872
 Alpha virt. eigenvalues --    3.91992   3.92373   3.92660   3.92770   3.93659
 Alpha virt. eigenvalues --    3.94179   3.94329   3.94878   3.95176   3.95723
 Alpha virt. eigenvalues --    3.96010   3.96522   3.97137   3.98357   3.98507
 Alpha virt. eigenvalues --    3.98771   3.99361   4.00146   4.00207   4.00758
 Alpha virt. eigenvalues --    4.01420   4.01761   4.02523   4.02709   4.02861
 Alpha virt. eigenvalues --    4.03712   4.04373   4.04714   4.05587   4.06191
 Alpha virt. eigenvalues --    4.06905   4.07315   4.08174   4.09201   4.09888
 Alpha virt. eigenvalues --    4.09991   4.10232   4.11425   4.12136   4.13115
 Alpha virt. eigenvalues --    4.13199   4.13627   4.13964   4.14398   4.14632
 Alpha virt. eigenvalues --    4.15404   4.15546   4.16873   4.17677   4.18084
 Alpha virt. eigenvalues --    4.18916   4.18964   4.19188   4.19439   4.19749
 Alpha virt. eigenvalues --    4.20198   4.21099   4.21235   4.21702   4.21829
 Alpha virt. eigenvalues --    4.22555   4.23441   4.23751   4.24387   4.25342
 Alpha virt. eigenvalues --    4.26143   4.26702   4.27601   4.28238   4.28453
 Alpha virt. eigenvalues --    4.29601   4.29746   4.30103   4.31232   4.31743
 Alpha virt. eigenvalues --    4.31972   4.32681   4.32953   4.33259   4.33641
 Alpha virt. eigenvalues --    4.34182   4.34384   4.34814   4.35256   4.36099
 Alpha virt. eigenvalues --    4.36664   4.37022   4.37348   4.38118   4.38306
 Alpha virt. eigenvalues --    4.39192   4.39493   4.39764   4.41294   4.42412
 Alpha virt. eigenvalues --    4.42476   4.42871   4.44113   4.44587   4.46149
 Alpha virt. eigenvalues --    4.47638   4.47887   4.48620   4.49594   4.49770
 Alpha virt. eigenvalues --    4.50394   4.51026   4.51302   4.52325   4.52563
 Alpha virt. eigenvalues --    4.53185   4.53776   4.54547   4.55857   4.56629
 Alpha virt. eigenvalues --    4.57070   4.57608   4.58293   4.59261   4.60066
 Alpha virt. eigenvalues --    4.61526   4.61997   4.63057   4.63501   4.64746
 Alpha virt. eigenvalues --    4.65082   4.65401   4.66144   4.66464   4.67291
 Alpha virt. eigenvalues --    4.67755   4.69309   4.69656   4.70768   4.71418
 Alpha virt. eigenvalues --    4.71450   4.72440   4.72603   4.73506   4.73671
 Alpha virt. eigenvalues --    4.74154   4.74827   4.76580   4.76791   4.77489
 Alpha virt. eigenvalues --    4.78035   4.79965   4.80489   4.81488   4.82310
 Alpha virt. eigenvalues --    4.82576   4.82862   4.82935   4.83061   4.84041
 Alpha virt. eigenvalues --    4.84371   4.85108   4.86657   4.86839   4.87345
 Alpha virt. eigenvalues --    4.88398   4.89788   4.92292   4.92747   4.93272
 Alpha virt. eigenvalues --    4.93791   4.93888   4.95819   4.96047   4.97547
 Alpha virt. eigenvalues --    4.97689   4.99375   4.99994   5.01628   5.03076
 Alpha virt. eigenvalues --    5.03209   5.03611   5.04935   5.05733   5.07216
 Alpha virt. eigenvalues --    5.08264   5.08748   5.09543   5.10344   5.10781
 Alpha virt. eigenvalues --    5.11911   5.12170   5.12509   5.13326   5.14057
 Alpha virt. eigenvalues --    5.15503   5.15888   5.16398   5.17837   5.18112
 Alpha virt. eigenvalues --    5.18683   5.19498   5.20092   5.20411   5.21333
 Alpha virt. eigenvalues --    5.22792   5.23221   5.23937   5.24480   5.24535
 Alpha virt. eigenvalues --    5.25282   5.26402   5.26964   5.27437   5.28035
 Alpha virt. eigenvalues --    5.28364   5.29310   5.30578   5.30943   5.32208
 Alpha virt. eigenvalues --    5.32876   5.34054   5.34382   5.35155   5.35398
 Alpha virt. eigenvalues --    5.37257   5.39446   5.40952   5.41471   5.42395
 Alpha virt. eigenvalues --    5.43952   5.45708   5.46145   5.46781   5.48031
 Alpha virt. eigenvalues --    5.48729   5.49397   5.52140   5.53644   5.54414
 Alpha virt. eigenvalues --    5.55517   5.57078   5.57986   5.58131   5.58240
 Alpha virt. eigenvalues --    5.59183   5.60474   5.60862   5.61352   5.61947
 Alpha virt. eigenvalues --    5.63307   5.63970   5.64644   5.67344   5.67670
 Alpha virt. eigenvalues --    5.68178   5.68395   5.70344   5.71838   5.72962
 Alpha virt. eigenvalues --    5.74431   5.74469   5.77511   5.78472   5.79244
 Alpha virt. eigenvalues --    5.79513   5.81151   5.81510   5.82420   5.83479
 Alpha virt. eigenvalues --    5.83809   5.84689   5.85237   5.85597   5.86319
 Alpha virt. eigenvalues --    5.87423   5.89237   5.90459   5.91358   5.93734
 Alpha virt. eigenvalues --    5.95001   5.96256   5.97832   5.98247   5.99175
 Alpha virt. eigenvalues --    5.99642   6.00209   6.03362   6.05048   6.05564
 Alpha virt. eigenvalues --    6.06290   6.08637   6.10106   6.11744   6.12939
 Alpha virt. eigenvalues --    6.13565   6.15004   6.15968   6.16211   6.17571
 Alpha virt. eigenvalues --    6.17812   6.19284   6.21033   6.23042   6.23530
 Alpha virt. eigenvalues --    6.24269   6.27064   6.31152   6.33705   6.33974
 Alpha virt. eigenvalues --    6.35330   6.35828   6.37308   6.40403   6.40657
 Alpha virt. eigenvalues --    6.43571   6.44970   6.45422   6.46214   6.49744
 Alpha virt. eigenvalues --    6.52189   6.55878   6.59242   6.61567   6.64806
 Alpha virt. eigenvalues --    6.67985   6.69865   6.70366   6.70913   6.72585
 Alpha virt. eigenvalues --    6.73071   6.76304   6.78022   6.78423   6.79131
 Alpha virt. eigenvalues --    6.81505   6.82457   6.83055   6.87363   6.89401
 Alpha virt. eigenvalues --    6.91932   6.93088   6.94189   6.94513   6.98100
 Alpha virt. eigenvalues --    6.99765   7.01876   7.04607   7.07076   7.07353
 Alpha virt. eigenvalues --    7.08862   7.09594   7.13391   7.16352   7.17198
 Alpha virt. eigenvalues --    7.17474   7.22326   7.22934   7.29346   7.35858
 Alpha virt. eigenvalues --    7.36281   7.36498   7.37783   7.39732   7.42619
 Alpha virt. eigenvalues --    7.47670   7.49395   7.52509   7.64452   7.66905
 Alpha virt. eigenvalues --    7.67599   7.69083   7.72719   7.76576   7.80256
 Alpha virt. eigenvalues --    7.88563   7.96099   7.99741   8.02670   8.08106
 Alpha virt. eigenvalues --    8.10109   8.14107   8.33732   8.46877   8.56042
 Alpha virt. eigenvalues --    8.64001   8.66486   8.80491   8.83362   8.85053
 Alpha virt. eigenvalues --    8.85512   8.87783   8.88084   8.88472   8.91232
 Alpha virt. eigenvalues --    8.92461   8.92871   8.93426   9.01344   9.04974
 Alpha virt. eigenvalues --    9.05777   9.06907   9.08021   9.13986   9.16541
 Alpha virt. eigenvalues --    9.17632   9.19293   9.20241   9.21324   9.21401
 Alpha virt. eigenvalues --    9.23973   9.27013   9.27180   9.27470   9.28092
 Alpha virt. eigenvalues --    9.30187   9.31149   9.32248   9.35280   9.38373
 Alpha virt. eigenvalues --    9.38598   9.39759   9.40191   9.41154   9.41350
 Alpha virt. eigenvalues --    9.41929   9.44901   9.46190   9.47425   9.48714
 Alpha virt. eigenvalues --    9.49155   9.50703   9.53650   9.55788   9.56873
 Alpha virt. eigenvalues --    9.64524   9.69151   9.70570   9.76224   9.76358
 Alpha virt. eigenvalues --    9.82663   9.84650   9.85021   9.92881   9.98858
 Alpha virt. eigenvalues --   11.42849  15.32859  15.55356  15.78628  15.98273
 Alpha virt. eigenvalues --   16.04453  16.32633  16.44738  16.63816  17.07179
 Alpha virt. eigenvalues --   17.44421  17.82853  17.94669  18.35572  18.47018
 Alpha virt. eigenvalues --   18.66001  19.09038  19.59711  19.73027  19.78326
 Alpha virt. eigenvalues --   20.81920  21.19064  21.87671  22.24274
          Condensed to atoms (all electrons):
               1          2          3          4          5          6
     1  C   13.008737  -0.327784  -1.069425   0.181276   0.046407  -0.025937
     2  N   -0.327784   9.837919   0.331199  -0.094154  -0.982974  -0.281316
     3  C   -1.069425   0.331199   7.726198   0.252986  -0.120624  -0.559766
     4  O    0.181276  -0.094154   0.252986   9.239189  -0.207668   0.031465
     5  N    0.046407  -0.982974  -0.120624  -0.207668   8.789398   0.505784
     6  C   -0.025937  -0.281316  -0.559766   0.031465   0.505784   6.823013
     7  C   -0.010981   0.000862   0.033394   0.002950  -0.001341  -0.146842
     8  C    0.003210   0.001312   0.010871  -0.000022  -0.047838   0.011378
     9  C   -2.371226  -0.377306   0.145679  -0.197376  -0.164624  -0.049287
    10  C    0.494758   0.037888  -0.040179   0.051952   0.026513   0.006267
    11  C   -0.116784  -0.005617   0.001623  -0.004680  -0.008327  -0.000678
    12  C   -0.302118   0.121962  -0.007629   0.011947   0.022711   0.003234
    13  C   -1.476973   0.217311  -0.165003   0.036136  -0.056279  -0.019073
    14  H   -0.225241  -0.885597  -0.241176   0.006299   0.371522   0.002137
    15  H   -0.168649   0.235271  -0.082204  -0.075553  -0.788412  -0.499511
    16  H   -0.001855   0.004647  -0.071198  -0.004259  -0.066535   0.396027
    17  H   -0.006187  -0.000468  -0.073621   0.010651  -0.041895   0.440570
    18  H   -0.000971   0.002295   0.010917  -0.001867  -0.030404  -0.004304
    19  H   -0.003252   0.001910   0.011666   0.000613  -0.027096  -0.008169
    20  H    0.000490   0.000205   0.002879  -0.000173   0.002565  -0.012710
    21  H    0.000024  -0.000168   0.000329   0.000030   0.003477  -0.006758
    22  H    0.000498  -0.000060   0.003554   0.000202   0.001573  -0.011311
    23  H   -0.906671  -0.287518   0.111370  -0.237154  -0.005587  -0.014772
    24  Cl   0.035593  -0.006074   0.006203  -0.000279  -0.000110   0.000454
    25  H   -0.972108   0.040220  -0.113611   0.001454   0.015904   0.005061
    26  S   -0.098447  -0.000811  -0.022646  -0.001002   0.000248  -0.002846
    27  H   -0.038031   0.002088   0.005838  -0.000517  -0.000635  -0.000079
    28  F    0.015486  -0.005416   0.003145  -0.000619  -0.002167  -0.000799
    29  F    0.019691   0.000482   0.001029  -0.000037   0.000150   0.000142
    30  F    0.015870  -0.005421   0.002123  -0.000705  -0.002063  -0.001033
    31  F    0.018711   0.000262   0.001270  -0.000056   0.000117   0.000130
    32  F   -0.007775   0.000532   0.003712   0.000055  -0.000116   0.000014
    33  O    0.018301  -0.097114  -0.005691  -0.000504   0.007874  -0.015669
    34  O    0.039757  -0.004847  -0.017404  -0.006243  -0.026079  -0.045245
    35  C   -0.096950  -0.035419  -0.016522  -0.002700  -0.015776   0.002627
    36  C   -0.023124  -0.003647  -0.014202  -0.000799  -0.001374   0.006231
    37  C   -0.005064  -0.001440  -0.003867   0.000088   0.001015  -0.000710
    38  H   -0.000908  -0.003917  -0.000625  -0.000033   0.003683   0.001018
    39  H   -0.000841  -0.003846  -0.000553  -0.000048   0.003301   0.001049
    40  H   -0.000635   0.000444  -0.000169   0.000016  -0.001198  -0.000031
    41  H   -0.000028   0.000115   0.000037   0.000004  -0.000263  -0.000370
    42  H   -0.000505   0.000252  -0.000396   0.000015  -0.000199  -0.000208
               7          8          9         10         11         12
     1  C   -0.010981   0.003210  -2.371226   0.494758  -0.116784  -0.302118
     2  N    0.000862   0.001312  -0.377306   0.037888  -0.005617   0.121962
     3  C    0.033394   0.010871   0.145679  -0.040179   0.001623  -0.007629
     4  O    0.002950  -0.000022  -0.197376   0.051952  -0.004680   0.011947
     5  N   -0.001341  -0.047838  -0.164624   0.026513  -0.008327   0.022711
     6  C   -0.146842   0.011378  -0.049287   0.006267  -0.000678   0.003234
     7  C    5.774915   0.003077  -0.003887   0.001069  -0.000107   0.000355
     8  C    0.003077   5.971644  -0.000714   0.000010  -0.000001   0.000006
     9  C   -0.003887  -0.000714  11.511176  -2.281104   0.061529   0.032078
    10  C    0.001069   0.000010  -2.281104  10.534320  -1.369345  -0.011273
    11  C   -0.000107  -0.000001   0.061529  -1.369345   8.298924  -0.318157
    12  C    0.000355   0.000006   0.032078  -0.011273  -0.318157   7.120063
    13  C    0.006436   0.000536  -0.026976  -0.277511  -0.045501  -0.078559
    14  H    0.010066   0.004666  -0.127860   0.088585   0.011236  -0.012652
    15  H    0.006731   0.000595   0.054194  -0.001974  -0.002067  -0.004218
    16  H   -0.029233  -0.010390   0.003646  -0.001204  -0.000003  -0.000104
    17  H   -0.020471  -0.010498   0.005625  -0.001489   0.000010  -0.000076
    18  H    0.351963  -0.038352  -0.001132   0.000259   0.000003   0.000053
    19  H    0.388782  -0.041016  -0.000031   0.000176  -0.000004   0.000020
    20  H    0.018468   0.384198  -0.000094   0.000037  -0.000004   0.000013
    21  H   -0.017094   0.446474  -0.000014  -0.000003   0.000000  -0.000006
    22  H    0.016890   0.390538  -0.000052   0.000029  -0.000003   0.000012
    23  H   -0.003213  -0.000498   0.544005  -0.661965   0.138108  -0.058295
    24  Cl  -0.000059  -0.000000   0.001307   0.004095  -0.171056  -0.124685
    25  H   -0.001370  -0.000083  -0.041859  -0.086401   0.003515  -0.542110
    26  S    0.000037  -0.000004   0.182042  -0.926661   0.049017   0.025367
    27  H   -0.000002   0.000000   0.083255  -0.416606   0.201845  -0.191663
    28  F   -0.000042   0.000001   0.036917  -0.166908   0.014004   0.006543
    29  F    0.000001   0.000000  -0.020287  -0.100506   0.052722  -0.007214
    30  F   -0.000041   0.000001   0.038872  -0.168554   0.015098   0.006774
    31  F   -0.000001   0.000000  -0.018659  -0.101605   0.053227  -0.007905
    32  F   -0.000002   0.000000  -0.012736   0.217513  -0.055266  -0.009019
    33  O    0.002273   0.000961  -0.046172   0.014152  -0.008819   0.030373
    34  O   -0.026170  -0.011553  -0.005077   0.005629  -0.001483   0.000362
    35  C   -0.002548   0.000467   0.005325  -0.014065   0.003967   0.007749
    36  C   -0.000484   0.000404   0.004074  -0.003899   0.002459   0.002592
    37  C    0.005177  -0.000626   0.000523  -0.000314   0.000108   0.000764
    38  H   -0.000839  -0.000105   0.000201  -0.000611   0.000544   0.000550
    39  H   -0.001025  -0.000116   0.000323  -0.000607   0.000534   0.000550
    40  H   -0.000108   0.000315   0.000125  -0.000039   0.000016  -0.000007
    41  H    0.000384  -0.000050  -0.000008   0.000005  -0.000012  -0.000005
    42  H   -0.000164   0.000106   0.000057  -0.000040   0.000018   0.000016
              13         14         15         16         17         18
     1  C   -1.476973  -0.225241  -0.168649  -0.001855  -0.006187  -0.000971
     2  N    0.217311  -0.885597   0.235271   0.004647  -0.000468   0.002295
     3  C   -0.165003  -0.241176  -0.082204  -0.071198  -0.073621   0.010917
     4  O    0.036136   0.006299  -0.075553  -0.004259   0.010651  -0.001867
     5  N   -0.056279   0.371522  -0.788412  -0.066535  -0.041895  -0.030404
     6  C   -0.019073   0.002137  -0.499511   0.396027   0.440570  -0.004304
     7  C    0.006436   0.010066   0.006731  -0.029233  -0.020471   0.351963
     8  C    0.000536   0.004666   0.000595  -0.010390  -0.010498  -0.038352
     9  C   -0.026976  -0.127860   0.054194   0.003646   0.005625  -0.001132
    10  C   -0.277511   0.088585  -0.001974  -0.001204  -0.001489   0.000259
    11  C   -0.045501   0.011236  -0.002067  -0.000003   0.000010   0.000003
    12  C   -0.078559  -0.012652  -0.004218  -0.000104  -0.000076   0.000053
    13  C    9.446043  -0.615706  -0.008929   0.000126  -0.000841   0.000225
    14  H   -0.615706   2.457069  -0.145067   0.003248  -0.000935   0.003191
    15  H   -0.008929  -0.145067   1.755365   0.023185  -0.006603   0.005033
    16  H    0.000126   0.003248   0.023185   0.429304   0.033214   0.013800
    17  H   -0.000841  -0.000935  -0.006603   0.033214   0.430449  -0.012272
    18  H    0.000225   0.003191   0.005033   0.013800  -0.012272   0.435940
    19  H    0.000324   0.000302  -0.003661  -0.013061   0.014804   0.014376
    20  H    0.000116   0.000146   0.000152  -0.006948  -0.010731   0.004531
    21  H   -0.000020  -0.000488   0.002570  -0.001865  -0.000780  -0.017911
    22  H    0.000045   0.000232  -0.001154  -0.009894  -0.007220   0.001039
    23  H   -0.157509   0.054153   0.012120  -0.000189   0.000566  -0.000436
    24  Cl   0.046486  -0.017853   0.001550   0.000023   0.000021  -0.000012
    25  H    0.118877  -0.419729   0.000320   0.000266   0.000072  -0.000665
    26  S   -0.004513  -0.003981  -0.000118  -0.000260  -0.000244   0.000012
    27  H   -0.038061   0.002203  -0.000075  -0.000007  -0.000003   0.000003
    28  F   -0.000286  -0.000150   0.000080  -0.000014  -0.000017   0.000006
    29  F   -0.001527  -0.000252   0.000010   0.000007   0.000000   0.000001
    30  F   -0.000253   0.000237   0.000004  -0.000018  -0.000023  -0.000006
    31  F   -0.000927  -0.000445   0.000056   0.000000   0.000007  -0.000000
    32  F    0.004755  -0.000111   0.000041   0.000015   0.000015  -0.000001
    33  O    0.068837  -0.207104  -0.074900  -0.000728  -0.001057  -0.000519
    34  O    0.007493   0.002794  -0.156599   0.002647   0.001147   0.002460
    35  C    0.012108   0.019723  -0.016624   0.001840  -0.000041   0.000836
    36  C   -0.009478   0.009586   0.016245   0.000594   0.000412   0.002549
    37  C    0.001687   0.003837  -0.005726   0.000033   0.000121  -0.000574
    38  H   -0.007819  -0.001194   0.005054   0.000086   0.000047   0.000234
    39  H   -0.008235  -0.000376   0.005191   0.000055   0.000097   0.000197
    40  H    0.000353   0.001849  -0.002638  -0.000007   0.000011  -0.000170
    41  H    0.000466  -0.000879   0.001775  -0.000011  -0.000006  -0.000222
    42  H    0.000240   0.001210  -0.001148   0.000023  -0.000039   0.000392
              19         20         21         22         23         24
     1  C   -0.003252   0.000490   0.000024   0.000498  -0.906671   0.035593
     2  N    0.001910   0.000205  -0.000168  -0.000060  -0.287518  -0.006074
     3  C    0.011666   0.002879   0.000329   0.003554   0.111370   0.006203
     4  O    0.000613  -0.000173   0.000030   0.000202  -0.237154  -0.000279
     5  N   -0.027096   0.002565   0.003477   0.001573  -0.005587  -0.000110
     6  C   -0.008169  -0.012710  -0.006758  -0.011311  -0.014772   0.000454
     7  C    0.388782   0.018468  -0.017094   0.016890  -0.003213  -0.000059
     8  C   -0.041016   0.384198   0.446474   0.390538  -0.000498  -0.000000
     9  C   -0.000031  -0.000094  -0.000014  -0.000052   0.544005   0.001307
    10  C    0.000176   0.000037  -0.000003   0.000029  -0.661965   0.004095
    11  C   -0.000004  -0.000004   0.000000  -0.000003   0.138108  -0.171056
    12  C    0.000020   0.000013  -0.000006   0.000012  -0.058295  -0.124685
    13  C    0.000324   0.000116  -0.000020   0.000045  -0.157509   0.046486
    14  H    0.000302   0.000146  -0.000488   0.000232   0.054153  -0.017853
    15  H   -0.003661   0.000152   0.002570  -0.001154   0.012120   0.001550
    16  H   -0.013061  -0.006948  -0.001865  -0.009894  -0.000189   0.000023
    17  H    0.014804  -0.010731  -0.000780  -0.007220   0.000566   0.000021
    18  H    0.014376   0.004531  -0.017911   0.001039  -0.000436  -0.000012
    19  H    0.433032   0.000145  -0.009077   0.001304  -0.000243  -0.000000
    20  H    0.000145   0.329115  -0.005613   0.019566  -0.000059  -0.000001
    21  H   -0.009077  -0.005613   0.338571  -0.002163   0.000012   0.000000
    22  H    0.001304   0.019566  -0.002163   0.325664  -0.000028  -0.000001
    23  H   -0.000243  -0.000059   0.000012  -0.000028   1.936101  -0.003262
    24  Cl  -0.000000  -0.000001   0.000000  -0.000001  -0.003262  17.702863
    25  H   -0.000496   0.000018  -0.000004   0.000004  -0.039436   0.053819
    26  S    0.000014   0.000004  -0.000001   0.000003   0.133110  -0.007777
    27  H    0.000002   0.000000  -0.000000   0.000000  -0.005297  -0.067428
    28  F   -0.000009  -0.000000  -0.000000   0.000001  -0.009941   0.000235
    29  F    0.000000  -0.000000   0.000000  -0.000000   0.004590  -0.000588
    30  F    0.000000   0.000001  -0.000000   0.000001  -0.011099   0.000211
    31  F    0.000001  -0.000000   0.000000  -0.000000   0.005414  -0.000575
    32  F   -0.000001  -0.000000   0.000000  -0.000000  -0.024850   0.000030
    33  O    0.000366   0.000087   0.000138   0.000050  -0.006042   0.007737
    34  O    0.001928  -0.000618   0.000255  -0.000844   0.001669  -0.000288
    35  C   -0.001352  -0.000007  -0.000484  -0.000057  -0.009091   0.006382
    36  C    0.000997  -0.000012  -0.000179   0.000000  -0.000336   0.000033
    37  C   -0.000035  -0.000031   0.000116  -0.000043  -0.000087   0.000071
    38  H    0.000166  -0.000014  -0.000023  -0.000009  -0.000065   0.000064
    39  H    0.000185  -0.000016  -0.000021  -0.000009  -0.000039   0.000058
    40  H    0.000084   0.000033  -0.000034   0.000022  -0.000021   0.000002
    41  H   -0.000114  -0.000005   0.000028  -0.000006   0.000004   0.000019
    42  H   -0.000100   0.000005  -0.000026   0.000007  -0.000025   0.000000
              25         26         27         28         29         30
     1  C   -0.972108  -0.098447  -0.038031   0.015486   0.019691   0.015870
     2  N    0.040220  -0.000811   0.002088  -0.005416   0.000482  -0.005421
     3  C   -0.113611  -0.022646   0.005838   0.003145   0.001029   0.002123
     4  O    0.001454  -0.001002  -0.000517  -0.000619  -0.000037  -0.000705
     5  N    0.015904   0.000248  -0.000635  -0.002167   0.000150  -0.002063
     6  C    0.005061  -0.002846  -0.000079  -0.000799   0.000142  -0.001033
     7  C   -0.001370   0.000037  -0.000002  -0.000042   0.000001  -0.000041
     8  C   -0.000083  -0.000004   0.000000   0.000001   0.000000   0.000001
     9  C   -0.041859   0.182042   0.083255   0.036917  -0.020287   0.038872
    10  C   -0.086401  -0.926661  -0.416606  -0.166908  -0.100506  -0.168554
    11  C    0.003515   0.049017   0.201845   0.014004   0.052722   0.015098
    12  C   -0.542110   0.025367  -0.191663   0.006543  -0.007214   0.006774
    13  C    0.118877  -0.004513  -0.038061  -0.000286  -0.001527  -0.000253
    14  H   -0.419729  -0.003981   0.002203  -0.000150  -0.000252   0.000237
    15  H    0.000320  -0.000118  -0.000075   0.000080   0.000010   0.000004
    16  H    0.000266  -0.000260  -0.000007  -0.000014   0.000007  -0.000018
    17  H    0.000072  -0.000244  -0.000003  -0.000017   0.000000  -0.000023
    18  H   -0.000665   0.000012   0.000003   0.000006   0.000001  -0.000006
    19  H   -0.000496   0.000014   0.000002  -0.000009   0.000000   0.000000
    20  H    0.000018   0.000004   0.000000  -0.000000  -0.000000   0.000001
    21  H   -0.000004  -0.000001  -0.000000  -0.000000   0.000000  -0.000000
    22  H    0.000004   0.000003   0.000000   0.000001  -0.000000   0.000001
    23  H   -0.039436   0.133110  -0.005297  -0.009941   0.004590  -0.011099
    24  Cl   0.053819  -0.007777  -0.067428   0.000235  -0.000588   0.000211
    25  H    2.239482  -0.013005  -0.046905  -0.000159   0.000514  -0.000268
    26  S   -0.013005  13.993367   0.052549  -0.030298  -0.058727  -0.027976
    27  H   -0.046905   0.052549   1.060046   0.010181  -0.038726   0.010062
    28  F   -0.000159  -0.030298   0.010181   9.769591  -0.012851   0.018357
    29  F    0.000514  -0.058727  -0.038726  -0.012851   9.790881   0.049774
    30  F   -0.000268  -0.027976   0.010062   0.018357   0.049774   9.768002
    31  F    0.000516  -0.059092  -0.039556   0.049674   0.021085  -0.012995
    32  F    0.000414   0.130564  -0.020813  -0.103781  -0.101974  -0.103829
    33  O   -0.030118  -0.000659  -0.000108  -0.000016   0.000029  -0.000034
    34  O   -0.004034  -0.000047  -0.000046  -0.000004  -0.000001  -0.000002
    35  C    0.062204  -0.000737  -0.000393   0.000042   0.000041   0.000050
    36  C    0.002737   0.000022   0.000013  -0.000001   0.000001  -0.000001
    37  C    0.002789  -0.000006  -0.000001   0.000000   0.000000   0.000000
    38  H    0.003411   0.000003  -0.000001  -0.000001  -0.000001   0.000001
    39  H    0.003757   0.000004  -0.000003   0.000001   0.000001  -0.000001
    40  H    0.000164   0.000000   0.000000  -0.000000   0.000000  -0.000000
    41  H    0.000290  -0.000001  -0.000001  -0.000000   0.000000  -0.000000
    42  H    0.000089   0.000000   0.000000  -0.000000  -0.000000   0.000000
              31         32         33         34         35         36
     1  C    0.018711  -0.007775   0.018301   0.039757  -0.096950  -0.023124
     2  N    0.000262   0.000532  -0.097114  -0.004847  -0.035419  -0.003647
     3  C    0.001270   0.003712  -0.005691  -0.017404  -0.016522  -0.014202
     4  O   -0.000056   0.000055  -0.000504  -0.006243  -0.002700  -0.000799
     5  N    0.000117  -0.000116   0.007874  -0.026079  -0.015776  -0.001374
     6  C    0.000130   0.000014  -0.015669  -0.045245   0.002627   0.006231
     7  C   -0.000001  -0.000002   0.002273  -0.026170  -0.002548  -0.000484
     8  C    0.000000   0.000000   0.000961  -0.011553   0.000467   0.000404
     9  C   -0.018659  -0.012736  -0.046172  -0.005077   0.005325   0.004074
    10  C   -0.101605   0.217513   0.014152   0.005629  -0.014065  -0.003899
    11  C    0.053227  -0.055266  -0.008819  -0.001483   0.003967   0.002459
    12  C   -0.007905  -0.009019   0.030373   0.000362   0.007749   0.002592
    13  C   -0.000927   0.004755   0.068837   0.007493   0.012108  -0.009478
    14  H   -0.000445  -0.000111  -0.207104   0.002794   0.019723   0.009586
    15  H    0.000056   0.000041  -0.074900  -0.156599  -0.016624   0.016245
    16  H    0.000000   0.000015  -0.000728   0.002647   0.001840   0.000594
    17  H    0.000007   0.000015  -0.001057   0.001147  -0.000041   0.000412
    18  H   -0.000000  -0.000001  -0.000519   0.002460   0.000836   0.002549
    19  H    0.000001  -0.000001   0.000366   0.001928  -0.001352   0.000997
    20  H   -0.000000  -0.000000   0.000087  -0.000618  -0.000007  -0.000012
    21  H    0.000000   0.000000   0.000138   0.000255  -0.000484  -0.000179
    22  H   -0.000000  -0.000000   0.000050  -0.000844  -0.000057   0.000000
    23  H    0.005414  -0.024850  -0.006042   0.001669  -0.009091  -0.000336
    24  Cl  -0.000575   0.000030   0.007737  -0.000288   0.006382   0.000033
    25  H    0.000516   0.000414  -0.030118  -0.004034   0.062204   0.002737
    26  S   -0.059092   0.130564  -0.000659  -0.000047  -0.000737   0.000022
    27  H   -0.039556  -0.020813  -0.000108  -0.000046  -0.000393   0.000013
    28  F    0.049674  -0.103781  -0.000016  -0.000004   0.000042  -0.000001
    29  F    0.021085  -0.101974   0.000029  -0.000001   0.000041   0.000001
    30  F   -0.012995  -0.103829  -0.000034  -0.000002   0.000050  -0.000001
    31  F    9.791775  -0.101916   0.000029  -0.000001   0.000050   0.000001
    32  F   -0.101916   9.726031   0.000004   0.000000   0.000001  -0.000000
    33  O    0.000029   0.000004   9.316767   0.022322   0.395643  -0.306780
    34  O   -0.000001   0.000000   0.022322   8.964930   0.280134  -0.129144
    35  C    0.000050   0.000001   0.395643   0.280134   5.300559  -0.496156
    36  C    0.000001  -0.000000  -0.306780  -0.129144  -0.496156   6.122321
    37  C    0.000000   0.000000  -0.016942  -0.033506   0.022942   0.091732
    38  H    0.000001  -0.000000  -0.052630  -0.031294  -0.053837   0.506765
    39  H   -0.000001  -0.000000  -0.059690  -0.033858  -0.056591   0.513894
    40  H   -0.000000   0.000000   0.001408   0.007863  -0.008764   0.036795
    41  H    0.000000   0.000000   0.003106  -0.009909   0.023916  -0.062230
    42  H    0.000000   0.000000   0.000674   0.010803  -0.013624   0.037850
              37         38         39         40         41         42
     1  C   -0.005064  -0.000908  -0.000841  -0.000635  -0.000028  -0.000505
     2  N   -0.001440  -0.003917  -0.003846   0.000444   0.000115   0.000252
     3  C   -0.003867  -0.000625  -0.000553  -0.000169   0.000037  -0.000396
     4  O    0.000088  -0.000033  -0.000048   0.000016   0.000004   0.000015
     5  N    0.001015   0.003683   0.003301  -0.001198  -0.000263  -0.000199
     6  C   -0.000710   0.001018   0.001049  -0.000031  -0.000370  -0.000208
     7  C    0.005177  -0.000839  -0.001025  -0.000108   0.000384  -0.000164
     8  C   -0.000626  -0.000105  -0.000116   0.000315  -0.000050   0.000106
     9  C    0.000523   0.000201   0.000323   0.000125  -0.000008   0.000057
    10  C   -0.000314  -0.000611  -0.000607  -0.000039   0.000005  -0.000040
    11  C    0.000108   0.000544   0.000534   0.000016  -0.000012   0.000018
    12  C    0.000764   0.000550   0.000550  -0.000007  -0.000005   0.000016
    13  C    0.001687  -0.007819  -0.008235   0.000353   0.000466   0.000240
    14  H    0.003837  -0.001194  -0.000376   0.001849  -0.000879   0.001210
    15  H   -0.005726   0.005054   0.005191  -0.002638   0.001775  -0.001148
    16  H    0.000033   0.000086   0.000055  -0.000007  -0.000011   0.000023
    17  H    0.000121   0.000047   0.000097   0.000011  -0.000006  -0.000039
    18  H   -0.000574   0.000234   0.000197  -0.000170  -0.000222   0.000392
    19  H   -0.000035   0.000166   0.000185   0.000084  -0.000114  -0.000100
    20  H   -0.000031  -0.000014  -0.000016   0.000033  -0.000005   0.000005
    21  H    0.000116  -0.000023  -0.000021  -0.000034   0.000028  -0.000026
    22  H   -0.000043  -0.000009  -0.000009   0.000022  -0.000006   0.000007
    23  H   -0.000087  -0.000065  -0.000039  -0.000021   0.000004  -0.000025
    24  Cl   0.000071   0.000064   0.000058   0.000002   0.000019   0.000000
    25  H    0.002789   0.003411   0.003757   0.000164   0.000290   0.000089
    26  S   -0.000006   0.000003   0.000004   0.000000  -0.000001   0.000000
    27  H   -0.000001  -0.000001  -0.000003   0.000000  -0.000001   0.000000
    28  F    0.000000  -0.000001   0.000001  -0.000000  -0.000000  -0.000000
    29  F    0.000000  -0.000001   0.000001   0.000000   0.000000  -0.000000
    30  F    0.000000   0.000001  -0.000001  -0.000000  -0.000000   0.000000
    31  F    0.000000   0.000001  -0.000001  -0.000000   0.000000   0.000000
    32  F    0.000000  -0.000000  -0.000000   0.000000   0.000000   0.000000
    33  O   -0.016942  -0.052630  -0.059690   0.001408   0.003106   0.000674
    34  O   -0.033506  -0.031294  -0.033858   0.007863  -0.009909   0.010803
    35  C    0.022942  -0.053837  -0.056591  -0.008764   0.023916  -0.013624
    36  C    0.091732   0.506765   0.513894   0.036795  -0.062230   0.037850
    37  C    5.762878  -0.040623  -0.041555   0.365329   0.451684   0.366881
    38  H   -0.040623   0.432298   0.058800  -0.001403  -0.015019   0.000547
    39  H   -0.041555   0.058800   0.437474   0.000438  -0.015621  -0.000753
    40  H    0.365329  -0.001403   0.000438   0.333523  -0.007925   0.023742
    41  H    0.451684  -0.015019  -0.015621  -0.007925   0.363803  -0.007216
    42  H    0.366881   0.000547  -0.000753   0.023742  -0.007216   0.327851
 Mulliken charges:
               1
     1  C    0.359660
     2  N   -0.426262
     3  C   -0.039510
     4  O   -0.990880
     5  N   -0.202657
     6  C   -0.529177
     7  C   -0.357807
     8  C   -1.068907
     9  C   -0.964474
    10  C    1.149604
    11  C   -0.800590
    12  C    0.281600
    13  C   -0.968619
    14  H    0.852507
    15  H    0.920289
    16  H    0.304998
    17  H    0.257679
    18  H    0.259502
    19  H    0.236521
    20  H    0.274261
    21  H    0.270709
    22  H    0.271620
    23  H    0.502509
    24  Cl  -0.467208
    25  H    0.756465
    26  S    2.693499
    27  H    0.476872
    28  F   -0.590784
    29  F   -0.598462
    30  F   -0.591117
    31  F   -0.598595
    32  F   -0.541506
    33  O   -0.959836
    34  O   -0.807896
    35  C    0.695129
    36  C   -0.306461
    37  C   -0.926624
    38  H    0.197501
    39  H    0.197897
    40  H    0.250620
    41  H    0.274266
    42  H    0.253665
 Sum of Mulliken charges =  -1.00000
 Mulliken charges with hydrogens summed into heavy atoms:
               1
     1  C    0.359660
     2  N    0.426246
     3  C   -0.039510
     4  O   -0.990880
     5  N    0.717632
     6  C    0.033500
     7  C    0.138216
     8  C   -0.252317
     9  C   -0.461965
    10  C    1.149604
    11  C   -0.323718
    12  C    0.281600
    13  C   -0.212154
    24  Cl  -0.467208
    26  S    2.693499
    28  F   -0.590784
    29  F   -0.598462
    30  F   -0.591117
    31  F   -0.598595
    32  F   -0.541506
    33  O   -0.959836
    34  O   -0.807896
    35  C    0.695129
    36  C    0.088937
    37  C   -0.148074
 Electronic spatial extent (au):  <R**2>=          14831.8806
 Charge=             -1.0000 electrons
 Dipole moment (field-independent basis, Debye):
    X=             -3.3915    Y=             -0.1353    Z=             -0.0272  Tot=              3.3943
 Quadrupole moment (field-independent basis, Debye-Ang):
   XX=           -233.7521   YY=           -191.3654   ZZ=           -165.3517
   XY=            -11.5004   XZ=             -0.1598   YZ=              0.2687
 Traceless Quadrupole moment (field-independent basis, Debye-Ang):
   XX=            -36.9290   YY=              5.4576   ZZ=             31.4714
   XY=            -11.5004   XZ=             -0.1598   YZ=              0.2687
 Octapole moment (field-independent basis, Debye-Ang**2):
  XXX=           -234.5684  YYY=            -37.4798  ZZZ=              0.7922  XYY=            -57.5958
  XXY=            -17.7944  XXZ=             -2.3187  XZZ=            -32.1105  YZZ=            -12.5228
  YYZ=              0.2832  XYZ=             -0.3864
 Hexadecapole moment (field-independent basis, Debye-Ang**3):
 XXXX=         -15478.6779 YYYY=          -5363.7151 ZZZZ=           -356.3942 XXXY=           -181.6806
 XXXZ=            -15.9746 YYYX=            232.9739 YYYZ=              2.6612 ZZZX=             -1.9591
 ZZZY=             -1.5092 XXYY=          -3335.3769 XXZZ=          -2326.5039 YYZZ=           -902.3191
 XXYZ=             -3.2369 YYXZ=             -1.2092 ZZXY=             52.0236
 N-N= 2.748357347529D+03 E-N=-1.070775129209D+04  KE= 2.188181834571D+03
 Unable to Open any file for archive entry.
 1\1\GINC-GADI-HMEM-CLX-0015\SP\RDSDPBEP86-FC\Aug-CC-pVTZ\C13H17Cl1F5N2
 O3S1(1-)\HIO507\22-Sep-2020\0\\# DSDPBEP86/AUG-cc-PVTZ SCF=Tight INT(g
 rid=ultrafine) MaxDisk=1400000MB\\CP22_carboxy.DSDPBEP86_AUG-cc-PVTZ\\
 -1,1\C,0,-5.9045093897,1.2282887688,0.12049026\N,0,-4.6710096993,0.633
 351127,0.0313284384\C,0,-3.4317655407,1.2671903556,0.0362466067\O,0,-3
 .2854284276,2.4815325862,0.1241858856\N,0,-2.4049528736,0.3955909678,-
 0.063943346\C,0,-1.0425860058,0.8776075148,-0.099063818\C,0,-0.0803603
 13,-0.3026623514,-0.1269399163\C,0,1.3727067572,0.1576632454,-0.179402
 3202\C,0,-6.1153042472,2.6152485886,0.2381957195\C,0,-7.4190980535,3.0
 695549678,0.3198824395\C,0,-8.5410417441,2.2559390699,0.2946689127\C,0
 ,-8.2943634739,0.8937008966,0.1771166561\C,0,-7.0220518714,0.368327731
 8,0.0905940952\H,0,-4.6878730831,-0.4047451107,-0.0509292329\H,0,-2.57
 34755126,-0.6166282054,-0.1684113685\H,0,-0.850210432,1.508851393,0.77
 61289847\H,0,-0.88741397,1.5157143614,-0.9786049853\H,0,-0.3138463615,
 -0.9366727117,-0.9872004235\H,0,-0.2538557762,-0.9247930754,0.75601749
 28\H,0,1.5645440827,0.757434637,-1.0737735278\H,0,2.060296159,-0.69094
 95173,-0.1950435924\H,0,1.6237324033,0.7736384372,0.6890241965\H,0,-5.
 2677869312,3.282758082,0.2617600337\Cl,0,-9.6658788981,-0.1934819008,0
 .1381696717\H,0,-6.8592887915,-0.7011257547,-0.0011469945\S,0,-7.68578
 0516,4.8534671703,0.470648159\H,0,-9.5466189723,2.6441390828,0.3609738
 792\F,0,-6.6245143298,5.2097021176,-0.69189603\F,0,-8.8821972654,4.853
 4396613,-0.627466357\F,0,-6.5321031936,5.031616479,1.5850757346\F,0,-8
 .7898776036,4.6747547333,1.6480421329\F,0,-7.9419978524,6.4498180998,0
 .6061108801\O,0,-4.9735653331,-2.0855751834,-0.1874971893\O,0,-2.76431
 84358,-2.388901858,-0.3597880615\C,0,-3.9450898416,-2.7981312439,-0.32
 80385747\C,0,-4.1927985111,-4.3062542052,-0.4724967827\C,0,-2.92642093
 28,-5.1364512608,-0.6275467971\H,0,-4.8616268703,-4.4399832901,-1.3285
 123332\H,0,-4.7696761294,-4.6216787312,0.4023985572\H,0,-2.3620312266,
 -4.819817917,-1.506140048\H,0,-3.1575522568,-6.2013678134,-0.727691404
 5\H,0,-2.2694987355,-5.0037899449,0.2336843673\\Version=ES64L-G16RevC.
 01\State=1-A\HF=-2193.8115149\MP2=-2196.3234475\RMSD=2.945e-09\PG=C01 
 [X(C13H17Cl1F5N2O3S1)]\\@
 The archive entry for this job was punched.


 There ain't no surer way to find out whether you
 like people or hate them than to travel with them.
                                     -- Mark Twain
 Job cpu time:      10 days 17 hours 35 minutes  9.6 seconds.
 Elapsed time:       0 days  8 hours  7 minutes 45.4 seconds.
 File lengths (MBytes):  RWF=   1234 Int=      0 D2E=      0 Chk=    156 Scr=      1
 Normal termination of Gaussian 16 at Tue Sep 22 00:20:32 2020.
