 Entering Gaussian System, Link 0=/apps/gaussian/g16c01/g16/g16
 Initial command:
 /apps/gaussian/g16c01/g16/l1.exe "/jobfs/11546456.gadi-pbs/Gau-484113.inp" -scrdir="/jobfs/11546456.gadi-pbs/"
 Entering Link 1 = /apps/gaussian/g16c01/g16/l1.exe PID=    484114.
  
 Copyright (c) 1988-2019, Gaussian, Inc.  All Rights Reserved.
  
 This is part of the Gaussian(R) 16 program.  It is based on
 the Gaussian(R) 09 system (copyright 2009, Gaussian, Inc.),
 the Gaussian(R) 03 system (copyright 2003, Gaussian, Inc.),
 the Gaussian(R) 98 system (copyright 1998, Gaussian, Inc.),
 the Gaussian(R) 94 system (copyright 1995, Gaussian, Inc.),
 the Gaussian 92(TM) system (copyright 1992, Gaussian, Inc.),
 the Gaussian 90(TM) system (copyright 1990, Gaussian, Inc.),
 the Gaussian 88(TM) system (copyright 1988, Gaussian, Inc.),
 the Gaussian 86(TM) system (copyright 1986, Carnegie Mellon
 University), and the Gaussian 82(TM) system (copyright 1983,
 Carnegie Mellon University). Gaussian is a federally registered
 trademark of Gaussian, Inc.
  
 This software contains proprietary and confidential information,
 including trade secrets, belonging to Gaussian, Inc.
  
 This software is provided under written license and may be
 used, copied, transmitted, or stored only in accord with that
 written license.
  
 The following legend is applicable only to US Government
 contracts under FAR:
  
                    RESTRICTED RIGHTS LEGEND
  
 Use, reproduction and disclosure by the US Government is
 subject to restrictions as set forth in subparagraphs (a)
 and (c) of the Commercial Computer Software - Restricted
 Rights clause in FAR 52.227-19.
  
 Gaussian, Inc.
 340 Quinnipiac St., Bldg. 40, Wallingford CT 06492
  
  
 ---------------------------------------------------------------
 Warning -- This program may not be used in any manner that
 competes with the business of Gaussian, Inc. or will provide
 assistance to any competitor of Gaussian, Inc.  The licensee
 of this program is prohibited from giving any competitor of
 Gaussian, Inc. access to this program.  By using this program,
 the user acknowledges that Gaussian, Inc. is engaged in the
 business of creating and licensing software in the field of
 computational chemistry and represents and warrants to the
 licensee that it is not a competitor of Gaussian, Inc. and that
 it will not use this program in any manner prohibited above.
 ---------------------------------------------------------------
  

 Cite this work as:
 Gaussian 16, Revision C.01,
 M. J. Frisch, G. W. Trucks, H. B. Schlegel, G. E. Scuseria, 
 M. A. Robb, J. R. Cheeseman, G. Scalmani, V. Barone, 
 G. A. Petersson, H. Nakatsuji, X. Li, M. Caricato, A. V. Marenich, 
 J. Bloino, B. G. Janesko, R. Gomperts, B. Mennucci, H. P. Hratchian, 
 J. V. Ortiz, A. F. Izmaylov, J. L. Sonnenberg, D. Williams-Young, 
 F. Ding, F. Lipparini, F. Egidi, J. Goings, B. Peng, A. Petrone, 
 T. Henderson, D. Ranasinghe, V. G. Zakrzewski, J. Gao, N. Rega, 
 G. Zheng, W. Liang, M. Hada, M. Ehara, K. Toyota, R. Fukuda, 
 J. Hasegawa, M. Ishida, T. Nakajima, Y. Honda, O. Kitao, H. Nakai, 
 T. Vreven, K. Throssell, J. A. Montgomery, Jr., J. E. Peralta, 
 F. Ogliaro, M. J. Bearpark, J. J. Heyd, E. N. Brothers, K. N. Kudin, 
 V. N. Staroverov, T. A. Keith, R. Kobayashi, J. Normand, 
 K. Raghavachari, A. P. Rendell, J. C. Burant, S. S. Iyengar, 
 J. Tomasi, M. Cossi, J. M. Millam, M. Klene, C. Adamo, R. Cammi, 
 J. W. Ochterski, R. L. Martin, K. Morokuma, O. Farkas, 
 J. B. Foresman, and D. J. Fox, Gaussian, Inc., Wallingford CT, 2019.
 
 ******************************************
 Gaussian 16:  ES64L-G16RevC.01  3-Jul-2019
                21-Sep-2020 
 ******************************************
 %NprocShared=32
 Will use up to   32 processors via shared memory.
 %Mem=1194000MB
 %chk=CP22_c2_carboxy.DSDPBEP86_AUG-cc-PVTZ.chk
 ----------------------------------------------------------------------
 # DSDPBEP86/AUG-cc-PVTZ SCF=Tight INT(grid=ultrafine) MaxDisk=1400000M
 B
 ----------------------------------------------------------------------
 1/38=1,172=1/1;
 2/12=2,17=6,18=5,40=1/2;
 3/5=16,6=1,7=10,11=9,25=1,30=1,74=-77,75=-5/1,2,3;
 4//1;
 5/5=2,32=2,38=5/2;
 8/10=1/1;
 9/16=-3/6;
 6/7=2,8=2,9=2,10=2/1;
 99/5=1,9=1/99;
 -------------------------------------
 CP22_c2_carboxy.DSDPBEP86_AUG-cc-PVTZ
 -------------------------------------
 Symbolic Z-matrix:
 Charge = -1 Multiplicity = 1
 C                    -5.85027   1.39872   0.23708 
 N                    -4.64342   0.75434   0.12898 
 C                    -3.37821   1.33282   0.15234 
 O                    -3.17839   2.53614   0.28125 
 N                    -2.39198   0.41743   0.02405 
 C                    -1.0097    0.83428  -0.0415 
 C                    -0.09839  -0.37819   0.10169 
 C                     1.37293   0.0064   -0.0145 
 C                    -7.00345   0.5851    0.16247 
 C                    -8.24123   1.17861   0.26805 
 C                    -8.43595   2.54454   0.44533 
 C                    -7.28443   3.31008   0.51383 
 C                    -6.00631   2.78383   0.41611 
 H                    -4.7053   -0.27888   0.00327 
 H                    -2.61189  -0.57283  -0.16412 
 H                    -0.81436   1.56107   0.75322 
 H                    -0.80423   1.34951  -0.99025 
 H                    -0.36344  -1.11987  -0.6575 
 H                    -0.29445  -0.85422   1.06707 
 H                     1.58721   0.45469  -0.9889 
 H                     2.02388  -0.86324   0.10028 
 H                     1.65298   0.73574   0.75135 
 H                    -6.88046  -0.48441   0.02331 
 Cl                   -7.45821   5.03953   0.73953 
 H                    -5.13545   3.41858   0.4753 
 S                    -9.70891   0.1264    0.1733 
 H                    -9.41739   2.98764   0.52606 
 F                    -9.09752  -0.98377   1.16951 
 F                    -10.41764   0.86346   1.43561 
 F                    -9.15663  -0.69848  -1.0968 
 F                    -10.47648   1.14851  -0.82909 
 F                    -11.03766  -0.79941   0.09145 
 O                    -5.06851  -1.92171  -0.21544 
 O                    -2.88598  -2.31249  -0.50572 
 C                    -4.08293  -2.66956  -0.4497 
 C                    -4.4104   -4.15043  -0.68275 
 C                    -3.19542  -5.02311  -0.96399 
 H                    -5.12984  -4.19371  -1.50625 
 H                    -4.95468  -4.50017   0.19994 
 H                    -2.66494  -4.67294  -1.85104 
 H                    -3.48271  -6.06734  -1.12044 
 H                    -2.48728  -4.97853  -0.13489 
 
                          Input orientation:                          
 ---------------------------------------------------------------------
 Center     Atomic      Atomic             Coordinates (Angstroms)
 Number     Number       Type             X           Y           Z
 ---------------------------------------------------------------------
      1          6           0       -5.850270    1.398715    0.237078
      2          7           0       -4.643415    0.754343    0.128975
      3          6           0       -3.378208    1.332818    0.152337
      4          8           0       -3.178395    2.536141    0.281247
      5          7           0       -2.391985    0.417428    0.024050
      6          6           0       -1.009705    0.834279   -0.041497
      7          6           0       -0.098390   -0.378185    0.101687
      8          6           0        1.372929    0.006404   -0.014505
      9          6           0       -7.003449    0.585103    0.162467
     10          6           0       -8.241228    1.178609    0.268053
     11          6           0       -8.435949    2.544540    0.445326
     12          6           0       -7.284430    3.310077    0.513825
     13          6           0       -6.006313    2.783834    0.416112
     14          1           0       -4.705301   -0.278882    0.003266
     15          1           0       -2.611890   -0.572827   -0.164119
     16          1           0       -0.814363    1.561068    0.753218
     17          1           0       -0.804228    1.349507   -0.990252
     18          1           0       -0.363442   -1.119865   -0.657499
     19          1           0       -0.294450   -0.854218    1.067071
     20          1           0        1.587207    0.454694   -0.988901
     21          1           0        2.023883   -0.863236    0.100285
     22          1           0        1.652983    0.735742    0.751350
     23          1           0       -6.880459   -0.484407    0.023313
     24         17           0       -7.458208    5.039533    0.739534
     25          1           0       -5.135449    3.418580    0.475297
     26         16           0       -9.708912    0.126399    0.173297
     27          1           0       -9.417392    2.987641    0.526062
     28          9           0       -9.097517   -0.983771    1.169506
     29          9           0      -10.417637    0.863465    1.435608
     30          9           0       -9.156632   -0.698479   -1.096796
     31          9           0      -10.476477    1.148511   -0.829089
     32          9           0      -11.037665   -0.799415    0.091448
     33          8           0       -5.068505   -1.921711   -0.215439
     34          8           0       -2.885976   -2.312488   -0.505722
     35          6           0       -4.082935   -2.669559   -0.449698
     36          6           0       -4.410404   -4.150427   -0.682752
     37          6           0       -3.195424   -5.023107   -0.963987
     38          1           0       -5.129843   -4.193707   -1.506250
     39          1           0       -4.954677   -4.500168    0.199939
     40          1           0       -2.664937   -4.672939   -1.851040
     41          1           0       -3.482710   -6.067338   -1.120437
     42          1           0       -2.487281   -4.978530   -0.134886
 ---------------------------------------------------------------------
                    Distance matrix (angstroms):
                    1          2          3          4          5
     1  C    0.000000
     2  N    1.372370   0.000000
     3  C    2.474392   1.391377   0.000000
     4  O    2.904239   2.311770   1.226593   0.000000
     5  N    3.601117   2.278916   1.351678   2.274541   0.000000
     6  C    4.881318   3.638585   2.428152   2.775557   1.445255
     7  C    6.021614   4.684082   3.699636   4.244052   2.428911
     8  C    7.360464   6.064355   4.935637   5.215514   3.787480
     9  C    1.413278   2.366332   3.701561   4.295544   4.616587
    10  C    2.401268   3.625411   4.866840   5.241693   5.903608
    11  C    2.835845   4.205734   5.209113   5.260121   6.421182
    12  C    2.405557   3.695246   4.393039   4.184805   5.704675
    13  C    1.405331   2.461457   3.013629   2.841947   4.337852
    14  H    2.044494   1.042682   2.093078   3.214510   2.415929
    15  H    3.812485   2.444254   2.078189   3.191388   1.031683
    16  H    5.064890   3.962590   2.643190   2.600417   2.080502
    17  H    5.193390   4.043050   2.816232   2.943039   2.102036
    18  H    6.103180   4.738077   3.969925   4.708672   2.634913
    19  H    6.052415   4.730855   3.889656   4.519867   2.665451
    20  H    7.596727   6.337199   5.169997   5.353192   4.106267
    21  H    8.193743   6.860776   5.831633   6.217090   4.598456
    22  H    7.550021   6.327111   5.101784   5.177321   4.122142
    23  H    2.157112   2.559302   3.947748   4.784926   4.578177
    24  Cl   4.011668   5.163206   5.543549   4.979337   6.895099
    25  H    2.155822   2.731336   2.746380   2.155555   4.091104
    26  S    4.063493   5.104462   6.444664   6.961765   7.324233
    27  H    3.915681   5.285466   6.272946   6.260101   7.497623
    28  F    4.134039   4.893134   6.253935   6.943687   6.945472
    29  F    4.752243   5.921219   7.170819   7.519111   8.161038
    30  F    4.136360   4.897176   6.251135   6.935495   6.947085
    31  F    4.754062   5.924346   7.168165   7.511350   8.162190
    32  F    5.635783   6.580425   7.950937   8.539911   8.731153
    33  O    3.441098   2.731407   3.685691   4.867408   3.562679
    34  O    4.807475   3.591223   3.736789   4.920776   2.824381
    35  C    4.488428   3.517400   4.108297   5.334022   3.551512
    36  C    5.806228   4.976943   5.641700   6.867120   5.043697
    37  C    7.051990   6.055590   6.455801   7.661144   5.587589
    38  H    5.901982   5.233905   6.030059   7.231470   5.576760
    39  H    5.966598   5.264200   6.042453   7.257509   5.548069
    40  H    7.167396   6.106572   6.371138   7.535325   5.431602
    41  H    7.949222   7.031614   7.509539   8.722223   6.674707
    42  H    7.219232   6.130609   6.380389   7.557850   5.399139
                    6          7          8          9         10
     6  C    0.000000
     7  C    1.523505   0.000000
     8  C    2.522508   1.525184   0.000000
     9  C    6.002388   6.972193   8.398210   0.000000
    10  C    7.246332   8.291991   9.689475   1.376770   0.000000
    11  C    7.636170   8.841680  10.142370   2.443657   1.391082
    12  C    6.768318   8.087788   9.281339   2.761862   2.349260
    13  C    5.382961   6.708263   7.896377   2.427557   2.755633
    14  H    3.859866   4.609033   6.084947   2.460346   3.833689
    15  H    2.135879   2.535000   4.029476   4.553378   5.911324
    16  H    1.094510   2.167444   2.791170   6.293352   7.452515
    17  H    1.099007   2.162281   2.737887   6.351647   7.544635
    18  H    2.148440   1.093940   2.167235   6.904271   8.258278
    19  H    2.142787   1.094081   2.165786   6.921028   8.241487
    20  H    2.790270   2.173547   1.093768   8.668450   9.934894
    21  H    3.479125   2.176997   1.092332   9.142991  10.467559
    22  H    2.779968   2.174903   1.094028   8.677748   9.915903
    23  H    6.017382   6.783354   8.268055   1.085514   2.162686
    24  Cl   7.738047   9.161084  10.192642   4.514616   3.967637
    25  H    4.895657   6.318780   7.364906   3.408207   3.834877
    26  S    8.730604   9.624026  11.084082   2.744095   1.808375
    27  H    8.697603   9.917292  11.207632   3.425129   2.173137
    28  F    8.377621   9.082470  10.583598   2.803678   2.494341
    29  F    9.523229  10.478927  11.910283   3.654456   2.489831
    30  F    8.356760   9.142795  10.608481   2.805267   2.494842
    31  F    9.504674  10.530995  11.932158   3.655480   2.490174
    32  F   10.161034  10.947387  12.437178   4.265774   3.429843
    33  O    4.909134   5.213932   6.726817   3.189191   4.462278
    34  O    3.692972   3.446899   4.874097   5.078986   6.439349
    35  C    4.678488   4.629365   6.092341   4.415538   5.710952
    36  C    6.068217   5.782614   7.153513   5.464753   6.631581
    37  C    6.319599   5.683536   6.860564   6.871825   8.089459
    38  H    6.663459   6.516072   7.883672   5.397411   6.456829
    39  H    6.639083   6.370551   7.771343   5.482596   6.561598
    40  H    6.028573   5.370774   6.447749   7.108018   8.356207
    41  H    7.410275   6.731542   7.854339   7.635209   8.779246
    42  H    5.998392   5.189021   6.305972   7.172044   8.436862
                   11         12         13         14         15
    11  C    0.000000
    12  C    1.384462   0.000000
    13  C    2.441566   1.385663   0.000000
    14  H    4.699454   4.448955   3.353103   0.000000
    15  H    6.633933   6.113033   4.808944   2.120564   0.000000
    16  H    7.690942   6.706571   5.344636   4.368895   2.937025
    17  H    7.856981   6.935351   5.576454   4.342477   2.765051
    18  H    8.933614   8.300389   6.945034   4.471645   2.366051
    19  H    8.844328   8.155197   6.803275   4.573653   2.639230
    20  H   10.338671   9.440198   8.066009   6.412347   4.400964
    21  H   11.006365  10.209419   8.825243   6.755205   4.652380
    22  H   10.254363   9.303815   7.935483   6.482042   4.554073
    23  H    3.431058   3.847323   3.405850   2.184938   4.273597
    24  Cl   2.695835   1.752758   2.701996   6.033749   7.470072
    25  H    3.414402   2.152063   1.079263   3.752208   4.765347
    26  S    2.746242   4.016202   4.564007   5.022876   7.139362
    27  H    1.079855   2.157230   3.418930   5.757368   7.711558
    28  F    3.662116   4.706839   4.931327   4.598754   6.634062
    29  F    2.780964   4.080757   4.918025   5.998945   8.096403
    30  F    3.662607   4.708265   4.933548   4.604405   6.612059
    31  F    2.781508   4.082273   4.920079   6.003061   8.078176
    32  F    4.251610   5.581496   6.185432   6.354334   8.432695
    33  O    5.632378   5.728329   4.839472   1.696654   2.803048
    34  O    7.436223   7.211040   6.046385   2.775710   1.793945
    35  C    6.851031   6.850838   5.847093   2.511543   2.577172
    36  C    7.893045   8.083992   7.199889   3.942898   4.037680
    37  C    9.312279   9.399247   8.411545   5.071782   4.559089
    38  H    7.755189   8.064100   7.290387   4.217194   4.610008
    39  H    7.861767   8.156359   7.362700   4.233216   4.587504
    40  H    9.522074   9.521599   8.479872   5.187415   4.433897
    41  H   10.057367  10.249868   9.331280   6.021931   5.644690
    42  H    9.608324   9.598670   8.540578   5.198595   4.407562
                   16         17         18         19         20
    16  H    0.000000
    17  H    1.756288   0.000000
    18  H    3.062819   2.530379   0.000000
    19  H    2.490466   3.057590   1.746274   0.000000
    20  H    3.166478   2.553361   2.528655   3.079108   0.000000
    21  H    3.789355   3.752827   2.517819   2.511857   1.764639
    22  H    2.601724   3.073723   3.081251   2.533802   1.764026
    23  H    6.443155   6.427374   6.583223   6.678451   8.579502
    24  Cl   7.499372   7.802814   9.498716   9.282403  10.287263
    25  H    4.711621   5.018802   6.682273   6.484001   7.491502
    26  S    9.028155   9.063291   9.464735   9.507499  11.360492
    27  H    8.723463   8.897712  10.012314   9.913659  11.393513
    28  F    8.675260   8.881857   8.924154   8.804616  10.995054
    29  F    9.652729   9.926665  10.459519  10.274491  12.254045
    30  F    8.838639   8.600480   8.814235   9.123861  10.806087
    31  F    9.799507   9.675680  10.365735  10.548935  12.084676
    32  F   10.513121  10.512429  10.705263  10.787563  12.732923
    33  O    5.582631   5.430033   4.793328   5.057269   7.109434
    34  O    4.569567   4.240124   2.794381   3.363961   5.282057
    35  C    5.479851   5.214883   4.034769   4.466393   6.496322
    36  C    6.900340   6.583946   5.055972   5.555894   7.567841
    37  C    7.208995   6.806520   4.832117   5.469962   7.271897
    38  H    7.539628   7.050136   5.734759   6.415232   8.184989
    39  H    7.361175   7.270590   5.765508   5.980182   8.292180
    40  H    7.004972   6.361844   4.398381   5.358844   6.716892
    41  H    8.295977   7.886748   5.866995   6.490517   8.261855
    42  H    6.808357   6.603664   4.435438   4.823190   6.844759
                   21         22         23         24         25
    21  H    0.000000
    22  H    1.765837   0.000000
    23  H    8.912729   8.650921   0.000000
    24  Cl  11.187554  10.076536   5.600060   0.000000
    25  H    8.350486   7.304563   4.299145   2.844735   0.000000
    26  S   11.774684  11.392897   2.897538   5.433708   5.643246
    27  H   12.079458  11.299337   4.329422   2.845036   4.303872
    28  F   11.173329  10.895175   2.545284   6.257188   5.963271
    29  F   12.631548  12.090674   4.040169   5.165490   5.945781
    30  F   11.245624  11.059856   2.545866   6.259515   5.965866
    31  F   12.695270  12.238954   4.040341   5.168227   5.948211
    32  F   13.061707  12.800185   4.169680   6.879377   7.264638
    33  O    7.177884   7.292129   2.325086   7.421696   5.385193
    34  O    5.155026   5.610177   4.424664   8.746896   6.234394
    35  C    6.392066   6.777857   3.581169   8.499226   6.247306
    36  C    7.267656   7.918079   4.476539   9.786080   7.691335
    37  C    6.758577   7.720996   5.929085  11.060291   8.780508
    38  H    8.052875   8.683488   4.377571   9.783534   7.865969
    39  H    7.870038   8.448667   4.457148   9.877486   7.925595
    40  H    6.348743   7.393964   6.231182  11.136366   8.774278
    41  H    7.674334   8.727017   6.634907  11.942640   9.760151
    42  H    6.110774   7.111970   6.286667  11.217679   8.825904
                   26         27         28         29         30
    26  S    0.000000
    27  H    2.897608   0.000000
    28  F    1.612053   4.035896   0.000000
    29  F    1.624496   2.517913   2.286003   0.000000
    30  F    1.612009   4.035980   2.284953   3.231543   0.000000
    31  F    1.624392   2.518033   3.231493   2.283323   2.285832
    32  F    1.621547   4.141976   2.227189   2.226291   2.227194
    33  O    5.087165   6.600331   4.362423   6.252709   4.357278
    34  O    7.277478   8.474393   6.569255   8.401271   6.501963
    35  C    6.313249   7.836609   5.532606   7.494337   5.481450
    36  C    6.862816   8.802452   5.952108   8.106381   5.883371
    37  C    8.380713  10.252083   7.463426   9.621338   7.365871
    38  H    6.515524   8.607271   5.762446   7.886081   5.347831
    39  H    6.633896   8.722927   5.519803   7.754958   5.812985
    40  H    8.760660  10.484787   8.006981  10.077608   7.649008
    41  H    8.877033  10.950984   7.912809  10.132256   7.811441
    42  H    8.849137  10.579375   7.832927   9.974262   7.982754
                   31         32         33         34         35
    31  F    0.000000
    32  F    2.226372   0.000000
    33  O    6.248919   6.081496   0.000000
    34  O    8.348580   8.312402   2.236158   0.000000
    35  C    7.456472   7.222087   1.259167   1.250339   0.000000
    36  C    8.055892   7.466542   2.370370   2.394419   1.534445
    37  C    9.545722   8.969630   3.699651   2.766445   2.567364
    38  H    7.588434   6.998301   2.613794   3.094347   2.129635
    39  H    7.965975   7.121102   2.614180   3.092478   2.129106
    40  H    9.795603   9.427620   4.002698   2.725889   2.826307
    41  H   10.053166   9.289619   4.529900   3.851346   3.514977
    42  H   10.092067   9.519732   4.001669   2.721077   2.824282
                   36         37         38         39         40
    36  C    0.000000
    37  C    1.522117   0.000000
    38  H    1.094356   2.173461   0.000000
    39  H    1.094392   2.173283   1.742321   0.000000
    40  H    2.164388   1.091282   2.534622   3.078843   0.000000
    41  H    2.174105   1.094270   2.524360   2.523114   1.773945
    42  H    2.164328   1.091266   3.078916   2.535544   1.752179
                   41         42
    41  H    0.000000
    42  H    1.774173   0.000000
 Stoichiometry    C13H17ClF5N2O3S(1-)
 Framework group  C1[X(C13H17ClF5N2O3S)]
 Deg. of freedom   120
 Full point group                 C1      NOp   1
 Largest Abelian subgroup         C1      NOp   1
 Largest concise Abelian subgroup C1      NOp   1
                         Standard orientation:                         
 ---------------------------------------------------------------------
 Center     Atomic      Atomic             Coordinates (Angstroms)
 Number     Number       Type             X           Y           Z
 ---------------------------------------------------------------------
      1          6           0        0.171484   -1.070254   -0.001201
      2          7           0       -1.169259   -0.777771    0.015023
      3          6           0       -2.225952   -1.682298   -0.019043
      4          8           0       -2.083223   -2.899663   -0.065747
      5          7           0       -3.429606   -1.068086    0.012459
      6          6           0       -4.648184   -1.839285   -0.082849
      7          6           0       -5.843454   -0.958817    0.259456
      8          6           0       -7.159482   -1.717143    0.120893
      9          6           0        1.053556    0.033769    0.019660
     10          6           0        2.410037   -0.201413    0.007799
     11          6           0        2.978850   -1.470483   -0.024198
     12          6           0        2.084943   -2.527494   -0.043999
     13          6           0        0.708467   -2.368548   -0.033427
     14          1           0       -1.398097    0.239111    0.042764
     15          1           0       -3.498943   -0.039676   -0.031521
     16          1           0       -4.588644   -2.693099    0.599360
     17          1           0       -4.765320   -2.256822   -1.092679
     18          1           0       -5.837850   -0.076338   -0.386999
     19          1           0       -5.723680   -0.583436    1.280121
     20          1           0       -7.304847   -2.069971   -0.904148
     21          1           0       -8.013449   -1.086533    0.378304
     22          1           0       -7.182424   -2.592961    0.776114
     23          1           0        0.636466    1.035668    0.043696
     24         17           0        2.735332   -4.154682   -0.081616
     25          1           0        0.048032   -3.221999   -0.049390
     26         16           0        3.528155    1.219565    0.037030
     27          1           0        4.046765   -1.630408   -0.032469
     28          9           0        2.702284    1.969616    1.200677
     29          9           0        4.488147    0.543151    1.159467
     30          9           0        2.694099    2.023977   -1.083614
     31          9           0        4.479732    0.597450   -1.123195
     32          9           0        4.547950    2.480016    0.063407
     33          8           0       -1.508808    1.932037    0.062244
     34          8           0       -3.729242    1.737364   -0.117141
     35          6           0       -2.673028    2.401566   -0.035918
     36          6           0       -2.775011    3.932513   -0.053862
     37          6           0       -4.196388    4.463474   -0.174719
     38          1           0       -2.147524    4.285765   -0.877930
     39          1           0       -2.291730    4.295748    0.858385
     40          1           0       -4.666588    4.104255   -1.091655
     41          1           0       -4.213665    5.557591   -0.180855
     42          1           0       -4.812322    4.111360    0.654439
 ---------------------------------------------------------------------
 Rotational constants (GHZ):           0.2247557           0.0997579           0.0712256
 Standard basis: Aug-CC-pVTZ (5D, 7F)
 There are  1808 symmetry adapted cartesian basis functions of A   symmetry.
 There are  1549 symmetry adapted basis functions of A   symmetry.
  1549 basis functions,  2343 primitive gaussians,  1808 cartesian basis functions
   106 alpha electrons      106 beta electrons
       nuclear repulsion energy      2767.9967889950 Hartrees.
 NAtoms=   42 NActive=   42 NUniq=   42 SFac= 1.00D+00 NAtFMM=   60 NAOKFM=F Big=F
 Integral buffers will be    131072 words long.
 Regular integral format.
 Two-electron integral symmetry is turned on.
 Nuclear repulsion after empirical dispersion term =     2767.9633568418 Hartrees.
 One-electron integrals computed using PRISM.
 NBasis=  1549 RedAO= T EigKep=  1.06D-06  NBF=  1549
 NBsUse=  1545 1.00D-06 EigRej=  6.17D-07 NBFU=  1545
 ExpMin= 2.53D-02 ExpMax= 4.56D+05 ExpMxC= 1.44D+03 IAcc=3 IRadAn=         5 AccDes= 0.00D+00
 Harris functional with IExCor= 1004 and IRadAn=       5 diagonalized for initial guess.
 HarFok:  IExCor= 1004 AccDes= 0.00D+00 IRadAn=         5 IDoV= 1 UseB2=F ITyADJ=14
 ICtDFT=  3500011 ScaDFX=  1.000000  1.000000  1.000000  1.000000
 FoFCou: FMM=F IPFlag=           0 FMFlag=      100000 FMFlg1=           0
         NFxFlg=           0 DoJE=T BraDBF=F KetDBF=T FulRan=T
         wScrn=  0.000000 ICntrl=       500 IOpCl=  0 I1Cent=   200000004 NGrid=           0
         NMat0=    1 NMatS0=      1 NMatT0=    0 NMatD0=    1 NMtDS0=    0 NMtDT0=    0
 Petite list used in FoFCou.
 Requested convergence on RMS density matrix=1.00D-08 within 128 cycles.
 Requested convergence on MAX density matrix=1.00D-06.
 Requested convergence on             energy=1.00D-06.
 No special actions if energy rises.
 SCF Done:  E(RDSDPBEP86) =  -2193.81142025     A.U. after   14 cycles
            NFock= 14  Conv=0.32D-08     -V/T= 2.0026
 DoSCS=T DFT=T ScalE2(SS,OS)=  0.220000  0.520000
 ExpMin= 2.53D-02 ExpMax= 4.56D+05 ExpMxC= 1.44D+03 IAcc=3 IRadAn=         5 AccDes= 0.00D+00
 HarFok:  IExCor=  205 AccDes= 0.00D+00 IRadAn=         5 IDoV=-2 UseB2=F ITyADJ=14
 ICtDFT= 12500011 ScaDFX=  1.000000  1.000000  1.000000  1.000000
 GSVD:  LWork=       -1353 too small for GESVD, short by        5940 words or        5940 for optimal perf.
 Range of M.O.s used for correlation:    34  1545
 NBasis=  1549 NAE=   106 NBE=   106 NFC=    33 NFV=     0
 NROrb=   1512 NOA=    73 NOB=    73 NVA=  1439 NVB=  1439

 **** Warning!!: The largest alpha MO coefficient is  0.96564486D+02

 DoSCS=T DFT=T ScalE2(SS,OS)=  0.220000  0.520000
 Fully direct method using O(OVN) memory.
 JobTyp=1 Pass  1:  I=   1 to  31 NPSUse= 32 ParTrn=T ParDer=T DoDerP=F.
 JobTyp=1 Pass  2:  I=  32 to  73 NPSUse= 32 ParTrn=T ParDer=T DoDerP=F.
 Spin components of T(2) and E(2):
     alpha-alpha T2 =       0.2539664411D+00 E2=     -0.1636098034D+00
     alpha-beta  T2 =       0.1313888175D+01 E2=     -0.2184719392D+01
     beta-beta   T2 =       0.2539664411D+00 E2=     -0.1636098034D+00
 E2(DSDPBEP86) =    -0.2511938999D+01 E(DSDPBEP86) =    -0.21963233592474D+04

 **********************************************************************

            Population analysis using the SCF Density.

 **********************************************************************

 Orbital symmetries:
       Occupied  (A) (A) (A) (A) (A) (A) (A) (A) (A) (A) (A) (A)
                 (A) (A) (A) (A) (A) (A) (A) (A) (A) (A) (A) (A)
                 (A) (A) (A) (A) (A) (A) (A) (A) (A) (A) (A) (A)
                 (A) (A) (A) (A) (A) (A) (A) (A) (A) (A) (A) (A)
                 (A) (A) (A) (A) (A) (A) (A) (A) (A) (A) (A) (A)
                 (A) (A) (A) (A) (A) (A) (A) (A) (A) (A) (A) (A)
                 (A) (A) (A) (A) (A) (A) (A) (A) (A) (A) (A) (A)
                 (A) (A) (A) (A) (A) (A) (A) (A) (A) (A) (A) (A)
                 (A) (A) (A) (A) (A) (A) (A) (A) (A) (A)
       Virtual   (A) (A) (A) (A) (A) (A) (A) (A) (A) (A) (A) (A)
                 (A) (A) (A) (A) (A) (A) (A) (A) (A) (A) (A) (A)
                 (A) (A) (A) (A) (A) (A) (A) (A) (A) (A) (A) (A)
                 (A) (A) (A) (A) (A) (A) (A) (A) (A) (A) (A) (A)
                 (A) (A) (A) (A) (A) (A) (A) (A) (A) (A) (A) (A)
                 (A) (A) (A) (A) (A) (A) (A) (A) (A) (A) (A) (A)
                 (A) (A) (A) (A) (A) (A) (A) (A) (A) (A) (A) (A)
                 (A) (A) (A) (A) (A) (A) (A) (A) (A) (A) (A) (A)
                 (A) (A) (A) (A) (A) (A) (A) (A) (A) (A) (A) (A)
                 (A) (A) (A) (A) (A) (A) (A) (A) (A) (A) (A) (A)
                 (A) (A) (A) (A) (A) (A) (A) (A) (A) (A) (A) (A)
                 (A) (A) (A) (A) (A) (A) (A) (A) (A) (A) (A) (A)
                 (A) (A) (A) (A) (A) (A) (A) (A) (A) (A) (A) (A)
                 (A) (A) (A) (A) (A) (A) (A) (A) (A) (A) (A) (A)
                 (A) (A) (A) (A) (A) (A) (A) (A) (A) (A) (A) (A)
                 (A) (A) (A) (A) (A) (A) (A) (A) (A) (A) (A) (A)
                 (A) (A) (A) (A) (A) (A) (A) (A) (A) (A) (A) (A)
                 (A) (A) (A) (A) (A) (A) (A) (A) (A) (A) (A) (A)
                 (A) (A) (A) (A) (A) (A) (A) (A) (A) (A) (A) (A)
                 (A) (A) (A) (A) (A) (A) (A) (A) (A) (A) (A) (A)
                 (A) (A) (A) (A) (A) (A) (A) (A) (A) (A) (A) (A)
                 (A) (A) (A) (A) (A) (A) (A) (A) (A) (A) (A) (A)
                 (A) (A) (A) (A) (A) (A) (A) (A) (A) (A) (A) (A)
                 (A) (A) (A) (A) (A) (A) (A) (A) (A) (A) (A) (A)
                 (A) (A) (A) (A) (A) (A) (A) (A) (A) (A) (A) (A)
                 (A) (A) (A) (A) (A) (A) (A) (A) (A) (A) (A) (A)
                 (A) (A) (A) (A) (A) (A) (A) (A) (A) (A) (A) (A)
                 (A) (A) (A) (A) (A) (A) (A) (A) (A) (A) (A) (A)
                 (A) (A) (A) (A) (A) (A) (A) (A) (A) (A) (A) (A)
                 (A) (A) (A) (A) (A) (A) (A) (A) (A) (A) (A) (A)
                 (A) (A) (A) (A) (A) (A) (A) (A) (A) (A) (A) (A)
                 (A) (A) (A) (A) (A) (A) (A) (A) (A) (A) (A) (A)
                 (A) (A) (A) (A) (A) (A) (A) (A) (A) (A) (A) (A)
                 (A) (A) (A) (A) (A) (A) (A) (A) (A) (A) (A) (A)
                 (A) (A) (A) (A) (A) (A) (A) (A) (A) (A) (A) (A)
                 (A) (A) (A) (A) (A) (A) (A) (A) (A) (A) (A) (A)
                 (A) (A) (A) (A) (A) (A) (A) (A) (A) (A) (A) (A)
                 (A) (A) (A) (A) (A) (A) (A) (A) (A) (A) (A) (A)
                 (A) (A) (A) (A) (A) (A) (A) (A) (A) (A) (A) (A)
                 (A) (A) (A) (A) (A) (A) (A) (A) (A) (A) (A) (A)
                 (A) (A) (A) (A) (A) (A) (A) (A) (A) (A) (A) (A)
                 (A) (A) (A) (A) (A) (A) (A) (A) (A) (A) (A) (A)
                 (A) (A) (A) (A) (A) (A) (A) (A) (A) (A) (A) (A)
                 (A) (A) (A) (A) (A) (A) (A) (A) (A) (A) (A) (A)
                 (A) (A) (A) (A) (A) (A) (A) (A) (A) (A) (A) (A)
                 (A) (A) (A) (A) (A) (A) (A) (A) (A) (A) (A) (A)
                 (A) (A) (A) (A) (A) (A) (A) (A) (A) (A) (A) (A)
                 (A) (A) (A) (A) (A) (A) (A) (A) (A) (A) (A) (A)
                 (A) (A) (A) (A) (A) (A) (A) (A) (A) (A) (A) (A)
                 (A) (A) (A) (A) (A) (A) (A) (A) (A) (A) (A) (A)
                 (A) (A) (A) (A) (A) (A) (A) (A) (A) (A) (A) (A)
                 (A) (A) (A) (A) (A) (A) (A) (A) (A) (A) (A) (A)
                 (A) (A) (A) (A) (A) (A) (A) (A) (A) (A) (A) (A)
                 (A) (A) (A) (A) (A) (A) (A) (A) (A) (A) (A) (A)
                 (A) (A) (A) (A) (A) (A) (A) (A) (A) (A) (A) (A)
                 (A) (A) (A) (A) (A) (A) (A) (A) (A) (A) (A) (A)
                 (A) (A) (A) (A) (A) (A) (A) (A) (A) (A) (A) (A)
                 (A) (A) (A) (A) (A) (A) (A) (A) (A) (A) (A) (A)
                 (A) (A) (A) (A) (A) (A) (A) (A) (A) (A) (A) (A)
                 (A) (A) (A) (A) (A) (A) (A) (A) (A) (A) (A) (A)
                 (A) (A) (A) (A) (A) (A) (A) (A) (A) (A) (A) (A)
                 (A) (A) (A) (A) (A) (A) (A) (A) (A) (A) (A) (A)
                 (A) (A) (A) (A) (A) (A) (A) (A) (A) (A) (A) (A)
                 (A) (A) (A) (A) (A) (A) (A) (A) (A) (A) (A) (A)
                 (A) (A) (A) (A) (A) (A) (A) (A) (A) (A) (A) (A)
                 (A) (A) (A) (A) (A) (A) (A) (A) (A) (A) (A) (A)
                 (A) (A) (A) (A) (A) (A) (A) (A) (A) (A) (A) (A)
                 (A) (A) (A) (A) (A) (A) (A) (A) (A) (A) (A) (A)
                 (A) (A) (A) (A) (A) (A) (A) (A) (A) (A) (A) (A)
                 (A) (A) (A) (A) (A) (A) (A) (A) (A) (A) (A) (A)
                 (A) (A) (A) (A) (A) (A) (A) (A) (A) (A) (A) (A)
                 (A) (A) (A) (A) (A) (A) (A) (A) (A) (A) (A) (A)
                 (A) (A) (A) (A) (A) (A) (A) (A) (A) (A) (A) (A)
                 (A) (A) (A) (A) (A) (A) (A) (A) (A) (A) (A) (A)
                 (A) (A) (A) (A) (A) (A) (A) (A) (A) (A) (A) (A)
                 (A) (A) (A) (A) (A) (A) (A) (A) (A) (A) (A) (A)
                 (A) (A) (A) (A) (A) (A) (A) (A) (A) (A) (A) (A)
                 (A) (A) (A) (A) (A) (A) (A) (A) (A) (A) (A) (A)
                 (A) (A) (A) (A) (A) (A) (A) (A) (A) (A) (A) (A)
                 (A) (A) (A) (A) (A) (A) (A) (A) (A) (A) (A) (A)
                 (A) (A) (A) (A) (A) (A) (A) (A) (A) (A) (A) (A)
                 (A) (A) (A) (A) (A) (A) (A) (A) (A) (A) (A) (A)
                 (A) (A) (A) (A) (A) (A) (A) (A) (A) (A) (A) (A)
                 (A) (A) (A) (A) (A) (A) (A) (A) (A) (A) (A) (A)
                 (A) (A) (A) (A) (A) (A) (A) (A) (A) (A) (A) (A)
                 (A) (A) (A) (A) (A) (A) (A) (A) (A) (A) (A) (A)
                 (A) (A) (A) (A) (A) (A) (A) (A) (A) (A) (A) (A)
                 (A) (A) (A) (A) (A) (A) (A) (A) (A) (A) (A) (A)
                 (A) (A) (A) (A) (A) (A) (A) (A) (A) (A) (A) (A)
                 (A) (A) (A) (A) (A) (A) (A) (A) (A) (A) (A) (A)
                 (A) (A) (A) (A) (A) (A) (A) (A) (A) (A) (A) (A)
                 (A) (A) (A) (A) (A) (A) (A) (A) (A) (A) (A) (A)
                 (A) (A) (A) (A) (A) (A) (A) (A) (A) (A) (A) (A)
                 (A) (A) (A) (A) (A) (A) (A) (A) (A) (A) (A) (A)
                 (A) (A) (A) (A) (A) (A) (A) (A) (A) (A) (A) (A)
                 (A) (A) (A) (A) (A) (A) (A) (A) (A) (A) (A) (A)
                 (A) (A) (A) (A) (A) (A) (A) (A) (A) (A) (A) (A)
                 (A) (A) (A) (A) (A) (A) (A) (A) (A) (A) (A) (A)
                 (A) (A) (A) (A) (A) (A) (A) (A) (A) (A) (A) (A)
                 (A) (A) (A) (A) (A) (A) (A) (A) (A) (A) (A) (A)
                 (A) (A) (A) (A) (A) (A) (A) (A) (A) (A) (A) (A)
                 (A) (A) (A) (A) (A) (A) (A) (A) (A) (A) (A) (A)
                 (A) (A) (A) (A) (A) (A) (A) (A) (A) (A) (A) (A)
                 (A) (A) (A) (A) (A) (A) (A) (A) (A) (A) (A) (A)
                 (A) (A) (A) (A) (A) (A) (A) (A) (A) (A) (A) (A)
                 (A) (A) (A) (A) (A) (A) (A) (A) (A) (A) (A) (A)
                 (A) (A) (A) (A) (A) (A) (A) (A) (A) (A) (A) (A)
                 (A) (A) (A) (A) (A) (A) (A) (A) (A) (A) (A) (A)
                 (A) (A) (A) (A) (A) (A) (A) (A) (A) (A) (A) (A)
                 (A) (A) (A) (A) (A) (A) (A) (A) (A) (A) (A) (A)
                 (A) (A) (A) (A) (A) (A) (A) (A) (A) (A) (A) (A)
                 (A) (A) (A) (A) (A) (A) (A) (A) (A) (A) (A) (A)
                 (A) (A) (A) (A) (A) (A) (A) (A) (A) (A) (A) (A)
                 (A) (A) (A) (A) (A) (A) (A) (A) (A) (A) (A) (A)
                 (A) (A) (A) (A) (A) (A) (A) (A) (A) (A) (A) (A)
                 (A) (A) (A) (A) (A) (A) (A) (A) (A) (A) (A) (A)
                 (A) (A) (A) (A) (A) (A) (A) (A) (A) (A) (A) (A)
                 (A) (A) (A) (A) (A) (A) (A) (A) (A) (A) (A) (A)
                 (A) (A) (A) (A) (A) (A) (A) (A) (A) (A) (A) (A)
                 (A) (A) (A) (A) (A) (A) (A) (A) (A) (A) (A)
 The electronic state is 1-A.
 Alpha  occ. eigenvalues -- -103.48669 -91.07390 -25.62159 -25.62156 -25.62110
 Alpha  occ. eigenvalues --  -25.62105 -25.61993 -19.84851 -19.82409 -19.82154
 Alpha  occ. eigenvalues --  -14.98577 -14.96575 -10.83815 -10.80571 -10.79169
 Alpha  occ. eigenvalues --  -10.79013 -10.78818 -10.75057 -10.74183 -10.74017
 Alpha  occ. eigenvalues --  -10.73380 -10.72119 -10.71425 -10.69799 -10.69703
 Alpha  occ. eigenvalues --  -10.06169  -8.81929  -7.63838  -7.63386  -7.63375
 Alpha  occ. eigenvalues --   -6.61023  -6.61010  -6.60595  -1.50109  -1.40671
 Alpha  occ. eigenvalues --   -1.40623  -1.37570  -1.36368  -1.15174  -1.12945
 Alpha  occ. eigenvalues --   -1.03503  -1.02761  -1.00118  -0.98282  -0.94410
 Alpha  occ. eigenvalues --   -0.88868  -0.85856  -0.82540  -0.82401  -0.81636
 Alpha  occ. eigenvalues --   -0.74599  -0.70965  -0.68532  -0.68072  -0.67560
 Alpha  occ. eigenvalues --   -0.66762  -0.64074  -0.63040  -0.59407  -0.59121
 Alpha  occ. eigenvalues --   -0.57732  -0.57364  -0.55267  -0.54043  -0.53125
 Alpha  occ. eigenvalues --   -0.52410  -0.50776  -0.50547  -0.50170  -0.50049
 Alpha  occ. eigenvalues --   -0.49602  -0.49070  -0.48578  -0.47261  -0.46947
 Alpha  occ. eigenvalues --   -0.46563  -0.46281  -0.45113  -0.45096  -0.44503
 Alpha  occ. eigenvalues --   -0.44367  -0.43649  -0.42460  -0.41962  -0.41516
 Alpha  occ. eigenvalues --   -0.40282  -0.39442  -0.38923  -0.37215  -0.37180
 Alpha  occ. eigenvalues --   -0.36602  -0.35955  -0.34850  -0.34226  -0.33543
 Alpha  occ. eigenvalues --   -0.32803  -0.32198  -0.31802  -0.29668  -0.26543
 Alpha  occ. eigenvalues --   -0.23489  -0.23047  -0.22718  -0.22384  -0.22222
 Alpha  occ. eigenvalues --   -0.17552
 Alpha virt. eigenvalues --    0.08058   0.08951   0.09454   0.09936   0.10098
 Alpha virt. eigenvalues --    0.10859   0.11070   0.11233   0.11557   0.12401
 Alpha virt. eigenvalues --    0.12572   0.12885   0.13153   0.13261   0.13339
 Alpha virt. eigenvalues --    0.13733   0.14087   0.14430   0.14874   0.15054
 Alpha virt. eigenvalues --    0.15267   0.15532   0.16017   0.16711   0.16775
 Alpha virt. eigenvalues --    0.17267   0.17450   0.17925   0.18314   0.18451
 Alpha virt. eigenvalues --    0.18584   0.18828   0.19114   0.19225   0.19451
 Alpha virt. eigenvalues --    0.19666   0.20110   0.20311   0.20716   0.20861
 Alpha virt. eigenvalues --    0.21075   0.21147   0.21610   0.21782   0.21932
 Alpha virt. eigenvalues --    0.22167   0.22364   0.22580   0.22853   0.23227
 Alpha virt. eigenvalues --    0.23254   0.23625   0.23759   0.24252   0.24597
 Alpha virt. eigenvalues --    0.24845   0.25015   0.25350   0.25714   0.25965
 Alpha virt. eigenvalues --    0.26156   0.26679   0.27020   0.27397   0.27745
 Alpha virt. eigenvalues --    0.27873   0.28219   0.28355   0.28540   0.28669
 Alpha virt. eigenvalues --    0.29054   0.29242   0.29334   0.29982   0.30123
 Alpha virt. eigenvalues --    0.30471   0.30720   0.30841   0.31238   0.31600
 Alpha virt. eigenvalues --    0.31628   0.32223   0.32415   0.32637   0.33037
 Alpha virt. eigenvalues --    0.33112   0.33590   0.33806   0.33939   0.34106
 Alpha virt. eigenvalues --    0.34441   0.34727   0.34756   0.35141   0.35571
 Alpha virt. eigenvalues --    0.35747   0.35877   0.36218   0.36463   0.36597
 Alpha virt. eigenvalues --    0.36722   0.36936   0.37081   0.37223   0.37339
 Alpha virt. eigenvalues --    0.37678   0.38021   0.38114   0.38300   0.38440
 Alpha virt. eigenvalues --    0.38797   0.38949   0.39239   0.39391   0.39455
 Alpha virt. eigenvalues --    0.39842   0.40083   0.40290   0.40536   0.40678
 Alpha virt. eigenvalues --    0.40829   0.41152   0.41244   0.41648   0.41824
 Alpha virt. eigenvalues --    0.42151   0.42473   0.42644   0.42854   0.42938
 Alpha virt. eigenvalues --    0.43338   0.43447   0.43749   0.43912   0.44161
 Alpha virt. eigenvalues --    0.44222   0.44402   0.44716   0.45262   0.45526
 Alpha virt. eigenvalues --    0.45601   0.45818   0.46072   0.46183   0.46507
 Alpha virt. eigenvalues --    0.46915   0.47055   0.47510   0.47553   0.47645
 Alpha virt. eigenvalues --    0.47850   0.48227   0.48438   0.48647   0.48953
 Alpha virt. eigenvalues --    0.49169   0.49442   0.49737   0.49979   0.50188
 Alpha virt. eigenvalues --    0.50538   0.50800   0.50831   0.51193   0.51458
 Alpha virt. eigenvalues --    0.51618   0.51933   0.52160   0.52292   0.52435
 Alpha virt. eigenvalues --    0.52782   0.53036   0.53278   0.53372   0.53533
 Alpha virt. eigenvalues --    0.53769   0.53988   0.54220   0.54316   0.54386
 Alpha virt. eigenvalues --    0.54561   0.54838   0.55051   0.55244   0.55402
 Alpha virt. eigenvalues --    0.55767   0.55889   0.56242   0.56344   0.56569
 Alpha virt. eigenvalues --    0.57085   0.57379   0.57583   0.57728   0.57855
 Alpha virt. eigenvalues --    0.58189   0.58422   0.58570   0.59062   0.59247
 Alpha virt. eigenvalues --    0.59313   0.59442   0.59773   0.60257   0.60494
 Alpha virt. eigenvalues --    0.60655   0.60717   0.60987   0.61472   0.61497
 Alpha virt. eigenvalues --    0.61891   0.62144   0.62492   0.62644   0.62723
 Alpha virt. eigenvalues --    0.63111   0.63426   0.63656   0.64061   0.64474
 Alpha virt. eigenvalues --    0.64528   0.65208   0.65406   0.65753   0.65889
 Alpha virt. eigenvalues --    0.66125   0.66391   0.66669   0.67095   0.67456
 Alpha virt. eigenvalues --    0.67472   0.67787   0.68158   0.68522   0.68871
 Alpha virt. eigenvalues --    0.69081   0.69298   0.69447   0.69942   0.70112
 Alpha virt. eigenvalues --    0.70513   0.70888   0.71408   0.71754   0.72017
 Alpha virt. eigenvalues --    0.72393   0.72560   0.72835   0.73331   0.73654
 Alpha virt. eigenvalues --    0.73959   0.74080   0.74394   0.74649   0.75031
 Alpha virt. eigenvalues --    0.75176   0.75682   0.75813   0.76521   0.77025
 Alpha virt. eigenvalues --    0.77265   0.77480   0.77677   0.77872   0.78482
 Alpha virt. eigenvalues --    0.78831   0.79254   0.79586   0.79790   0.80854
 Alpha virt. eigenvalues --    0.81175   0.81587   0.81858   0.82020   0.82193
 Alpha virt. eigenvalues --    0.82485   0.82843   0.82938   0.83175   0.83845
 Alpha virt. eigenvalues --    0.83860   0.84445   0.84665   0.84847   0.85185
 Alpha virt. eigenvalues --    0.85502   0.85909   0.86211   0.86738   0.86962
 Alpha virt. eigenvalues --    0.87130   0.87960   0.88295   0.88721   0.88889
 Alpha virt. eigenvalues --    0.89398   0.89547   0.89714   0.90081   0.90379
 Alpha virt. eigenvalues --    0.90488   0.90947   0.91159   0.91503   0.91958
 Alpha virt. eigenvalues --    0.92025   0.92165   0.92613   0.93021   0.93141
 Alpha virt. eigenvalues --    0.93519   0.93611   0.94007   0.94213   0.94842
 Alpha virt. eigenvalues --    0.94954   0.95244   0.95430   0.95677   0.96037
 Alpha virt. eigenvalues --    0.96059   0.96388   0.96603   0.96697   0.97004
 Alpha virt. eigenvalues --    0.97211   0.97616   0.97881   0.98167   0.98373
 Alpha virt. eigenvalues --    0.98515   0.98929   0.99421   0.99766   0.99923
 Alpha virt. eigenvalues --    1.00178   1.00472   1.00817   1.01174   1.01528
 Alpha virt. eigenvalues --    1.01926   1.02207   1.02444   1.02596   1.03040
 Alpha virt. eigenvalues --    1.03236   1.03851   1.04150   1.04281   1.04656
 Alpha virt. eigenvalues --    1.04857   1.05097   1.05335   1.05559   1.05838
 Alpha virt. eigenvalues --    1.05958   1.06107   1.06528   1.06803   1.06994
 Alpha virt. eigenvalues --    1.07192   1.07437   1.07961   1.08308   1.08376
 Alpha virt. eigenvalues --    1.08745   1.08810   1.09007   1.09361   1.09666
 Alpha virt. eigenvalues --    1.09724   1.10082   1.10646   1.11094   1.11352
 Alpha virt. eigenvalues --    1.11567   1.12008   1.12220   1.12464   1.13020
 Alpha virt. eigenvalues --    1.13168   1.13610   1.13795   1.13808   1.14390
 Alpha virt. eigenvalues --    1.14620   1.14849   1.15034   1.15169   1.15505
 Alpha virt. eigenvalues --    1.16011   1.16279   1.16509   1.16737   1.16814
 Alpha virt. eigenvalues --    1.17122   1.17372   1.17630   1.17874   1.18089
 Alpha virt. eigenvalues --    1.18429   1.18807   1.19049   1.19429   1.19551
 Alpha virt. eigenvalues --    1.19835   1.19982   1.20510   1.20615   1.21449
 Alpha virt. eigenvalues --    1.21684   1.21791   1.22129   1.22266   1.22367
 Alpha virt. eigenvalues --    1.22889   1.23136   1.23668   1.23991   1.24229
 Alpha virt. eigenvalues --    1.24920   1.25044   1.25169   1.25291   1.25735
 Alpha virt. eigenvalues --    1.26233   1.26449   1.26804   1.26920   1.26977
 Alpha virt. eigenvalues --    1.27656   1.27930   1.28222   1.28364   1.28695
 Alpha virt. eigenvalues --    1.29002   1.29253   1.29797   1.30091   1.30420
 Alpha virt. eigenvalues --    1.30694   1.30949   1.31264   1.31628   1.32105
 Alpha virt. eigenvalues --    1.32205   1.32726   1.32845   1.33289   1.33442
 Alpha virt. eigenvalues --    1.33786   1.34135   1.34334   1.34583   1.34727
 Alpha virt. eigenvalues --    1.35554   1.35707   1.35776   1.36432   1.36518
 Alpha virt. eigenvalues --    1.36706   1.37218   1.37313   1.37664   1.37885
 Alpha virt. eigenvalues --    1.38340   1.38521   1.38876   1.39131   1.39342
 Alpha virt. eigenvalues --    1.39835   1.40011   1.40331   1.40682   1.40901
 Alpha virt. eigenvalues --    1.41536   1.41689   1.42119   1.42146   1.43023
 Alpha virt. eigenvalues --    1.43264   1.43839   1.44392   1.44722   1.45458
 Alpha virt. eigenvalues --    1.45633   1.45726   1.46000   1.46240   1.46530
 Alpha virt. eigenvalues --    1.47180   1.47691   1.47790   1.47975   1.48484
 Alpha virt. eigenvalues --    1.48855   1.49452   1.49913   1.50184   1.50374
 Alpha virt. eigenvalues --    1.50589   1.51121   1.51807   1.52015   1.52628
 Alpha virt. eigenvalues --    1.52896   1.53173   1.53495   1.53877   1.54408
 Alpha virt. eigenvalues --    1.54628   1.55075   1.55531   1.55949   1.56107
 Alpha virt. eigenvalues --    1.56400   1.56899   1.57251   1.57530   1.58249
 Alpha virt. eigenvalues --    1.58332   1.58680   1.59011   1.59330   1.59966
 Alpha virt. eigenvalues --    1.60420   1.60842   1.61165   1.61588   1.61999
 Alpha virt. eigenvalues --    1.62170   1.62475   1.63019   1.63384   1.63592
 Alpha virt. eigenvalues --    1.64110   1.64702   1.64889   1.65215   1.65640
 Alpha virt. eigenvalues --    1.66229   1.66339   1.66589   1.66783   1.67042
 Alpha virt. eigenvalues --    1.67310   1.67699   1.67929   1.68282   1.69106
 Alpha virt. eigenvalues --    1.69164   1.69249   1.70097   1.70376   1.70512
 Alpha virt. eigenvalues --    1.70863   1.71311   1.71682   1.72267   1.72374
 Alpha virt. eigenvalues --    1.72650   1.73212   1.73588   1.73758   1.74471
 Alpha virt. eigenvalues --    1.74645   1.74877   1.75344   1.75482   1.75831
 Alpha virt. eigenvalues --    1.76332   1.76544   1.76732   1.77078   1.77794
 Alpha virt. eigenvalues --    1.78480   1.78682   1.79330   1.79718   1.79841
 Alpha virt. eigenvalues --    1.80332   1.80734   1.81103   1.81357   1.81523
 Alpha virt. eigenvalues --    1.82093   1.82387   1.82682   1.83039   1.83301
 Alpha virt. eigenvalues --    1.83574   1.84078   1.84367   1.84635   1.85092
 Alpha virt. eigenvalues --    1.85421   1.85783   1.86092   1.86313   1.87367
 Alpha virt. eigenvalues --    1.87870   1.88050   1.88198   1.88675   1.89051
 Alpha virt. eigenvalues --    1.89139   1.89545   1.89971   1.90685   1.91072
 Alpha virt. eigenvalues --    1.91277   1.91393   1.91676   1.92554   1.93060
 Alpha virt. eigenvalues --    1.93627   1.93968   1.94500   1.94750   1.95161
 Alpha virt. eigenvalues --    1.95198   1.95491   1.96013   1.96608   1.97021
 Alpha virt. eigenvalues --    1.97109   1.97513   1.97795   1.98192   1.98968
 Alpha virt. eigenvalues --    1.99504   2.00043   2.00442   2.00966   2.01484
 Alpha virt. eigenvalues --    2.01882   2.02056   2.02163   2.03329   2.03952
 Alpha virt. eigenvalues --    2.04063   2.04617   2.04765   2.04929   2.05354
 Alpha virt. eigenvalues --    2.05685   2.06301   2.06744   2.07263   2.07304
 Alpha virt. eigenvalues --    2.07956   2.08383   2.08813   2.09718   2.10045
 Alpha virt. eigenvalues --    2.10327   2.10987   2.11587   2.11808   2.12442
 Alpha virt. eigenvalues --    2.13072   2.13265   2.14013   2.14286   2.15076
 Alpha virt. eigenvalues --    2.15220   2.15679   2.15794   2.16093   2.17472
 Alpha virt. eigenvalues --    2.17783   2.17916   2.18883   2.19194   2.19566
 Alpha virt. eigenvalues --    2.20302   2.20596   2.20751   2.21557   2.22393
 Alpha virt. eigenvalues --    2.22727   2.23290   2.23523   2.23970   2.24976
 Alpha virt. eigenvalues --    2.25085   2.26322   2.26909   2.27204   2.27625
 Alpha virt. eigenvalues --    2.28163   2.28305   2.29137   2.29604   2.29931
 Alpha virt. eigenvalues --    2.30259   2.30952   2.31877   2.32649   2.32742
 Alpha virt. eigenvalues --    2.33504   2.33953   2.34093   2.34494   2.35142
 Alpha virt. eigenvalues --    2.35717   2.36301   2.36559   2.37355   2.38056
 Alpha virt. eigenvalues --    2.38315   2.39003   2.39742   2.40510   2.40782
 Alpha virt. eigenvalues --    2.41673   2.41894   2.42174   2.42429   2.42804
 Alpha virt. eigenvalues --    2.43729   2.44634   2.45397   2.46035   2.46448
 Alpha virt. eigenvalues --    2.46880   2.47184   2.47732   2.48329   2.48820
 Alpha virt. eigenvalues --    2.49071   2.49515   2.50566   2.51347   2.52033
 Alpha virt. eigenvalues --    2.52361   2.53192   2.53982   2.54117   2.54674
 Alpha virt. eigenvalues --    2.55075   2.55478   2.55966   2.56634   2.56892
 Alpha virt. eigenvalues --    2.57917   2.58522   2.59418   2.59772   2.60269
 Alpha virt. eigenvalues --    2.60611   2.61280   2.61891   2.62516   2.62906
 Alpha virt. eigenvalues --    2.63626   2.64025   2.65022   2.65101   2.66643
 Alpha virt. eigenvalues --    2.66879   2.67763   2.68692   2.69213   2.69590
 Alpha virt. eigenvalues --    2.70422   2.71345   2.71645   2.72124   2.73035
 Alpha virt. eigenvalues --    2.73438   2.74103   2.74510   2.74821   2.75610
 Alpha virt. eigenvalues --    2.76108   2.76649   2.77074   2.77625   2.78542
 Alpha virt. eigenvalues --    2.79260   2.79771   2.79973   2.80909   2.81566
 Alpha virt. eigenvalues --    2.81749   2.82576   2.83021   2.83687   2.84271
 Alpha virt. eigenvalues --    2.84808   2.84942   2.85883   2.85953   2.86673
 Alpha virt. eigenvalues --    2.86992   2.87934   2.88950   2.89960   2.90480
 Alpha virt. eigenvalues --    2.90556   2.91129   2.91262   2.91588   2.93353
 Alpha virt. eigenvalues --    2.94459   2.95252   2.95870   2.97036   2.97249
 Alpha virt. eigenvalues --    2.97400   2.98628   2.99579   2.99833   3.00195
 Alpha virt. eigenvalues --    3.02075   3.02373   3.03200   3.03714   3.04570
 Alpha virt. eigenvalues --    3.04627   3.05071   3.05527   3.06622   3.06845
 Alpha virt. eigenvalues --    3.07468   3.08570   3.08841   3.09318   3.10194
 Alpha virt. eigenvalues --    3.10708   3.11201   3.11725   3.12494   3.13188
 Alpha virt. eigenvalues --    3.14726   3.15046   3.16160   3.16555   3.17076
 Alpha virt. eigenvalues --    3.17472   3.17816   3.18727   3.19269   3.19885
 Alpha virt. eigenvalues --    3.20483   3.20993   3.21620   3.21762   3.22159
 Alpha virt. eigenvalues --    3.22876   3.22902   3.23607   3.23780   3.24464
 Alpha virt. eigenvalues --    3.24868   3.25285   3.27822   3.28086   3.28747
 Alpha virt. eigenvalues --    3.29373   3.30366   3.30623   3.31036   3.31267
 Alpha virt. eigenvalues --    3.32178   3.32643   3.32755   3.33225   3.34786
 Alpha virt. eigenvalues --    3.35135   3.35724   3.36681   3.37326   3.38221
 Alpha virt. eigenvalues --    3.39216   3.39795   3.39870   3.40734   3.41251
 Alpha virt. eigenvalues --    3.41634   3.41838   3.42308   3.43044   3.43270
 Alpha virt. eigenvalues --    3.43718   3.44598   3.44940   3.45585   3.45805
 Alpha virt. eigenvalues --    3.46196   3.46476   3.47131   3.48517   3.49071
 Alpha virt. eigenvalues --    3.49429   3.49835   3.50411   3.51152   3.51557
 Alpha virt. eigenvalues --    3.52297   3.53161   3.53984   3.54074   3.55610
 Alpha virt. eigenvalues --    3.56444   3.56880   3.57587   3.57877   3.58662
 Alpha virt. eigenvalues --    3.58731   3.59266   3.59541   3.60185   3.60526
 Alpha virt. eigenvalues --    3.60730   3.61770   3.62449   3.63046   3.64300
 Alpha virt. eigenvalues --    3.64324   3.64555   3.65900   3.66146   3.66390
 Alpha virt. eigenvalues --    3.66669   3.67479   3.68333   3.68419   3.69161
 Alpha virt. eigenvalues --    3.70149   3.70660   3.70775   3.71004   3.71339
 Alpha virt. eigenvalues --    3.72041   3.72459   3.72692   3.72986   3.73569
 Alpha virt. eigenvalues --    3.74290   3.74415   3.74435   3.74852   3.74996
 Alpha virt. eigenvalues --    3.75256   3.75474   3.76745   3.77841   3.78018
 Alpha virt. eigenvalues --    3.78491   3.80022   3.80276   3.80579   3.81210
 Alpha virt. eigenvalues --    3.81900   3.82520   3.82805   3.82818   3.83647
 Alpha virt. eigenvalues --    3.84103   3.84941   3.85605   3.85635   3.85852
 Alpha virt. eigenvalues --    3.86139   3.86769   3.87373   3.87958   3.89274
 Alpha virt. eigenvalues --    3.89652   3.90401   3.90625   3.90926   3.91204
 Alpha virt. eigenvalues --    3.92085   3.92649   3.92724   3.93484   3.93948
 Alpha virt. eigenvalues --    3.94928   3.95247   3.95388   3.95820   3.96389
 Alpha virt. eigenvalues --    3.96683   3.97211   3.97776   3.98040   3.98840
 Alpha virt. eigenvalues --    3.99420   3.99802   4.00013   4.00499   4.01079
 Alpha virt. eigenvalues --    4.01290   4.01815   4.02116   4.03089   4.03657
 Alpha virt. eigenvalues --    4.04204   4.04653   4.04954   4.05854   4.05904
 Alpha virt. eigenvalues --    4.06906   4.07311   4.08038   4.09058   4.09847
 Alpha virt. eigenvalues --    4.10329   4.11070   4.11366   4.12134   4.12329
 Alpha virt. eigenvalues --    4.12737   4.13220   4.14170   4.15231   4.15765
 Alpha virt. eigenvalues --    4.16489   4.16623   4.17037   4.17559   4.18315
 Alpha virt. eigenvalues --    4.18493   4.18894   4.19397   4.20005   4.20374
 Alpha virt. eigenvalues --    4.20903   4.21179   4.21690   4.22562   4.22818
 Alpha virt. eigenvalues --    4.23161   4.23667   4.24257   4.24938   4.25254
 Alpha virt. eigenvalues --    4.26189   4.26984   4.27230   4.27604   4.28373
 Alpha virt. eigenvalues --    4.29054   4.29965   4.30216   4.31223   4.32074
 Alpha virt. eigenvalues --    4.32140   4.32462   4.32940   4.33083   4.34038
 Alpha virt. eigenvalues --    4.34408   4.34952   4.35182   4.35886   4.35958
 Alpha virt. eigenvalues --    4.36633   4.37331   4.38121   4.38421   4.38880
 Alpha virt. eigenvalues --    4.39286   4.39352   4.40549   4.40882   4.42657
 Alpha virt. eigenvalues --    4.42899   4.43268   4.44003   4.44780   4.46758
 Alpha virt. eigenvalues --    4.47650   4.47768   4.49106   4.49277   4.49735
 Alpha virt. eigenvalues --    4.50613   4.50968   4.51467   4.51923   4.52791
 Alpha virt. eigenvalues --    4.53066   4.53571   4.55235   4.55673   4.56606
 Alpha virt. eigenvalues --    4.57440   4.57884   4.58428   4.59733   4.59971
 Alpha virt. eigenvalues --    4.60492   4.61394   4.62167   4.62593   4.64316
 Alpha virt. eigenvalues --    4.64651   4.64985   4.65712   4.66808   4.67453
 Alpha virt. eigenvalues --    4.68682   4.69268   4.69719   4.70124   4.70911
 Alpha virt. eigenvalues --    4.71255   4.72019   4.73299   4.73728   4.75161
 Alpha virt. eigenvalues --    4.75833   4.76332   4.77015   4.77618   4.78007
 Alpha virt. eigenvalues --    4.79058   4.79779   4.80302   4.81281   4.81522
 Alpha virt. eigenvalues --    4.82174   4.82635   4.83188   4.83332   4.83684
 Alpha virt. eigenvalues --    4.83850   4.85231   4.85534   4.86064   4.87610
 Alpha virt. eigenvalues --    4.88572   4.89584   4.91286   4.92110   4.92829
 Alpha virt. eigenvalues --    4.93629   4.93826   4.95647   4.96136   4.96990
 Alpha virt. eigenvalues --    4.97992   4.98803   4.99055   5.00313   5.02122
 Alpha virt. eigenvalues --    5.02261   5.03349   5.04678   5.06223   5.07692
 Alpha virt. eigenvalues --    5.08435   5.09730   5.10355   5.10689   5.11231
 Alpha virt. eigenvalues --    5.12194   5.12452   5.13119   5.13274   5.14489
 Alpha virt. eigenvalues --    5.14765   5.16204   5.16407   5.17098   5.18456
 Alpha virt. eigenvalues --    5.18974   5.19597   5.20322   5.20856   5.21484
 Alpha virt. eigenvalues --    5.22405   5.23170   5.24182   5.24943   5.25237
 Alpha virt. eigenvalues --    5.25565   5.26037   5.26417   5.27318   5.27851
 Alpha virt. eigenvalues --    5.28237   5.28461   5.29302   5.30468   5.31596
 Alpha virt. eigenvalues --    5.32624   5.34285   5.34450   5.35395   5.36446
 Alpha virt. eigenvalues --    5.37310   5.38273   5.40720   5.41341   5.42764
 Alpha virt. eigenvalues --    5.43277   5.44739   5.46503   5.47196   5.48505
 Alpha virt. eigenvalues --    5.49149   5.49771   5.52173   5.52900   5.55491
 Alpha virt. eigenvalues --    5.56914   5.57267   5.58081   5.58433   5.58827
 Alpha virt. eigenvalues --    5.59603   5.60620   5.60944   5.61175   5.61824
 Alpha virt. eigenvalues --    5.62846   5.63955   5.64625   5.66458   5.67513
 Alpha virt. eigenvalues --    5.67858   5.68801   5.70373   5.71164   5.72780
 Alpha virt. eigenvalues --    5.73001   5.74508   5.77081   5.77638   5.79541
 Alpha virt. eigenvalues --    5.80428   5.80893   5.82138   5.82755   5.83188
 Alpha virt. eigenvalues --    5.83857   5.85048   5.85194   5.86061   5.86247
 Alpha virt. eigenvalues --    5.87455   5.89156   5.91255   5.91281   5.94845
 Alpha virt. eigenvalues --    5.95115   5.96219   5.97926   5.98504   5.99032
 Alpha virt. eigenvalues --    5.99819   6.01366   6.02285   6.05185   6.05856
 Alpha virt. eigenvalues --    6.07739   6.08976   6.10682   6.12424   6.13130
 Alpha virt. eigenvalues --    6.13956   6.15568   6.15889   6.16709   6.17717
 Alpha virt. eigenvalues --    6.18466   6.19509   6.21052   6.22988   6.23873
 Alpha virt. eigenvalues --    6.24724   6.26762   6.30265   6.31475   6.33869
 Alpha virt. eigenvalues --    6.34851   6.36376   6.36611   6.38611   6.39290
 Alpha virt. eigenvalues --    6.43439   6.45167   6.45648   6.46469   6.47851
 Alpha virt. eigenvalues --    6.51906   6.56515   6.58940   6.62830   6.64397
 Alpha virt. eigenvalues --    6.66930   6.67743   6.70373   6.71457   6.72121
 Alpha virt. eigenvalues --    6.73777   6.76230   6.77695   6.78780   6.79384
 Alpha virt. eigenvalues --    6.80316   6.82636   6.84223   6.87244   6.90328
 Alpha virt. eigenvalues --    6.91133   6.93137   6.93770   6.95638   6.97866
 Alpha virt. eigenvalues --    7.00524   7.01728   7.04825   7.05717   7.06673
 Alpha virt. eigenvalues --    7.07934   7.10244   7.13704   7.16481   7.17693
 Alpha virt. eigenvalues --    7.18461   7.22453   7.23924   7.29387   7.35688
 Alpha virt. eigenvalues --    7.36384   7.36908   7.38120   7.40042   7.43753
 Alpha virt. eigenvalues --    7.48193   7.48868   7.51770   7.64910   7.67554
 Alpha virt. eigenvalues --    7.68518   7.70304   7.72449   7.76490   7.80907
 Alpha virt. eigenvalues --    7.88982   7.96838   7.98959   8.01608   8.08247
 Alpha virt. eigenvalues --    8.10842   8.13698   8.33007   8.47218   8.55381
 Alpha virt. eigenvalues --    8.64374   8.66664   8.80645   8.83456   8.85216
 Alpha virt. eigenvalues --    8.85583   8.87923   8.88078   8.88681   8.91261
 Alpha virt. eigenvalues --    8.92664   8.93162   8.93400   9.01235   9.05080
 Alpha virt. eigenvalues --    9.06005   9.07248   9.08719   9.14075   9.16773
 Alpha virt. eigenvalues --    9.17903   9.19778   9.20458   9.21416   9.21867
 Alpha virt. eigenvalues --    9.24050   9.27240   9.27419   9.27582   9.28370
 Alpha virt. eigenvalues --    9.30317   9.31549   9.32422   9.35461   9.38712
 Alpha virt. eigenvalues --    9.38872   9.40094   9.40257   9.41359   9.41525
 Alpha virt. eigenvalues --    9.42032   9.44862   9.46431   9.47904   9.48910
 Alpha virt. eigenvalues --    9.49426   9.51527   9.53832   9.56062   9.56976
 Alpha virt. eigenvalues --    9.64495   9.69520   9.70994   9.76536   9.76700
 Alpha virt. eigenvalues --    9.83130   9.85096   9.85629   9.93369   9.99342
 Alpha virt. eigenvalues --   11.43292  15.32633  15.54162  15.76425  15.93707
 Alpha virt. eigenvalues --   16.24246  16.41321  16.46278  16.50054  17.02807
 Alpha virt. eigenvalues --   17.45034  17.78576  17.97901  18.30373  18.45997
 Alpha virt. eigenvalues --   18.64021  18.96203  19.47143  19.71062  19.79966
 Alpha virt. eigenvalues --   20.79841  21.18452  21.75562  22.19463
          Condensed to atoms (all electrons):
               1          2          3          4          5          6
     1  C   12.452836  -0.495141  -0.996107   0.135566   0.105166   0.007257
     2  N   -0.495141   9.691868   0.660892  -0.126327  -1.070724  -0.211940
     3  C   -0.996107   0.660892   7.507110   0.276470  -0.155112  -0.599168
     4  O    0.135566  -0.126327   0.276470   9.183507  -0.182486   0.025827
     5  N    0.105166  -1.070724  -0.155112  -0.182486   8.795436   0.502653
     6  C    0.007257  -0.211940  -0.599168   0.025827   0.502653   6.641961
     7  C    0.003097  -0.017575   0.025727  -0.007901   0.004271  -0.076707
     8  C   -0.002936   0.011387   0.002848   0.001407  -0.022610  -0.011112
     9  C   -2.051830   0.114521   0.076323   0.021369  -0.124562  -0.021383
    10  C    0.474477   0.055429  -0.184444   0.011752   0.074328  -0.002596
    11  C   -0.297119  -0.036117   0.077587  -0.000107  -0.020381   0.001154
    12  C   -0.172571   0.107276  -0.081641   0.037077   0.032091   0.003229
    13  C   -1.288575  -0.394627   0.084042  -0.131397  -0.090851  -0.027157
    14  H   -0.641706  -0.688937  -0.398517  -0.015979   0.346361  -0.031386
    15  H   -0.149593   0.254617  -0.135813  -0.076756  -0.779832  -0.433442
    16  H    0.004721   0.003487  -0.067819  -0.019342  -0.103835   0.377903
    17  H    0.003294  -0.017551  -0.063375   0.012984  -0.007484   0.437362
    18  H    0.002024  -0.000790   0.005226  -0.003585  -0.039069   0.003064
    19  H   -0.001861  -0.002595   0.010913   0.002199  -0.025760  -0.012583
    20  H    0.000087   0.000669   0.002824  -0.000495   0.005697  -0.016318
    21  H   -0.000255   0.000285   0.000474   0.000090  -0.000483  -0.003235
    22  H   -0.000048   0.000438   0.004555   0.000576   0.004935  -0.013157
    23  H   -0.949860   0.094262  -0.066619   0.004948   0.053145   0.011095
    24  Cl   0.028876  -0.020208   0.017300  -0.006422  -0.002322  -0.001564
    25  H   -0.557255  -0.228240   0.134910  -0.159167  -0.039181  -0.027116
    26  S   -0.161661   0.032850  -0.016048  -0.000126   0.003262  -0.000340
    27  H   -0.066377   0.012660   0.003394  -0.000047  -0.000432   0.000134
    28  F    0.009478  -0.012454   0.000431   0.000066  -0.001357  -0.000054
    29  F    0.022846   0.000672   0.001471  -0.000021  -0.000009  -0.000009
    30  F    0.017300  -0.014663   0.001710   0.000091  -0.001322   0.000063
    31  F    0.021870   0.000615   0.001723  -0.000009   0.000037   0.000019
    32  F   -0.001494  -0.000340  -0.000238   0.000005  -0.000065  -0.000007
    33  O    0.049894  -0.099331  -0.025757  -0.000928  -0.003026  -0.010566
    34  O    0.018551   0.002959  -0.021254  -0.004173  -0.030921  -0.048130
    35  C   -0.030229  -0.103368  -0.021077  -0.003453   0.006399   0.018017
    36  C    0.014842  -0.030286  -0.012829  -0.000986   0.014561   0.012533
    37  C   -0.004004  -0.000404  -0.001034  -0.000025   0.000515  -0.000879
    38  H    0.005333  -0.005798  -0.001185  -0.000072   0.003007   0.001127
    39  H    0.005649  -0.005468  -0.001346  -0.000082   0.002333   0.001084
    40  H   -0.000985   0.000411  -0.000026   0.000009  -0.001084   0.000297
    41  H   -0.000135   0.000223   0.000133   0.000001  -0.000320  -0.000542
    42  H   -0.000586   0.000181  -0.000043  -0.000001   0.000140  -0.000289
               7          8          9         10         11         12
     1  C    0.003097  -0.002936  -2.051830   0.474477  -0.297119  -0.172571
     2  N   -0.017575   0.011387   0.114521   0.055429  -0.036117   0.107276
     3  C    0.025727   0.002848   0.076323  -0.184444   0.077587  -0.081641
     4  O   -0.007901   0.001407   0.021369   0.011752  -0.000107   0.037077
     5  N    0.004271  -0.022610  -0.124562   0.074328  -0.020381   0.032091
     6  C   -0.076707  -0.011112  -0.021383  -0.002596   0.001154   0.003229
     7  C    5.750658   0.020935  -0.002671   0.002479  -0.000757   0.000811
     8  C    0.020935   5.887526   0.001814  -0.000483   0.000077  -0.000064
     9  C   -0.002671   0.001814  11.042445  -1.573529   0.184913  -0.166647
    10  C    0.002479  -0.000483  -1.573529   9.958918  -1.535426   0.278946
    11  C   -0.000757   0.000077   0.184913  -1.535426   8.477135  -0.511745
    12  C    0.000811  -0.000064  -0.166647   0.278946  -0.511745   7.338363
    13  C   -0.005684   0.000304   0.101712  -0.501892   0.171440  -0.483873
    14  H    0.006459   0.000832  -0.221277  -0.068374   0.011890  -0.027946
    15  H   -0.003496   0.005895   0.029840  -0.023426   0.007262  -0.001256
    16  H   -0.024402  -0.013768  -0.001192   0.000361  -0.000137  -0.000734
    17  H    0.002167  -0.012099  -0.004315   0.000328  -0.000004  -0.001181
    18  H    0.331150  -0.036614  -0.002438   0.000363  -0.000116  -0.000011
    19  H    0.405141  -0.040100  -0.001037   0.000393  -0.000108   0.000018
    20  H    0.027343   0.378822   0.000193   0.000022  -0.000012   0.000046
    21  H   -0.029149   0.455890   0.000142  -0.000030   0.000006  -0.000005
    22  H    0.016087   0.390601   0.000112  -0.000048   0.000012  -0.000001
    23  H   -0.002676  -0.000352  -0.011459  -0.494198   0.132536   0.017287
    24  Cl  -0.000015  -0.000005  -0.017265  -0.015142  -0.030376  -0.297568
    25  H   -0.001038  -0.000176  -0.071062  -0.176135   0.085139  -0.525134
    26  S   -0.000039   0.000001  -0.028570  -0.752629   0.024121  -0.017854
    27  H   -0.000025   0.000003   0.027893  -0.205626   0.058643  -0.162595
    28  F   -0.000008   0.000001   0.048301  -0.137045  -0.006142   0.011392
    29  F   -0.000001  -0.000000  -0.021963  -0.104811   0.060881  -0.016575
    30  F   -0.000009   0.000002   0.055235  -0.142081  -0.003821   0.010434
    31  F   -0.000000   0.000000  -0.022686  -0.103844   0.059612  -0.015052
    32  F    0.000002   0.000000   0.007398   0.159772  -0.032730  -0.002034
    33  O    0.005321   0.001350   0.031890   0.062564  -0.016577   0.012793
    34  O   -0.009932  -0.001075   0.019222   0.004423  -0.001129   0.001894
    35  C   -0.000340  -0.002174  -0.024093   0.016397  -0.003580   0.003489
    36  C   -0.000684  -0.000896  -0.029123   0.004358  -0.000902  -0.000181
    37  C    0.003282  -0.000228   0.000718   0.000327  -0.000135   0.000041
    38  H   -0.000265  -0.000071  -0.008895   0.000361  -0.000002  -0.000131
    39  H   -0.000609  -0.000110  -0.009590   0.000423   0.000048  -0.000140
    40  H    0.000078   0.000205   0.000488  -0.000018   0.000016  -0.000029
    41  H    0.000240  -0.000003   0.000503   0.000030  -0.000025   0.000021
    42  H    0.000007  -0.000131   0.000116   0.000018   0.000002  -0.000018
              13         14         15         16         17         18
     1  C   -1.288575  -0.641706  -0.149593   0.004721   0.003294   0.002024
     2  N   -0.394627  -0.688937   0.254617   0.003487  -0.017551  -0.000790
     3  C    0.084042  -0.398517  -0.135813  -0.067819  -0.063375   0.005226
     4  O   -0.131397  -0.015979  -0.076756  -0.019342   0.012984  -0.003585
     5  N   -0.090851   0.346361  -0.779832  -0.103835  -0.007484  -0.039069
     6  C   -0.027157  -0.031386  -0.433442   0.377903   0.437362   0.003064
     7  C   -0.005684   0.006459  -0.003496  -0.024402   0.002167   0.331150
     8  C    0.000304   0.000832   0.005895  -0.013768  -0.012099  -0.036614
     9  C    0.101712  -0.221277   0.029840  -0.001192  -0.004315  -0.002438
    10  C   -0.501892  -0.068374  -0.023426   0.000361   0.000328   0.000363
    11  C    0.171440   0.011890   0.007262  -0.000137  -0.000004  -0.000116
    12  C   -0.483873  -0.027946  -0.001256  -0.000734  -0.001181  -0.000011
    13  C    9.030922   0.118997   0.034125  -0.001066   0.003421  -0.001274
    14  H    0.118997   2.129478  -0.158395   0.005180  -0.002231   0.007960
    15  H    0.034125  -0.158395   1.754208   0.049157  -0.029422   0.003953
    16  H   -0.001066   0.005180   0.049157   0.446836   0.004469   0.017146
    17  H    0.003421  -0.002231  -0.029422   0.004469   0.442110  -0.013159
    18  H   -0.001274   0.007960   0.003953   0.017146  -0.013159   0.443811
    19  H   -0.000184   0.000247  -0.010808  -0.020347   0.019610   0.010162
    20  H   -0.000076  -0.000105   0.000560  -0.006496  -0.011246   0.005304
    21  H    0.000039  -0.000653   0.003074  -0.001306   0.000217  -0.016860
    22  H    0.000176  -0.000084  -0.001156  -0.010853  -0.005697  -0.002272
    23  H   -0.085421  -0.067027   0.008336   0.000257   0.000008  -0.001488
    24  Cl   0.150590   0.006033  -0.000831   0.000015   0.000016   0.000020
    25  H    0.195887   0.045588  -0.002261  -0.001097   0.000343   0.000279
    26  S    0.042630  -0.019285  -0.000047  -0.000018  -0.000030  -0.000037
    27  H   -0.038695  -0.009598   0.000998  -0.000010  -0.000004  -0.000012
    28  F   -0.007109  -0.010669   0.001066  -0.000012   0.000002  -0.000015
    29  F    0.002658  -0.001022   0.000215   0.000002   0.000001  -0.000003
    30  F   -0.006347  -0.010431   0.001145  -0.000005  -0.000006  -0.000003
    31  F    0.001595  -0.001483   0.000226  -0.000001   0.000002  -0.000001
    32  F    0.000719   0.003516  -0.000316   0.000000  -0.000001   0.000004
    33  O   -0.027734  -0.175744  -0.077384  -0.000050  -0.001246  -0.000563
    34  O   -0.001377   0.000933  -0.171327   0.001499   0.000200  -0.006862
    35  C    0.000927   0.021153  -0.016354   0.003262   0.001178   0.003262
    36  C    0.000094   0.002065   0.023333   0.000768   0.000934   0.002884
    37  C   -0.000505   0.013700  -0.014342   0.000091   0.000148   0.000135
    38  H    0.000586  -0.002672   0.004858   0.000072   0.000075   0.000195
    39  H    0.000725  -0.001884   0.005516   0.000031   0.000119   0.000060
    40  H    0.000002   0.003063  -0.004005   0.000015  -0.000018   0.000216
    41  H   -0.000033  -0.000363   0.001782  -0.000009  -0.000015  -0.000212
    42  H   -0.000068   0.001794  -0.001754   0.000024  -0.000050   0.000638
              19         20         21         22         23         24
     1  C   -0.001861   0.000087  -0.000255  -0.000048  -0.949860   0.028876
     2  N   -0.002595   0.000669   0.000285   0.000438   0.094262  -0.020208
     3  C    0.010913   0.002824   0.000474   0.004555  -0.066619   0.017300
     4  O    0.002199  -0.000495   0.000090   0.000576   0.004948  -0.006422
     5  N   -0.025760   0.005697  -0.000483   0.004935   0.053145  -0.002322
     6  C   -0.012583  -0.016318  -0.003235  -0.013157   0.011095  -0.001564
     7  C    0.405141   0.027343  -0.029149   0.016087  -0.002676  -0.000015
     8  C   -0.040100   0.378822   0.455890   0.390601  -0.000352  -0.000005
     9  C   -0.001037   0.000193   0.000142   0.000112  -0.011459  -0.017265
    10  C    0.000393   0.000022  -0.000030  -0.000048  -0.494198  -0.015142
    11  C   -0.000108  -0.000012   0.000006   0.000012   0.132536  -0.030376
    12  C    0.000018   0.000046  -0.000005  -0.000001   0.017287  -0.297568
    13  C   -0.000184  -0.000076   0.000039   0.000176  -0.085421   0.150590
    14  H    0.000247  -0.000105  -0.000653  -0.000084  -0.067027   0.006033
    15  H   -0.010808   0.000560   0.003074  -0.001156   0.008336  -0.000831
    16  H   -0.020347  -0.006496  -0.001306  -0.010853   0.000257   0.000015
    17  H    0.019610  -0.011246   0.000217  -0.005697   0.000008   0.000016
    18  H    0.010162   0.005304  -0.016860  -0.002272  -0.001488   0.000020
    19  H    0.446896  -0.001662  -0.004192   0.002134  -0.000168  -0.000005
    20  H   -0.001662   0.334052  -0.004879   0.017563   0.000022  -0.000003
    21  H   -0.004192  -0.004879   0.328512   0.002907   0.000019  -0.000001
    22  H    0.002134   0.017563   0.002907   0.323154  -0.000018  -0.000000
    23  H   -0.000168   0.000022   0.000019  -0.000018   1.634467  -0.008120
    24  Cl  -0.000005  -0.000003  -0.000001  -0.000000  -0.008120  17.696550
    25  H   -0.000268  -0.000037  -0.000019   0.000087  -0.051822   0.055463
    26  S    0.000017   0.000000   0.000000  -0.000001   0.132554  -0.007004
    27  H   -0.000001  -0.000000   0.000000   0.000000   0.009977  -0.072988
    28  F   -0.000003   0.000000   0.000000   0.000000   0.005557   0.000092
    29  F   -0.000000   0.000000   0.000000  -0.000000   0.005168  -0.000347
    30  F   -0.000008  -0.000000   0.000000   0.000000   0.000298   0.000113
    31  F   -0.000001  -0.000000   0.000000   0.000000   0.007057  -0.000357
    32  F    0.000000   0.000000  -0.000000   0.000000  -0.027661   0.000031
    33  O    0.000690   0.000097   0.000171  -0.000019  -0.077209  -0.000547
    34  O   -0.001673   0.000102   0.000633  -0.000491   0.002123  -0.000016
    35  C   -0.001804  -0.000160  -0.000316  -0.000220   0.027492  -0.000330
    36  C    0.000828  -0.000134  -0.000166  -0.000053  -0.008115   0.000006
    37  C    0.000047   0.000007   0.000074  -0.000045  -0.001021  -0.000002
    38  H    0.000088  -0.000017  -0.000022  -0.000004   0.000974   0.000006
    39  H    0.000083  -0.000024  -0.000017   0.000001   0.001888   0.000005
    40  H    0.000033   0.000035  -0.000021   0.000016  -0.000082  -0.000000
    41  H   -0.000060   0.000002   0.000028  -0.000007   0.000055  -0.000000
    42  H    0.000043  -0.000007  -0.000031  -0.000011  -0.000133   0.000000
              25         26         27         28         29         30
     1  C   -0.557255  -0.161661  -0.066377   0.009478   0.022846   0.017300
     2  N   -0.228240   0.032850   0.012660  -0.012454   0.000672  -0.014663
     3  C    0.134910  -0.016048   0.003394   0.000431   0.001471   0.001710
     4  O   -0.159167  -0.000126  -0.000047   0.000066  -0.000021   0.000091
     5  N   -0.039181   0.003262  -0.000432  -0.001357  -0.000009  -0.001322
     6  C   -0.027116  -0.000340   0.000134  -0.000054  -0.000009   0.000063
     7  C   -0.001038  -0.000039  -0.000025  -0.000008  -0.000001  -0.000009
     8  C   -0.000176   0.000001   0.000003   0.000001  -0.000000   0.000002
     9  C   -0.071062  -0.028570   0.027893   0.048301  -0.021963   0.055235
    10  C   -0.176135  -0.752629  -0.205626  -0.137045  -0.104811  -0.142081
    11  C    0.085139   0.024121   0.058643  -0.006142   0.060881  -0.003821
    12  C   -0.525134  -0.017854  -0.162595   0.011392  -0.016575   0.010434
    13  C    0.195887   0.042630  -0.038695  -0.007109   0.002658  -0.006347
    14  H    0.045588  -0.019285  -0.009598  -0.010669  -0.001022  -0.010431
    15  H   -0.002261  -0.000047   0.000998   0.001066   0.000215   0.001145
    16  H   -0.001097  -0.000018  -0.000010  -0.000012   0.000002  -0.000005
    17  H    0.000343  -0.000030  -0.000004   0.000002   0.000001  -0.000006
    18  H    0.000279  -0.000037  -0.000012  -0.000015  -0.000003  -0.000003
    19  H   -0.000268   0.000017  -0.000001  -0.000003  -0.000000  -0.000008
    20  H   -0.000037   0.000000  -0.000000   0.000000   0.000000  -0.000000
    21  H   -0.000019   0.000000   0.000000   0.000000   0.000000   0.000000
    22  H    0.000087  -0.000001   0.000000   0.000000  -0.000000   0.000000
    23  H   -0.051822   0.132554   0.009977   0.005557   0.005168   0.000298
    24  Cl   0.055463  -0.007004  -0.072988   0.000092  -0.000347   0.000113
    25  H    1.755223  -0.009408  -0.032047  -0.000134   0.000479  -0.000133
    26  S   -0.009408  14.069445   0.056599  -0.042150  -0.056249  -0.048272
    27  H   -0.032047   0.056599   1.005756   0.008953  -0.043773   0.008615
    28  F   -0.000134  -0.042150   0.008953   9.767195  -0.016598   0.021064
    29  F    0.000479  -0.056249  -0.043773  -0.016598   9.793915   0.050387
    30  F   -0.000133  -0.048272   0.008615   0.021064   0.050387   9.766054
    31  F    0.000478  -0.057423  -0.044132   0.050512   0.021764  -0.015936
    32  F    0.000095   0.139415  -0.020074  -0.103513  -0.099293  -0.103074
    33  O   -0.001025   0.002581  -0.000224  -0.000832  -0.000324  -0.000707
    34  O    0.001259  -0.000247  -0.000039  -0.000147  -0.000001  -0.000154
    35  C   -0.004697  -0.000122   0.000586   0.004325   0.000077   0.004381
    36  C   -0.000089   0.001428  -0.000094  -0.001932  -0.000105  -0.001957
    37  C   -0.000033   0.000118  -0.000015  -0.000162  -0.000001  -0.000155
    38  H    0.000020   0.000215   0.000016   0.000054  -0.000012   0.000105
    39  H    0.000016   0.000229   0.000018   0.000154  -0.000013   0.000106
    40  H   -0.000026   0.000037  -0.000001  -0.000015   0.000001  -0.000019
    41  H    0.000005  -0.000003  -0.000001   0.000002   0.000000   0.000004
    42  H   -0.000020   0.000023  -0.000001  -0.000016  -0.000001  -0.000014
              31         32         33         34         35         36
     1  C    0.021870  -0.001494   0.049894   0.018551  -0.030229   0.014842
     2  N    0.000615  -0.000340  -0.099331   0.002959  -0.103368  -0.030286
     3  C    0.001723  -0.000238  -0.025757  -0.021254  -0.021077  -0.012829
     4  O   -0.000009   0.000005  -0.000928  -0.004173  -0.003453  -0.000986
     5  N    0.000037  -0.000065  -0.003026  -0.030921   0.006399   0.014561
     6  C    0.000019  -0.000007  -0.010566  -0.048130   0.018017   0.012533
     7  C   -0.000000   0.000002   0.005321  -0.009932  -0.000340  -0.000684
     8  C    0.000000   0.000000   0.001350  -0.001075  -0.002174  -0.000896
     9  C   -0.022686   0.007398   0.031890   0.019222  -0.024093  -0.029123
    10  C   -0.103844   0.159772   0.062564   0.004423   0.016397   0.004358
    11  C    0.059612  -0.032730  -0.016577  -0.001129  -0.003580  -0.000902
    12  C   -0.015052  -0.002034   0.012793   0.001894   0.003489  -0.000181
    13  C    0.001595   0.000719  -0.027734  -0.001377   0.000927   0.000094
    14  H   -0.001483   0.003516  -0.175744   0.000933   0.021153   0.002065
    15  H    0.000226  -0.000316  -0.077384  -0.171327  -0.016354   0.023333
    16  H   -0.000001   0.000000  -0.000050   0.001499   0.003262   0.000768
    17  H    0.000002  -0.000001  -0.001246   0.000200   0.001178   0.000934
    18  H   -0.000001   0.000004  -0.000563  -0.006862   0.003262   0.002884
    19  H   -0.000001   0.000000   0.000690  -0.001673  -0.001804   0.000828
    20  H   -0.000000   0.000000   0.000097   0.000102  -0.000160  -0.000134
    21  H    0.000000  -0.000000   0.000171   0.000633  -0.000316  -0.000166
    22  H    0.000000   0.000000  -0.000019  -0.000491  -0.000220  -0.000053
    23  H    0.007057  -0.027661  -0.077209   0.002123   0.027492  -0.008115
    24  Cl  -0.000357   0.000031  -0.000547  -0.000016  -0.000330   0.000006
    25  H    0.000478   0.000095  -0.001025   0.001259  -0.004697  -0.000089
    26  S   -0.057423   0.139415   0.002581  -0.000247  -0.000122   0.001428
    27  H   -0.044132  -0.020074  -0.000224  -0.000039   0.000586  -0.000094
    28  F    0.050512  -0.103513  -0.000832  -0.000147   0.004325  -0.001932
    29  F    0.021764  -0.099293  -0.000324  -0.000001   0.000077  -0.000105
    30  F   -0.015936  -0.103074  -0.000707  -0.000154   0.004381  -0.001957
    31  F    9.795557  -0.100259  -0.000255   0.000001   0.000061  -0.000088
    32  F   -0.100259   9.719327   0.000439   0.000000  -0.000188   0.000180
    33  O   -0.000255   0.000439   9.296500   0.007743   0.358652  -0.280894
    34  O    0.000001   0.000000   0.007743   9.002546   0.309103  -0.140605
    35  C    0.000061  -0.000188   0.358652   0.309103   5.306867  -0.498595
    36  C   -0.000088   0.000180  -0.280894  -0.140605  -0.498595   6.142642
    37  C   -0.000000   0.000008  -0.004650  -0.034264   0.019609   0.071353
    38  H   -0.000030   0.000055  -0.058259  -0.031075  -0.036962   0.492744
    39  H    0.000001   0.000019  -0.068955  -0.035728  -0.035560   0.502328
    40  H   -0.000000  -0.000001   0.002049   0.008761  -0.009064   0.032185
    41  H   -0.000000   0.000001   0.002128  -0.011508   0.019341  -0.056873
    42  H    0.000000   0.000001   0.001629   0.013315  -0.014906   0.033942
              37         38         39         40         41         42
     1  C   -0.004004   0.005333   0.005649  -0.000985  -0.000135  -0.000586
     2  N   -0.000404  -0.005798  -0.005468   0.000411   0.000223   0.000181
     3  C   -0.001034  -0.001185  -0.001346  -0.000026   0.000133  -0.000043
     4  O   -0.000025  -0.000072  -0.000082   0.000009   0.000001  -0.000001
     5  N    0.000515   0.003007   0.002333  -0.001084  -0.000320   0.000140
     6  C   -0.000879   0.001127   0.001084   0.000297  -0.000542  -0.000289
     7  C    0.003282  -0.000265  -0.000609   0.000078   0.000240   0.000007
     8  C   -0.000228  -0.000071  -0.000110   0.000205  -0.000003  -0.000131
     9  C    0.000718  -0.008895  -0.009590   0.000488   0.000503   0.000116
    10  C    0.000327   0.000361   0.000423  -0.000018   0.000030   0.000018
    11  C   -0.000135  -0.000002   0.000048   0.000016  -0.000025   0.000002
    12  C    0.000041  -0.000131  -0.000140  -0.000029   0.000021  -0.000018
    13  C   -0.000505   0.000586   0.000725   0.000002  -0.000033  -0.000068
    14  H    0.013700  -0.002672  -0.001884   0.003063  -0.000363   0.001794
    15  H   -0.014342   0.004858   0.005516  -0.004005   0.001782  -0.001754
    16  H    0.000091   0.000072   0.000031   0.000015  -0.000009   0.000024
    17  H    0.000148   0.000075   0.000119  -0.000018  -0.000015  -0.000050
    18  H    0.000135   0.000195   0.000060   0.000216  -0.000212   0.000638
    19  H    0.000047   0.000088   0.000083   0.000033  -0.000060   0.000043
    20  H    0.000007  -0.000017  -0.000024   0.000035   0.000002  -0.000007
    21  H    0.000074  -0.000022  -0.000017  -0.000021   0.000028  -0.000031
    22  H   -0.000045  -0.000004   0.000001   0.000016  -0.000007  -0.000011
    23  H   -0.001021   0.000974   0.001888  -0.000082   0.000055  -0.000133
    24  Cl  -0.000002   0.000006   0.000005  -0.000000  -0.000000   0.000000
    25  H   -0.000033   0.000020   0.000016  -0.000026   0.000005  -0.000020
    26  S    0.000118   0.000215   0.000229   0.000037  -0.000003   0.000023
    27  H   -0.000015   0.000016   0.000018  -0.000001  -0.000001  -0.000001
    28  F   -0.000162   0.000054   0.000154  -0.000015   0.000002  -0.000016
    29  F   -0.000001  -0.000012  -0.000013   0.000001   0.000000  -0.000001
    30  F   -0.000155   0.000105   0.000106  -0.000019   0.000004  -0.000014
    31  F   -0.000000  -0.000030   0.000001  -0.000000  -0.000000   0.000000
    32  F    0.000008   0.000055   0.000019  -0.000001   0.000001   0.000001
    33  O   -0.004650  -0.058259  -0.068955   0.002049   0.002128   0.001629
    34  O   -0.034264  -0.031075  -0.035728   0.008761  -0.011508   0.013315
    35  C    0.019609  -0.036962  -0.035560  -0.009064   0.019341  -0.014906
    36  C    0.071353   0.492744   0.502328   0.032185  -0.056873   0.033942
    37  C    5.787123  -0.047545  -0.048054   0.367144   0.455652   0.365075
    38  H   -0.047545   0.438214   0.062383  -0.002486  -0.013637   0.000228
    39  H   -0.048054   0.062383   0.446844   0.000742  -0.014972  -0.001266
    40  H    0.367144  -0.002486   0.000742   0.337119  -0.010007   0.023376
    41  H    0.455652  -0.013637  -0.014972  -0.010007   0.368541  -0.008129
    42  H    0.365075   0.000228  -0.001266   0.023376  -0.008129   0.325690
 Mulliken charges:
               1
     1  C    0.487163
     2  N   -0.462816
     3  C   -0.046612
     4  O   -0.974062
     5  N   -0.251109
     6  C   -0.495100
     7  C   -0.421271
     8  C   -1.014892
     9  C   -1.349559
    10  C    0.915309
    11  C   -0.855027
    12  C    0.629774
    13  C   -0.847648
    14  H    0.830518
    15  H    0.901851
    16  H    0.357202
    17  H    0.240147
    18  H    0.287528
    19  H    0.225684
    20  H    0.268224
    21  H    0.269078
    22  H    0.270830
    23  H    0.703923
    24  Cl  -0.473677
    25  H    0.612354
    26  S    2.712035
    27  H    0.502568
    28  F   -0.588279
    29  F   -0.599406
    30  F   -0.587991
    31  F   -0.599574
    32  F   -0.539699
    33  O   -0.903684
    34  O   -0.843138
    35  C    0.683016
    36  C   -0.288418
    37  C   -0.927664
    38  H    0.198426
    39  H    0.193012
    40  H    0.251591
    41  H    0.268162
    42  H    0.261232
 Sum of Mulliken charges =  -1.00000
 Mulliken charges with hydrogens summed into heavy atoms:
               1
     1  C    0.487163
     2  N    0.367702
     3  C   -0.046612
     4  O   -0.974062
     5  N    0.650742
     6  C    0.102249
     7  C    0.091941
     8  C   -0.206761
     9  C   -0.645636
    10  C    0.915309
    11  C   -0.352459
    12  C    0.629774
    13  C   -0.235294
    24  Cl  -0.473677
    26  S    2.712035
    28  F   -0.588279
    29  F   -0.599406
    30  F   -0.587991
    31  F   -0.599574
    32  F   -0.539699
    33  O   -0.903684
    34  O   -0.843138
    35  C    0.683016
    36  C    0.103019
    37  C   -0.146679
 Electronic spatial extent (au):  <R**2>=          14059.7474
 Charge=             -1.0000 electrons
 Dipole moment (field-independent basis, Debye):
    X=              3.0059    Y=             -0.2854    Z=              0.1117  Tot=              3.0215
 Quadrupole moment (field-independent basis, Debye-Ang):
   XX=           -217.8681   YY=           -201.6487   ZZ=           -165.4806
   XY=              1.8038   XZ=             -0.9609   YZ=             -0.4738
 Traceless Quadrupole moment (field-independent basis, Debye-Ang):
   XX=            -22.8690   YY=             -6.6496   ZZ=             29.5186
   XY=              1.8038   XZ=             -0.9609   YZ=             -0.4738
 Octapole moment (field-independent basis, Debye-Ang**2):
  XXX=            170.3413  YYY=             92.7132  ZZZ=              0.7216  XYY=             68.7438
  XXY=            -32.4855  XXZ=              3.3770  XZZ=             27.2200  YZZ=             17.4083
  YYZ=              4.0019  XYZ=             -1.8346
 Hexadecapole moment (field-independent basis, Debye-Ang**3):
 XXXX=         -13448.0031 YYYY=          -5888.8112 ZZZZ=           -362.6419 XXXY=            163.3916
 XXXZ=            -13.5333 YYYX=            258.1438 YYYZ=             -1.4049 ZZZX=              7.8980
 ZZZY=              4.1353 XXYY=          -3345.0947 XXZZ=          -2121.2788 YYZZ=           -974.0746
 XXYZ=              9.0042 YYXZ=            -12.2999 ZZXY=             60.6302
 N-N= 2.767963356842D+03 E-N=-1.074708143857D+04  KE= 2.188181795216D+03
 Unable to Open any file for archive entry.
 1\1\GINC-GADI-HMEM-CLX-0011\SP\RDSDPBEP86-FC\Aug-CC-pVTZ\C13H17Cl1F5N2
 O3S1(1-)\HIO507\22-Sep-2020\0\\# DSDPBEP86/AUG-cc-PVTZ SCF=Tight INT(g
 rid=ultrafine) MaxDisk=1400000MB\\CP22_c2_carboxy.DSDPBEP86_AUG-cc-PVT
 Z\\-1,1\C,0,-5.8502699404,1.3987152628,0.2370777715\N,0,-4.6434152099,
 0.7543425029,0.1289751421\C,0,-3.3782080628,1.3328179346,0.1523371738\
 O,0,-3.1783948398,2.5361413032,0.281246695\N,0,-2.3919849484,0.4174276
 163,0.0240503195\C,0,-1.0097045147,0.8342789161,-0.0414972917\C,0,-0.0
 983895574,-0.3781854043,0.1016866557\C,0,1.3729289833,0.0064035944,-0.
 0145047241\C,0,-7.0034493836,0.5851031684,0.1624671482\C,0,-8.24122827
 08,1.1786093174,0.268052619\C,0,-8.435949061,2.5445401654,0.4453257517
 \C,0,-7.2844297174,3.3100765649,0.5138253664\C,0,-6.00631313,2.7838336
 147,0.4161116933\H,0,-4.7053011784,-0.2788823611,0.0032662286\H,0,-2.6
 118900587,-0.5728267773,-0.1641186102\H,0,-0.8143634922,1.5610680369,0
 .7532177477\H,0,-0.8042279742,1.3495070433,-0.9902523485\H,0,-0.363441
 777,-1.1198654365,-0.6574993787\H,0,-0.294450111,-0.8542180376,1.06707
 10819\H,0,1.5872070114,0.4546939365,-0.9889010496\H,0,2.0238828652,-0.
 863235765,0.1002849355\H,0,1.6529834114,0.7357421468,0.7513495257\H,0,
 -6.880459048,-0.4844065315,0.0233126283\Cl,0,-7.4582083248,5.039532878
 3,0.7395335849\H,0,-5.1354493726,3.4185796949,0.4752972679\S,0,-9.7089
 119733,0.1263985531,0.173297128\H,0,-9.4173919329,2.9876406599,0.52606
 16749\F,0,-9.0975165081,-0.9837714544,1.1695061359\F,0,-10.4176372043,
 0.8634649051,1.4356081675\F,0,-9.1566320817,-0.6984786166,-1.096795787
 4\F,0,-10.4764774286,1.148511101,-0.8290888562\F,0,-11.0376648607,-0.7
 99414663,0.091447699\O,0,-5.0685051108,-1.9217108816,-0.215439015\O,0,
 -2.8859760768,-2.3124880825,-0.5057218056\C,0,-4.0829348565,-2.6695587
 548,-0.4496980409\C,0,-4.4104044575,-4.1504271573,-0.6827517188\C,0,-3
 .1954240069,-5.0231069582,-0.9639872906\H,0,-5.1298434083,-4.193706752
 4,-1.5062502071\H,0,-4.9546769002,-4.5001678279,0.1999392238\H,0,-2.66
 49367664,-4.6729393198,-1.8510399653\H,0,-3.4827096448,-6.0673378415,-
 1.1204370652\H,0,-2.4872810801,-4.9785302935,-0.1348862109\\Version=ES
 64L-G16RevC.01\State=1-A\HF=-2193.8114202\MP2=-2196.3233592\RMSD=3.232
 e-09\PG=C01 [X(C13H17Cl1F5N2O3S1)]\\@
 The archive entry for this job was punched.


 NOBODY LOSES ALL THE TIME
 I HAD AN UNCLE NAMED
 SOL WHO WAS A BORN FAILURE AND
 NEARLY EVERYBODY SAID HE SHOULD HAVE GONE
 INTO VAUDEVILLE PERHAPS BECAUSE MY UNCLE SOL COULD
 SING MCCANN HE WAS A DIVER ON XMAS EVE LIKE HELL ITSELF WHICH
 MAY OR MAY NOT ACCOUNT FOR THE FACT THAT MY UNCLE
 SOL INDULGED IN THAT POSSIBLY MOST INEXCUSABLE
 OF ALL TO USE A HIGHFALOOTIN PHRASE
 LUXURIES THAT IS OR TO
 WIT FARMING AND BE
 IT NEEDLESSLY
 ADDED
 MY UNCLE SOL'S FARM     
 FAILED BECAUSE THE CHICKENS
 ATE THE VEGETABLES SO
 MY UNCLE SOL HAD A
 CHICKEN FARM TILL THE
 SKUNKS ATE THE CHICKENS WHEN 
 MY UNCLE SOL
 HAD A SKUNK FARM BUT
 THE SKUNKS CAUGHT COLD AND
 DIED AND SO
 MY UNCLE SOL IMITATED THE
 SKUNKS IN A SUBTLE MANNER
 OR BY DROWNING HIMSELF IN THE WATERTANK
 BUT SOMEBODY WHO'D GIVEN MY UNCLE SOL A VICTOR     
 VICTROLA AND RECORDS WHILE HE LIVED PRESENTED TO
 HIM UPON THE AUSPICIOUS OCCASION OF HIS DECEASE A
 SCRUMPTIOUS NOT TO MENTION SPLENDIFEROUS FUNERAL WITH
 TALL BOYS IN BLACK GLOVES AND FLOWERS AND EVERYTHING AND
 I REMEMBER WE ALL CRIED LIKE THE MISSOURI
 WHEN MY UNCLE SOL'S COFFIN LURCHED BECAUSE     
 SOMEBODY PRESSED A BUTTON
 (AND DOWN WENT
 MY UNCLE
 SOL
 AND STARTED A WORM FARM)
           E. E. CUMMINGS
 Job cpu time:      10 days  6 hours 49 minutes 47.2 seconds.
 Elapsed time:       0 days  7 hours 48 minutes 39.0 seconds.
 File lengths (MBytes):  RWF=   1234 Int=      0 D2E=      0 Chk=    156 Scr=      1
 Normal termination of Gaussian 16 at Tue Sep 22 00:01:18 2020.
