Process 0 of 1 is on r4209 - thread support 0
initial socket setup ...start
initial socket setup ...done 
now start server 0 ... 
r4209 10.9.71
Q-Chem Developer Version! Running on 10.9.71.*
                  Welcome to Q-Chem
     A Quantum Leap Into The Future Of Chemistry


 Q-Chem 5.0, Q-Chem, Inc., Pleasanton, CA (2017)

 Yihan Shao,  Zhengting Gan,  E. Epifanovsky,  A. T. B. Gilbert,  M. Wormit,  
 J. Kussmann,  A. W. Lange,  A. Behn,  Jia Deng,  Xintian Feng,  D. Ghosh,  
 M. Goldey,  P. R. Horn,  L. D. Jacobson,  I. Kaliman,  T. Kus,  A. Landau,  
 Jie Liu,  E. I. Proynov,  R. M. Richard,  R. P. Steele,  E. J. Sundstrom,  
 H. L. Woodcock III,  P. M. Zimmerman,  D. Zuev,  B. Albrecht,  E. Alguire,  
 S. A. Baeppler,  Z. Benda,  Y. A. Bernard,  E. J. Berquist,  K. B. Bravaya,  
 D. Casanova,  Chun-Min Chang,  Yunqing Chen,  A. Chien,  K. D. Closser,  
 M. P. Coons,  S. Dasgupta,  M. Diedenhofen,  Hainam Do,  R. G. Edgar,  
 Po-Tung Fang,  S. Fatehi,  Qingguo Feng,  Qinghui Ge,  A. Ghysels,  
 J. Gomes,  J. Gonthier,  A. Gunina,  M. W. D. Hanson-Heine,  
 P. H. P. Harbach,  A. W. Hauser,  J. E. Herr,  E. G. Hohenstein,  
 Z. C. Holden,  Kerwin Hui,  T.-C. Jagau,  Hyunjun Ji,  B. Kaduk,  
 K. Khistyaev,  Jaehoon Kim,  P. Klunzinger,  K. Koh,  D. Kosenkov,  
 T. Kowalczyk,  C. M. Krauter,  A. Kunitsa,  Ka Un Lao,  A. Laurent,  
 K. V. Lawler,  Joonho Lee,  D. Lefrancois,  S. Lehtola,  D. S. Levine,  
 Yi-Pei Li,  You-Sheng Lin,  Fenglai Liu,  E. Livshits,  A. Luenser,  
 P. Manohar,  E. Mansoor,  S. F. Manzer,  Shan-Ping Mao,  Yuezhi Mao,  
 N. Mardirossian,  A. V. Marenich,  L. A. Martinez-Martinez,  S. A. Maurer,  
 N. J. Mayhall,  S. C. McKenzie,  J.-M. Mewes,  A. F. Morrison,  K. Nanda,  
 T. S. Nguyen-Beck,  R. Olivares-Amaya,  J. A. Parkhill,  T. M. Perrine,  
 F. Plasser,  S. Prager,  A. Prociuk,  D. R. Rehn,  F. Rob,  M. Schneider,  
 N. Sergueev,  S. M. Sharada,  S. Sharma,  D. W. Small,  T. Stauch,  
 T. Stein,  Yu-Chuan Su,  A. J. W. Thom,  T. Tsuchimochi,  L. Vogt,  
 O. Vydrov,  M. A. Watson,  J. Wenzel,  M. de Wergifosse,  T. A. Wesolowski,  
 A. White,  J. Witte,  A. Yamada,  Jun Yang,  K. Yao,  S. Yeganeh,  
 S. R. Yost,  Zhi-Qiang You,  A. Zech,  Igor Ying Zhang,  Xing Zhang,  
 Yan Zhao,  Ying Zhu,  B. R. Brooks,  G. K. L. Chan,  C. J. Cramer,  
 M. S. Gordon,  W. J. Hehre,  A. Klamt,  M. W. Schmidt,  C. D. Sherrill,  
 D. G. Truhlar,  A. Aspuru-Guzik,  R. Baer,  A. T. Bell,  N. A. Besley,  
 Jeng-Da Chai,  A. Dreuw,  B. D. Dunietz,  T. R. Furlani,  Chao-Ping Hsu,  
 Yousung Jung,  Jing Kong,  D. S. Lambrecht,  WanZhen Liang,  C. Ochsenfeld,  
 V. A. Rassolov,  L. V. Slipchenko,  J. E. Subotnik,  T. Van Voorhis,  
 J. M. Herbert,  A. I. Krylov,  P. M. W. Gill,  M. Head-Gordon

 Contributors to earlier versions of Q-Chem not listed above: 
 R. D. Adamson,  B. Austin,  J. Baker,  G. J. O. Beran,  K. Brandhorst,  
 S. T. Brown,  E. F. C. Byrd,  A. K. Chakraborty,  C.-L. Cheng,  
 Siu Hung Chien,  D. M. Chipman,  D. L. Crittenden,  H. Dachsel,  
 R. A. DiStasio Jr.,  R. J. Doerksen,  A. D. Dutoi,  L. Fusti-Molnar,  
 W. A. Goddard III,  A. Golubeva-Zadorozhnaya,  S. R. Gwaltney,  G. Hawkins,  
 A. Heyden,  S. Hirata,  G. Kedziora,  F. J. Keil,  C. Kelley,  Jihan Kim,  
 R. A. King,  R. Z. Khaliullin,  P. P. Korambath,  W. Kurlancheek,  
 A. M. Lee,  M. S. Lee,  S. V. Levchenko,  Ching Yeh Lin,  D. Liotard,  
 R. C. Lochan,  I. Lotan,  P. E. Maslen,  N. Nair,  D. P. O'Neill,  
 D. Neuhauser,  E. Neuscamman,  C. M. Oana,  R. Olson,  B. Peters,  
 R. Peverati,  P. A. Pieniazek,  Y. M. Rhee,  J. Ritchie,  M. A. Rohrdanz,  
 E. Rosta,  N. J. Russ,  H. F. Schaefer III,  N. E. Schultz,  N. Shenvi,  
 A. C. Simmonett,  A. Sodt,  D. Stuck,  K. S. Thanthiriwatte,  V. Vanovschi,  
 Tao Wang,  A. Warshel,  C. F. Williams,  Q. Wu,  X. Xu,  W. Zhang

 Please cite Q-Chem as follows:
 Y. Shao et al., Mol. Phys. 113, 184-215 (2015)
 DOI: 10.1080/00268976.2014.952696

 Q-Chem 5.0.0 for Intel X86 EM64T Linux

 Parts of Q-Chem use Armadillo 5.200.1 (Boston Tea Smuggler).
 http://arma.sourceforge.net/

 Q-Chem begins on Mon Dec  9 10:14:59 2019  

Host: r4209
0

     Scratch files written to /jobfs/local/4046361.r-man2/NM2.CCSD-T_6-31pGd.mo//
 Parallel job on  1  processors
Core orbitals will be frozen

Checking the input file for inconsistencies... 	...done.

--------------------------------------------------------------
User input:
--------------------------------------------------------------
$molecule
  0 1
    C     -5.9099550208    1.1029102801    0.2059437350
    N     -4.6494767407    0.5182841404    0.0777892364
    C     -3.4138117188    1.1630544142    0.1461509459
    O     -3.2849333303    2.3475327393    0.3578042168
    N     -2.3540075044    0.3092653719   -0.0209191281
    C     -1.0062482953    0.8624790515   -0.0817512412
    C      0.0280975331   -0.2528611764   -0.0502013951
    C      1.4484660143    0.3008155964   -0.1048682475
    C     -6.1274416311    2.4844711590    0.1430033865
    C     -7.4141319609    2.9940043568    0.2479216523
    C     -8.5133997698    2.1441298990    0.4285202959
    C     -8.2862282832    0.7731861788    0.4796406160
    C     -7.0074316598    0.2564419841    0.3714194019
    H     -4.6362012495   -0.4894107678    0.1293869442
    H     -2.5094227633   -0.5504332390   -0.5275484910
    H     -0.8831189383    1.5247886590    0.7765518953
    H     -0.8826544472    1.4787579946   -0.9799953312
    H     -0.1340431108   -0.9289267974   -0.8982055488
    H     -0.1138658777   -0.8451207642    0.8586148971
    H      1.6129378672    0.8769409254   -1.0184913194
    H      2.1869941428   -0.5016664591   -0.0800088839
    H      1.6445455155    0.9605415683    0.7435347149
    H     -5.2906362333    3.1527747816    0.0160013344
    H     -6.8611330525   -0.8179860945    0.4200742544
    C     -9.9405732722    2.6232346345    0.5358963699
    C     -7.5514864036    4.5022174458    0.1938858370
    H     -9.1214485945    0.0987615974    0.6164686543
    F    -10.0649794547    3.6980410318    1.3196454496
    F    -10.7280081479    1.6685333292    1.0599639754
    F    -10.4643725553    2.9303579665   -0.6588691509
    F     -6.4692132740    5.0731571004   -0.3491007019
    F     -7.6946869392    5.0289562193    1.4162054480
    F     -8.6009508436    4.8863368726   -0.5400438223

$end

$rem

    JOBTYPE               sp
    METHOD                CCSD(T)
    BASIS                 6-31+G*
    CC_BACKEND            XM

    MEM_TOTAL             60000
$end
--------------------------------------------------------------
 ----------------------------------------------------------------
             Standard Nuclear Orientation (Angstroms)
    I     Atom           X                Y                Z
 ----------------------------------------------------------------
    1      C      -0.4776513543    -0.9949124318     0.0724574735
    2      N      -1.8619444231    -1.1566120180     0.1403009468
    3      C      -2.8324629037    -0.1699999757    -0.0384744218
    4      O      -2.5777573753     0.9817584450    -0.3086100970
    5      N      -4.1114167612    -0.6464542799     0.0931365106
    6      C      -5.2232704960     0.2954085452     0.0395035169
    7      C      -6.5488317720    -0.4494899018    -0.0140139265
    8      C      -7.7291792823     0.5146619186    -0.0786983771
    9      C       0.1529460817     0.2548784461     0.0909509935
   10      C       1.5377243265     0.3386383393     0.0512342484
   11      C       2.3279538970    -0.8163305136    -0.0185966513
   12      C       1.6908416888    -2.0523458093    -0.0264119206
   13      C       0.3111612200    -2.1451702652     0.0174357962
   14      H      -2.1835728929    -2.1130401376     0.1309217329
   15      H      -4.2554878099    -1.4797117428     0.6452546584
   16      H      -5.0916923425     0.9097074615    -0.8525856938
   17      H      -5.1957465557     0.9737674601     0.9003108331
   18      H      -6.6470945571    -1.0894304491     0.8710204672
   19      H      -6.5509453939    -1.1113010856    -0.8851474248
   20      H      -7.7536743492     1.1683300187     0.7963996227
   21      H      -8.6774118226    -0.0231597357    -0.1189743202
   22      H      -7.6681783029     1.1494442751    -0.9657177432
   23      H      -0.4414726475     1.1537228461     0.1327558496
   24      H      -0.1575758531    -3.1240953145     0.0048828114
   25      C       3.8368512929    -0.8046330601    -0.0500130928
   26      C       2.1318497251     1.7327353478     0.0500613380
   27      H       2.2823621555    -2.9571221926    -0.0778573312
   28      F       4.3272707487     0.1303401728    -0.8687084702
   29      F       4.3160172857    -1.9847814132    -0.4787378728
   30      F       4.3684485634    -0.5999836242     1.1631142831
   31      F       1.2530538796     2.6397168352     0.4941604725
   32      F       2.4929325448     2.1144031109    -1.1811877336
   33      F       3.2098862135     1.8213761723     0.8359087936
 ----------------------------------------------------------------
 Molecular Point Group                 C1    NOp =  1
 Largest Abelian Subgroup              C1    NOp =  1
 Nuclear Repulsion Energy =  1781.1099861998 hartrees
 There are       80 alpha and       80 beta electrons
 Requested basis set is 6-31+G(d)
 There are 129 shells and 423 basis functions
 Total memory of 50485MB is distributed as follows: 
   QALLOC including MEM_STATIC uses 30062MB
   MEM_STATIC is set to 62MB
   CCMAN JOB total memory use is  50423MB
 Warning: actual memory use might exceed 50485MB

 Total QAlloc Memory Limit  30062 MB
 Mega-Array Size        61 MB
 MEM_STATIC part        62 MB
 A cutoff of  1.0D-14 yielded   6028 shell pairs
 There are     70409 function pairs
 
 -------------------------------------------------------
 OpenMP Integral Computing Module                       
 Release: version 1.0, May 2013, Q-Chem Inc. Pittsburgh 
 -------------------------------------------------------
 Integral Job Info:
 Integral job number is                      11
 Integral operator is                         1
 short-range coefficients                     0
 long-range coefficients              100000000
 Omega coefficients                           0
 if combine SR and LR in K                    0
 Integral screening is                        0
 Integral computing path is                   2
 max size of driver memory is            800000
 size of driver memory is                593474
 size of scratch memory is              2260544
 max col of scratch BK array               1296
 max len of scratch array in speh3          155
 max len of scratch index in speh4           18
 max int batch size is                      520
 min int batch size is                       52
 fixed nKL is                                52
 max L of basis functions is                  2
 order of int derivative is                   0
 number of shells is                        129
 number of basis is                         423
 number of cartesian basis is               423
 number of contracted shell pairs          6028
 number of primitive shell pairs          18910
 maxK2 (contraction) of shell pair           36
 max number of K2 of shell pair               1
 max number of CS2 of shell pair            907
 max number of PS2 of shell pair           5004
 mem total for path MDJ                  181784
 -------------------------------------------------------
 Smallest overlap matrix eigenvalue = 2.14E-07
 Linear dependence detected in AO basis
 Number of orthogonalized atomic orbitals = 422
 Maximum deviation from orthogonality = 3.468E-10

 Scale SEOQF with 1.000000e-02/1.000000e-01/1.000000e-01

 Standard Electronic Orientation quadrupole field applied
 Nucleus-field energy     =     0.0000000253 hartrees
 Guess from superposition of atomic densities
 Warning:  Energy on first SCF cycle will be non-variational
 A restricted Hartree-Fock SCF calculation will be
 performed using Pulay DIIS extrapolation
 SCF converges when DIIS error is below 1.0E-08
 -------------------------------------------------------
 OpenMP Integral computing Module                
 Release: version 1.0, May 2013, Q-Chem Inc. Pittsburgh 
 -------------------------------------------------------
 ---------------------------------------
  Cycle       Energy         DIIS Error
 ---------------------------------------
    1   -1248.7307932090      3.64E-02
    2   -1241.4232160591      4.70E-03
    3   -1241.7554921451      2.88E-03
    4   -1241.8843155713      4.91E-04
    5   -1241.8902434949      1.80E-04
    6   -1241.8910009536      4.32E-05
    7   -1241.8910628795      1.66E-05
    8   -1241.8910758269      5.16E-06
    9   -1241.8910773390      2.31E-06
   10   -1241.8910775941      7.73E-07
   11   -1241.8910776286      3.14E-07
   12   -1241.8910776342      1.14E-07
   13   -1241.8910776349      3.57E-08
   14   -1241.8910776350      2.02E-08
   15   -1241.8910776350      8.30E-09 Convergence criterion met
 ---------------------------------------
 SCF time:  CPU 330.49 s  wall 43.27 s
 SCF   energy in the final basis set = -1241.8910776350
 Total energy in the final basis set = -1241.8910776350


 ------------------------------------------------------------------------------

   CCMAN2: suite of methods based on coupled cluster
           and equation of motion theories.

   Components:
   * libvmm-1.3-trunk
     by Evgeny Epifanovsky, Ilya Kaliman.
   * libtensor-2.5-release
     by Evgeny Epifanovsky, Michael Wormit, Dmitry Zuev, Sam Manzer, 
        Ilya Kaliman.
   * libcc-2.5-trunk
     by Evgeny Epifanovsky, Arik Landau, Tomasz Kus, Kirill Khistyaev, 
        Dmitry Zuev, Prashant Manohar, Xintian Feng, Anna Krylov, 
        Matthew Goldey, Alec White, Thomas Jagau, Kaushik Nanda, 
        Anastasia Gunina, Alexander Kunitsa, Joonho Lee.

   CCMAN original authors:
   Anna I. Krylov, C. David Sherrill, Steven R. Gwaltney,
   Edward F. C. Byrd (2000)
   Sergey V. Levchenko, Lyudmila V. Slipchenko, Tao Wang,
   Ana-Maria C. Cristian (2003)
   Piotr A. Pieniazek, C. Melania Oana, Evgeny Epifanovsky (2007)
   Prashant Manohar (2009)

 ------------------------------------------------------------------------------


================================================================================
This program uses libxm tensor contraction code.
See https://github.com/ilyak/libxm for more info.
libxm is (c) Ilya Kaliman 2014-2016.
================================================================================

 Calculation will run on 8 cores using libxm for tensor contractions

 
 Alpha MOs, Restricted
 -- Occupied --                  
-26.354 -26.351 -26.350 -26.350 -26.347 -26.347 -20.553 -15.636
  1 A     2 A     3 A     4 A     5 A     6 A     7 A     8 A                  
-15.611 -11.522 -11.522 -11.412 -11.329 -11.298 -11.286 -11.281
  9 A    10 A    11 A    12 A    13 A    14 A    15 A    16 A                  
-11.277 -11.273 -11.265 -11.246 -11.233  -1.738  -1.733  -1.640
 17 A    18 A    19 A    20 A    21 A    22 A    23 A    24 A                  
 -1.636  -1.635  -1.633  -1.430  -1.293  -1.251  -1.196  -1.091
 25 A    26 A    27 A    28 A    29 A    30 A    31 A    32 A                  
 -1.081  -1.067  -0.990  -0.969  -0.944  -0.893  -0.887  -0.840
 33 A    34 A    35 A    36 A    37 A    38 A    39 A    40 A                  
 -0.835  -0.829  -0.825  -0.823  -0.817  -0.815  -0.789  -0.767
 41 A    42 A    43 A    44 A    45 A    46 A    47 A    48 A                  
 -0.723  -0.714  -0.712  -0.707  -0.706  -0.681  -0.677  -0.674
 49 A    50 A    51 A    52 A    53 A    54 A    55 A    56 A                  
 -0.664  -0.658  -0.656  -0.649  -0.645  -0.644  -0.643  -0.634
 57 A    58 A    59 A    60 A    61 A    62 A    63 A    64 A                  
 -0.629  -0.615  -0.598  -0.585  -0.570  -0.556  -0.545  -0.537
 65 A    66 A    67 A    68 A    69 A    70 A    71 A    72 A                  
 -0.527  -0.505  -0.499  -0.477  -0.464  -0.419  -0.379  -0.341
 73 A    74 A    75 A    76 A    77 A    78 A    79 A    80 A                  
 -- Virtual --                   
  0.040   0.066   0.073   0.077   0.083   0.086   0.092   0.093
 81 A    82 A    83 A    84 A    85 A    86 A    87 A    88 A                  
  0.105   0.107   0.108   0.113   0.121   0.122   0.127   0.130
 89 A    90 A    91 A    92 A    93 A    94 A    95 A    96 A                  
  0.132   0.136   0.145   0.147   0.151   0.157   0.170   0.172
 97 A    98 A    99 A   100 A   101 A   102 A   103 A   104 A                  
  0.176   0.184   0.191   0.195   0.197   0.202   0.209   0.214
105 A   106 A   107 A   108 A   109 A   110 A   111 A   112 A                  
  0.219   0.225   0.233   0.244   0.248   0.254   0.262   0.264
113 A   114 A   115 A   116 A   117 A   118 A   119 A   120 A                  
  0.276   0.279   0.290   0.294   0.294   0.302   0.306   0.311
121 A   122 A   123 A   124 A   125 A   126 A   127 A   128 A                  
  0.312   0.318   0.318   0.327   0.328   0.334   0.340   0.342
129 A   130 A   131 A   132 A   133 A   134 A   135 A   136 A                  
  0.346   0.356   0.363   0.370   0.373   0.377   0.384   0.390
137 A   138 A   139 A   140 A   141 A   142 A   143 A   144 A                  
  0.394   0.396   0.404   0.408   0.411   0.412   0.415   0.421
145 A   146 A   147 A   148 A   149 A   150 A   151 A   152 A                  
  0.423   0.428   0.434   0.436   0.442   0.452   0.455   0.461
153 A   154 A   155 A   156 A   157 A   158 A   159 A   160 A                  
  0.467   0.468   0.471   0.473   0.475   0.485   0.488   0.491
161 A   162 A   163 A   164 A   165 A   166 A   167 A   168 A                  
  0.497   0.501   0.509   0.513   0.517   0.523   0.527   0.535
169 A   170 A   171 A   172 A   173 A   174 A   175 A   176 A                  
  0.544   0.553   0.560   0.563   0.568   0.574   0.578   0.581
177 A   178 A   179 A   180 A   181 A   182 A   183 A   184 A                  
  0.588   0.599   0.606   0.611   0.622   0.629   0.638   0.656
185 A   186 A   187 A   188 A   189 A   190 A   191 A   192 A                  
  0.669   0.684   0.695   0.708   0.714   0.756   0.814   0.843
193 A   194 A   195 A   196 A   197 A   198 A   199 A   200 A                  
  0.848   0.853   0.880   0.895   0.907   0.915   0.926   0.932
201 A   202 A   203 A   204 A   205 A   206 A   207 A   208 A                  
  0.947   0.948   0.955   0.963   0.972   0.982   1.012   1.018
209 A   210 A   211 A   212 A   213 A   214 A   215 A   216 A                  
  1.023   1.026   1.042   1.049   1.054   1.067   1.081   1.106
217 A   218 A   219 A   220 A   221 A   222 A   223 A   224 A                  
  1.117   1.124   1.130   1.134   1.147   1.166   1.168   1.181
225 A   226 A   227 A   228 A   229 A   230 A   231 A   232 A                  
  1.188   1.215   1.225   1.231   1.237   1.253   1.262   1.274
233 A   234 A   235 A   236 A   237 A   238 A   239 A   240 A                  
  1.280   1.305   1.319   1.342   1.357   1.365   1.367   1.377
241 A   242 A   243 A   244 A   245 A   246 A   247 A   248 A                  
  1.385   1.395   1.405   1.411   1.450   1.455   1.461   1.472
249 A   250 A   251 A   252 A   253 A   254 A   255 A   256 A                  
  1.487   1.498   1.533   1.539   1.566   1.586   1.596   1.613
257 A   258 A   259 A   260 A   261 A   262 A   263 A   264 A                  
  1.618   1.632   1.653   1.672   1.682   1.692   1.700   1.712
265 A   266 A   267 A   268 A   269 A   270 A   271 A   272 A                  
  1.713   1.743   1.765   1.775   1.795   1.853   1.878   1.887
273 A   274 A   275 A   276 A   277 A   278 A   279 A   280 A                  
  1.895   1.906   1.916   1.924   1.929   1.939   1.954   1.965
281 A   282 A   283 A   284 A   285 A   286 A   287 A   288 A                  
  1.970   1.977   1.985   1.987   1.995   1.998   2.007   2.008
289 A   290 A   291 A   292 A   293 A   294 A   295 A   296 A                  
  2.014   2.022   2.034   2.041   2.045   2.053   2.067   2.078
297 A   298 A   299 A   300 A   301 A   302 A   303 A   304 A                  
  2.091   2.107   2.113   2.117   2.126   2.131   2.137   2.147
305 A   306 A   307 A   308 A   309 A   310 A   311 A   312 A                  
  2.152   2.161   2.172   2.177   2.185   2.193   2.198   2.211
313 A   314 A   315 A   316 A   317 A   318 A   319 A   320 A                  
  2.218   2.231   2.232   2.253   2.259   2.287   2.302   2.304
321 A   322 A   323 A   324 A   325 A   326 A   327 A   328 A                  
  2.313   2.321   2.339   2.355   2.363   2.384   2.389   2.392
329 A   330 A   331 A   332 A   333 A   334 A   335 A   336 A                  
  2.394   2.413   2.418   2.426   2.436   2.441   2.450   2.455
337 A   338 A   339 A   340 A   341 A   342 A   343 A   344 A                  
  2.463   2.490   2.506   2.511   2.521   2.547   2.552   2.576
345 A   346 A   347 A   348 A   349 A   350 A   351 A   352 A                  
  2.591   2.599   2.623   2.632   2.650   2.656   2.680   2.686
353 A   354 A   355 A   356 A   357 A   358 A   359 A   360 A                  
  2.715   2.739   2.745   2.768   2.799   2.806   2.830   2.858
361 A   362 A   363 A   364 A   365 A   366 A   367 A   368 A                  
  2.873   2.921   2.940   2.954   2.975   2.997   3.008   3.028
369 A   370 A   371 A   372 A   373 A   374 A   375 A   376 A                  
  3.048   3.083   3.088   3.094   3.120   3.148   3.173   3.174
377 A   378 A   379 A   380 A   381 A   382 A   383 A   384 A                  
  3.206   3.218   3.237   3.295   3.339   3.366   3.468   3.531
385 A   386 A   387 A   388 A   389 A   390 A   391 A   392 A                  
  3.558   3.570   3.596   3.608   3.654   3.688   3.712   3.753
393 A   394 A   395 A   396 A   397 A   398 A   399 A   400 A                  
  3.822   4.547   4.653   4.665   4.713   4.721   4.795   4.802
401 A   402 A   403 A   404 A   405 A   406 A   407 A   408 A                  
  4.813   4.860   4.891   4.967   5.000   5.016   5.074   5.233
409 A   410 A   411 A   412 A   413 A   414 A   415 A   416 A                  
  6.269   6.330   6.463   6.604   7.362   7.675
417 A   418 A   419 A   420 A   421 A   422 A                                  
 
 Beta MOs, Restricted
 -- Occupied --                  
-26.354 -26.351 -26.350 -26.350 -26.347 -26.347 -20.553 -15.636
  1 A     2 A     3 A     4 A     5 A     6 A     7 A     8 A                  
-15.611 -11.522 -11.522 -11.412 -11.329 -11.298 -11.286 -11.281
  9 A    10 A    11 A    12 A    13 A    14 A    15 A    16 A                  
-11.277 -11.273 -11.265 -11.246 -11.233  -1.738  -1.733  -1.640
 17 A    18 A    19 A    20 A    21 A    22 A    23 A    24 A                  
 -1.636  -1.635  -1.633  -1.430  -1.293  -1.251  -1.196  -1.091
 25 A    26 A    27 A    28 A    29 A    30 A    31 A    32 A                  
 -1.081  -1.067  -0.990  -0.969  -0.944  -0.893  -0.887  -0.840
 33 A    34 A    35 A    36 A    37 A    38 A    39 A    40 A                  
 -0.835  -0.829  -0.825  -0.823  -0.817  -0.815  -0.789  -0.767
 41 A    42 A    43 A    44 A    45 A    46 A    47 A    48 A                  
 -0.723  -0.714  -0.712  -0.707  -0.706  -0.681  -0.677  -0.674
 49 A    50 A    51 A    52 A    53 A    54 A    55 A    56 A                  
 -0.664  -0.658  -0.656  -0.649  -0.645  -0.644  -0.643  -0.634
 57 A    58 A    59 A    60 A    61 A    62 A    63 A    64 A                  
 -0.629  -0.615  -0.598  -0.585  -0.570  -0.556  -0.545  -0.537
 65 A    66 A    67 A    68 A    69 A    70 A    71 A    72 A                  
 -0.527  -0.505  -0.499  -0.477  -0.464  -0.419  -0.379  -0.341
 73 A    74 A    75 A    76 A    77 A    78 A    79 A    80 A                  
 -- Virtual --                   
  0.040   0.066   0.073   0.077   0.083   0.086   0.092   0.093
 81 A    82 A    83 A    84 A    85 A    86 A    87 A    88 A                  
  0.105   0.107   0.108   0.113   0.121   0.122   0.127   0.130
 89 A    90 A    91 A    92 A    93 A    94 A    95 A    96 A                  
  0.132   0.136   0.145   0.147   0.151   0.157   0.170   0.172
 97 A    98 A    99 A   100 A   101 A   102 A   103 A   104 A                  
  0.176   0.184   0.191   0.195   0.197   0.202   0.209   0.214
105 A   106 A   107 A   108 A   109 A   110 A   111 A   112 A                  
  0.219   0.225   0.233   0.244   0.248   0.254   0.262   0.264
113 A   114 A   115 A   116 A   117 A   118 A   119 A   120 A                  
  0.276   0.279   0.290   0.294   0.294   0.302   0.306   0.311
121 A   122 A   123 A   124 A   125 A   126 A   127 A   128 A                  
  0.312   0.318   0.318   0.327   0.328   0.334   0.340   0.342
129 A   130 A   131 A   132 A   133 A   134 A   135 A   136 A                  
  0.346   0.356   0.363   0.370   0.373   0.377   0.384   0.390
137 A   138 A   139 A   140 A   141 A   142 A   143 A   144 A                  
  0.394   0.396   0.404   0.408   0.411   0.412   0.415   0.421
145 A   146 A   147 A   148 A   149 A   150 A   151 A   152 A                  
  0.423   0.428   0.434   0.436   0.442   0.452   0.455   0.461
153 A   154 A   155 A   156 A   157 A   158 A   159 A   160 A                  
  0.467   0.468   0.471   0.473   0.475   0.485   0.488   0.491
161 A   162 A   163 A   164 A   165 A   166 A   167 A   168 A                  
  0.497   0.501   0.509   0.513   0.517   0.523   0.527   0.535
169 A   170 A   171 A   172 A   173 A   174 A   175 A   176 A                  
  0.544   0.553   0.560   0.563   0.568   0.574   0.578   0.581
177 A   178 A   179 A   180 A   181 A   182 A   183 A   184 A                  
  0.588   0.599   0.606   0.611   0.622   0.629   0.638   0.656
185 A   186 A   187 A   188 A   189 A   190 A   191 A   192 A                  
  0.669   0.684   0.695   0.708   0.714   0.756   0.814   0.843
193 A   194 A   195 A   196 A   197 A   198 A   199 A   200 A                  
  0.848   0.853   0.880   0.895   0.907   0.915   0.926   0.932
201 A   202 A   203 A   204 A   205 A   206 A   207 A   208 A                  
  0.947   0.948   0.955   0.963   0.972   0.982   1.012   1.018
209 A   210 A   211 A   212 A   213 A   214 A   215 A   216 A                  
  1.023   1.026   1.042   1.049   1.054   1.067   1.081   1.106
217 A   218 A   219 A   220 A   221 A   222 A   223 A   224 A                  
  1.117   1.124   1.130   1.134   1.147   1.166   1.168   1.181
225 A   226 A   227 A   228 A   229 A   230 A   231 A   232 A                  
  1.188   1.215   1.225   1.231   1.237   1.253   1.262   1.274
233 A   234 A   235 A   236 A   237 A   238 A   239 A   240 A                  
  1.280   1.305   1.319   1.342   1.357   1.365   1.367   1.377
241 A   242 A   243 A   244 A   245 A   246 A   247 A   248 A                  
  1.385   1.395   1.405   1.411   1.450   1.455   1.461   1.472
249 A   250 A   251 A   252 A   253 A   254 A   255 A   256 A                  
  1.487   1.498   1.533   1.539   1.566   1.586   1.596   1.613
257 A   258 A   259 A   260 A   261 A   262 A   263 A   264 A                  
  1.618   1.632   1.653   1.672   1.682   1.692   1.700   1.712
265 A   266 A   267 A   268 A   269 A   270 A   271 A   272 A                  
  1.713   1.743   1.765   1.775   1.795   1.853   1.878   1.887
273 A   274 A   275 A   276 A   277 A   278 A   279 A   280 A                  
  1.895   1.906   1.916   1.924   1.929   1.939   1.954   1.965
281 A   282 A   283 A   284 A   285 A   286 A   287 A   288 A                  
  1.970   1.977   1.985   1.987   1.995   1.998   2.007   2.008
289 A   290 A   291 A   292 A   293 A   294 A   295 A   296 A                  
  2.014   2.022   2.034   2.041   2.045   2.053   2.067   2.078
297 A   298 A   299 A   300 A   301 A   302 A   303 A   304 A                  
  2.091   2.107   2.113   2.117   2.126   2.131   2.137   2.147
305 A   306 A   307 A   308 A   309 A   310 A   311 A   312 A                  
  2.152   2.161   2.172   2.177   2.185   2.193   2.198   2.211
313 A   314 A   315 A   316 A   317 A   318 A   319 A   320 A                  
  2.218   2.231   2.232   2.253   2.259   2.287   2.302   2.304
321 A   322 A   323 A   324 A   325 A   326 A   327 A   328 A                  
  2.313   2.321   2.339   2.355   2.363   2.384   2.389   2.392
329 A   330 A   331 A   332 A   333 A   334 A   335 A   336 A                  
  2.394   2.413   2.418   2.426   2.436   2.441   2.450   2.455
337 A   338 A   339 A   340 A   341 A   342 A   343 A   344 A                  
  2.463   2.490   2.506   2.511   2.521   2.547   2.552   2.576
345 A   346 A   347 A   348 A   349 A   350 A   351 A   352 A                  
  2.591   2.599   2.623   2.632   2.650   2.656   2.680   2.686
353 A   354 A   355 A   356 A   357 A   358 A   359 A   360 A                  
  2.715   2.739   2.745   2.768   2.799   2.806   2.830   2.858
361 A   362 A   363 A   364 A   365 A   366 A   367 A   368 A                  
  2.873   2.921   2.940   2.954   2.975   2.997   3.008   3.028
369 A   370 A   371 A   372 A   373 A   374 A   375 A   376 A                  
  3.048   3.083   3.088   3.094   3.120   3.148   3.173   3.174
377 A   378 A   379 A   380 A   381 A   382 A   383 A   384 A                  
  3.206   3.218   3.237   3.295   3.339   3.366   3.468   3.531
385 A   386 A   387 A   388 A   389 A   390 A   391 A   392 A                  
  3.558   3.570   3.596   3.608   3.654   3.688   3.712   3.753
393 A   394 A   395 A   396 A   397 A   398 A   399 A   400 A                  
  3.822   4.547   4.653   4.665   4.713   4.721   4.795   4.802
401 A   402 A   403 A   404 A   405 A   406 A   407 A   408 A                  
  4.813   4.860   4.891   4.967   5.000   5.016   5.074   5.233
409 A   410 A   411 A   412 A   413 A   414 A   415 A   416 A                  
  6.269   6.330   6.463   6.604   7.362   7.675
417 A   418 A   419 A   420 A   421 A   422 A                                  

 Occupation and symmetry of molecular orbitals

 Point group: C1 (1 irreducible representation).

                           A     All 
 -------------------------------------
 All molecular orbitals:
  - Alpha                  422   422 
  - Beta                   422   422 
 -------------------------------------
 Alpha orbitals:
  - Frozen occupied        21    21  
  - Active occupied        59    59  
  - Active virtual         342   342 
  - Frozen virtual         0     0   
 -------------------------------------
 Beta orbitals:
  - Frozen occupied        21    21  
  - Active occupied        59    59  
  - Active virtual         342   342 
  - Frozen virtual         0     0   
 -------------------------------------

 Import integrals:   CPU 0.00 s  wall 0.00 s

 Import integrals:   CPU 3607.03 s  wall 931.37 s

 MP2 amplitudes:   CPU 40.51 s  wall 95.27 s

           CCSD T amplitudes will be solved using DIIS.

           Start     Size      MaxIter   EConv     TConv     
           3         7         100       1.00e-06  1.00e-04  
 ------------------------------------------------------------------------------
           Energy (a.u.)   Ediff      Tdiff       Comment
 ------------------------------------------------------------------------------
         -1244.98639770                           
     1   -1244.95842100   2.80e-02   1.57e+00     Step took 53.45.
     2   -1245.05166905   9.32e-02   2.12e-01     
     3   -1245.04931292   2.36e-03   7.92e-02     
     4   -1245.05848844   9.18e-03   2.66e-02     Switched to DIIS steps.
     5   -1245.06154484   3.06e-03   1.72e-02     
     6   -1245.06173083   1.86e-04   3.70e-03     
     7   -1245.06171659   1.42e-05   1.81e-03     
     8   -1245.06170493   1.17e-05   5.02e-04     
     9   -1245.06170569   7.66e-07   1.94e-04     
    10   -1245.06170580   1.11e-07   5.70e-05     
 ------------------------------------------------------------------------------
         -1245.06170580                           CCSD T converged.


 ------------------------------------------------------------------------------
 == (T) code is based on LIBPT ==
 == Author: Ilya Kaliman, 2016 ==

 Starting (T) calculation...
 (T) calculation completed in 88386 sec
 ------------------------------------------------------------------------------

 SCF energy                 = -1241.89107764
 MP2 energy                 = -1244.98639770
 CCSD correlation energy     =    -3.17062817
 CCSD total energy           = -1245.06170580
 CCSD(T) correlation energy =    -0.11365088
 CCSD(T) total energy       = -1245.17535668

 CCSD  T1^2 = 0.0460  T2^2 = 0.9923  Leading amplitudes:

 Amplitude    Orbitals with energies
  0.0198       76 (A) A                  ->    87 (A) A                   
              -0.4771                          0.0916                     
  0.0198       76 (A) B                  ->    87 (A) B                   
              -0.4771                          0.0916                     
 -0.0150       76 (A) A                  ->    83 (A) A                   
              -0.4771                          0.0733                     
 -0.0150       76 (A) B                  ->    83 (A) B                   
              -0.4771                          0.0733                     

 Amplitude    Orbitals with energies
 -0.0368       79 (A) A      79 (A) B    ->    83 (A) A      83 (A) B     
              -0.3791       -0.3791            0.0733        0.0733       
  0.0368       79 (A) A      79 (A) B    ->    83 (A) B      83 (A) A     
              -0.3791       -0.3791            0.0733        0.0733       
  0.0368       79 (A) B      79 (A) A    ->    83 (A) A      83 (A) B     
              -0.3791       -0.3791            0.0733        0.0733       
 -0.0368       79 (A) B      79 (A) A    ->    83 (A) B      83 (A) A     
              -0.3791       -0.3791            0.0733        0.0733       

 CCSD calculation:   CPU 859052.30 s  wall 134782.63 s

 Total ccman2 time:   CPU 862748.86 s  wall 135831.27 s

 
 --------------------------------------------------------------
 
                    Orbital Energies (a.u.)
 --------------------------------------------------------------
 
 Alpha MOs
 -- Occupied --
-26.354 -26.351 -26.350 -26.350 -26.347 -26.347 -20.553 -15.636
-15.611 -11.522 -11.522 -11.412 -11.329 -11.298 -11.286 -11.281
-11.277 -11.273 -11.265 -11.246 -11.233  -1.738  -1.733  -1.640
 -1.636  -1.635  -1.633  -1.430  -1.293  -1.251  -1.196  -1.091
 -1.081  -1.067  -0.990  -0.969  -0.944  -0.893  -0.887  -0.840
 -0.835  -0.829  -0.825  -0.823  -0.817  -0.815  -0.789  -0.767
 -0.723  -0.714  -0.712  -0.707  -0.706  -0.681  -0.677  -0.674
 -0.664  -0.658  -0.656  -0.649  -0.645  -0.644  -0.643  -0.634
 -0.629  -0.615  -0.598  -0.585  -0.570  -0.556  -0.545  -0.537
 -0.527  -0.505  -0.499  -0.477  -0.464  -0.419  -0.379  -0.341
 -- Virtual --
  0.040   0.066   0.073   0.077   0.083   0.086   0.092   0.093
  0.105   0.107   0.108   0.113   0.121   0.122   0.127   0.130
  0.132   0.136   0.145   0.147   0.151   0.157   0.170   0.172
  0.176   0.184   0.191   0.195   0.197   0.202   0.209   0.214
  0.219   0.225   0.233   0.244   0.248   0.254   0.262   0.264
  0.276   0.279   0.290   0.294   0.294   0.302   0.306   0.311
  0.312   0.318   0.318   0.327   0.328   0.334   0.340   0.342
  0.346   0.356   0.363   0.370   0.373   0.377   0.384   0.390
  0.394   0.396   0.404   0.408   0.411   0.412   0.415   0.421
  0.423   0.428   0.434   0.436   0.442   0.452   0.455   0.461
  0.467   0.468   0.471   0.473   0.475   0.485   0.488   0.491
  0.497   0.501   0.509   0.513   0.517   0.523   0.527   0.535
  0.544   0.553   0.560   0.563   0.568   0.574   0.578   0.581
  0.588   0.599   0.606   0.611   0.622   0.629   0.638   0.656
  0.669   0.684   0.695   0.708   0.714   0.756   0.814   0.843
  0.848   0.853   0.880   0.895   0.907   0.915   0.926   0.932
  0.947   0.948   0.955   0.963   0.972   0.982   1.012   1.018
  1.023   1.026   1.042   1.049   1.054   1.067   1.081   1.106
  1.117   1.124   1.130   1.134   1.147   1.166   1.168   1.181
  1.188   1.215   1.225   1.231   1.237   1.253   1.262   1.274
  1.280   1.305   1.319   1.342   1.357   1.365   1.367   1.377
  1.385   1.395   1.405   1.411   1.450   1.455   1.461   1.472
  1.487   1.498   1.533   1.539   1.566   1.586   1.596   1.613
  1.618   1.632   1.653   1.672   1.682   1.692   1.700   1.712
  1.713   1.743   1.765   1.775   1.795   1.853   1.878   1.887
  1.895   1.906   1.916   1.924   1.929   1.939   1.954   1.965
  1.970   1.977   1.985   1.987   1.995   1.998   2.007   2.008
  2.014   2.022   2.034   2.041   2.045   2.053   2.067   2.078
  2.091   2.107   2.113   2.117   2.126   2.131   2.137   2.147
  2.152   2.161   2.172   2.177   2.185   2.193   2.198   2.211
  2.218   2.231   2.232   2.253   2.259   2.287   2.302   2.304
  2.313   2.321   2.339   2.355   2.363   2.384   2.389   2.392
  2.394   2.413   2.418   2.426   2.436   2.441   2.450   2.455
  2.463   2.490   2.506   2.511   2.521   2.547   2.552   2.576
  2.591   2.599   2.623   2.632   2.650   2.656   2.680   2.686
  2.715   2.739   2.745   2.768   2.799   2.806   2.830   2.858
  2.873   2.921   2.940   2.954   2.975   2.997   3.008   3.028
  3.048   3.083   3.088   3.094   3.120   3.148   3.173   3.174
  3.206   3.218   3.237   3.295   3.339   3.366   3.468   3.531
  3.558   3.570   3.596   3.608   3.654   3.688   3.712   3.753
  3.822   4.547   4.653   4.665   4.713   4.721   4.795   4.802
  4.813   4.860   4.891   4.967   5.000   5.016   5.074   5.233
  6.269   6.330   6.463   6.604   7.362   7.675
 --------------------------------------------------------------
 
          Ground-State Mulliken Net Atomic Charges

     Atom                 Charge (a.u.)
  ----------------------------------------
      1 C                    -0.208482
      2 N                    -0.821733
      3 C                     0.710700
      4 O                    -0.626318
      5 N                    -0.667826
      6 C                    -0.042269
      7 C                    -0.280176
      8 C                    -0.673112
      9 C                     0.499243
     10 C                    -0.709945
     11 C                    -1.352529
     12 C                     0.031042
     13 C                    -0.644746
     14 H                     0.459857
     15 H                     0.419644
     16 H                     0.226589
     17 H                     0.204087
     18 H                     0.180940
     19 H                     0.207264
     20 H                     0.197468
     21 H                     0.200363
     22 H                     0.199264
     23 H                     0.349717
     24 H                     0.236500
     25 C                     1.954083
     26 C                     1.980151
     27 H                     0.279970
     28 F                    -0.373092
     29 F                    -0.428189
     30 F                    -0.354089
     31 F                    -0.422657
     32 F                    -0.354012
     33 F                    -0.377706
  ----------------------------------------
  Sum of atomic charges =     0.000000

 -----------------------------------------------------------------
                    Cartesian Multipole Moments
 -----------------------------------------------------------------
    Charge (ESU x 10^10)
                -0.0000
    Dipole Moment (Debye)
         X      -7.1814      Y      -5.8662      Z       1.2045
       Tot       9.3506
    Quadrupole Moments (Debye-Ang)
        XX    -114.4764     XY       6.8324     YY    -115.9152
        XZ      -4.3249     YZ      -0.5585     ZZ    -124.0161
    Octopole Moments (Debye-Ang^2)
       XXX    -106.5787    XXY     -16.2042    XYY      19.6811
       YYY     -11.4555    XXZ      13.2531    XYZ       5.0429
       YYZ       3.8312    XZZ      24.5981    YZZ      12.5908
       ZZZ      -1.0629
    Hexadecapole Moments (Debye-Ang^3)
      XXXX   -9673.2690   XXXY     136.9631   XXYY   -1924.8875
      XYYY      55.1339   YYYY   -1314.7142   XXXZ     -58.5253
      XXYZ     -24.1210   XYYZ      -9.9651   YYYZ      -6.3362
      XXZZ   -1757.8654   XYZZ       7.0433   YYZZ    -290.2562
      XZZZ      -4.5034   YZZZ       4.3659   ZZZZ    -280.8105
 -----------------------------------------------------------------
Archival summary:
1\1\r4209\SP\ProcedureUnspecified\6-31+G*\6121212\hio507\TueDec1023:59:352019TueDec1023:59:352019\0\\#,ProcedureUnspecified,6-31+G*,\\0,1\F\C,1,1.337\F,2,1.33867,1,107.711\F,2,1.3387,1,106.822,3,-114.426,0\C,2,1.51542,1,112.126,3,123.21,0\C,5,1.38788,2,116.533,1,138.783,0\H,6,1.07843,5,120.051,2,-0.848811,0\C,6,1.39999,5,120.194,2,178.939,0\N,8,1.39536,6,123.344,5,178.502,0\H,9,1.0091,8,115.188,6,-179.158,0\C,9,1.39545,8,127,6,14.1216,0\O,11,1.21012,9,123.72,8,1.49287,0\N,11,1.37115,9,113.001,8,-179.927,0\H,13,1.00991,11,118.18,9,24.4363,0\C,8,1.39583,6,118.792,5,0.176367,0\H,15,1.08543,8,119.975,6,179.84,0\C,15,1.38349,8,120.632,6,-0.395749,0\H,17,1.0822,15,119.373,8,-179.446,0\C,17,1.39058,15,121.088,8,-0.078628,0\C,13,1.45815,11,118.898,9,175.063,0\H,20,1.0911,13,107.565,11,50.3638,0\H,20,1.09632,13,110.588,11,-66.0265,0\C,19,1.50927,17,117.699,15,179.201,0\F,23,1.33602,19,112.654,17,138.055,0\F,23,1.34021,19,112.265,17,-100.294,0\F,23,1.34393,19,110.872,17,18.4941,0\C,20,1.52146,13,110.449,11,171.163,0\H,27,1.09402,20,109.018,13,-57.6627,0\H,27,1.09657,20,109.597,13,58.9343,0\C,27,1.52545,20,111.481,13,-179.68,0\H,30,1.09088,27,111.257,20,179.885,0\H,30,1.09246,27,111.007,20,59.8863,0\H,30,1.09256,27,111.194,20,-59.9886,0\\HF=-1241.89108\\@

 Total job time:  135875.45s(wall), 863081.43s(cpu) 
 Tue Dec 10 23:59:35 2019

        *************************************************************
        *                                                           *
        *  Thank you very much for using Q-Chem.  Have a nice day.  *
        *                                                           *
        *************************************************************


0 sent ACK to 0 
now end server 0 ... 
