 Entering Gaussian System, Link 0=/apps/gaussian/g09e01/g09/g09
 AtFile(1): /home/507/hio507/Basis/GTMP2LARGE.gbs
 Initial command:
 /apps/gaussian/g09e01/g09/l1.exe "/jobfs/local/3890897.r-man2/Gau-32877.inp" -scrdir="/jobfs/local/3890897.r-man2/"
 Entering Link 1 = /apps/gaussian/g09e01/g09/l1.exe PID=     32878.
  
 Copyright (c) 1988,1990,1992,1993,1995,1998,2003,2009,2015,
            Gaussian, Inc.  All Rights Reserved.
  
 This is part of the Gaussian(R) 09 program.  It is based on
 the Gaussian(R) 03 system (copyright 2003, Gaussian, Inc.),
 the Gaussian(R) 98 system (copyright 1998, Gaussian, Inc.),
 the Gaussian(R) 94 system (copyright 1995, Gaussian, Inc.),
 the Gaussian 92(TM) system (copyright 1992, Gaussian, Inc.),
 the Gaussian 90(TM) system (copyright 1990, Gaussian, Inc.),
 the Gaussian 88(TM) system (copyright 1988, Gaussian, Inc.),
 the Gaussian 86(TM) system (copyright 1986, Carnegie Mellon
 University), and the Gaussian 82(TM) system (copyright 1983,
 Carnegie Mellon University). Gaussian is a federally registered
 trademark of Gaussian, Inc.
  
 This software contains proprietary and confidential information,
 including trade secrets, belonging to Gaussian, Inc.
  
 This software is provided under written license and may be
 used, copied, transmitted, or stored only in accord with that
 written license.
  
 The following legend is applicable only to US Government
 contracts under FAR:
  
                    RESTRICTED RIGHTS LEGEND
  
 Use, reproduction and disclosure by the US Government is
 subject to restrictions as set forth in subparagraphs (a)
 and (c) of the Commercial Computer Software - Restricted
 Rights clause in FAR 52.227-19.
  
 Gaussian, Inc.
 340 Quinnipiac St., Bldg. 40, Wallingford CT 06492
  
  
 ---------------------------------------------------------------
 Warning -- This program may not be used in any manner that
 competes with the business of Gaussian, Inc. or will provide
 assistance to any competitor of Gaussian, Inc.  The licensee
 of this program is prohibited from giving any competitor of
 Gaussian, Inc. access to this program.  By using this program,
 the user acknowledges that Gaussian, Inc. is engaged in the
 business of creating and licensing software in the field of
 computational chemistry and represents and warrants to the
 licensee that it is not a competitor of Gaussian, Inc. and that
 it will not use this program in any manner prohibited above.
 ---------------------------------------------------------------
  

 Cite this work as:
 Gaussian 09, Revision E.01,
 M. J. Frisch, G. W. Trucks, H. B. Schlegel, G. E. Scuseria, 
 M. A. Robb, J. R. Cheeseman, G. Scalmani, V. Barone, B. Mennucci, 
 G. A. Petersson, H. Nakatsuji, M. Caricato, X. Li, H. P. Hratchian, 
 A. F. Izmaylov, J. Bloino, G. Zheng, J. L. Sonnenberg, M. Hada, 
 M. Ehara, K. Toyota, R. Fukuda, J. Hasegawa, M. Ishida, T. Nakajima, 
 Y. Honda, O. Kitao, H. Nakai, T. Vreven, J. A. Montgomery, Jr., 
 J. E. Peralta, F. Ogliaro, M. Bearpark, J. J. Heyd, E. Brothers, 
 K. N. Kudin, V. N. Staroverov, T. Keith, R. Kobayashi, J. Normand, 
 K. Raghavachari, A. Rendell, J. C. Burant, S. S. Iyengar, J. Tomasi, 
 M. Cossi, N. Rega, J. M. Millam, M. Klene, J. E. Knox, J. B. Cross, 
 V. Bakken, C. Adamo, J. Jaramillo, R. Gomperts, R. E. Stratmann, 
 O. Yazyev, A. J. Austin, R. Cammi, C. Pomelli, J. W. Ochterski, 
 R. L. Martin, K. Morokuma, V. G. Zakrzewski, G. A. Voth, 
 P. Salvador, J. J. Dannenberg, S. Dapprich, A. D. Daniels, 
 O. Farkas, J. B. Foresman, J. V. Ortiz, J. Cioslowski, 
 and D. J. Fox, Gaussian, Inc., Wallingford CT, 2013.
 
 ******************************************
 Gaussian 09:  ES64L-G09RevE.01 30-Nov-2015
                30-Nov-2019 
 ******************************************
 %chk=NM2.MP2_GTMP2LARGE.chk
 %mem=1114112000
 %nproc=8
 Will use up to    8 processors via shared memory.
 -------------------------------------------------------------
 # MP2/Gen 5D SCF=Tight INT(grid=ultrafine) maxdisk=3489660928
 -------------------------------------------------------------
 1/38=1/1;
 2/12=2,17=6,18=5,40=1/2;
 3/5=7,8=1,11=9,16=1,25=1,30=1,75=-5/1,2,3;
 4//1;
 5/5=2,32=2,38=5/2;
 8/10=1/1;
 9/16=-3/6;
 6/7=2,8=2,9=2,10=2/1;
 99/5=1,9=1/99;
 ------------------
 NM2.MP2_GTMP2LARGE
 ------------------
 Symbolic Z-matrix:
 Charge =  0 Multiplicity = 1
 C                    -5.90996   1.10291   0.20594 
 N                    -4.64948   0.51828   0.07779 
 C                    -3.41381   1.16305   0.14615 
 O                    -3.28493   2.34753   0.3578 
 N                    -2.35401   0.30927  -0.02092 
 C                    -1.00625   0.86248  -0.08175 
 C                     0.0281   -0.25286  -0.0502 
 C                     1.44847   0.30082  -0.10487 
 C                    -6.12744   2.48447   0.143 
 C                    -7.41413   2.994     0.24792 
 C                    -8.5134    2.14413   0.42852 
 C                    -8.28623   0.77319   0.47964 
 C                    -7.00743   0.25644   0.37142 
 H                    -4.6362   -0.48941   0.12939 
 H                    -2.50942  -0.55043  -0.52755 
 H                    -0.88312   1.52479   0.77655 
 H                    -0.88265   1.47876  -0.98 
 H                    -0.13404  -0.92893  -0.89821 
 H                    -0.11387  -0.84512   0.85861 
 H                     1.61294   0.87694  -1.01849 
 H                     2.18699  -0.50167  -0.08001 
 H                     1.64455   0.96054   0.74353 
 H                    -5.29064   3.15277   0.016 
 H                    -6.86113  -0.81799   0.42007 
 C                    -9.94057   2.62323   0.5359 
 C                    -7.55149   4.50222   0.19389 
 H                    -9.12145   0.09876   0.61647 
 F                    -10.06498   3.69804   1.31965 
 F                    -10.72801   1.66853   1.05996 
 F                    -10.46437   2.93036  -0.65887 
 F                    -6.46921   5.07316  -0.3491 
 F                    -7.69469   5.02896   1.41621 
 F                    -8.60095   4.88634  -0.54004 
 
                          Input orientation:                          
 ---------------------------------------------------------------------
 Center     Atomic      Atomic             Coordinates (Angstroms)
 Number     Number       Type             X           Y           Z
 ---------------------------------------------------------------------
      1          6           0       -5.909955    1.102910    0.205944
      2          7           0       -4.649477    0.518284    0.077789
      3          6           0       -3.413812    1.163054    0.146151
      4          8           0       -3.284933    2.347533    0.357804
      5          7           0       -2.354008    0.309265   -0.020919
      6          6           0       -1.006248    0.862479   -0.081751
      7          6           0        0.028098   -0.252861   -0.050201
      8          6           0        1.448466    0.300816   -0.104868
      9          6           0       -6.127442    2.484471    0.143003
     10          6           0       -7.414132    2.994004    0.247922
     11          6           0       -8.513400    2.144130    0.428520
     12          6           0       -8.286228    0.773186    0.479641
     13          6           0       -7.007432    0.256442    0.371419
     14          1           0       -4.636201   -0.489411    0.129387
     15          1           0       -2.509423   -0.550433   -0.527548
     16          1           0       -0.883119    1.524789    0.776552
     17          1           0       -0.882654    1.478758   -0.979995
     18          1           0       -0.134043   -0.928927   -0.898206
     19          1           0       -0.113866   -0.845121    0.858615
     20          1           0        1.612938    0.876941   -1.018491
     21          1           0        2.186994   -0.501666   -0.080009
     22          1           0        1.644546    0.960542    0.743535
     23          1           0       -5.290636    3.152775    0.016001
     24          1           0       -6.861133   -0.817986    0.420074
     25          6           0       -9.940573    2.623235    0.535896
     26          6           0       -7.551486    4.502217    0.193886
     27          1           0       -9.121449    0.098762    0.616469
     28          9           0      -10.064979    3.698041    1.319645
     29          9           0      -10.728008    1.668533    1.059964
     30          9           0      -10.464373    2.930358   -0.658869
     31          9           0       -6.469213    5.073157   -0.349101
     32          9           0       -7.694687    5.028956    1.416205
     33          9           0       -8.600951    4.886337   -0.540044
 ---------------------------------------------------------------------
                    Distance matrix (angstroms):
                    1          2          3          4          5
     1  C    0.000000
     2  N    1.395355   0.000000
     3  C    2.497584   1.395446   0.000000
     4  O    2.909104   2.299247   1.210122   0.000000
     5  N    3.650493   2.307078   1.371150   2.272573   0.000000
     6  C    4.918019   3.662927   2.436934   2.755177   1.458150
     7  C    6.096244   4.742441   3.726944   4.231393   2.447707
     8  C    7.408530   6.104553   4.944513   5.177662   3.803409
     9  C    1.399990   2.460594   3.018268   2.853900   4.358577
    10  C    2.416722   3.715031   4.400602   4.180943   5.734541
    11  C    2.812757   4.206696   5.200773   5.232899   6.442580
    12  C    2.414602   3.667754   4.899353   5.244651   5.971350
    13  C    1.395832   2.390550   3.713058   4.269642   4.670233
    14  H    2.040538   1.009102   2.055519   3.150611   2.422578
    15  H    3.851646   2.467473   2.051300   3.127854   1.009905
    16  H    5.076678   3.960653   2.632995   2.573125   2.068084
    17  H    5.178944   4.028693   2.788303   2.883647   2.110076
    18  H    6.221629   4.841087   4.027896   4.716021   2.689051
    19  H    6.149427   4.800034   3.928106   4.527639   2.669161
    20  H    7.625236   6.367755   5.167830   5.295845   4.129656
    21  H    8.259360   6.913938   5.847347   6.184788   4.613220
    22  H    7.574942   6.344567   5.097534   5.135396   4.122739
    23  H    2.149786   2.712092   2.738320   2.188170   4.087872
    24  H    2.154167   2.606569   3.985421   4.776358   4.666835
    25  C    4.320433   5.712826   6.699451   6.663728   7.951131
    26  C    3.774925   4.930199   5.317202   4.782574   6.681375
    27  H    3.389769   4.523793   5.825035   6.260095   6.800650
    28  F    5.023869   6.401619   7.213964   6.979831   8.528775
    29  F    4.925740   6.263887   7.388371   7.506892   8.552181
    30  F    4.982990   6.338279   7.313127   7.274452   8.547229
    31  F    4.047679   4.923469   4.986949   4.250692   6.303752
    32  F    4.479268   5.604536   5.906279   5.268413   7.270740
    33  F    4.702369   5.922478   6.421846   5.959169   7.761661
                    6          7          8          9         10
     6  C    0.000000
     7  C    1.521463   0.000000
     8  C    2.518258   1.525448   0.000000
     9  C    5.376615   6.739509   7.888230   0.000000
    10  C    6.761143   8.125133   9.269486   1.387877   0.000000
    11  C    7.632845   8.884364  10.145003   2.426963   1.401175
    12  C    7.302140   8.394136   9.763660   2.775280   2.397140
    13  C    6.048706   7.066528   8.469417   2.406381   2.770362
    14  H    3.879271   4.673745   6.140237   3.326854   4.457032
    15  H    2.110590   2.599119   4.070401   4.769732   6.100866
    16  H    1.091100   2.161915   2.776923   5.368919   6.715071
    17  H    1.096320   2.166216   2.754545   5.457140   6.816447
    18  H    2.153247   1.096570   2.155455   6.975402   8.348814
    19  H    2.143952   1.094016   2.163874   6.910961   8.270775
    20  H    2.781695   2.173881   1.092556   7.990413   9.358085
    21  H    3.472419   2.173391   1.090880   8.837228  10.222958
    22  H    2.778025   2.171467   1.092462   7.942719   9.297324
    23  H    4.859114   6.315985   7.318728   1.078426   2.142015
    24  H    6.111912   6.928349   8.400995   3.394303   3.855738
    25  C    9.127098  10.391816  11.641066   3.835830   2.569690
    26  C    7.494252   8.951002   9.936809   2.470181   1.515418
    27  H    8.180908   9.180538  10.596426   3.857442   3.381300
    28  F    9.595047  10.925031  12.088416   4.285025   2.944699
    29  F    9.821703  10.982624  12.308290   4.761490   3.660336
    30  F    9.698727  10.981589  12.212172   4.432921   3.182811
    31  F    6.902555   8.406596   9.247948   2.657117   2.360547
    32  F    8.021136   9.470446  10.405106   3.248339   2.363182
    33  F    8.607030  10.055435  11.054735   3.514792   2.368618
                   11         12         13         14         15
    11  C    0.000000
    12  C    1.390578   0.000000
    13  C    2.415485   1.383495   0.000000
    14  H    4.696561   3.878083   2.497521   0.000000
    15  H    6.649998   6.011479   4.657389   2.226763   0.000000
    16  H    7.663282   7.447086   6.267379   4.308300   2.941443
    17  H    7.788126   7.579002   6.390092   4.381042   2.639830
    18  H    9.023164   8.441195   7.089465   4.638809   2.433736
    19  H    8.925960   8.339667   6.998003   4.594542   2.783340
    20  H   10.307392  10.012425   8.753722   6.498945   4.390020
    21  H   11.034368  10.565361   9.236665   6.826419   4.717945
    22  H   10.231518   9.936046   8.688552   6.475131   4.599364
    23  H    3.402020   3.853696   3.385624   3.702250   4.663083
    24  H    3.391782   2.136884   1.085434   2.267770   4.461721
    25  C    1.509270   2.482479   3.772543   6.163617   8.150158
    26  C    2.557520   3.811453   4.284171   5.780951   7.174410
    27  H    2.142097   1.082203   2.134006   4.549795   6.741596
    28  F    2.369840   3.524818   4.700248   6.958671   8.862736
    29  F    2.351468   2.664716   4.038661   6.529380   8.659628
    30  F    2.367882   3.270154   4.490185   6.803216   8.684145
    31  F    3.655488   4.741108   4.899956   5.876312   6.880156
    32  F    3.157220   4.397574   4.933639   6.439147   7.860962
    33  F    2.909550   4.249331   4.980562   6.713124   8.164885
                   16         17         18         19         20
    16  H    0.000000
    17  H    1.757150   0.000000
    18  H    3.063763   2.522708   0.000000
    19  H    2.492981   3.061362   1.758934   0.000000
    20  H    3.142004   2.567420   2.515466   3.077479   0.000000
    21  H    3.777011   3.762286   2.497841   2.508572   1.763760
    22  H    2.590087   3.102554   3.070632   2.523028   1.764291
    23  H    4.759725   4.819195   6.639768   6.594855   7.342270
    24  H    6.430577   6.555718   6.855940   6.761558   8.760829
    25  C    9.126992   9.254926  10.528178  10.425824  11.787675
    26  C    7.326098   7.415701   9.257886   9.184448   9.929711
    27  H    8.362371   8.504753   9.171905   9.060138  10.886033
    28  F    9.451166   9.722585  11.178157  10.948860  12.239250
    29  F    9.850017  10.056264  11.082117  10.909584  12.539759
    30  F    9.789611   9.696370  11.030280  11.121600  12.255908
    31  F    6.712858   6.672883   8.744193   8.767841   9.131127
    32  F    7.686729   8.046706   9.900313   9.606484  10.478495
    33  F    8.520467   8.448506  10.277845  10.336173  10.983064
                   21         22         23         24         25
    21  H    0.000000
    22  H    1.763669   0.000000
    23  H    8.323408   7.309715   0.000000
    24  H    9.067455   8.695652   4.289135   0.000000
    25  C   12.538829  11.705667   4.708781   4.619347   0.000000
    26  C   10.952254   9.869781   2.638955   5.369573   3.058641
    27  H   11.345769  10.801178   4.935857   2.447044   2.655263
    28  F   13.027181  12.039052   4.979072   5.609667   1.336020
    29  F   13.145592  12.396833   5.732176   4.641655   1.343933
    30  F   13.121393  12.347988   5.222305   5.310135   1.340207
    31  F   10.299563   9.161907   2.282589   5.954057   4.340009
    32  F   11.422524  10.209101   3.355605   5.989476   3.406823
    33  F   12.067393  11.046703   3.777910   6.040537   2.841455
                   26         27         28         29         30
    26  C    0.000000
    27  H    4.694015   0.000000
    28  F    2.869091   3.786756   0.000000
    29  F    4.343978   2.289521   2.150801   0.000000
    30  F    3.418017   3.383470   2.159484   2.148509   0.000000
    31  F    1.338701   5.719378   4.195854   5.631542   4.544100
    32  F    1.338666   5.194425   2.720100   4.540968   4.047370
    33  F    1.337003   4.952708   2.648371   4.175962   2.704129
                   31         32         33
    31  F    0.000000
    32  F    2.149429   0.000000
    33  F    2.148410   2.160686   0.000000
 Stoichiometry    C12H12F6N2O
 Framework group  C1[X(C12H12F6N2O)]
 Deg. of freedom    93
 Full point group                 C1      NOp   1
 Largest Abelian subgroup         C1      NOp   1
 Largest concise Abelian subgroup C1      NOp   1
                         Standard orientation:                         
 ---------------------------------------------------------------------
 Center     Atomic      Atomic             Coordinates (Angstroms)
 Number     Number       Type             X           Y           Z
 ---------------------------------------------------------------------
      1          6           0        0.477651   -0.994912   -0.072457
      2          7           0        1.861944   -1.156612   -0.140301
      3          6           0        2.832463   -0.170000    0.038474
      4          8           0        2.577757    0.981758    0.308610
      5          7           0        4.111417   -0.646454   -0.093137
      6          6           0        5.223270    0.295409   -0.039504
      7          6           0        6.548832   -0.449490    0.014014
      8          6           0        7.729179    0.514662    0.078698
      9          6           0       -0.152946    0.254878   -0.090951
     10          6           0       -1.537724    0.338638   -0.051234
     11          6           0       -2.327954   -0.816331    0.018597
     12          6           0       -1.690842   -2.052346    0.026412
     13          6           0       -0.311161   -2.145170   -0.017436
     14          1           0        2.183573   -2.113040   -0.130922
     15          1           0        4.255488   -1.479712   -0.645255
     16          1           0        5.091692    0.909707    0.852586
     17          1           0        5.195747    0.973767   -0.900311
     18          1           0        6.647095   -1.089430   -0.871020
     19          1           0        6.550945   -1.111301    0.885147
     20          1           0        7.753674    1.168330   -0.796400
     21          1           0        8.677412   -0.023160    0.118974
     22          1           0        7.668178    1.149444    0.965718
     23          1           0        0.441473    1.153723   -0.132756
     24          1           0        0.157576   -3.124095   -0.004883
     25          6           0       -3.836851   -0.804633    0.050013
     26          6           0       -2.131850    1.732735   -0.050061
     27          1           0       -2.282362   -2.957122    0.077857
     28          9           0       -4.327271    0.130340    0.868708
     29          9           0       -4.316017   -1.984781    0.478738
     30          9           0       -4.368449   -0.599984   -1.163114
     31          9           0       -1.253054    2.639717   -0.494160
     32          9           0       -2.492933    2.114403    1.181188
     33          9           0       -3.209886    1.821376   -0.835909
 ---------------------------------------------------------------------
 Rotational constants (GHZ):      0.7113354      0.1183305      0.1055328
 General basis read from cards:  (5D, 7F)
 There are   939 symmetry adapted cartesian basis functions of A   symmetry.
 There are   834 symmetry adapted basis functions of A   symmetry.
   834 basis functions,  1236 primitive gaussians,   939 cartesian basis functions
    80 alpha electrons       80 beta electrons
       nuclear repulsion energy      1781.1099787613 Hartrees.
 NAtoms=   33 NActive=   33 NUniq=   33 SFac= 1.00D+00 NAtFMM=   60 NAOKFM=F Big=F
 Integral buffers will be    131072 words long.
 Raffenetti 1 integral format.
 Two-electron integral symmetry is turned on.
 One-electron integrals computed using PRISM.
 NBasis=   834 RedAO= T EigKep=  1.44D-06  NBF=   834
 NBsUse=   831 1.00D-06 EigRej=  8.29D-07 NBFU=   831
 ExpMin= 3.60D-02 ExpMax= 1.14D+04 ExpMxC= 1.72D+03 IAcc=3 IRadAn=         5 AccDes= 0.00D+00
 Harris functional with IExCor=  205 and IRadAn=       5 diagonalized for initial guess.
 HarFok:  IExCor=  205 AccDes= 0.00D+00 IRadAn=         5 IDoV= 1 UseB2=F ITyADJ=14
 ICtDFT=  3500011 ScaDFX=  1.000000  1.000000  1.000000  1.000000
 FoFCou: FMM=F IPFlag=           0 FMFlag=      100000 FMFlg1=           0
         NFxFlg=           0 DoJE=T BraDBF=F KetDBF=T FulRan=T
         wScrn=  0.000000 ICntrl=     500 IOpCl=  0 I1Cent=   200000004 NGrid=           0
         NMat0=    1 NMatS0=      1 NMatT0=    0 NMatD0=    1 NMtDS0=    0 NMtDT0=    0
 Petite list used in FoFCou.
 Requested convergence on RMS density matrix=1.00D-08 within 128 cycles.
 Requested convergence on MAX density matrix=1.00D-06.
 Requested convergence on             energy=1.00D-06.
 No special actions if energy rises.
 Initial convergence to 1.0D-05 achieved.  Increase integral accuracy.
 SCF Done:  E(RHF) =  -1242.27487270     A.U. after   16 cycles
            NFock= 16  Conv=0.39D-08     -V/T= 2.0009
 ExpMin= 3.60D-02 ExpMax= 1.14D+04 ExpMxC= 1.72D+03 IAcc=3 IRadAn=         5 AccDes= 0.00D+00
 HarFok:  IExCor=  205 AccDes= 0.00D+00 IRadAn=         5 IDoV=-2 UseB2=F ITyADJ=14
 ICtDFT= 12500011 ScaDFX=  1.000000  1.000000  1.000000  1.000000
 Range of M.O.s used for correlation:    22   831
 NBasis=   834 NAE=    80 NBE=    80 NFC=    21 NFV=     0
 NROrb=    810 NOA=    59 NOB=    59 NVA=   751 NVB=   751

 **** Warning!!: The largest alpha MO coefficient is  0.14593424D+03

 Fully direct method using O(OVN) memory.
 JobTyp=1 Pass  1:  I=   1 to   3 NPSUse=  8 ParTrn=T ParDer=T DoDerP=F.
 JobTyp=1 Pass  2:  I=   4 to   6 NPSUse=  8 ParTrn=T ParDer=T DoDerP=F.
 JobTyp=1 Pass  3:  I=   7 to   9 NPSUse=  8 ParTrn=T ParDer=T DoDerP=F.
 JobTyp=1 Pass  4:  I=  10 to  12 NPSUse=  8 ParTrn=T ParDer=T DoDerP=F.
 JobTyp=1 Pass  5:  I=  13 to  15 NPSUse=  8 ParTrn=T ParDer=T DoDerP=F.
 JobTyp=1 Pass  6:  I=  16 to  19 NPSUse=  8 ParTrn=T ParDer=T DoDerP=F.
 JobTyp=1 Pass  7:  I=  20 to  23 NPSUse=  8 ParTrn=T ParDer=T DoDerP=F.
 JobTyp=1 Pass  8:  I=  24 to  28 NPSUse=  8 ParTrn=T ParDer=T DoDerP=F.
 JobTyp=1 Pass  9:  I=  29 to  34 NPSUse=  8 ParTrn=T ParDer=T DoDerP=F.
 JobTyp=1 Pass 10:  I=  35 to  42 NPSUse=  8 ParTrn=T ParDer=T DoDerP=F.
 JobTyp=1 Pass 11:  I=  43 to  59 NPSUse=  8 ParTrn=T ParDer=T DoDerP=F.
 Spin components of T(2) and E(2):
     alpha-alpha T2 =       0.1448002630D+00 E2=     -0.5267730261D+00
     alpha-beta  T2 =       0.7542947672D+00 E2=     -0.2964670401D+01
     beta-beta   T2 =       0.1448002630D+00 E2=     -0.5267730261D+00
 ANorm=    0.1429648661D+01
 E2 =    -0.4018216453D+01 EUMP2 =    -0.12462930891527D+04

 **********************************************************************

            Population analysis using the SCF density.

 **********************************************************************

 Orbital symmetries:
       Occupied  (A) (A) (A) (A) (A) (A) (A) (A) (A) (A) (A) (A)
                 (A) (A) (A) (A) (A) (A) (A) (A) (A) (A) (A) (A)
                 (A) (A) (A) (A) (A) (A) (A) (A) (A) (A) (A) (A)
                 (A) (A) (A) (A) (A) (A) (A) (A) (A) (A) (A) (A)
                 (A) (A) (A) (A) (A) (A) (A) (A) (A) (A) (A) (A)
                 (A) (A) (A) (A) (A) (A) (A) (A) (A) (A) (A) (A)
                 (A) (A) (A) (A) (A) (A) (A) (A)
       Virtual   (A) (A) (A) (A) (A) (A) (A) (A) (A) (A) (A) (A)
                 (A) (A) (A) (A) (A) (A) (A) (A) (A) (A) (A) (A)
                 (A) (A) (A) (A) (A) (A) (A) (A) (A) (A) (A) (A)
                 (A) (A) (A) (A) (A) (A) (A) (A) (A) (A) (A) (A)
                 (A) (A) (A) (A) (A) (A) (A) (A) (A) (A) (A) (A)
                 (A) (A) (A) (A) (A) (A) (A) (A) (A) (A) (A) (A)
                 (A) (A) (A) (A) (A) (A) (A) (A) (A) (A) (A) (A)
                 (A) (A) (A) (A) (A) (A) (A) (A) (A) (A) (A) (A)
                 (A) (A) (A) (A) (A) (A) (A) (A) (A) (A) (A) (A)
                 (A) (A) (A) (A) (A) (A) (A) (A) (A) (A) (A) (A)
                 (A) (A) (A) (A) (A) (A) (A) (A) (A) (A) (A) (A)
                 (A) (A) (A) (A) (A) (A) (A) (A) (A) (A) (A) (A)
                 (A) (A) (A) (A) (A) (A) (A) (A) (A) (A) (A) (A)
                 (A) (A) (A) (A) (A) (A) (A) (A) (A) (A) (A) (A)
                 (A) (A) (A) (A) (A) (A) (A) (A) (A) (A) (A) (A)
                 (A) (A) (A) (A) (A) (A) (A) (A) (A) (A) (A) (A)
                 (A) (A) (A) (A) (A) (A) (A) (A) (A) (A) (A) (A)
                 (A) (A) (A) (A) (A) (A) (A) (A) (A) (A) (A) (A)
                 (A) (A) (A) (A) (A) (A) (A) (A) (A) (A) (A) (A)
                 (A) (A) (A) (A) (A) (A) (A) (A) (A) (A) (A) (A)
                 (A) (A) (A) (A) (A) (A) (A) (A) (A) (A) (A) (A)
                 (A) (A) (A) (A) (A) (A) (A) (A) (A) (A) (A) (A)
                 (A) (A) (A) (A) (A) (A) (A) (A) (A) (A) (A) (A)
                 (A) (A) (A) (A) (A) (A) (A) (A) (A) (A) (A) (A)
                 (A) (A) (A) (A) (A) (A) (A) (A) (A) (A) (A) (A)
                 (A) (A) (A) (A) (A) (A) (A) (A) (A) (A) (A) (A)
                 (A) (A) (A) (A) (A) (A) (A) (A) (A) (A) (A) (A)
                 (A) (A) (A) (A) (A) (A) (A) (A) (A) (A) (A) (A)
                 (A) (A) (A) (A) (A) (A) (A) (A) (A) (A) (A) (A)
                 (A) (A) (A) (A) (A) (A) (A) (A) (A) (A) (A) (A)
                 (A) (A) (A) (A) (A) (A) (A) (A) (A) (A) (A) (A)
                 (A) (A) (A) (A) (A) (A) (A) (A) (A) (A) (A) (A)
                 (A) (A) (A) (A) (A) (A) (A) (A) (A) (A) (A) (A)
                 (A) (A) (A) (A) (A) (A) (A) (A) (A) (A) (A) (A)
                 (A) (A) (A) (A) (A) (A) (A) (A) (A) (A) (A) (A)
                 (A) (A) (A) (A) (A) (A) (A) (A) (A) (A) (A) (A)
                 (A) (A) (A) (A) (A) (A) (A) (A) (A) (A) (A) (A)
                 (A) (A) (A) (A) (A) (A) (A) (A) (A) (A) (A) (A)
                 (A) (A) (A) (A) (A) (A) (A) (A) (A) (A) (A) (A)
                 (A) (A) (A) (A) (A) (A) (A) (A) (A) (A) (A) (A)
                 (A) (A) (A) (A) (A) (A) (A) (A) (A) (A) (A) (A)
                 (A) (A) (A) (A) (A) (A) (A) (A) (A) (A) (A) (A)
                 (A) (A) (A) (A) (A) (A) (A) (A) (A) (A) (A) (A)
                 (A) (A) (A) (A) (A) (A) (A) (A) (A) (A) (A) (A)
                 (A) (A) (A) (A) (A) (A) (A) (A) (A) (A) (A) (A)
                 (A) (A) (A) (A) (A) (A) (A) (A) (A) (A) (A) (A)
                 (A) (A) (A) (A) (A) (A) (A) (A) (A) (A) (A) (A)
                 (A) (A) (A) (A) (A) (A) (A) (A) (A) (A) (A) (A)
                 (A) (A) (A) (A) (A) (A) (A) (A) (A) (A) (A) (A)
                 (A) (A) (A) (A) (A) (A) (A) (A) (A) (A) (A) (A)
                 (A) (A) (A) (A) (A) (A) (A) (A) (A) (A) (A) (A)
                 (A) (A) (A) (A) (A) (A) (A) (A) (A) (A) (A) (A)
                 (A) (A) (A) (A) (A) (A) (A) (A) (A) (A) (A) (A)
                 (A) (A) (A) (A) (A) (A) (A) (A) (A) (A) (A) (A)
                 (A) (A) (A) (A) (A) (A) (A) (A) (A) (A) (A) (A)
                 (A) (A) (A) (A) (A) (A) (A) (A) (A) (A) (A) (A)
                 (A) (A) (A) (A) (A) (A) (A) (A) (A) (A) (A) (A)
                 (A) (A) (A) (A) (A) (A) (A) (A) (A) (A) (A) (A)
                 (A) (A) (A) (A) (A) (A) (A) (A) (A) (A) (A) (A)
                 (A) (A) (A) (A) (A) (A) (A) (A) (A) (A) (A) (A)
                 (A) (A) (A) (A) (A) (A) (A) (A) (A) (A) (A) (A)
                 (A) (A) (A) (A) (A) (A) (A) (A) (A) (A) (A) (A)
                 (A) (A) (A) (A) (A) (A) (A)
 The electronic state is 1-A.
 Alpha  occ. eigenvalues --  -26.33720 -26.33522 -26.33392 -26.33387 -26.33115
 Alpha  occ. eigenvalues --  -26.33091 -20.53650 -15.62296 -15.59870 -11.51004
 Alpha  occ. eigenvalues --  -11.50955 -11.40118 -11.32200 -11.28998 -11.27824
 Alpha  occ. eigenvalues --  -11.27278 -11.27213 -11.26445 -11.25767 -11.24129
 Alpha  occ. eigenvalues --  -11.22810  -1.73183  -1.72705  -1.63462  -1.63129
 Alpha  occ. eigenvalues --   -1.62970  -1.62813  -1.42467  -1.28850  -1.24718
 Alpha  occ. eigenvalues --   -1.19211  -1.08717  -1.07770  -1.06324  -0.98710
 Alpha  occ. eigenvalues --   -0.96559  -0.94121  -0.88982  -0.88373  -0.83707
 Alpha  occ. eigenvalues --   -0.83207  -0.82575  -0.82290  -0.81994  -0.81471
 Alpha  occ. eigenvalues --   -0.81225  -0.78531  -0.76363  -0.72017  -0.71231
 Alpha  occ. eigenvalues --   -0.71071  -0.70501  -0.70478  -0.67972  -0.67518
 Alpha  occ. eigenvalues --   -0.67130  -0.66313  -0.65600  -0.65528  -0.64745
 Alpha  occ. eigenvalues --   -0.64393  -0.64249  -0.64174  -0.63326  -0.62708
 Alpha  occ. eigenvalues --   -0.61184  -0.59549  -0.58387  -0.56872  -0.55360
 Alpha  occ. eigenvalues --   -0.54439  -0.53441  -0.52441  -0.50372  -0.49809
 Alpha  occ. eigenvalues --   -0.47674  -0.46315  -0.42005  -0.37816  -0.34027
 Alpha virt. eigenvalues --    0.02027   0.03601   0.04488   0.05054   0.05656
 Alpha virt. eigenvalues --    0.06323   0.07130   0.07590   0.07968   0.08326
 Alpha virt. eigenvalues --    0.08773   0.09054   0.09961   0.10323   0.10872
 Alpha virt. eigenvalues --    0.11047   0.11741   0.12008   0.12944   0.12999
 Alpha virt. eigenvalues --    0.13142   0.14152   0.15131   0.15177   0.15802
 Alpha virt. eigenvalues --    0.16316   0.16551   0.16938   0.17753   0.18127
 Alpha virt. eigenvalues --    0.18170   0.18540   0.18714   0.19027   0.19135
 Alpha virt. eigenvalues --    0.19649   0.20082   0.20203   0.20720   0.21173
 Alpha virt. eigenvalues --    0.21683   0.21999   0.22162   0.22787   0.23175
 Alpha virt. eigenvalues --    0.23722   0.24321   0.25094   0.25546   0.26402
 Alpha virt. eigenvalues --    0.26489   0.26834   0.27618   0.27940   0.28498
 Alpha virt. eigenvalues --    0.28739   0.29375   0.29501   0.30436   0.31046
 Alpha virt. eigenvalues --    0.31087   0.31555   0.31951   0.32281   0.33048
 Alpha virt. eigenvalues --    0.33481   0.34122   0.34791   0.35314   0.35644
 Alpha virt. eigenvalues --    0.36196   0.36433   0.36840   0.37586   0.37794
 Alpha virt. eigenvalues --    0.37999   0.38415   0.39143   0.39284   0.39946
 Alpha virt. eigenvalues --    0.40193   0.40357   0.40940   0.41230   0.41674
 Alpha virt. eigenvalues --    0.41857   0.42659   0.42887   0.43151   0.43482
 Alpha virt. eigenvalues --    0.43908   0.44922   0.45142   0.45470   0.45726
 Alpha virt. eigenvalues --    0.46203   0.46454   0.47215   0.47431   0.48280
 Alpha virt. eigenvalues --    0.48407   0.49013   0.49109   0.50462   0.50755
 Alpha virt. eigenvalues --    0.51504   0.52459   0.52629   0.53318   0.53589
 Alpha virt. eigenvalues --    0.54482   0.54638   0.55349   0.55620   0.56291
 Alpha virt. eigenvalues --    0.56467   0.57171   0.57547   0.57869   0.58577
 Alpha virt. eigenvalues --    0.59484   0.59504   0.60337   0.60668   0.60758
 Alpha virt. eigenvalues --    0.62641   0.63971   0.64162   0.64981   0.66832
 Alpha virt. eigenvalues --    0.67278   0.67766   0.67914   0.68725   0.69114
 Alpha virt. eigenvalues --    0.69464   0.70049   0.70781   0.71335   0.72035
 Alpha virt. eigenvalues --    0.72864   0.73542   0.74584   0.75043   0.75434
 Alpha virt. eigenvalues --    0.76217   0.76705   0.77196   0.77935   0.78864
 Alpha virt. eigenvalues --    0.79610   0.80345   0.80693   0.81114   0.81658
 Alpha virt. eigenvalues --    0.82126   0.82887   0.83260   0.83703   0.83958
 Alpha virt. eigenvalues --    0.85165   0.85231   0.85780   0.86079   0.86632
 Alpha virt. eigenvalues --    0.87393   0.87607   0.88239   0.88578   0.89725
 Alpha virt. eigenvalues --    0.90307   0.90689   0.91488   0.91706   0.92591
 Alpha virt. eigenvalues --    0.94222   0.94775   0.95019   0.95502   0.96182
 Alpha virt. eigenvalues --    0.97199   0.97464   0.98601   0.99265   0.99820
 Alpha virt. eigenvalues --    1.00265   1.00447   1.01219   1.02009   1.02550
 Alpha virt. eigenvalues --    1.03203   1.03728   1.04539   1.05227   1.06240
 Alpha virt. eigenvalues --    1.06509   1.07377   1.07794   1.09724   1.10236
 Alpha virt. eigenvalues --    1.11768   1.14327   1.14510   1.15192   1.16251
 Alpha virt. eigenvalues --    1.16757   1.17790   1.18476   1.19867   1.21177
 Alpha virt. eigenvalues --    1.21281   1.22539   1.23110   1.23607   1.25320
 Alpha virt. eigenvalues --    1.26147   1.27647   1.27991   1.28078   1.29609
 Alpha virt. eigenvalues --    1.30176   1.31022   1.32703   1.33034   1.33781
 Alpha virt. eigenvalues --    1.34314   1.35283   1.35646   1.36125   1.37602
 Alpha virt. eigenvalues --    1.37882   1.39013   1.39572   1.39878   1.40714
 Alpha virt. eigenvalues --    1.41139   1.41904   1.42219   1.43636   1.45095
 Alpha virt. eigenvalues --    1.46094   1.46689   1.47400   1.48368   1.49301
 Alpha virt. eigenvalues --    1.51035   1.52010   1.52231   1.53207   1.53845
 Alpha virt. eigenvalues --    1.54638   1.55410   1.55555   1.56844   1.57235
 Alpha virt. eigenvalues --    1.58197   1.59115   1.59355   1.60358   1.60740
 Alpha virt. eigenvalues --    1.62489   1.62815   1.63709   1.64074   1.64866
 Alpha virt. eigenvalues --    1.65962   1.66175   1.66891   1.67427   1.67755
 Alpha virt. eigenvalues --    1.68127   1.68618   1.69103   1.69651   1.70610
 Alpha virt. eigenvalues --    1.70785   1.71712   1.72521   1.73320   1.73844
 Alpha virt. eigenvalues --    1.74108   1.75248   1.75582   1.76053   1.77058
 Alpha virt. eigenvalues --    1.77848   1.78761   1.79158   1.79979   1.80863
 Alpha virt. eigenvalues --    1.81484   1.81729   1.83126   1.83367   1.83847
 Alpha virt. eigenvalues --    1.84530   1.85186   1.86117   1.87061   1.87805
 Alpha virt. eigenvalues --    1.90142   1.91252   1.91595   1.93024   1.93917
 Alpha virt. eigenvalues --    1.97499   1.99462   2.00913   2.01764   2.03582
 Alpha virt. eigenvalues --    2.04516   2.05660   2.06510   2.07418   2.10700
 Alpha virt. eigenvalues --    2.14007   2.14930   2.16689   2.20625   2.22247
 Alpha virt. eigenvalues --    2.23469   2.24630   2.25222   2.26741   2.27327
 Alpha virt. eigenvalues --    2.29208   2.30121   2.30978   2.31176   2.32073
 Alpha virt. eigenvalues --    2.34511   2.36336   2.39313   2.40475   2.41020
 Alpha virt. eigenvalues --    2.41328   2.43217   2.43924   2.44618   2.45830
 Alpha virt. eigenvalues --    2.46664   2.47983   2.49013   2.52938   2.55599
 Alpha virt. eigenvalues --    2.57301   2.61284   2.64417   2.65938   2.66722
 Alpha virt. eigenvalues --    2.69598   2.70357   2.71118   2.79521   2.80752
 Alpha virt. eigenvalues --    2.82399   2.83553   2.84626   2.86814   2.87669
 Alpha virt. eigenvalues --    2.89668   2.91701   2.92276   2.93107   2.93405
 Alpha virt. eigenvalues --    2.93875   2.95700   2.96987   2.97517   2.98776
 Alpha virt. eigenvalues --    2.99473   3.00634   3.01906   3.03037   3.04684
 Alpha virt. eigenvalues --    3.05461   3.05758   3.06298   3.07100   3.09945
 Alpha virt. eigenvalues --    3.10835   3.12152   3.12489   3.13408   3.14666
 Alpha virt. eigenvalues --    3.14771   3.15811   3.16344   3.17121   3.18553
 Alpha virt. eigenvalues --    3.19075   3.19914   3.20300   3.21398   3.21772
 Alpha virt. eigenvalues --    3.24468   3.25517   3.25869   3.27930   3.28513
 Alpha virt. eigenvalues --    3.29295   3.30379   3.31470   3.33566   3.34222
 Alpha virt. eigenvalues --    3.34387   3.35318   3.36800   3.38546   3.38985
 Alpha virt. eigenvalues --    3.39531   3.40457   3.42310   3.43525   3.44132
 Alpha virt. eigenvalues --    3.45786   3.46762   3.46895   3.47290   3.47623
 Alpha virt. eigenvalues --    3.49439   3.50662   3.50993   3.52053   3.52970
 Alpha virt. eigenvalues --    3.54210   3.54848   3.55303   3.55916   3.56849
 Alpha virt. eigenvalues --    3.58258   3.59272   3.61313   3.62412   3.62961
 Alpha virt. eigenvalues --    3.64637   3.65688   3.66153   3.67878   3.68161
 Alpha virt. eigenvalues --    3.69725   3.69781   3.70181   3.70927   3.71176
 Alpha virt. eigenvalues --    3.71265   3.71627   3.72075   3.72497   3.73153
 Alpha virt. eigenvalues --    3.73844   3.75458   3.76296   3.76981   3.78039
 Alpha virt. eigenvalues --    3.79193   3.80108   3.80974   3.81531   3.81892
 Alpha virt. eigenvalues --    3.82793   3.83521   3.84338   3.85309   3.86444
 Alpha virt. eigenvalues --    3.87528   3.88333   3.89874   3.90767   3.91461
 Alpha virt. eigenvalues --    3.91710   3.92709   3.93670   3.94128   3.94304
 Alpha virt. eigenvalues --    3.95571   3.97183   3.97836   3.99334   3.99579
 Alpha virt. eigenvalues --    4.00474   4.01327   4.02593   4.03006   4.03318
 Alpha virt. eigenvalues --    4.04440   4.05669   4.06107   4.06562   4.07360
 Alpha virt. eigenvalues --    4.08178   4.09964   4.11214   4.11439   4.13893
 Alpha virt. eigenvalues --    4.14687   4.15856   4.16756   4.17807   4.18554
 Alpha virt. eigenvalues --    4.19437   4.21229   4.23237   4.24161   4.26103
 Alpha virt. eigenvalues --    4.26679   4.26844   4.27927   4.29999   4.30839
 Alpha virt. eigenvalues --    4.31498   4.32785   4.33500   4.34023   4.34779
 Alpha virt. eigenvalues --    4.36570   4.37878   4.38250   4.40371   4.40724
 Alpha virt. eigenvalues --    4.41883   4.43106   4.43424   4.45930   4.47204
 Alpha virt. eigenvalues --    4.48152   4.49243   4.51171   4.52699   4.54694
 Alpha virt. eigenvalues --    4.55113   4.56342   4.57731   4.58733   4.60836
 Alpha virt. eigenvalues --    4.61772   4.62748   4.64646   4.65630   4.66980
 Alpha virt. eigenvalues --    4.68367   4.69185   4.69685   4.70603   4.70764
 Alpha virt. eigenvalues --    4.71704   4.72421   4.73496   4.74888   4.75737
 Alpha virt. eigenvalues --    4.76439   4.77631   4.78716   4.79462   4.81074
 Alpha virt. eigenvalues --    4.81637   4.83767   4.85596   4.86063   4.87125
 Alpha virt. eigenvalues --    4.88042   4.88955   4.89394   4.90153   4.91659
 Alpha virt. eigenvalues --    4.92600   4.93227   4.96434   4.96674   5.00410
 Alpha virt. eigenvalues --    5.00560   5.01150   5.03258   5.05699   5.08097
 Alpha virt. eigenvalues --    5.08719   5.14006   5.15967   5.17119   5.19512
 Alpha virt. eigenvalues --    5.21801   5.26850   5.29138   5.33269   5.33327
 Alpha virt. eigenvalues --    5.35808   5.39742   5.44424   5.45271   5.47716
 Alpha virt. eigenvalues --    5.53291   5.55669   5.58536   5.61672   5.62734
 Alpha virt. eigenvalues --    5.64664   5.64842   5.66560   5.69724   5.74597
 Alpha virt. eigenvalues --    5.77606   5.78397   5.79509   5.82632   5.84762
 Alpha virt. eigenvalues --    5.88114   5.90263   5.91881   5.98361   6.03105
 Alpha virt. eigenvalues --    6.05270   6.06479   6.10016   6.11972   6.12979
 Alpha virt. eigenvalues --    6.14298   6.14733   6.15680   6.19225   6.23741
 Alpha virt. eigenvalues --    6.27367   6.30630   6.34900   6.41119   6.47902
 Alpha virt. eigenvalues --    6.52088   6.55151   6.73161   6.83018   6.84080
 Alpha virt. eigenvalues --    6.92914   6.95788   6.97709   6.99277   6.99761
 Alpha virt. eigenvalues --    7.01270   7.01904   7.04700   7.04785   7.05981
 Alpha virt. eigenvalues --    7.07248   7.07627   7.08061   7.09011   7.10591
 Alpha virt. eigenvalues --    7.11984   7.12240   7.12422   7.12570   7.12710
 Alpha virt. eigenvalues --    7.12866   7.13808   7.14243   7.14502   7.14966
 Alpha virt. eigenvalues --    7.16241   7.16499   7.16956   7.17584   7.17783
 Alpha virt. eigenvalues --    7.19188   7.19318   7.21705   7.24641   7.25041
 Alpha virt. eigenvalues --    7.25817   7.27123   7.30171   7.30316   7.36252
 Alpha virt. eigenvalues --    7.36296   7.39259   7.40092   7.42837   7.45441
 Alpha virt. eigenvalues --    7.46603   7.54397   7.54813   7.55099   7.57980
 Alpha virt. eigenvalues --    7.60179   7.61210   7.65272   7.68210   7.77968
 Alpha virt. eigenvalues --    7.78898   7.80429   7.81285   7.81754   7.86646
 Alpha virt. eigenvalues --    7.88366   7.91634   7.92879   7.97677   8.14221
 Alpha virt. eigenvalues --    8.27338   8.36226   8.36698   8.41024   8.42484
 Alpha virt. eigenvalues --    9.69552   9.70762   9.72339   9.72733   9.74194
 Alpha virt. eigenvalues --    9.75678   9.83059   9.84014   9.84484   9.87398
 Alpha virt. eigenvalues --    9.88327   9.92832  10.03433  10.05084  10.12463
 Alpha virt. eigenvalues --   10.14530  10.15130  10.15512  10.24877  10.25571
 Alpha virt. eigenvalues --   10.39310  10.44171  10.52615  10.55409  10.57486
 Alpha virt. eigenvalues --   10.59073  10.76704  10.77246  10.78901  10.83213
 Alpha virt. eigenvalues --   25.03358  25.38269  25.51739  25.61081  25.63701
 Alpha virt. eigenvalues --   25.67393  25.68619  25.76768  25.86611  25.89381
 Alpha virt. eigenvalues --   26.08004  26.31491  37.26805  37.34180  51.93595
 Alpha virt. eigenvalues --   68.84487  68.84865  68.86089  68.86524  68.88783
 Alpha virt. eigenvalues --   68.94805
          Condensed to atoms (all electrons):
               1          2          3          4          5          6
     1  C   27.099985  -0.316813  -1.313655  -0.136875  -0.181154  -0.792232
     2  N   -0.316813   6.971284   0.623925  -0.046423  -0.115674  -0.325044
     3  C   -1.313655   0.623925   7.471436   0.379769   0.292765  -1.115040
     4  O   -0.136875  -0.046423   0.379769   8.236753  -0.053309  -0.090416
     5  N   -0.181154  -0.115674   0.292765  -0.053309   6.740153   0.400091
     6  C   -0.792232  -0.325044  -1.115040  -0.090416   0.400091   7.399731
     7  C    0.009599  -0.010816   0.110253   0.035493  -0.168857  -0.570359
     8  C   -0.014474  -0.018593  -0.219950   0.002358  -0.032854   0.517172
     9  C   -8.638514   0.187182   0.005316   0.175130   0.011428   0.099648
    10  C   -8.735135   0.204758   0.374421   0.058820   0.038977   0.111874
    11  C    6.244203  -0.072856  -0.566596   0.012563  -0.009032  -0.049030
    12  C   -2.621787  -0.014707  -0.304810  -0.005420  -0.009398  -0.026326
    13  C    0.185607  -0.161781  -0.320648  -0.026500  -0.033808  -0.072374
    14  H    0.111525   0.357833   0.021448   0.002101   0.031211   0.024835
    15  H   -0.022972   0.021837  -0.022420  -0.000967   0.344553  -0.056425
    16  H   -0.016682   0.004396   0.053717  -0.007975  -0.051802   0.409232
    17  H    0.014149   0.007341   0.031433  -0.014660  -0.062410   0.484416
    18  H   -0.000587   0.004103   0.021118  -0.000651   0.000622  -0.039340
    19  H    0.002369   0.001394   0.003316  -0.000772   0.004305  -0.044880
    20  H   -0.000483  -0.000088  -0.000117   0.000497  -0.000906  -0.027237
    21  H   -0.000373  -0.000741  -0.002823   0.000340  -0.005292   0.011296
    22  H    0.000954   0.000664   0.006214   0.000287   0.000347  -0.025083
    23  H   -0.538048  -0.004742   0.055787  -0.018944   0.008208   0.023036
    24  H   -0.322602  -0.022621   0.002449  -0.000623   0.004384   0.006797
    25  C    0.327523  -0.011695  -0.231920   0.002742   0.003185  -0.003334
    26  C   -4.351100   0.018207   0.159397   0.008988   0.009799   0.018376
    27  H    0.084197  -0.000657  -0.003411  -0.000006   0.000074  -0.000424
    28  F    0.000948  -0.000015  -0.000050   0.000001   0.000002  -0.000001
    29  F    0.048486  -0.000076   0.000563   0.000001   0.000003   0.000003
    30  F   -0.001064   0.000081  -0.000423  -0.000001   0.000003   0.000001
    31  F    0.216670  -0.000783   0.002854  -0.000800  -0.000056  -0.000217
    32  F    0.045542   0.000010   0.003116   0.000008  -0.000005  -0.000004
    33  F   -0.017253   0.000159   0.000400   0.000015   0.000016   0.000039
               7          8          9         10         11         12
     1  C    0.009599  -0.014474  -8.638514  -8.735135   6.244203  -2.621787
     2  N   -0.010816  -0.018593   0.187182   0.204758  -0.072856  -0.014707
     3  C    0.110253  -0.219950   0.005316   0.374421  -0.566596  -0.304810
     4  O    0.035493   0.002358   0.175130   0.058820   0.012563  -0.005420
     5  N   -0.168857  -0.032854   0.011428   0.038977  -0.009032  -0.009398
     6  C   -0.570359   0.517172   0.099648   0.111874  -0.049030  -0.026326
     7  C    5.608969  -0.123536   0.031765  -0.002562   0.003409  -0.000928
     8  C   -0.123536   5.223985   0.003693   0.001598  -0.000320  -0.000177
     9  C    0.031765   0.003693  14.915913   1.289842  -1.224668  -0.692882
    10  C   -0.002562   0.001598   1.289842  26.716334  -1.133549  -4.250142
    11  C    0.003409  -0.000320  -1.224668  -1.133549  25.977415  -6.211810
    12  C   -0.000928  -0.000177  -0.692882  -4.250142  -6.211810  15.003959
    13  C   -0.003479  -0.001507  -1.623323  -1.839920  -7.270600   3.715193
    14  H   -0.011942  -0.000135  -0.039913  -0.013537  -0.001090  -0.093112
    15  H    0.036199  -0.008016  -0.003686  -0.001044  -0.000823   0.006392
    16  H   -0.018701  -0.018367   0.003918   0.001834  -0.001086  -0.000726
    17  H   -0.105944  -0.006745  -0.016473  -0.003553  -0.000351   0.001048
    18  H    0.412453  -0.027902   0.001885   0.000101   0.000079  -0.000098
    19  H    0.450949  -0.026932  -0.005054  -0.000373  -0.000328   0.000163
    20  H   -0.001738   0.427057   0.000081   0.000040  -0.000015  -0.000031
    21  H   -0.027383   0.408513   0.000313   0.000025   0.000008  -0.000006
    22  H   -0.008618   0.411687   0.000277  -0.000030   0.000038   0.000024
    23  H    0.001679   0.000949   0.652587   0.312125  -0.025081  -0.063423
    24  H    0.000291   0.000247   0.078452   0.092383  -0.165453   0.122495
    25  C    0.000254   0.000003  -1.988797   1.226730  -5.665452  -0.721606
    26  C   -0.001143   0.000216   2.823305  -7.962627  -2.933632   2.002217
    27  H   -0.000011  -0.000003  -0.023288  -0.042215   0.099751   0.386585
    28  F   -0.000000   0.000000   0.054527  -0.204219   0.025213   0.082279
    29  F    0.000000   0.000000  -0.004092   0.025416  -0.023464  -0.085809
    30  F    0.000000   0.000000  -0.008343   0.010281   0.018963  -0.106265
    31  F    0.000004  -0.000000   0.052275  -0.286542   0.065890  -0.018516
    32  F   -0.000002   0.000000   0.038633  -0.218439   0.028257   0.026150
    33  F   -0.000000   0.000000  -0.081678   0.137687  -0.099969  -0.008365
              13         14         15         16         17         18
     1  C    0.185607   0.111525  -0.022972  -0.016682   0.014149  -0.000587
     2  N   -0.161781   0.357833   0.021837   0.004396   0.007341   0.004103
     3  C   -0.320648   0.021448  -0.022420   0.053717   0.031433   0.021118
     4  O   -0.026500   0.002101  -0.000967  -0.007975  -0.014660  -0.000651
     5  N   -0.033808   0.031211   0.344553  -0.051802  -0.062410   0.000622
     6  C   -0.072374   0.024835  -0.056425   0.409232   0.484416  -0.039340
     7  C   -0.003479  -0.011942   0.036199  -0.018701  -0.105944   0.412453
     8  C   -0.001507  -0.000135  -0.008016  -0.018367  -0.006745  -0.027902
     9  C   -1.623323  -0.039913  -0.003686   0.003918  -0.016473   0.001885
    10  C   -1.839920  -0.013537  -0.001044   0.001834  -0.003553   0.000101
    11  C   -7.270600  -0.001090  -0.000823  -0.001086  -0.000351   0.000079
    12  C    3.715193  -0.093112   0.006392  -0.000726   0.001048  -0.000098
    13  C   12.396964  -0.075631   0.007009  -0.001527   0.004021  -0.000442
    14  H   -0.075631   0.515975  -0.009585   0.001508   0.001892   0.001517
    15  H    0.007009  -0.009585   0.520773   0.002771  -0.002848  -0.000249
    16  H   -0.001527   0.001508   0.002771   0.560669  -0.027397   0.008844
    17  H    0.004021   0.001892  -0.002848  -0.027397   0.601951  -0.010491
    18  H   -0.000442   0.001517  -0.000249   0.008844  -0.010491   0.684892
    19  H    0.001060  -0.000031   0.000799  -0.005593   0.006927  -0.062343
    20  H   -0.000155  -0.000009   0.000139   0.002017  -0.003373  -0.009086
    21  H   -0.000054  -0.000157   0.000842  -0.001383  -0.002366  -0.005970
    22  H    0.000086  -0.000140   0.000765  -0.001915   0.000662   0.005349
    23  H   -0.082748  -0.005408   0.001302   0.000413  -0.002505  -0.000105
    24  H    0.534078  -0.002182   0.000992   0.000069  -0.000217  -0.000090
    25  C   -0.858541  -0.006850   0.000005  -0.000188   0.000024   0.000000
    26  C    1.642609  -0.013574   0.000469   0.000144   0.000052   0.000002
    27  H   -0.102573   0.001539  -0.000038  -0.000022   0.000026  -0.000000
    28  F    0.006675   0.000024   0.000000  -0.000000   0.000000  -0.000000
    29  F    0.080011   0.000095   0.000001  -0.000000   0.000000  -0.000000
    30  F   -0.018636  -0.000000  -0.000001  -0.000000  -0.000000   0.000000
    31  F   -0.011422   0.000442  -0.000033   0.000030   0.000004   0.000001
    32  F    0.006903   0.000139   0.000000  -0.000005   0.000005  -0.000000
    33  F   -0.002054  -0.000008  -0.000000   0.000001  -0.000001  -0.000000
              19         20         21         22         23         24
     1  C    0.002369  -0.000483  -0.000373   0.000954  -0.538048  -0.322602
     2  N    0.001394  -0.000088  -0.000741   0.000664  -0.004742  -0.022621
     3  C    0.003316  -0.000117  -0.002823   0.006214   0.055787   0.002449
     4  O   -0.000772   0.000497   0.000340   0.000287  -0.018944  -0.000623
     5  N    0.004305  -0.000906  -0.005292   0.000347   0.008208   0.004384
     6  C   -0.044880  -0.027237   0.011296  -0.025083   0.023036   0.006797
     7  C    0.450949  -0.001738  -0.027383  -0.008618   0.001679   0.000291
     8  C   -0.026932   0.427057   0.408513   0.411687   0.000949   0.000247
     9  C   -0.005054   0.000081   0.000313   0.000277   0.652587   0.078452
    10  C   -0.000373   0.000040   0.000025  -0.000030   0.312125   0.092383
    11  C   -0.000328  -0.000015   0.000008   0.000038  -0.025081  -0.165453
    12  C    0.000163  -0.000031  -0.000006   0.000024  -0.063423   0.122495
    13  C    0.001060  -0.000155  -0.000054   0.000086  -0.082748   0.534078
    14  H   -0.000031  -0.000009  -0.000157  -0.000140  -0.005408  -0.002182
    15  H    0.000799   0.000139   0.000842   0.000765   0.001302   0.000992
    16  H   -0.005593   0.002017  -0.001383  -0.001915   0.000413   0.000069
    17  H    0.006927  -0.003373  -0.002366   0.000662  -0.002505  -0.000217
    18  H   -0.062343  -0.009086  -0.005970   0.005349  -0.000105  -0.000090
    19  H    0.622259   0.004292  -0.007341  -0.007646  -0.000222  -0.000038
    20  H    0.004292   0.620238  -0.029214  -0.040611   0.000049   0.000003
    21  H   -0.007341  -0.029214   0.602271  -0.024501   0.000044   0.000009
    22  H   -0.007646  -0.040611  -0.024501   0.617313  -0.000010  -0.000004
    23  H   -0.000222   0.000049   0.000044  -0.000010   0.447127   0.002804
    24  H   -0.000038   0.000003   0.000009  -0.000004   0.002804   0.538925
    25  C   -0.000031  -0.000002   0.000001   0.000002  -0.029078  -0.013800
    26  C    0.000028  -0.000008  -0.000001  -0.000005   0.030372   0.052587
    27  H    0.000002  -0.000000  -0.000000   0.000000  -0.000428  -0.019999
    28  F   -0.000000  -0.000000  -0.000000   0.000000  -0.000538   0.000116
    29  F    0.000000  -0.000000   0.000000  -0.000000  -0.000150  -0.000438
    30  F   -0.000000  -0.000000   0.000000   0.000000   0.000315  -0.000372
    31  F   -0.000001  -0.000000  -0.000000  -0.000000  -0.027156  -0.000347
    32  F    0.000000   0.000000  -0.000000  -0.000000  -0.004751  -0.000153
    33  F    0.000000   0.000000   0.000000  -0.000000   0.003140  -0.000000
              25         26         27         28         29         30
     1  C    0.327523  -4.351100   0.084197   0.000948   0.048486  -0.001064
     2  N   -0.011695   0.018207  -0.000657  -0.000015  -0.000076   0.000081
     3  C   -0.231920   0.159397  -0.003411  -0.000050   0.000563  -0.000423
     4  O    0.002742   0.008988  -0.000006   0.000001   0.000001  -0.000001
     5  N    0.003185   0.009799   0.000074   0.000002   0.000003   0.000003
     6  C   -0.003334   0.018376  -0.000424  -0.000001   0.000003   0.000001
     7  C    0.000254  -0.001143  -0.000011  -0.000000   0.000000   0.000000
     8  C    0.000003   0.000216  -0.000003   0.000000   0.000000   0.000000
     9  C   -1.988797   2.823305  -0.023288   0.054527  -0.004092  -0.008343
    10  C    1.226730  -7.962627  -0.042215  -0.204219   0.025416   0.010281
    11  C   -5.665452  -2.933632   0.099751   0.025213  -0.023464   0.018963
    12  C   -0.721606   2.002217   0.386585   0.082279  -0.085809  -0.106265
    13  C   -0.858541   1.642609  -0.102573   0.006675   0.080011  -0.018636
    14  H   -0.006850  -0.013574   0.001539   0.000024   0.000095  -0.000000
    15  H    0.000005   0.000469  -0.000038   0.000000   0.000001  -0.000001
    16  H   -0.000188   0.000144  -0.000022  -0.000000  -0.000000  -0.000000
    17  H    0.000024   0.000052   0.000026   0.000000   0.000000  -0.000000
    18  H    0.000000   0.000002  -0.000000  -0.000000  -0.000000   0.000000
    19  H   -0.000031   0.000028   0.000002  -0.000000   0.000000  -0.000000
    20  H   -0.000002  -0.000008  -0.000000  -0.000000  -0.000000  -0.000000
    21  H    0.000001  -0.000001  -0.000000  -0.000000   0.000000   0.000000
    22  H    0.000002  -0.000005   0.000000   0.000000  -0.000000   0.000000
    23  H   -0.029078   0.030372  -0.000428  -0.000538  -0.000150   0.000315
    24  H   -0.013800   0.052587  -0.019999   0.000116  -0.000438  -0.000372
    25  C   17.282556  -5.178969   0.002112   0.024043   0.123743   0.294571
    26  C   -5.178969  17.742483  -0.038669   0.157940   0.001307  -0.030872
    27  H    0.002112  -0.038669   0.479949   0.001303  -0.016357  -0.000440
    28  F    0.024043   0.157940   0.001303   9.049741   0.020907   0.030768
    29  F    0.123743   0.001307  -0.016357   0.020907   9.125283   0.004592
    30  F    0.294571  -0.030872  -0.000440   0.030768   0.004592   9.048185
    31  F    0.021994   0.166091  -0.000087  -0.001215   0.000076   0.000157
    32  F   -0.075868   0.320310   0.000156   0.009955   0.000009  -0.001127
    33  F    0.146094   0.071203  -0.000020   0.014735  -0.001317   0.010694
              31         32         33
     1  C    0.216670   0.045542  -0.017253
     2  N   -0.000783   0.000010   0.000159
     3  C    0.002854   0.003116   0.000400
     4  O   -0.000800   0.000008   0.000015
     5  N   -0.000056  -0.000005   0.000016
     6  C   -0.000217  -0.000004   0.000039
     7  C    0.000004  -0.000002  -0.000000
     8  C   -0.000000   0.000000   0.000000
     9  C    0.052275   0.038633  -0.081678
    10  C   -0.286542  -0.218439   0.137687
    11  C    0.065890   0.028257  -0.099969
    12  C   -0.018516   0.026150  -0.008365
    13  C   -0.011422   0.006903  -0.002054
    14  H    0.000442   0.000139  -0.000008
    15  H   -0.000033   0.000000  -0.000000
    16  H    0.000030  -0.000005   0.000001
    17  H    0.000004   0.000005  -0.000001
    18  H    0.000001  -0.000000  -0.000000
    19  H   -0.000001   0.000000   0.000000
    20  H   -0.000000   0.000000   0.000000
    21  H   -0.000000  -0.000000   0.000000
    22  H   -0.000000  -0.000000  -0.000000
    23  H   -0.027156  -0.004751   0.003140
    24  H   -0.000347  -0.000153  -0.000000
    25  C    0.021994  -0.075868   0.146094
    26  C    0.166091   0.320310   0.071203
    27  H   -0.000087   0.000156  -0.000020
    28  F   -0.001215   0.009955   0.014735
    29  F    0.000076   0.000009  -0.001317
    30  F    0.000157  -0.001127   0.010694
    31  F    9.075034   0.003688   0.020953
    32  F    0.003688   9.033428   0.030832
    33  F    0.020953   0.030832   9.046437
 Mulliken charges:
               1
     1  C   -0.369952
     2  N   -0.279047
     3  C    0.482165
     4  O   -0.511525
     5  N   -0.165570
     6  C   -0.268781
     7  C    0.354703
     8  C   -0.497968
     9  C   -0.075460
    10  C    0.090642
    11  C   -1.020581
    12  C   -0.110162
    13  C   -0.072491
    14  H    0.201221
    15  H    0.184256
    16  H    0.103807
    17  H    0.105384
    18  H    0.016389
    19  H    0.063722
    20  H    0.058662
    21  H    0.083944
    22  H    0.063893
    23  H    0.263400
    24  H    0.111861
    25  C    1.330550
    26  C    1.284498
    27  H    0.192955
    28  F   -0.273139
    29  F   -0.298793
    30  F   -0.251067
    31  F   -0.278987
    32  F   -0.246789
    33  F   -0.271738
 Sum of Mulliken charges =  -0.00000
 Mulliken charges with hydrogens summed into heavy atoms:
               1
     1  C   -0.369952
     2  N   -0.077826
     3  C    0.482165
     4  O   -0.511525
     5  N    0.018686
     6  C   -0.059590
     7  C    0.434813
     8  C   -0.291469
     9  C    0.187940
    10  C    0.090642
    11  C   -1.020581
    12  C    0.082793
    13  C    0.039370
    25  C    1.330550
    26  C    1.284498
    28  F   -0.273139
    29  F   -0.298793
    30  F   -0.251067
    31  F   -0.278987
    32  F   -0.246789
    33  F   -0.271738
 Electronic spatial extent (au):  <R**2>=           9549.5965
 Charge=             -0.0000 electrons
 Dipole moment (field-independent basis, Debye):
    X=              7.2035    Y=             -5.7307    Z=             -1.1559  Tot=              9.2773
 Quadrupole moment (field-independent basis, Debye-Ang):
   XX=           -113.6728   YY=           -115.4771   ZZ=           -123.0710
   XY=             -6.6480   XZ=             -4.1298   YZ=              0.4985
 Traceless Quadrupole moment (field-independent basis, Debye-Ang):
   XX=              3.7342   YY=              1.9298   ZZ=             -5.6640
   XY=             -6.6480   XZ=             -4.1298   YZ=              0.4985
 Octapole moment (field-independent basis, Debye-Ang**2):
  XXX=            109.6119  YYY=            -10.4259  ZZZ=              1.0325  XYY=            -18.9379
  XXY=            -15.3860  XXZ=            -12.4688  XZZ=            -23.3301  YZZ=             12.3374
  YYZ=             -3.6483  XYZ=              4.6475
 Hexadecapole moment (field-independent basis, Debye-Ang**3):
 XXXX=          -9594.8849 YYYY=          -1311.4076 ZZZZ=           -278.8430 XXXY=           -135.1883
 XXXZ=            -54.8497 YYYX=            -53.2802 YYYZ=              6.1666 ZZZX=             -4.4560
 ZZZY=             -4.4101 XXYY=          -1913.2436 XXZZ=          -1743.6836 YYZZ=           -288.1559
 XXYZ=             22.4099 YYXZ=             -9.4338 ZZXY=             -6.6720
 N-N= 1.781109978761D+03 E-N=-6.498021755748D+03  KE= 1.241129151573D+03
 1\1\GINC-R4503\SP\RMP2-FC\Gen\C12H12F6N2O1\ROOT\30-Nov-2019\0\\# MP2/G
 en 5D SCF=Tight INT(grid=ultrafine) maxdisk=3489660928\\NM2.MP2_GTMP2L
 ARGE\\0,1\C,0,-5.9099550208,1.1029102801,0.205943735\N,0,-4.6494767407
 ,0.5182841404,0.0777892364\C,0,-3.4138117188,1.1630544142,0.1461509459
 \O,0,-3.2849333303,2.3475327393,0.3578042168\N,0,-2.3540075044,0.30926
 53719,-0.0209191281\C,0,-1.0062482953,0.8624790515,-0.0817512412\C,0,0
 .0280975331,-0.2528611764,-0.0502013951\C,0,1.4484660143,0.3008155964,
 -0.1048682475\C,0,-6.1274416311,2.484471159,0.1430033865\C,0,-7.414131
 9609,2.9940043568,0.2479216523\C,0,-8.5133997698,2.144129899,0.4285202
 959\C,0,-8.2862282832,0.7731861788,0.479640616\C,0,-7.0074316598,0.256
 4419841,0.3714194019\H,0,-4.6362012495,-0.4894107678,0.1293869442\H,0,
 -2.5094227633,-0.550433239,-0.527548491\H,0,-0.8831189383,1.524788659,
 0.7765518953\H,0,-0.8826544472,1.4787579946,-0.9799953312\H,0,-0.13404
 31108,-0.9289267974,-0.8982055488\H,0,-0.1138658777,-0.8451207642,0.85
 86148971\H,0,1.6129378672,0.8769409254,-1.0184913194\H,0,2.1869941428,
 -0.5016664591,-0.0800088839\H,0,1.6445455155,0.9605415683,0.7435347149
 \H,0,-5.2906362333,3.1527747816,0.0160013344\H,0,-6.8611330525,-0.8179
 860945,0.4200742544\C,0,-9.9405732722,2.6232346345,0.5358963699\C,0,-7
 .5514864036,4.5022174458,0.193885837\H,0,-9.1214485945,0.0987615974,0.
 6164686543\F,0,-10.0649794547,3.6980410318,1.3196454496\F,0,-10.728008
 1479,1.6685333292,1.0599639754\F,0,-10.4643725553,2.9303579665,-0.6588
 691509\F,0,-6.469213274,5.0731571004,-0.3491007019\F,0,-7.6946869392,5
 .0289562193,1.416205448\F,0,-8.6009508436,4.8863368726,-0.5400438223\\
 Version=ES64L-G09RevE.01\State=1-A\HF=-1242.2748727\MP2=-1246.2930892\
 RMSD=3.890e-09\PG=C01 [X(C12H12F6N2O1)]\\@


 When cryptography is outlawed, bayl bhgynjf jvyy unir cevinpl.
 Job cpu time:       0 days  8 hours 28 minutes 21.4 seconds.
 File lengths (MBytes):  RWF=    372 Int=      0 D2E=      0 Chk=     41 Scr=      1
 Normal termination of Gaussian 09 at Sat Nov 30 16:10:39 2019.
pbs_rusage has been removed.
Please contact help@nci.org.au if you require this functionality.
