 Entering Gaussian System, Link 0=/apps/gaussian/g09e01/g09/g09
 Initial command:
 /apps/gaussian/g09e01/g09/l1.exe "/jobfs/local/3579236.r-man2/Gau-13288.inp" -scrdir="/jobfs/local/3579236.r-man2/"
 Entering Link 1 = /apps/gaussian/g09e01/g09/l1.exe PID=     13289.
  
 Copyright (c) 1988,1990,1992,1993,1995,1998,2003,2009,2015,
            Gaussian, Inc.  All Rights Reserved.
  
 This is part of the Gaussian(R) 09 program.  It is based on
 the Gaussian(R) 03 system (copyright 2003, Gaussian, Inc.),
 the Gaussian(R) 98 system (copyright 1998, Gaussian, Inc.),
 the Gaussian(R) 94 system (copyright 1995, Gaussian, Inc.),
 the Gaussian 92(TM) system (copyright 1992, Gaussian, Inc.),
 the Gaussian 90(TM) system (copyright 1990, Gaussian, Inc.),
 the Gaussian 88(TM) system (copyright 1988, Gaussian, Inc.),
 the Gaussian 86(TM) system (copyright 1986, Carnegie Mellon
 University), and the Gaussian 82(TM) system (copyright 1983,
 Carnegie Mellon University). Gaussian is a federally registered
 trademark of Gaussian, Inc.
  
 This software contains proprietary and confidential information,
 including trade secrets, belonging to Gaussian, Inc.
  
 This software is provided under written license and may be
 used, copied, transmitted, or stored only in accord with that
 written license.
  
 The following legend is applicable only to US Government
 contracts under FAR:
  
                    RESTRICTED RIGHTS LEGEND
  
 Use, reproduction and disclosure by the US Government is
 subject to restrictions as set forth in subparagraphs (a)
 and (c) of the Commercial Computer Software - Restricted
 Rights clause in FAR 52.227-19.
  
 Gaussian, Inc.
 340 Quinnipiac St., Bldg. 40, Wallingford CT 06492
  
  
 ---------------------------------------------------------------
 Warning -- This program may not be used in any manner that
 competes with the business of Gaussian, Inc. or will provide
 assistance to any competitor of Gaussian, Inc.  The licensee
 of this program is prohibited from giving any competitor of
 Gaussian, Inc. access to this program.  By using this program,
 the user acknowledges that Gaussian, Inc. is engaged in the
 business of creating and licensing software in the field of
 computational chemistry and represents and warrants to the
 licensee that it is not a competitor of Gaussian, Inc. and that
 it will not use this program in any manner prohibited above.
 ---------------------------------------------------------------
  

 Cite this work as:
 Gaussian 09, Revision E.01,
 M. J. Frisch, G. W. Trucks, H. B. Schlegel, G. E. Scuseria, 
 M. A. Robb, J. R. Cheeseman, G. Scalmani, V. Barone, B. Mennucci, 
 G. A. Petersson, H. Nakatsuji, M. Caricato, X. Li, H. P. Hratchian, 
 A. F. Izmaylov, J. Bloino, G. Zheng, J. L. Sonnenberg, M. Hada, 
 M. Ehara, K. Toyota, R. Fukuda, J. Hasegawa, M. Ishida, T. Nakajima, 
 Y. Honda, O. Kitao, H. Nakai, T. Vreven, J. A. Montgomery, Jr., 
 J. E. Peralta, F. Ogliaro, M. Bearpark, J. J. Heyd, E. Brothers, 
 K. N. Kudin, V. N. Staroverov, T. Keith, R. Kobayashi, J. Normand, 
 K. Raghavachari, A. Rendell, J. C. Burant, S. S. Iyengar, J. Tomasi, 
 M. Cossi, N. Rega, J. M. Millam, M. Klene, J. E. Knox, J. B. Cross, 
 V. Bakken, C. Adamo, J. Jaramillo, R. Gomperts, R. E. Stratmann, 
 O. Yazyev, A. J. Austin, R. Cammi, C. Pomelli, J. W. Ochterski, 
 R. L. Martin, K. Morokuma, V. G. Zakrzewski, G. A. Voth, 
 P. Salvador, J. J. Dannenberg, S. Dapprich, A. D. Daniels, 
 O. Farkas, J. B. Foresman, J. V. Ortiz, J. Cioslowski, 
 and D. J. Fox, Gaussian, Inc., Wallingford CT, 2013.
 
 ******************************************
 Gaussian 09:  ES64L-G09RevE.01 30-Nov-2015
                14-Nov-2019 
 ******************************************
 %chk=NM2.M062X_6-311pGd_opt_GD3.chk
 %mem=196608000
 %nproc=8
 Will use up to    8 processors via shared memory.
 ----------------------------------------------------------------------
 # M062X/6-311+G* SCF=Tight INT(grid=ultrafine) OPT IOP(2/17=4) Empiric
 alDispersion=GD3 maxdisk=2684354560
 ----------------------------------------------------------------------
 1/14=-1,18=20,19=15,26=4,38=1/1,3;
 2/9=110,12=2,17=4,18=5,40=1/2;
 3/5=4,6=6,7=11,11=2,16=1,25=1,30=1,71=1,74=-55,75=-5,124=31/1,2,3;
 4//1;
 5/5=2,32=2,38=5/2;
 6/7=2,8=2,9=2,10=2,28=1/1;
 7//1,2,3,16;
 1/14=-1,18=20,19=15,26=4/3(2);
 2/9=110,17=4/2;
 99//99;
 2/9=110,17=4/2;
 3/5=4,6=6,7=11,11=2,16=1,25=1,30=1,71=1,74=-55,75=-5,124=31/1,2,3;
 4/5=5,16=3,69=1/1;
 5/5=2,32=2,38=5/2;
 7//1,2,3,16;
 1/14=-1,18=20,19=15,26=4/3(-5);
 2/9=110,17=4/2;
 6/7=2,8=2,9=2,10=2,19=2,28=1/1;
 99/9=1/99;
 --------------------------
 NM2.M062X_6-311pGd_opt_GD3
 --------------------------
 Symbolic Z-matrix:
 Charge =  0 Multiplicity = 1
 C                    -5.90996   1.10291   0.20594 
 N                    -4.64948   0.51828   0.07779 
 C                    -3.41381   1.16305   0.14615 
 O                    -3.28493   2.34753   0.3578 
 N                    -2.35401   0.30927  -0.02092 
 C                    -1.00625   0.86248  -0.08175 
 C                     0.0281   -0.25286  -0.0502 
 C                     1.44847   0.30082  -0.10487 
 C                    -6.12744   2.48447   0.143 
 C                    -7.41413   2.994     0.24792 
 C                    -8.5134    2.14413   0.42852 
 C                    -8.28623   0.77319   0.47964 
 C                    -7.00743   0.25644   0.37142 
 H                    -4.6362   -0.48941   0.12939 
 H                    -2.50942  -0.55043  -0.52755 
 H                    -0.88312   1.52479   0.77655 
 H                    -0.88265   1.47876  -0.98 
 H                    -0.13404  -0.92893  -0.89821 
 H                    -0.11387  -0.84512   0.85861 
 H                     1.61294   0.87694  -1.01849 
 H                     2.18699  -0.50167  -0.08001 
 H                     1.64455   0.96054   0.74353 
 H                    -5.29064   3.15277   0.016 
 H                    -6.86113  -0.81799   0.42007 
 C                    -9.94057   2.62323   0.5359 
 C                    -7.55149   4.50222   0.19389 
 H                    -9.12145   0.09876   0.61647 
 F                    -10.06498   3.69804   1.31965 
 F                    -10.72801   1.66853   1.05996 
 F                    -10.46437   2.93036  -0.65887 
 F                    -6.46921   5.07316  -0.3491 
 F                    -7.69469   5.02896   1.41621 
 F                    -8.60095   4.88634  -0.54004 
 

 GradGradGradGradGradGradGradGradGradGradGradGradGradGradGradGradGradGrad
 Berny optimization.
 Initialization pass.
                           ----------------------------
                           !    Initial Parameters    !
                           ! (Angstroms and Degrees)  !
 --------------------------                            --------------------------
 ! Name  Definition              Value          Derivative Info.                !
 --------------------------------------------------------------------------------
 ! R1    R(1,2)                  1.3954         estimate D2E/DX2                !
 ! R2    R(1,9)                  1.4            estimate D2E/DX2                !
 ! R3    R(1,13)                 1.3958         estimate D2E/DX2                !
 ! R4    R(2,3)                  1.3954         estimate D2E/DX2                !
 ! R5    R(2,14)                 1.0091         estimate D2E/DX2                !
 ! R6    R(3,4)                  1.2101         estimate D2E/DX2                !
 ! R7    R(3,5)                  1.3712         estimate D2E/DX2                !
 ! R8    R(5,6)                  1.4581         estimate D2E/DX2                !
 ! R9    R(5,15)                 1.0099         estimate D2E/DX2                !
 ! R10   R(6,7)                  1.5215         estimate D2E/DX2                !
 ! R11   R(6,16)                 1.0911         estimate D2E/DX2                !
 ! R12   R(6,17)                 1.0963         estimate D2E/DX2                !
 ! R13   R(7,8)                  1.5254         estimate D2E/DX2                !
 ! R14   R(7,18)                 1.0966         estimate D2E/DX2                !
 ! R15   R(7,19)                 1.094          estimate D2E/DX2                !
 ! R16   R(8,20)                 1.0926         estimate D2E/DX2                !
 ! R17   R(8,21)                 1.0909         estimate D2E/DX2                !
 ! R18   R(8,22)                 1.0925         estimate D2E/DX2                !
 ! R19   R(9,10)                 1.3879         estimate D2E/DX2                !
 ! R20   R(9,23)                 1.0784         estimate D2E/DX2                !
 ! R21   R(10,11)                1.4012         estimate D2E/DX2                !
 ! R22   R(10,26)                1.5154         estimate D2E/DX2                !
 ! R23   R(11,12)                1.3906         estimate D2E/DX2                !
 ! R24   R(11,25)                1.5093         estimate D2E/DX2                !
 ! R25   R(12,13)                1.3835         estimate D2E/DX2                !
 ! R26   R(12,27)                1.0822         estimate D2E/DX2                !
 ! R27   R(13,24)                1.0854         estimate D2E/DX2                !
 ! R28   R(25,28)                1.336          estimate D2E/DX2                !
 ! R29   R(25,29)                1.3439         estimate D2E/DX2                !
 ! R30   R(25,30)                1.3402         estimate D2E/DX2                !
 ! R31   R(26,31)                1.3387         estimate D2E/DX2                !
 ! R32   R(26,32)                1.3387         estimate D2E/DX2                !
 ! R33   R(26,33)                1.337          estimate D2E/DX2                !
 ! A1    A(2,1,9)              123.3442         estimate D2E/DX2                !
 ! A2    A(2,1,13)             117.8436         estimate D2E/DX2                !
 ! A3    A(9,1,13)             118.7919         estimate D2E/DX2                !
 ! A4    A(1,2,3)              126.9999         estimate D2E/DX2                !
 ! A5    A(1,2,14)             115.1876         estimate D2E/DX2                !
 ! A6    A(3,2,14)             116.5677         estimate D2E/DX2                !
 ! A7    A(2,3,4)              123.7201         estimate D2E/DX2                !
 ! A8    A(2,3,5)              113.001          estimate D2E/DX2                !
 ! A9    A(4,3,5)              123.2628         estimate D2E/DX2                !
 ! A10   A(3,5,6)              118.8983         estimate D2E/DX2                !
 ! A11   A(3,5,15)             118.1802         estimate D2E/DX2                !
 ! A12   A(6,5,15)             116.3771         estimate D2E/DX2                !
 ! A13   A(5,6,7)              110.4494         estimate D2E/DX2                !
 ! A14   A(5,6,16)             107.5648         estimate D2E/DX2                !
 ! A15   A(5,6,17)             110.5884         estimate D2E/DX2                !
 ! A16   A(7,6,16)             110.6067         estimate D2E/DX2                !
 ! A17   A(7,6,17)             110.6362         estimate D2E/DX2                !
 ! A18   A(16,6,17)            106.8922         estimate D2E/DX2                !
 ! A19   A(6,7,8)              111.4807         estimate D2E/DX2                !
 ! A20   A(6,7,18)             109.5969         estimate D2E/DX2                !
 ! A21   A(6,7,19)             109.018          estimate D2E/DX2                !
 ! A22   A(8,7,18)             109.4958         estimate D2E/DX2                !
 ! A23   A(8,7,19)             110.3093         estimate D2E/DX2                !
 ! A24   A(18,7,19)            106.8257         estimate D2E/DX2                !
 ! A25   A(7,8,20)             111.1943         estimate D2E/DX2                !
 ! A26   A(7,8,21)             111.2567         estimate D2E/DX2                !
 ! A27   A(7,8,22)             111.0067         estimate D2E/DX2                !
 ! A28   A(20,8,21)            107.7613         estimate D2E/DX2                !
 ! A29   A(20,8,22)            107.6949         estimate D2E/DX2                !
 ! A30   A(21,8,22)            107.7599         estimate D2E/DX2                !
 ! A31   A(1,9,10)             120.1935         estimate D2E/DX2                !
 ! A32   A(1,9,23)             119.7553         estimate D2E/DX2                !
 ! A33   A(10,9,23)            120.0508         estimate D2E/DX2                !
 ! A34   A(9,10,11)            120.9571         estimate D2E/DX2                !
 ! A35   A(9,10,26)            116.5334         estimate D2E/DX2                !
 ! A36   A(11,10,26)           122.4897         estimate D2E/DX2                !
 ! A37   A(10,11,12)           118.3303         estimate D2E/DX2                !
 ! A38   A(10,11,25)           123.9512         estimate D2E/DX2                !
 ! A39   A(12,11,25)           117.6987         estimate D2E/DX2                !
 ! A40   A(11,12,13)           121.0883         estimate D2E/DX2                !
 ! A41   A(11,12,27)           119.5355         estimate D2E/DX2                !
 ! A42   A(13,12,27)           119.3731         estimate D2E/DX2                !
 ! A43   A(1,13,12)            120.632          estimate D2E/DX2                !
 ! A44   A(1,13,24)            119.9747         estimate D2E/DX2                !
 ! A45   A(12,13,24)           119.393          estimate D2E/DX2                !
 ! A46   A(11,25,28)           112.6539         estimate D2E/DX2                !
 ! A47   A(11,25,29)           110.8723         estimate D2E/DX2                !
 ! A48   A(11,25,30)           112.2654         estimate D2E/DX2                !
 ! A49   A(28,25,29)           106.7486         estimate D2E/DX2                !
 ! A50   A(28,25,30)           107.5909         estimate D2E/DX2                !
 ! A51   A(29,25,30)           106.3454         estimate D2E/DX2                !
 ! A52   A(10,26,31)           111.4474         estimate D2E/DX2                !
 ! A53   A(10,26,32)           111.6384         estimate D2E/DX2                !
 ! A54   A(10,26,33)           112.1264         estimate D2E/DX2                !
 ! A55   A(31,26,32)           106.7994         estimate D2E/DX2                !
 ! A56   A(31,26,33)           106.8221         estimate D2E/DX2                !
 ! A57   A(32,26,33)           107.7109         estimate D2E/DX2                !
 ! D1    D(9,1,2,3)             14.1216         estimate D2E/DX2                !
 ! D2    D(9,1,2,14)          -179.158          estimate D2E/DX2                !
 ! D3    D(13,1,2,3)          -167.5376         estimate D2E/DX2                !
 ! D4    D(13,1,2,14)           -0.8171         estimate D2E/DX2                !
 ! D5    D(2,1,9,10)           178.5023         estimate D2E/DX2                !
 ! D6    D(2,1,9,23)            -1.7096         estimate D2E/DX2                !
 ! D7    D(13,1,9,10)            0.1764         estimate D2E/DX2                !
 ! D8    D(13,1,9,23)          179.9645         estimate D2E/DX2                !
 ! D9    D(2,1,13,12)         -178.8142         estimate D2E/DX2                !
 ! D10   D(2,1,13,24)            1.4213         estimate D2E/DX2                !
 ! D11   D(9,1,13,12)           -0.3957         estimate D2E/DX2                !
 ! D12   D(9,1,13,24)          179.8398         estimate D2E/DX2                !
 ! D13   D(1,2,3,4)              1.4929         estimate D2E/DX2                !
 ! D14   D(1,2,3,5)           -179.9275         estimate D2E/DX2                !
 ! D15   D(14,2,3,4)          -165.0685         estimate D2E/DX2                !
 ! D16   D(14,2,3,5)            13.5111         estimate D2E/DX2                !
 ! D17   D(2,3,5,6)            175.0625         estimate D2E/DX2                !
 ! D18   D(2,3,5,15)            24.4363         estimate D2E/DX2                !
 ! D19   D(4,3,5,6)             -6.3503         estimate D2E/DX2                !
 ! D20   D(4,3,5,15)          -156.9766         estimate D2E/DX2                !
 ! D21   D(3,5,6,7)            171.1626         estimate D2E/DX2                !
 ! D22   D(3,5,6,16)            50.3638         estimate D2E/DX2                !
 ! D23   D(3,5,6,17)           -66.0265         estimate D2E/DX2                !
 ! D24   D(15,5,6,7)           -37.6934         estimate D2E/DX2                !
 ! D25   D(15,5,6,16)         -158.4921         estimate D2E/DX2                !
 ! D26   D(15,5,6,17)           85.1176         estimate D2E/DX2                !
 ! D27   D(5,6,7,8)           -179.6795         estimate D2E/DX2                !
 ! D28   D(5,6,7,18)            58.9343         estimate D2E/DX2                !
 ! D29   D(5,6,7,19)           -57.6627         estimate D2E/DX2                !
 ! D30   D(16,6,7,8)           -60.7127         estimate D2E/DX2                !
 ! D31   D(16,6,7,18)          177.9011         estimate D2E/DX2                !
 ! D32   D(16,6,7,19)           61.3042         estimate D2E/DX2                !
 ! D33   D(17,6,7,8)            57.5374         estimate D2E/DX2                !
 ! D34   D(17,6,7,18)          -63.8488         estimate D2E/DX2                !
 ! D35   D(17,6,7,19)          179.5543         estimate D2E/DX2                !
 ! D36   D(6,7,8,20)           -59.9886         estimate D2E/DX2                !
 ! D37   D(6,7,8,21)           179.8849         estimate D2E/DX2                !
 ! D38   D(6,7,8,22)            59.8863         estimate D2E/DX2                !
 ! D39   D(18,7,8,20)           61.4564         estimate D2E/DX2                !
 ! D40   D(18,7,8,21)          -58.6702         estimate D2E/DX2                !
 ! D41   D(18,7,8,22)         -178.6687         estimate D2E/DX2                !
 ! D42   D(19,7,8,20)          178.7433         estimate D2E/DX2                !
 ! D43   D(19,7,8,21)           58.6168         estimate D2E/DX2                !
 ! D44   D(19,7,8,22)          -61.3818         estimate D2E/DX2                !
 ! D45   D(1,9,10,11)            0.5171         estimate D2E/DX2                !
 ! D46   D(1,9,10,26)          178.9387         estimate D2E/DX2                !
 ! D47   D(23,9,10,11)        -179.2704         estimate D2E/DX2                !
 ! D48   D(23,9,10,26)          -0.8488         estimate D2E/DX2                !
 ! D49   D(9,10,11,12)          -0.9758         estimate D2E/DX2                !
 ! D50   D(9,10,11,25)        -179.3153         estimate D2E/DX2                !
 ! D51   D(26,10,11,12)       -179.3015         estimate D2E/DX2                !
 ! D52   D(26,10,11,25)          2.359          estimate D2E/DX2                !
 ! D53   D(9,10,26,31)          19.0883         estimate D2E/DX2                !
 ! D54   D(9,10,26,32)        -100.2465         estimate D2E/DX2                !
 ! D55   D(9,10,26,33)         138.7833         estimate D2E/DX2                !
 ! D56   D(11,10,26,31)       -162.5165         estimate D2E/DX2                !
 ! D57   D(11,10,26,32)         78.1488         estimate D2E/DX2                !
 ! D58   D(11,10,26,33)        -42.8215         estimate D2E/DX2                !
 ! D59   D(10,11,12,13)          0.7566         estimate D2E/DX2                !
 ! D60   D(10,11,12,27)       -179.8775         estimate D2E/DX2                !
 ! D61   D(25,11,12,13)        179.201          estimate D2E/DX2                !
 ! D62   D(25,11,12,27)         -1.4332         estimate D2E/DX2                !
 ! D63   D(10,11,25,28)        -43.5963         estimate D2E/DX2                !
 ! D64   D(10,11,25,29)       -163.1567         estimate D2E/DX2                !
 ! D65   D(10,11,25,30)         78.055          estimate D2E/DX2                !
 ! D66   D(12,11,25,28)        138.0545         estimate D2E/DX2                !
 ! D67   D(12,11,25,29)         18.4941         estimate D2E/DX2                !
 ! D68   D(12,11,25,30)       -100.2942         estimate D2E/DX2                !
 ! D69   D(11,12,13,1)          -0.0786         estimate D2E/DX2                !
 ! D70   D(11,12,13,24)        179.6872         estimate D2E/DX2                !
 ! D71   D(27,12,13,1)        -179.4455         estimate D2E/DX2                !
 ! D72   D(27,12,13,24)          0.3203         estimate D2E/DX2                !
 --------------------------------------------------------------------------------
 Trust Radius=3.00D-01 FncErr=1.00D-07 GrdErr=1.00D-06
 Number of steps in this run=    172 maximum allowed number of steps=    198.
 GradGradGradGradGradGradGradGradGradGradGradGradGradGradGradGradGradGrad

                          Input orientation:                          
 ---------------------------------------------------------------------
 Center     Atomic      Atomic             Coordinates (Angstroms)
 Number     Number       Type             X           Y           Z
 ---------------------------------------------------------------------
      1          6           0       -5.909955    1.102910    0.205944
      2          7           0       -4.649477    0.518284    0.077789
      3          6           0       -3.413812    1.163054    0.146151
      4          8           0       -3.284933    2.347533    0.357804
      5          7           0       -2.354008    0.309265   -0.020919
      6          6           0       -1.006248    0.862479   -0.081751
      7          6           0        0.028098   -0.252861   -0.050201
      8          6           0        1.448466    0.300816   -0.104868
      9          6           0       -6.127442    2.484471    0.143003
     10          6           0       -7.414132    2.994004    0.247922
     11          6           0       -8.513400    2.144130    0.428520
     12          6           0       -8.286228    0.773186    0.479641
     13          6           0       -7.007432    0.256442    0.371419
     14          1           0       -4.636201   -0.489411    0.129387
     15          1           0       -2.509423   -0.550433   -0.527548
     16          1           0       -0.883119    1.524789    0.776552
     17          1           0       -0.882654    1.478758   -0.979995
     18          1           0       -0.134043   -0.928927   -0.898206
     19          1           0       -0.113866   -0.845121    0.858615
     20          1           0        1.612938    0.876941   -1.018491
     21          1           0        2.186994   -0.501666   -0.080009
     22          1           0        1.644546    0.960542    0.743535
     23          1           0       -5.290636    3.152775    0.016001
     24          1           0       -6.861133   -0.817986    0.420074
     25          6           0       -9.940573    2.623235    0.535896
     26          6           0       -7.551486    4.502217    0.193886
     27          1           0       -9.121449    0.098762    0.616469
     28          9           0      -10.064979    3.698041    1.319645
     29          9           0      -10.728008    1.668533    1.059964
     30          9           0      -10.464373    2.930358   -0.658869
     31          9           0       -6.469213    5.073157   -0.349101
     32          9           0       -7.694687    5.028956    1.416205
     33          9           0       -8.600951    4.886337   -0.540044
 ---------------------------------------------------------------------
                    Distance matrix (angstroms):
                    1          2          3          4          5
     1  C    0.000000
     2  N    1.395355   0.000000
     3  C    2.497584   1.395446   0.000000
     4  O    2.909104   2.299247   1.210122   0.000000
     5  N    3.650493   2.307078   1.371150   2.272573   0.000000
     6  C    4.918019   3.662927   2.436934   2.755177   1.458150
     7  C    6.096244   4.742441   3.726944   4.231393   2.447707
     8  C    7.408530   6.104553   4.944513   5.177662   3.803409
     9  C    1.399990   2.460594   3.018268   2.853900   4.358577
    10  C    2.416722   3.715031   4.400602   4.180943   5.734541
    11  C    2.812757   4.206696   5.200773   5.232899   6.442580
    12  C    2.414602   3.667754   4.899353   5.244651   5.971350
    13  C    1.395832   2.390550   3.713058   4.269642   4.670233
    14  H    2.040538   1.009102   2.055519   3.150611   2.422578
    15  H    3.851646   2.467473   2.051300   3.127854   1.009905
    16  H    5.076678   3.960653   2.632995   2.573125   2.068084
    17  H    5.178944   4.028693   2.788303   2.883647   2.110076
    18  H    6.221629   4.841087   4.027896   4.716021   2.689051
    19  H    6.149427   4.800034   3.928106   4.527639   2.669161
    20  H    7.625236   6.367755   5.167830   5.295845   4.129656
    21  H    8.259360   6.913938   5.847347   6.184788   4.613220
    22  H    7.574942   6.344567   5.097534   5.135396   4.122739
    23  H    2.149786   2.712092   2.738320   2.188170   4.087872
    24  H    2.154167   2.606569   3.985421   4.776358   4.666835
    25  C    4.320433   5.712826   6.699451   6.663728   7.951131
    26  C    3.774925   4.930199   5.317202   4.782574   6.681375
    27  H    3.389769   4.523793   5.825035   6.260095   6.800650
    28  F    5.023869   6.401619   7.213964   6.979831   8.528775
    29  F    4.925740   6.263887   7.388371   7.506892   8.552181
    30  F    4.982990   6.338279   7.313127   7.274452   8.547229
    31  F    4.047679   4.923469   4.986949   4.250692   6.303752
    32  F    4.479268   5.604536   5.906279   5.268413   7.270740
    33  F    4.702369   5.922478   6.421846   5.959169   7.761661
                    6          7          8          9         10
     6  C    0.000000
     7  C    1.521463   0.000000
     8  C    2.518258   1.525448   0.000000
     9  C    5.376615   6.739509   7.888230   0.000000
    10  C    6.761143   8.125133   9.269486   1.387877   0.000000
    11  C    7.632845   8.884364  10.145003   2.426963   1.401175
    12  C    7.302140   8.394136   9.763660   2.775280   2.397140
    13  C    6.048706   7.066528   8.469417   2.406381   2.770362
    14  H    3.879271   4.673745   6.140237   3.326854   4.457032
    15  H    2.110590   2.599119   4.070401   4.769732   6.100866
    16  H    1.091100   2.161915   2.776923   5.368919   6.715071
    17  H    1.096320   2.166216   2.754545   5.457140   6.816447
    18  H    2.153247   1.096570   2.155455   6.975402   8.348814
    19  H    2.143952   1.094016   2.163874   6.910961   8.270775
    20  H    2.781695   2.173881   1.092556   7.990413   9.358085
    21  H    3.472419   2.173391   1.090880   8.837228  10.222958
    22  H    2.778025   2.171467   1.092462   7.942719   9.297324
    23  H    4.859114   6.315985   7.318728   1.078426   2.142015
    24  H    6.111912   6.928349   8.400995   3.394303   3.855738
    25  C    9.127098  10.391816  11.641066   3.835830   2.569690
    26  C    7.494252   8.951002   9.936809   2.470181   1.515418
    27  H    8.180908   9.180538  10.596426   3.857442   3.381300
    28  F    9.595047  10.925031  12.088416   4.285025   2.944699
    29  F    9.821703  10.982624  12.308290   4.761490   3.660336
    30  F    9.698727  10.981589  12.212172   4.432921   3.182811
    31  F    6.902555   8.406596   9.247948   2.657117   2.360547
    32  F    8.021136   9.470446  10.405106   3.248339   2.363182
    33  F    8.607030  10.055435  11.054735   3.514792   2.368618
                   11         12         13         14         15
    11  C    0.000000
    12  C    1.390578   0.000000
    13  C    2.415485   1.383495   0.000000
    14  H    4.696561   3.878083   2.497521   0.000000
    15  H    6.649998   6.011479   4.657389   2.226763   0.000000
    16  H    7.663282   7.447086   6.267379   4.308300   2.941443
    17  H    7.788126   7.579002   6.390092   4.381042   2.639830
    18  H    9.023164   8.441195   7.089465   4.638809   2.433736
    19  H    8.925960   8.339667   6.998003   4.594542   2.783340
    20  H   10.307392  10.012425   8.753722   6.498945   4.390020
    21  H   11.034368  10.565361   9.236665   6.826419   4.717945
    22  H   10.231518   9.936046   8.688552   6.475131   4.599364
    23  H    3.402020   3.853696   3.385624   3.702250   4.663083
    24  H    3.391782   2.136884   1.085434   2.267770   4.461721
    25  C    1.509270   2.482479   3.772543   6.163617   8.150158
    26  C    2.557520   3.811453   4.284171   5.780951   7.174410
    27  H    2.142097   1.082203   2.134006   4.549795   6.741596
    28  F    2.369840   3.524818   4.700248   6.958671   8.862736
    29  F    2.351468   2.664716   4.038661   6.529380   8.659628
    30  F    2.367882   3.270154   4.490185   6.803216   8.684145
    31  F    3.655488   4.741108   4.899956   5.876312   6.880156
    32  F    3.157220   4.397574   4.933639   6.439147   7.860962
    33  F    2.909550   4.249331   4.980562   6.713124   8.164885
                   16         17         18         19         20
    16  H    0.000000
    17  H    1.757150   0.000000
    18  H    3.063763   2.522708   0.000000
    19  H    2.492981   3.061362   1.758934   0.000000
    20  H    3.142004   2.567420   2.515466   3.077479   0.000000
    21  H    3.777011   3.762286   2.497841   2.508572   1.763760
    22  H    2.590087   3.102554   3.070632   2.523028   1.764291
    23  H    4.759725   4.819195   6.639768   6.594855   7.342270
    24  H    6.430577   6.555718   6.855940   6.761558   8.760829
    25  C    9.126992   9.254926  10.528178  10.425824  11.787675
    26  C    7.326098   7.415701   9.257886   9.184448   9.929711
    27  H    8.362371   8.504753   9.171905   9.060138  10.886033
    28  F    9.451166   9.722585  11.178157  10.948860  12.239250
    29  F    9.850017  10.056264  11.082117  10.909584  12.539759
    30  F    9.789611   9.696370  11.030280  11.121600  12.255908
    31  F    6.712858   6.672883   8.744193   8.767841   9.131127
    32  F    7.686729   8.046706   9.900313   9.606484  10.478495
    33  F    8.520467   8.448506  10.277845  10.336173  10.983064
                   21         22         23         24         25
    21  H    0.000000
    22  H    1.763669   0.000000
    23  H    8.323408   7.309715   0.000000
    24  H    9.067455   8.695652   4.289135   0.000000
    25  C   12.538829  11.705667   4.708781   4.619347   0.000000
    26  C   10.952254   9.869781   2.638955   5.369573   3.058641
    27  H   11.345769  10.801178   4.935857   2.447044   2.655263
    28  F   13.027181  12.039052   4.979072   5.609667   1.336020
    29  F   13.145592  12.396833   5.732176   4.641655   1.343933
    30  F   13.121393  12.347988   5.222305   5.310135   1.340207
    31  F   10.299563   9.161907   2.282589   5.954057   4.340009
    32  F   11.422524  10.209101   3.355605   5.989476   3.406823
    33  F   12.067393  11.046703   3.777910   6.040537   2.841455
                   26         27         28         29         30
    26  C    0.000000
    27  H    4.694015   0.000000
    28  F    2.869091   3.786756   0.000000
    29  F    4.343978   2.289521   2.150801   0.000000
    30  F    3.418017   3.383470   2.159484   2.148509   0.000000
    31  F    1.338701   5.719378   4.195854   5.631542   4.544100
    32  F    1.338666   5.194425   2.720100   4.540968   4.047370
    33  F    1.337003   4.952708   2.648371   4.175962   2.704129
                   31         32         33
    31  F    0.000000
    32  F    2.149429   0.000000
    33  F    2.148410   2.160686   0.000000
 Stoichiometry    C12H12F6N2O
 Framework group  C1[X(C12H12F6N2O)]
 Deg. of freedom    93
 Full point group                 C1      NOp   1
 Largest Abelian subgroup         C1      NOp   1
 Largest concise Abelian subgroup C1      NOp   1
                         Standard orientation:                         
 ---------------------------------------------------------------------
 Center     Atomic      Atomic             Coordinates (Angstroms)
 Number     Number       Type             X           Y           Z
 ---------------------------------------------------------------------
      1          6           0        0.477651   -0.994912   -0.072457
      2          7           0        1.861944   -1.156612   -0.140301
      3          6           0        2.832463   -0.170000    0.038474
      4          8           0        2.577757    0.981758    0.308610
      5          7           0        4.111417   -0.646454   -0.093137
      6          6           0        5.223270    0.295409   -0.039504
      7          6           0        6.548832   -0.449490    0.014014
      8          6           0        7.729179    0.514662    0.078698
      9          6           0       -0.152946    0.254878   -0.090951
     10          6           0       -1.537724    0.338638   -0.051234
     11          6           0       -2.327954   -0.816331    0.018597
     12          6           0       -1.690842   -2.052346    0.026412
     13          6           0       -0.311161   -2.145170   -0.017436
     14          1           0        2.183573   -2.113040   -0.130922
     15          1           0        4.255488   -1.479712   -0.645255
     16          1           0        5.091692    0.909707    0.852586
     17          1           0        5.195747    0.973767   -0.900311
     18          1           0        6.647095   -1.089430   -0.871020
     19          1           0        6.550945   -1.111301    0.885147
     20          1           0        7.753674    1.168330   -0.796400
     21          1           0        8.677412   -0.023160    0.118974
     22          1           0        7.668178    1.149444    0.965718
     23          1           0        0.441473    1.153723   -0.132756
     24          1           0        0.157576   -3.124095   -0.004883
     25          6           0       -3.836851   -0.804633    0.050013
     26          6           0       -2.131850    1.732735   -0.050061
     27          1           0       -2.282362   -2.957122    0.077857
     28          9           0       -4.327271    0.130340    0.868708
     29          9           0       -4.316017   -1.984781    0.478738
     30          9           0       -4.368449   -0.599984   -1.163114
     31          9           0       -1.253054    2.639717   -0.494160
     32          9           0       -2.492933    2.114403    1.181188
     33          9           0       -3.209886    1.821376   -0.835909
 ---------------------------------------------------------------------
 Rotational constants (GHZ):      0.7113354      0.1183305      0.1055328
 Standard basis: 6-311+G(d) (5D, 7F)
 There are   519 symmetry adapted cartesian basis functions of A   symmetry.
 There are   498 symmetry adapted basis functions of A   symmetry.
   498 basis functions,   816 primitive gaussians,   519 cartesian basis functions
    80 alpha electrons       80 beta electrons
       nuclear repulsion energy      1781.1099787613 Hartrees.
 NAtoms=   33 NActive=   33 NUniq=   33 SFac= 1.00D+00 NAtFMM=   60 NAOKFM=F Big=F
 Integral buffers will be    131072 words long.
 Raffenetti 2 integral format.
 Two-electron integral symmetry is turned on.
 Nuclear repulsion after empirical dispersion term =     1781.1083962191 Hartrees.
 One-electron integrals computed using PRISM.
 NBasis=   498 RedAO= T EigKep=  1.70D-06  NBF=   498
 NBsUse=   496 1.00D-06 EigRej=  8.50D-07 NBFU=   496
 ExpMin= 4.38D-02 ExpMax= 1.14D+04 ExpMxC= 1.72D+03 IAcc=3 IRadAn=         5 AccDes= 0.00D+00
 Harris functional with IExCor= 1009 and IRadAn=       5 diagonalized for initial guess.
 HarFok:  IExCor= 1009 AccDes= 0.00D+00 IRadAn=         5 IDoV= 1 UseB2=F ITyADJ=14
 ICtDFT=  3500011 ScaDFX=  1.000000  1.000000  1.000000  1.000000
 FoFCou: FMM=F IPFlag=           0 FMFlag=      100000 FMFlg1=           0
         NFxFlg=           0 DoJE=T BraDBF=F KetDBF=T FulRan=T
         wScrn=  0.000000 ICntrl=     500 IOpCl=  0 I1Cent=   200000004 NGrid=           0
         NMat0=    1 NMatS0=      1 NMatT0=    0 NMatD0=    1 NMtDS0=    0 NMtDT0=    0
 Petite list used in FoFCou.
 Requested convergence on RMS density matrix=1.00D-08 within 128 cycles.
 Requested convergence on MAX density matrix=1.00D-06.
 Requested convergence on             energy=1.00D-06.
 No special actions if energy rises.
 SCF Done:  E(RM062X) =  -1248.24469002     A.U. after   16 cycles
            NFock= 16  Conv=0.43D-08     -V/T= 2.0030

 **********************************************************************

            Population analysis using the SCF density.

 **********************************************************************

 Orbital symmetries:
       Occupied  (A) (A) (A) (A) (A) (A) (A) (A) (A) (A) (A) (A)
                 (A) (A) (A) (A) (A) (A) (A) (A) (A) (A) (A) (A)
                 (A) (A) (A) (A) (A) (A) (A) (A) (A) (A) (A) (A)
                 (A) (A) (A) (A) (A) (A) (A) (A) (A) (A) (A) (A)
                 (A) (A) (A) (A) (A) (A) (A) (A) (A) (A) (A) (A)
                 (A) (A) (A) (A) (A) (A) (A) (A) (A) (A) (A) (A)
                 (A) (A) (A) (A) (A) (A) (A) (A)
       Virtual   (A) (A) (A) (A) (A) (A) (A) (A) (A) (A) (A) (A)
                 (A) (A) (A) (A) (A) (A) (A) (A) (A) (A) (A) (A)
                 (A) (A) (A) (A) (A) (A) (A) (A) (A) (A) (A) (A)
                 (A) (A) (A) (A) (A) (A) (A) (A) (A) (A) (A) (A)
                 (A) (A) (A) (A) (A) (A) (A) (A) (A) (A) (A) (A)
                 (A) (A) (A) (A) (A) (A) (A) (A) (A) (A) (A) (A)
                 (A) (A) (A) (A) (A) (A) (A) (A) (A) (A) (A) (A)
                 (A) (A) (A) (A) (A) (A) (A) (A) (A) (A) (A) (A)
                 (A) (A) (A) (A) (A) (A) (A) (A) (A) (A) (A) (A)
                 (A) (A) (A) (A) (A) (A) (A) (A) (A) (A) (A) (A)
                 (A) (A) (A) (A) (A) (A) (A) (A) (A) (A) (A) (A)
                 (A) (A) (A) (A) (A) (A) (A) (A) (A) (A) (A) (A)
                 (A) (A) (A) (A) (A) (A) (A) (A) (A) (A) (A) (A)
                 (A) (A) (A) (A) (A) (A) (A) (A) (A) (A) (A) (A)
                 (A) (A) (A) (A) (A) (A) (A) (A) (A) (A) (A) (A)
                 (A) (A) (A) (A) (A) (A) (A) (A) (A) (A) (A) (A)
                 (A) (A) (A) (A) (A) (A) (A) (A) (A) (A) (A) (A)
                 (A) (A) (A) (A) (A) (A) (A) (A) (A) (A) (A) (A)
                 (A) (A) (A) (A) (A) (A) (A) (A) (A) (A) (A) (A)
                 (A) (A) (A) (A) (A) (A) (A) (A) (A) (A) (A) (A)
                 (A) (A) (A) (A) (A) (A) (A) (A) (A) (A) (A) (A)
                 (A) (A) (A) (A) (A) (A) (A) (A) (A) (A) (A) (A)
                 (A) (A) (A) (A) (A) (A) (A) (A) (A) (A) (A) (A)
                 (A) (A) (A) (A) (A) (A) (A) (A) (A) (A) (A) (A)
                 (A) (A) (A) (A) (A) (A) (A) (A) (A) (A) (A) (A)
                 (A) (A) (A) (A) (A) (A) (A) (A) (A) (A) (A) (A)
                 (A) (A) (A) (A) (A) (A) (A) (A) (A) (A) (A) (A)
                 (A) (A) (A) (A) (A) (A) (A) (A) (A) (A) (A) (A)
                 (A) (A) (A) (A) (A) (A) (A) (A) (A) (A) (A) (A)
                 (A) (A) (A) (A) (A) (A) (A) (A) (A) (A) (A) (A)
                 (A) (A) (A) (A) (A) (A) (A) (A) (A) (A) (A) (A)
                 (A) (A) (A) (A) (A) (A) (A) (A) (A) (A) (A) (A)
                 (A) (A) (A) (A) (A) (A) (A) (A) (A) (A) (A) (A)
                 (A) (A) (A) (A) (A) (A) (A) (A) (A) (A) (A) (A)
                 (A) (A) (A) (A) (A) (A) (A) (A)
 The electronic state is 1-A.
 Alpha  occ. eigenvalues --  -25.27904 -25.27690 -25.27609 -25.27557 -25.27304
 Alpha  occ. eigenvalues --  -25.27257 -19.61078 -14.81241 -14.79006 -10.80769
 Alpha  occ. eigenvalues --  -10.80654 -10.69787 -10.62980 -10.59963 -10.59244
 Alpha  occ. eigenvalues --  -10.58681 -10.58258 -10.57908 -10.57259 -10.55688
 Alpha  occ. eigenvalues --  -10.54189  -1.47427  -1.46976  -1.37966  -1.37616
 Alpha  occ. eigenvalues --   -1.37479  -1.37323  -1.20567  -1.08854  -1.05394
 Alpha  occ. eigenvalues --   -1.00364  -0.91592  -0.90561  -0.89418  -0.83202
 Alpha  occ. eigenvalues --   -0.81632  -0.79316  -0.75369  -0.74719  -0.70907
 Alpha  occ. eigenvalues --   -0.70762  -0.69878  -0.69673  -0.69342  -0.69020
 Alpha  occ. eigenvalues --   -0.68735  -0.66561  -0.64936  -0.60909  -0.58177
 Alpha  occ. eigenvalues --   -0.58055  -0.57971  -0.57435  -0.57300  -0.56344
 Alpha  occ. eigenvalues --   -0.55928  -0.55005  -0.54451  -0.53781  -0.53191
 Alpha  occ. eigenvalues --   -0.52750  -0.52627  -0.52079  -0.51209  -0.51079
 Alpha  occ. eigenvalues --   -0.50746  -0.49842  -0.49428  -0.48497  -0.46962
 Alpha  occ. eigenvalues --   -0.45721  -0.44510  -0.44188  -0.42553  -0.41922
 Alpha  occ. eigenvalues --   -0.40759  -0.37195  -0.34819  -0.34398  -0.30303
 Alpha virt. eigenvalues --   -0.02570  -0.01809  -0.01056   0.00618   0.01527
 Alpha virt. eigenvalues --    0.02082   0.02570   0.03204   0.03960   0.04408
 Alpha virt. eigenvalues --    0.04827   0.05102   0.05842   0.06190   0.06217
 Alpha virt. eigenvalues --    0.06524   0.06929   0.07296   0.07700   0.08040
 Alpha virt. eigenvalues --    0.08256   0.08680   0.09378   0.10656   0.10934
 Alpha virt. eigenvalues --    0.11306   0.11430   0.11991   0.12480   0.12701
 Alpha virt. eigenvalues --    0.13556   0.13683   0.14147   0.14924   0.15604
 Alpha virt. eigenvalues --    0.15681   0.16502   0.17084   0.17263   0.17409
 Alpha virt. eigenvalues --    0.17946   0.18108   0.18643   0.19071   0.19451
 Alpha virt. eigenvalues --    0.19854   0.20136   0.20686   0.20734   0.21058
 Alpha virt. eigenvalues --    0.21521   0.21787   0.22158   0.22270   0.22823
 Alpha virt. eigenvalues --    0.23464   0.23531   0.24050   0.24321   0.24782
 Alpha virt. eigenvalues --    0.25490   0.25655   0.25841   0.26305   0.26541
 Alpha virt. eigenvalues --    0.26975   0.27095   0.27577   0.27734   0.28614
 Alpha virt. eigenvalues --    0.28652   0.28779   0.29153   0.29661   0.29966
 Alpha virt. eigenvalues --    0.30148   0.31060   0.31627   0.31843   0.32333
 Alpha virt. eigenvalues --    0.32935   0.33082   0.33562   0.34593   0.35188
 Alpha virt. eigenvalues --    0.35753   0.35958   0.36564   0.37740   0.37883
 Alpha virt. eigenvalues --    0.38247   0.38739   0.38833   0.39293   0.39936
 Alpha virt. eigenvalues --    0.40353   0.40745   0.40896   0.41397   0.42399
 Alpha virt. eigenvalues --    0.42609   0.43442   0.43929   0.44598   0.44861
 Alpha virt. eigenvalues --    0.45619   0.45734   0.46449   0.46968   0.47143
 Alpha virt. eigenvalues --    0.48156   0.48658   0.49329   0.50054   0.50808
 Alpha virt. eigenvalues --    0.51616   0.52069   0.53020   0.53731   0.55526
 Alpha virt. eigenvalues --    0.56518   0.56647   0.57894   0.58177   0.59017
 Alpha virt. eigenvalues --    0.59826   0.60489   0.61194   0.61463   0.62561
 Alpha virt. eigenvalues --    0.63077   0.64073   0.65546   0.65942   0.66464
 Alpha virt. eigenvalues --    0.67917   0.68594   0.69606   0.69871   0.69997
 Alpha virt. eigenvalues --    0.70928   0.71103   0.71446   0.71759   0.72768
 Alpha virt. eigenvalues --    0.72772   0.73692   0.73882   0.75356   0.75895
 Alpha virt. eigenvalues --    0.76736   0.77039   0.77597   0.78613   0.79104
 Alpha virt. eigenvalues --    0.80694   0.80787   0.82680   0.83050   0.83403
 Alpha virt. eigenvalues --    0.84721   0.85942   0.87685   0.89096   0.90747
 Alpha virt. eigenvalues --    0.92284   0.92902   0.94324   0.95155   0.95599
 Alpha virt. eigenvalues --    0.96508   0.98291   0.99742   1.01034   1.02840
 Alpha virt. eigenvalues --    1.04451   1.04824   1.05434   1.06658   1.07907
 Alpha virt. eigenvalues --    1.10145   1.10608   1.13031   1.15052   1.15752
 Alpha virt. eigenvalues --    1.16554   1.17516   1.20277   1.21478   1.23185
 Alpha virt. eigenvalues --    1.24821   1.25006   1.25826   1.28032   1.32826
 Alpha virt. eigenvalues --    1.35266   1.37710   1.39878   1.40563   1.41033
 Alpha virt. eigenvalues --    1.43233   1.43490   1.45610   1.46613   1.47025
 Alpha virt. eigenvalues --    1.47675   1.48994   1.49384   1.49895   1.50422
 Alpha virt. eigenvalues --    1.51264   1.51857   1.52569   1.52715   1.54179
 Alpha virt. eigenvalues --    1.54427   1.55392   1.56006   1.56701   1.57044
 Alpha virt. eigenvalues --    1.58546   1.59087   1.59324   1.59977   1.60438
 Alpha virt. eigenvalues --    1.60491   1.61106   1.62355   1.62670   1.63937
 Alpha virt. eigenvalues --    1.64356   1.66668   1.67453   1.70933   1.74040
 Alpha virt. eigenvalues --    1.74311   1.76066   1.77211   1.77646   1.78547
 Alpha virt. eigenvalues --    1.79331   1.80544   1.81845   1.83264   1.83912
 Alpha virt. eigenvalues --    1.84916   1.87896   1.88731   1.90129   1.90836
 Alpha virt. eigenvalues --    1.94024   1.95954   1.96336   1.97939   2.00295
 Alpha virt. eigenvalues --    2.01039   2.03881   2.04655   2.05222   2.07212
 Alpha virt. eigenvalues --    2.10283   2.11647   2.12898   2.13423   2.15330
 Alpha virt. eigenvalues --    2.17687   2.19977   2.22191   2.23237   2.25332
 Alpha virt. eigenvalues --    2.30893   2.33309   2.35385   2.36610   2.38440
 Alpha virt. eigenvalues --    2.40119   2.41225   2.43594   2.46269   2.51679
 Alpha virt. eigenvalues --    2.53137   2.54143   2.55131   2.58086   2.58668
 Alpha virt. eigenvalues --    2.59464   2.61680   2.63467   2.65575   2.70167
 Alpha virt. eigenvalues --    2.72109   2.75272   2.80476   2.81233   2.83647
 Alpha virt. eigenvalues --    2.84174   2.86323   2.89965   2.92840   2.95799
 Alpha virt. eigenvalues --    2.95898   2.99190   2.99801   3.00317   3.00917
 Alpha virt. eigenvalues --    3.04579   3.05284   3.06680   3.10438   3.10812
 Alpha virt. eigenvalues --    3.12984   3.14321   3.16425   3.19944   3.23934
 Alpha virt. eigenvalues --    3.24649   3.27583   3.29774   3.35163   3.38388
 Alpha virt. eigenvalues --    3.40069   3.41196   3.43343   3.44176   3.48321
 Alpha virt. eigenvalues --    3.53080   3.55869   3.63434   3.68887   3.70566
 Alpha virt. eigenvalues --    3.76951   3.77515   3.81114   3.81390   3.82991
 Alpha virt. eigenvalues --    3.84895   3.84985   3.85927   3.86578   3.86737
 Alpha virt. eigenvalues --    3.87926   3.88378   3.89250   3.89597   3.91510
 Alpha virt. eigenvalues --    3.94301   3.97513   3.99494   3.99864   4.01093
 Alpha virt. eigenvalues --    4.01832   4.02450   4.02569   4.04973   4.06466
 Alpha virt. eigenvalues --    4.11195   4.13252   4.22511   4.24000   4.28705
 Alpha virt. eigenvalues --    4.29765   4.32051   4.33705   4.52293   4.56683
 Alpha virt. eigenvalues --    4.72820   4.80208   4.81010   4.87134   5.00282
 Alpha virt. eigenvalues --    5.00651   5.02872   5.04493   5.18132   5.19009
 Alpha virt. eigenvalues --    5.41420   5.89181   6.47324   6.49162   6.50855
 Alpha virt. eigenvalues --    6.51310   6.52053   6.53885   6.54505   6.55740
 Alpha virt. eigenvalues --    6.56413   6.57303   6.59642   6.63462   6.63996
 Alpha virt. eigenvalues --    6.64649   6.89459   6.90532   6.91325   6.92784
 Alpha virt. eigenvalues --   23.45122  23.56811  23.65345  23.65574  23.72083
 Alpha virt. eigenvalues --   23.79343  23.92465  23.93119  23.96966  24.08506
 Alpha virt. eigenvalues --   24.12320  24.19897  35.57588  35.67080  50.12786
 Alpha virt. eigenvalues --   66.90304  66.90878  66.91329  66.92108  66.96899
 Alpha virt. eigenvalues --   66.99157
          Condensed to atoms (all electrons):
               1          2          3          4          5          6
     1  C   24.540878  -0.530173  -0.506095  -0.016131  -0.118565  -0.653435
     2  N   -0.530173   8.023583   0.235333  -0.102292  -0.700358  -0.433153
     3  C   -0.506095   0.235333   8.797406   0.572069   0.111192  -1.138079
     4  O   -0.016131  -0.102292   0.572069   8.080482  -0.161720  -0.107776
     5  N   -0.118565  -0.700358   0.111192  -0.161720   7.831499   0.640206
     6  C   -0.653435  -0.433153  -1.138079  -0.107776   0.640206   8.566165
     7  C    0.003435   0.028045   0.214586   0.017382  -0.150199  -0.869258
     8  C   -0.017925  -0.009608  -0.234166  -0.001023   0.002383   0.365614
     9  C   -3.251846   0.453931   0.338017   0.113016  -0.233696  -0.111829
    10  C   -4.205203   0.251508   0.267423  -0.044712  -0.024827  -0.018087
    11  C   -0.203448  -0.034180  -1.879516  -0.029932  -0.058793  -0.129302
    12  C    1.550087  -0.039422   0.617397   0.019222   0.039110   0.059465
    13  C   -5.780022  -0.103756  -1.693279  -0.014457  -0.072643  -0.190597
    14  H    0.018526   0.222260  -0.016312  -0.003926   0.066563   0.026133
    15  H   -0.044691   0.095684   0.030946  -0.002637   0.228375  -0.074642
    16  H    0.000461   0.012602   0.060517  -0.001229  -0.041837   0.323194
    17  H    0.005540   0.007903   0.074207  -0.004382  -0.108187   0.407163
    18  H   -0.003921  -0.000749  -0.018486  -0.000274   0.003018  -0.053642
    19  H    0.003975  -0.000091   0.032487  -0.000151   0.002311  -0.090643
    20  H    0.000246   0.000046   0.010372  -0.000035   0.000389  -0.045256
    21  H    0.000056  -0.000006   0.003275   0.000024  -0.001329   0.075350
    22  H   -0.000345  -0.000082  -0.009155  -0.000087  -0.000104  -0.045421
    23  H    0.011555  -0.023694   0.070267   0.001095   0.004197   0.006696
    24  H    0.068098  -0.021846  -0.002605   0.000052  -0.000390  -0.000281
    25  C   -0.716179   0.000657  -0.226716  -0.000097   0.003742  -0.003404
    26  C   -3.407669   0.010973   0.182291   0.010246   0.019031   0.016875
    27  H   -0.009620  -0.002548   0.001828  -0.000015  -0.000063   0.000015
    28  F    0.014147   0.000048   0.001160   0.000003   0.000004   0.000009
    29  F    0.003351  -0.000022  -0.000418   0.000001   0.000001  -0.000003
    30  F   -0.015345   0.000041  -0.001096  -0.000002   0.000002  -0.000003
    31  F    0.233393   0.000212   0.004985  -0.000520  -0.000093   0.000017
    32  F    0.022214   0.000305  -0.001795   0.000103   0.000000  -0.000065
    33  F    0.014816   0.000255  -0.000641  -0.000014   0.000013   0.000015
               7          8          9         10         11         12
     1  C    0.003435  -0.017925  -3.251846  -4.205203  -0.203448   1.550087
     2  N    0.028045  -0.009608   0.453931   0.251508  -0.034180  -0.039422
     3  C    0.214586  -0.234166   0.338017   0.267423  -1.879516   0.617397
     4  O    0.017382  -0.001023   0.113016  -0.044712  -0.029932   0.019222
     5  N   -0.150199   0.002383  -0.233696  -0.024827  -0.058793   0.039110
     6  C   -0.869258   0.365614  -0.111829  -0.018087  -0.129302   0.059465
     7  C    6.285369  -0.165635   0.007336  -0.001579   0.002250  -0.001634
     8  C   -0.165635   6.045850  -0.006889  -0.000451  -0.000883   0.000495
     9  C    0.007336  -0.006889  17.405611   3.005356  -8.329856   0.775951
    10  C   -0.001579  -0.000451   3.005356  34.030722 -11.655371   0.753866
    11  C    0.002250  -0.000883  -8.329856 -11.655371  47.651664 -13.149680
    12  C   -0.001634   0.000495   0.775951   0.753866 -13.149680  18.790797
    13  C    0.012587  -0.001104  -5.147662  -6.321971   2.207946  -3.096381
    14  H   -0.004123   0.000077   0.043990   0.015392  -0.000146   0.027313
    15  H    0.010386   0.007802   0.023801   0.001113  -0.001553   0.000403
    16  H    0.004529  -0.025600   0.005179   0.000738   0.000476  -0.000081
    17  H   -0.075632  -0.004509  -0.004153   0.000529   0.000001  -0.000037
    18  H    0.446044  -0.034085   0.000917   0.000024  -0.000006   0.000003
    19  H    0.446537  -0.051518  -0.000411   0.000002   0.000020  -0.000007
    20  H    0.017159   0.363876   0.000037   0.000001   0.000001  -0.000000
    21  H   -0.118970   0.393239   0.000011   0.000000   0.000000  -0.000000
    22  H    0.007439   0.392867   0.000023   0.000001  -0.000001   0.000000
    23  H   -0.000399   0.000041   0.393252  -0.057537  -0.045200  -0.002645
    24  H    0.000042   0.000002  -0.046643   0.014767  -0.016085   0.107392
    25  C   -0.000062  -0.000016  -2.908858  -0.774329  -3.849828  -1.696232
    26  C   -0.000746   0.000134   3.046209  -8.247238  -3.536462   1.167334
    27  H    0.000000  -0.000000  -0.001107   0.008102   0.042344   0.244439
    28  F   -0.000000   0.000000   0.097165  -0.245037  -0.002448   0.085234
    29  F   -0.000000  -0.000000   0.000219   0.006582  -0.153414   0.046480
    30  F   -0.000000  -0.000000  -0.006758  -0.088446   0.186197  -0.078466
    31  F    0.000000  -0.000001   0.208436  -0.421660  -0.064458   0.026925
    32  F   -0.000000  -0.000000  -0.064436   0.292879  -0.135966   0.018540
    33  F    0.000000   0.000000  -0.021627   0.117376  -0.198693   0.016812
              13         14         15         16         17         18
     1  C   -5.780022   0.018526  -0.044691   0.000461   0.005540  -0.003921
     2  N   -0.103756   0.222260   0.095684   0.012602   0.007903  -0.000749
     3  C   -1.693279  -0.016312   0.030946   0.060517   0.074207  -0.018486
     4  O   -0.014457  -0.003926  -0.002637  -0.001229  -0.004382  -0.000274
     5  N   -0.072643   0.066563   0.228375  -0.041837  -0.108187   0.003018
     6  C   -0.190597   0.026133  -0.074642   0.323194   0.407163  -0.053642
     7  C    0.012587  -0.004123   0.010386   0.004529  -0.075632   0.446044
     8  C   -0.001104   0.000077   0.007802  -0.025600  -0.004509  -0.034085
     9  C   -5.147662   0.043990   0.023801   0.005179  -0.004153   0.000917
    10  C   -6.321971   0.015392   0.001113   0.000738   0.000529   0.000024
    11  C    2.207946  -0.000146  -0.001553   0.000476   0.000001  -0.000006
    12  C   -3.096381   0.027313   0.000403  -0.000081  -0.000037   0.000003
    13  C   24.335559  -0.131885  -0.007731   0.000447   0.000930  -0.000411
    14  H   -0.131885   0.386374   0.000415  -0.000019   0.000345   0.000087
    15  H   -0.007731   0.000415   0.399418   0.002797   0.001519   0.003897
    16  H    0.000447  -0.000019   0.002797   0.422208  -0.037103   0.005282
    17  H    0.000930   0.000345   0.001519  -0.037103   0.472699  -0.009410
    18  H   -0.000411   0.000087   0.003897   0.005282  -0.009410   0.479906
    19  H    0.000320  -0.000015  -0.000690  -0.007676   0.006252  -0.045387
    20  H    0.000004  -0.000001   0.000048  -0.000212   0.003326  -0.008695
    21  H   -0.000004  -0.000000  -0.000026  -0.000214  -0.000096  -0.003467
    22  H   -0.000004   0.000001  -0.000025   0.003738  -0.000980   0.006773
    23  H   -0.063548   0.000275  -0.000027  -0.000063   0.000047  -0.000001
    24  H    0.201208   0.009611   0.000050   0.000000  -0.000000  -0.000000
    25  C    0.305653   0.001676  -0.000121   0.000010  -0.000006   0.000000
    26  C    1.274114  -0.001035   0.000114  -0.000160  -0.000032  -0.000001
    27  H    0.047860  -0.000006   0.000000   0.000000   0.000000   0.000000
    28  F    0.016408   0.000001  -0.000000  -0.000000   0.000000  -0.000000
    29  F    0.156206   0.000001  -0.000000   0.000000  -0.000000  -0.000000
    30  F    0.005797   0.000002  -0.000000   0.000000  -0.000000   0.000000
    31  F   -0.016199   0.000002   0.000000   0.000001  -0.000000   0.000000
    32  F   -0.016836  -0.000002   0.000000  -0.000000  -0.000000  -0.000000
    33  F    0.000084  -0.000000   0.000000   0.000000   0.000000  -0.000000
              19         20         21         22         23         24
     1  C    0.003975   0.000246   0.000056  -0.000345   0.011555   0.068098
     2  N   -0.000091   0.000046  -0.000006  -0.000082  -0.023694  -0.021846
     3  C    0.032487   0.010372   0.003275  -0.009155   0.070267  -0.002605
     4  O   -0.000151  -0.000035   0.000024  -0.000087   0.001095   0.000052
     5  N    0.002311   0.000389  -0.001329  -0.000104   0.004197  -0.000390
     6  C   -0.090643  -0.045256   0.075350  -0.045421   0.006696  -0.000281
     7  C    0.446537   0.017159  -0.118970   0.007439  -0.000399   0.000042
     8  C   -0.051518   0.363876   0.393239   0.392867   0.000041   0.000002
     9  C   -0.000411   0.000037   0.000011   0.000023   0.393252  -0.046643
    10  C    0.000002   0.000001   0.000000   0.000001  -0.057537   0.014767
    11  C    0.000020   0.000001   0.000000  -0.000001  -0.045200  -0.016085
    12  C   -0.000007  -0.000000  -0.000000   0.000000  -0.002645   0.107392
    13  C    0.000320   0.000004  -0.000004  -0.000004  -0.063548   0.201208
    14  H   -0.000015  -0.000001  -0.000000   0.000001   0.000275   0.009611
    15  H   -0.000690   0.000048  -0.000026  -0.000025  -0.000027   0.000050
    16  H   -0.007676  -0.000212  -0.000214   0.003738  -0.000063   0.000000
    17  H    0.006252   0.003326  -0.000096  -0.000980   0.000047  -0.000000
    18  H   -0.045387  -0.008695  -0.003467   0.006773  -0.000001  -0.000000
    19  H    0.447865   0.006016  -0.003322  -0.008672   0.000001   0.000000
    20  H    0.006016   0.453150  -0.025615  -0.035787   0.000000   0.000000
    21  H   -0.003322  -0.025615   0.435066  -0.024124   0.000000  -0.000000
    22  H   -0.008672  -0.035787  -0.024124   0.451259  -0.000000  -0.000000
    23  H    0.000001   0.000000   0.000000  -0.000000   0.337969  -0.000042
    24  H    0.000000   0.000000  -0.000000  -0.000000  -0.000042   0.439086
    25  C    0.000000   0.000000   0.000000  -0.000000   0.002751   0.014047
    26  C    0.000001  -0.000000   0.000000  -0.000000   0.017752   0.000415
    27  H   -0.000000  -0.000000  -0.000000   0.000000   0.000048  -0.004568
    28  F    0.000000   0.000000   0.000000  -0.000000   0.000005   0.000032
    29  F    0.000000   0.000000   0.000000  -0.000000  -0.000001   0.000075
    30  F   -0.000000  -0.000000  -0.000000   0.000000  -0.000004   0.000034
    31  F   -0.000000  -0.000000  -0.000000   0.000000   0.012285  -0.000003
    32  F    0.000000   0.000000   0.000000  -0.000000  -0.000544  -0.000005
    33  F    0.000000   0.000000  -0.000000  -0.000000   0.000913  -0.000002
              25         26         27         28         29         30
     1  C   -0.716179  -3.407669  -0.009620   0.014147   0.003351  -0.015345
     2  N    0.000657   0.010973  -0.002548   0.000048  -0.000022   0.000041
     3  C   -0.226716   0.182291   0.001828   0.001160  -0.000418  -0.001096
     4  O   -0.000097   0.010246  -0.000015   0.000003   0.000001  -0.000002
     5  N    0.003742   0.019031  -0.000063   0.000004   0.000001   0.000002
     6  C   -0.003404   0.016875   0.000015   0.000009  -0.000003  -0.000003
     7  C   -0.000062  -0.000746   0.000000  -0.000000  -0.000000  -0.000000
     8  C   -0.000016   0.000134  -0.000000   0.000000  -0.000000  -0.000000
     9  C   -2.908858   3.046209  -0.001107   0.097165   0.000219  -0.006758
    10  C   -0.774329  -8.247238   0.008102  -0.245037   0.006582  -0.088446
    11  C   -3.849828  -3.536462   0.042344  -0.002448  -0.153414   0.186197
    12  C   -1.696232   1.167334   0.244439   0.085234   0.046480  -0.078466
    13  C    0.305653   1.274114   0.047860   0.016408   0.156206   0.005797
    14  H    0.001676  -0.001035  -0.000006   0.000001   0.000001   0.000002
    15  H   -0.000121   0.000114   0.000000  -0.000000  -0.000000  -0.000000
    16  H    0.000010  -0.000160   0.000000  -0.000000   0.000000   0.000000
    17  H   -0.000006  -0.000032   0.000000   0.000000  -0.000000  -0.000000
    18  H    0.000000  -0.000001   0.000000  -0.000000  -0.000000   0.000000
    19  H    0.000000   0.000001  -0.000000   0.000000   0.000000  -0.000000
    20  H    0.000000  -0.000000  -0.000000   0.000000   0.000000  -0.000000
    21  H    0.000000   0.000000  -0.000000   0.000000   0.000000  -0.000000
    22  H   -0.000000  -0.000000   0.000000  -0.000000  -0.000000   0.000000
    23  H    0.002751   0.017752   0.000048   0.000005  -0.000001  -0.000004
    24  H    0.014047   0.000415  -0.004568   0.000032   0.000075   0.000034
    25  C   21.024940  -6.379446  -0.030722  -0.076819   0.046282   0.171293
    26  C   -6.379446  20.339451   0.014663   0.267579   0.033178  -0.009186
    27  H   -0.030722   0.014663   0.393382   0.000699   0.007923  -0.000619
    28  F   -0.076819   0.267579   0.000699   8.977692  -0.029949  -0.039537
    29  F    0.046282   0.033178   0.007923  -0.029949   9.040209  -0.039816
    30  F    0.171293  -0.009186  -0.000619  -0.039537  -0.039816   8.947950
    31  F    0.005250   0.167667   0.000008   0.001575   0.000087   0.000119
    32  F   -0.021341   0.086994   0.000006   0.002731   0.000100  -0.001144
    33  F    0.271740  -0.046140   0.000056  -0.006241   0.001665   0.002856
              31         32         33
     1  C    0.233393   0.022214   0.014816
     2  N    0.000212   0.000305   0.000255
     3  C    0.004985  -0.001795  -0.000641
     4  O   -0.000520   0.000103  -0.000014
     5  N   -0.000093   0.000000   0.000013
     6  C    0.000017  -0.000065   0.000015
     7  C    0.000000  -0.000000   0.000000
     8  C   -0.000001  -0.000000   0.000000
     9  C    0.208436  -0.064436  -0.021627
    10  C   -0.421660   0.292879   0.117376
    11  C   -0.064458  -0.135966  -0.198693
    12  C    0.026925   0.018540   0.016812
    13  C   -0.016199  -0.016836   0.000084
    14  H    0.000002  -0.000002  -0.000000
    15  H    0.000000   0.000000   0.000000
    16  H    0.000001  -0.000000   0.000000
    17  H   -0.000000  -0.000000   0.000000
    18  H    0.000000  -0.000000  -0.000000
    19  H   -0.000000   0.000000   0.000000
    20  H   -0.000000   0.000000   0.000000
    21  H   -0.000000   0.000000  -0.000000
    22  H    0.000000  -0.000000  -0.000000
    23  H    0.012285  -0.000544   0.000913
    24  H   -0.000003  -0.000005  -0.000002
    25  C    0.005250  -0.021341   0.271740
    26  C    0.167667   0.086994  -0.046140
    27  H    0.000008   0.000006   0.000056
    28  F    0.001575   0.002731  -0.006241
    29  F    0.000087   0.000100   0.001665
    30  F    0.000119  -0.001144   0.002856
    31  F    9.013072  -0.041110  -0.027259
    32  F   -0.041110   8.921071  -0.038243
    33  F   -0.027259  -0.038243   8.973307
 Mulliken charges:
               1
     1  C   -1.010165
     2  N   -0.341405
     3  C    0.102604
     4  O   -0.322283
     5  N   -0.279233
     6  C   -0.522041
     7  C   -0.114889
     8  C   -1.018966
     9  C    0.217314
    10  C   -0.659929
    11  C   -0.615678
    12  C   -0.282681
    13  C    0.093369
    14  H    0.338427
    15  H    0.325374
    16  H    0.272016
    17  H    0.264068
    18  H    0.232583
    19  H    0.262795
    20  H    0.260931
    21  H    0.270152
    22  H    0.262686
    23  H    0.334556
    24  H    0.237562
    25  C    0.836135
    26  C    0.973097
    27  H    0.287896
    28  F   -0.064459
    29  F   -0.118735
    30  F   -0.033867
    31  F   -0.102731
    32  F   -0.023454
    33  F   -0.061048
 Sum of Mulliken charges =  -0.00000
 Mulliken charges with hydrogens summed into heavy atoms:
               1
     1  C   -1.010165
     2  N   -0.002978
     3  C    0.102604
     4  O   -0.322283
     5  N    0.046141
     6  C    0.014043
     7  C    0.380488
     8  C   -0.225197
     9  C    0.551870
    10  C   -0.659929
    11  C   -0.615678
    12  C    0.005215
    13  C    0.330931
    25  C    0.836135
    26  C    0.973097
    28  F   -0.064459
    29  F   -0.118735
    30  F   -0.033867
    31  F   -0.102731
    32  F   -0.023454
    33  F   -0.061048
 Electronic spatial extent (au):  <R**2>=           9548.6452
 Charge=             -0.0000 electrons
 Dipole moment (field-independent basis, Debye):
    X=              7.3229    Y=             -5.5661    Z=             -1.1320  Tot=              9.2675
 Quadrupole moment (field-independent basis, Debye-Ang):
   XX=           -112.0452   YY=           -115.3124   ZZ=           -123.5838
   XY=             -6.3921   XZ=             -4.0765   YZ=              0.6360
 Traceless Quadrupole moment (field-independent basis, Debye-Ang):
   XX=              4.9352   YY=              1.6681   ZZ=             -6.6033
   XY=             -6.3921   XZ=             -4.0765   YZ=              0.6360
 Octapole moment (field-independent basis, Debye-Ang**2):
  XXX=            119.6424  YYY=            -11.4366  ZZZ=              1.1504  XYY=            -18.1080
  XXY=            -15.1267  XXZ=            -12.4753  XZZ=            -23.6431  YZZ=             12.2418
  YYZ=             -3.7021  XYZ=              5.0163
 Hexadecapole moment (field-independent basis, Debye-Ang**3):
 XXXX=          -9532.0464 YYYY=          -1322.8231 ZZZZ=           -283.4929 XXXY=           -129.6568
 XXXZ=            -54.3438 YYYX=            -53.3331 YYYZ=              6.0441 ZZZX=             -3.7267
 ZZZY=             -3.9737 XXYY=          -1921.5654 XXZZ=          -1753.9128 YYZZ=           -290.5163
 XXYZ=             23.7726 YYXZ=             -9.7719 ZZXY=             -5.3982
 N-N= 1.781108396219D+03 E-N=-6.501961477323D+03  KE= 1.244516503266D+03
 Calling FoFJK, ICntrl=      2127 FMM=F ISym2X=0 I1Cent= 0 IOpClX= 0 NMat=1 NMatS=1 NMatT=0.
 ***** Axes restored to original set *****
 -------------------------------------------------------------------
 Center     Atomic                   Forces (Hartrees/Bohr)
 Number     Number              X              Y              Z
 -------------------------------------------------------------------
      1        6          -0.000001896    0.000002816    0.000000162
      2        7          -0.000009856   -0.000005364   -0.000004069
      3        6           0.000015229   -0.000007825   -0.000004676
      4        8           0.000009000    0.000004155    0.000005545
      5        7          -0.000002785    0.000003679    0.000004990
      6        6          -0.000000266    0.000001582   -0.000001870
      7        6          -0.000002292    0.000000343    0.000000636
      8        6           0.000001177    0.000000399   -0.000001077
      9        6          -0.000002027    0.000002343   -0.000000735
     10        6          -0.000000287   -0.000002037    0.000002072
     11        6           0.000000836    0.000000302   -0.000000420
     12        6           0.000000253   -0.000000191   -0.000002185
     13        6           0.000000182   -0.000000053   -0.000002381
     14        1           0.000001789   -0.000002060   -0.000003633
     15        1          -0.000005362   -0.000000001   -0.000002998
     16        1          -0.000001117   -0.000000343    0.000001165
     17        1           0.000000696    0.000002107    0.000000248
     18        1           0.000000485    0.000000396   -0.000003200
     19        1          -0.000000755   -0.000001852   -0.000002577
     20        1           0.000000256    0.000000504    0.000000938
     21        1          -0.000000599   -0.000000804   -0.000001086
     22        1          -0.000000547   -0.000002469    0.000001068
     23        1          -0.000002069   -0.000000006    0.000002789
     24        1          -0.000000622   -0.000000297   -0.000004210
     25        6          -0.000000329    0.000000719    0.000000427
     26        6           0.000000861    0.000001234    0.000003429
     27        1          -0.000000164    0.000000127   -0.000003394
     28        9          -0.000000089   -0.000000518    0.000002637
     29        9          -0.000001058   -0.000000855   -0.000001299
     30        9           0.000000201    0.000002274   -0.000000333
     31        9           0.000000620    0.000001100    0.000004911
     32        9           0.000000214   -0.000001189    0.000005391
     33        9           0.000000321    0.000001783    0.000003734
 -------------------------------------------------------------------
 Cartesian Forces:  Max     0.000015229 RMS     0.000003071

 GradGradGradGradGradGradGradGradGradGradGradGradGradGradGradGradGradGrad
 Berny optimization.
 FormGI is forming the generalized inverse of G from B-inverse, IUseBI=4.
 Internal  Forces:  Max     0.000015009 RMS     0.000002901
 Search for a local minimum.
 Step number   1 out of a maximum of  172
 All quantities printed in internal units (Hartrees-Bohrs-Radians)
 Mixed Optimization -- En-DIIS/RFO-DIIS
 Second derivative matrix not updated -- first step.
 ITU=  0
     Eigenvalues ---    0.00429   0.00482   0.00562   0.00643   0.00923
     Eigenvalues ---    0.01510   0.01553   0.01752   0.01753   0.01848
     Eigenvalues ---    0.01852   0.01914   0.02012   0.02073   0.02120
     Eigenvalues ---    0.02149   0.02179   0.02220   0.02242   0.02264
     Eigenvalues ---    0.03716   0.04427   0.04928   0.05500   0.05524
     Eigenvalues ---    0.05552   0.08186   0.09235   0.10475   0.10612
     Eigenvalues ---    0.10803   0.10906   0.12081   0.12673   0.14701
     Eigenvalues ---    0.15813   0.15999   0.16000   0.16000   0.16000
     Eigenvalues ---    0.16000   0.16000   0.21889   0.21897   0.22072
     Eigenvalues ---    0.22305   0.22368   0.23483   0.24600   0.24987
     Eigenvalues ---    0.24989   0.24993   0.24994   0.25000   0.25000
     Eigenvalues ---    0.25000   0.25000   0.25000   0.25000   0.25000
     Eigenvalues ---    0.29848   0.30226   0.30812   0.31424   0.34064
     Eigenvalues ---    0.34092   0.34353   0.34519   0.34530   0.34686
     Eigenvalues ---    0.34711   0.35346   0.35729   0.36185   0.37197
     Eigenvalues ---    0.42235   0.42730   0.45854   0.45988   0.46123
     Eigenvalues ---    0.46305   0.46384   0.46399   0.47187   0.48162
     Eigenvalues ---    0.50756   0.56333   0.57159   0.57497   0.57505
     Eigenvalues ---    0.57882   0.58106   0.99897
 RFO step:  Lambda= 0.00000000D+00 EMin= 4.29312875D-03
 Linear search not attempted -- first point.
 Iteration  1 RMS(Cart)=  0.00012392 RMS(Int)=  0.00000000
 Iteration  2 RMS(Cart)=  0.00000001 RMS(Int)=  0.00000000
 Variable       Old X    -DE/DX   Delta X   Delta X   Delta X     New X
                                 (Linear)    (Quad)   (Total)
    R1        2.63684   0.00001   0.00000   0.00002   0.00002   2.63686
    R2        2.64560   0.00000   0.00000   0.00001   0.00001   2.64560
    R3        2.63774   0.00000   0.00000   0.00000   0.00000   2.63774
    R4        2.63701   0.00002   0.00000   0.00003   0.00003   2.63704
    R5        1.90693   0.00000   0.00000   0.00000   0.00000   1.90693
    R6        2.28680   0.00001   0.00000   0.00001   0.00001   2.28681
    R7        2.59110  -0.00001   0.00000  -0.00002  -0.00002   2.59107
    R8        2.75550   0.00000   0.00000   0.00000   0.00000   2.75550
    R9        1.90844   0.00000   0.00000   0.00000   0.00000   1.90845
   R10        2.87515  -0.00000   0.00000  -0.00000  -0.00000   2.87515
   R11        2.06188   0.00000   0.00000   0.00000   0.00000   2.06188
   R12        2.07174   0.00000   0.00000   0.00000   0.00000   2.07175
   R13        2.88268   0.00000   0.00000   0.00000   0.00000   2.88268
   R14        2.07222   0.00000   0.00000   0.00000   0.00000   2.07222
   R15        2.06739  -0.00000   0.00000  -0.00000  -0.00000   2.06739
   R16        2.06463  -0.00000   0.00000  -0.00000  -0.00000   2.06463
   R17        2.06146  -0.00000   0.00000  -0.00000  -0.00000   2.06146
   R18        2.06445  -0.00000   0.00000  -0.00000  -0.00000   2.06445
   R19        2.62271   0.00000   0.00000   0.00000   0.00000   2.62271
   R20        2.03793  -0.00000   0.00000  -0.00001  -0.00001   2.03792
   R21        2.64784  -0.00000   0.00000  -0.00000  -0.00000   2.64784
   R22        2.86373   0.00000   0.00000   0.00000   0.00000   2.86373
   R23        2.62781  -0.00000   0.00000  -0.00000  -0.00000   2.62781
   R24        2.85211   0.00000   0.00000   0.00001   0.00001   2.85211
   R25        2.61443  -0.00000   0.00000  -0.00000  -0.00000   2.61442
   R26        2.04507  -0.00000   0.00000  -0.00000  -0.00000   2.04507
   R27        2.05117   0.00000   0.00000   0.00000   0.00000   2.05117
   R28        2.52471   0.00000   0.00000   0.00000   0.00000   2.52471
   R29        2.53966   0.00000   0.00000   0.00000   0.00000   2.53967
   R30        2.53262   0.00000   0.00000   0.00000   0.00000   2.53263
   R31        2.52978  -0.00000   0.00000  -0.00000  -0.00000   2.52978
   R32        2.52971   0.00000   0.00000   0.00000   0.00000   2.52971
   R33        2.52657   0.00000   0.00000   0.00000   0.00000   2.52657
    A1        2.15276   0.00001   0.00000   0.00004   0.00004   2.15281
    A2        2.05676  -0.00001   0.00000  -0.00003  -0.00003   2.05673
    A3        2.07331  -0.00000   0.00000  -0.00001  -0.00001   2.07330
    A4        2.21657   0.00001   0.00000   0.00007   0.00007   2.21663
    A5        2.01040  -0.00000   0.00000  -0.00002  -0.00002   2.01038
    A6        2.03449  -0.00001   0.00000  -0.00005  -0.00005   2.03444
    A7        2.15932   0.00001   0.00000   0.00005   0.00005   2.15937
    A8        1.97224  -0.00000   0.00000  -0.00002  -0.00002   1.97222
    A9        2.15134  -0.00001   0.00000  -0.00003  -0.00003   2.15131
   A10        2.07517  -0.00001   0.00000  -0.00003  -0.00003   2.07514
   A11        2.06263  -0.00000   0.00000  -0.00003  -0.00003   2.06261
   A12        2.03116   0.00001   0.00000   0.00002   0.00002   2.03119
   A13        1.92771  -0.00000   0.00000  -0.00000  -0.00000   1.92770
   A14        1.87736  -0.00000   0.00000  -0.00001  -0.00001   1.87735
   A15        1.93013   0.00000   0.00000   0.00001   0.00001   1.93014
   A16        1.93045   0.00000   0.00000   0.00000   0.00000   1.93046
   A17        1.93097   0.00000   0.00000   0.00001   0.00001   1.93097
   A18        1.86562  -0.00000   0.00000  -0.00000  -0.00000   1.86562
   A19        1.94570   0.00000   0.00000   0.00000   0.00000   1.94571
   A20        1.91283   0.00000   0.00000   0.00000   0.00000   1.91283
   A21        1.90272  -0.00000   0.00000  -0.00000  -0.00000   1.90272
   A22        1.91106  -0.00000   0.00000  -0.00001  -0.00001   1.91106
   A23        1.92526   0.00000   0.00000   0.00000   0.00000   1.92526
   A24        1.86446   0.00000   0.00000  -0.00000  -0.00000   1.86446
   A25        1.94071   0.00000   0.00000   0.00000   0.00000   1.94071
   A26        1.94180  -0.00000   0.00000  -0.00000  -0.00000   1.94179
   A27        1.93743  -0.00000   0.00000  -0.00000  -0.00000   1.93743
   A28        1.88079   0.00000   0.00000   0.00000   0.00000   1.88079
   A29        1.87963   0.00000   0.00000   0.00000   0.00000   1.87964
   A30        1.88077   0.00000   0.00000  -0.00000  -0.00000   1.88077
   A31        2.09777   0.00000   0.00000   0.00000   0.00000   2.09777
   A32        2.09012   0.00000   0.00000   0.00001   0.00001   2.09013
   A33        2.09528  -0.00000   0.00000  -0.00001  -0.00001   2.09527
   A34        2.11110   0.00000   0.00000   0.00000   0.00000   2.11111
   A35        2.03389  -0.00000   0.00000  -0.00000  -0.00000   2.03389
   A36        2.13785  -0.00000   0.00000  -0.00000  -0.00000   2.13785
   A37        2.06525  -0.00000   0.00000  -0.00000  -0.00000   2.06525
   A38        2.16336   0.00000   0.00000   0.00000   0.00000   2.16336
   A39        2.05423   0.00000   0.00000   0.00000   0.00000   2.05423
   A40        2.11339   0.00000   0.00000   0.00000   0.00000   2.11339
   A41        2.08629  -0.00000   0.00000  -0.00000  -0.00000   2.08629
   A42        2.08345  -0.00000   0.00000  -0.00000  -0.00000   2.08345
   A43        2.10542   0.00000   0.00000   0.00001   0.00001   2.10543
   A44        2.09395  -0.00000   0.00000  -0.00000  -0.00000   2.09395
   A45        2.08380  -0.00000   0.00000  -0.00001  -0.00001   2.08379
   A46        1.96618  -0.00000   0.00000   0.00000   0.00000   1.96618
   A47        1.93509   0.00000   0.00000   0.00000   0.00000   1.93509
   A48        1.95940  -0.00000   0.00000  -0.00000  -0.00000   1.95940
   A49        1.86311  -0.00000   0.00000  -0.00000  -0.00000   1.86311
   A50        1.87781   0.00000   0.00000   0.00000   0.00000   1.87782
   A51        1.85608  -0.00000   0.00000  -0.00000  -0.00000   1.85608
   A52        1.94512   0.00000   0.00000   0.00000   0.00000   1.94512
   A53        1.94846  -0.00000   0.00000   0.00000   0.00000   1.94846
   A54        1.95698  -0.00000   0.00000  -0.00000  -0.00000   1.95697
   A55        1.86400   0.00000   0.00000   0.00000   0.00000   1.86400
   A56        1.86440  -0.00000   0.00000  -0.00000  -0.00000   1.86440
   A57        1.87991   0.00000   0.00000   0.00000   0.00000   1.87991
    D1        0.24647   0.00000   0.00000   0.00008   0.00008   0.24655
    D2       -3.12690   0.00000   0.00000   0.00008   0.00008  -3.12681
    D3       -2.92408   0.00000   0.00000   0.00005   0.00005  -2.92403
    D4       -0.01426   0.00000   0.00000   0.00005   0.00005  -0.01421
    D5        3.11545  -0.00000   0.00000  -0.00002  -0.00002   3.11543
    D6       -0.02984  -0.00000   0.00000  -0.00002  -0.00002  -0.02986
    D7        0.00308   0.00000   0.00000   0.00001   0.00001   0.00309
    D8        3.14097   0.00000   0.00000   0.00001   0.00001   3.14098
    D9       -3.12090   0.00000   0.00000   0.00002   0.00002  -3.12088
   D10        0.02481   0.00000   0.00000   0.00002   0.00002   0.02482
   D11       -0.00691  -0.00000   0.00000  -0.00001  -0.00001  -0.00692
   D12        3.13880  -0.00000   0.00000  -0.00001  -0.00001   3.13879
   D13        0.02606   0.00000   0.00000   0.00004   0.00004   0.02610
   D14       -3.14033   0.00000   0.00000  -0.00000  -0.00000  -3.14033
   D15       -2.88099   0.00000   0.00000   0.00003   0.00003  -2.88096
   D16        0.23581  -0.00000   0.00000  -0.00001  -0.00001   0.23580
   D17        3.05542  -0.00000   0.00000  -0.00010  -0.00010   3.05531
   D18        0.42649  -0.00000   0.00000  -0.00004  -0.00004   0.42645
   D19       -0.11083  -0.00000   0.00000  -0.00015  -0.00015  -0.11098
   D20       -2.73976  -0.00000   0.00000  -0.00009  -0.00009  -2.73984
   D21        2.98735   0.00000   0.00000  -0.00003  -0.00003   2.98732
   D22        0.87901   0.00000   0.00000  -0.00002  -0.00002   0.87899
   D23       -1.15238   0.00000   0.00000  -0.00002  -0.00002  -1.15240
   D24       -0.65787  -0.00000   0.00000  -0.00010  -0.00010  -0.65797
   D25       -2.76621  -0.00000   0.00000  -0.00010  -0.00010  -2.76631
   D26        1.48558  -0.00000   0.00000  -0.00009  -0.00009   1.48549
   D27       -3.13600   0.00000   0.00000   0.00002   0.00002  -3.13598
   D28        1.02860   0.00000   0.00000   0.00002   0.00002   1.02862
   D29       -1.00640   0.00000   0.00000   0.00002   0.00002  -1.00638
   D30       -1.05964  -0.00000   0.00000   0.00001   0.00001  -1.05963
   D31        3.10496  -0.00000   0.00000   0.00001   0.00001   3.10497
   D32        1.06996  -0.00000   0.00000   0.00001   0.00001   1.06997
   D33        1.00422  -0.00000   0.00000   0.00001   0.00001   1.00422
   D34       -1.11437   0.00000   0.00000   0.00001   0.00001  -1.11436
   D35        3.13381   0.00000   0.00000   0.00001   0.00001   3.13382
   D36       -1.04700  -0.00000   0.00000   0.00000   0.00000  -1.04699
   D37        3.13958  -0.00000   0.00000   0.00000   0.00000   3.13959
   D38        1.04521   0.00000   0.00000   0.00001   0.00001   1.04522
   D39        1.07262   0.00000   0.00000   0.00001   0.00001   1.07262
   D40       -1.02399   0.00000   0.00000   0.00000   0.00000  -1.02398
   D41       -3.11836   0.00000   0.00000   0.00001   0.00001  -3.11835
   D42        3.11966  -0.00000   0.00000   0.00000   0.00000   3.11966
   D43        1.02306  -0.00000   0.00000   0.00000   0.00000   1.02306
   D44       -1.07131   0.00000   0.00000   0.00001   0.00001  -1.07131
   D45        0.00903  -0.00000   0.00000  -0.00001  -0.00001   0.00902
   D46        3.12307   0.00000   0.00000   0.00000   0.00000   3.12307
   D47       -3.12886  -0.00000   0.00000  -0.00001  -0.00001  -3.12886
   D48       -0.01481   0.00000   0.00000   0.00001   0.00001  -0.01481
   D49       -0.01703   0.00000   0.00000   0.00000   0.00000  -0.01703
   D50       -3.12964   0.00000   0.00000   0.00001   0.00001  -3.12963
   D51       -3.12940  -0.00000   0.00000  -0.00001  -0.00001  -3.12941
   D52        0.04117  -0.00000   0.00000  -0.00001  -0.00001   0.04117
   D53        0.33315   0.00000   0.00000   0.00001   0.00001   0.33316
   D54       -1.74963  -0.00000   0.00000   0.00000   0.00000  -1.74963
   D55        2.42222  -0.00000   0.00000   0.00000   0.00000   2.42223
[...]
 091,0.08272482,-0.00209755,0.00144073,0.00012031,0.00338612,-0.0001342
 0,-0.00041321,-0.00246018,-0.00132700,0.00000896,0.00057019,0.00084134
 ,0.00008204,0.00097315,-0.00025249,0.00007203,-0.00032057,-0.00015793,
 -0.00003315,0.00002794,0.00007811,-0.00000991,0.00000346,-0.00005101,-
 0.00000390,0.00215481,-0.00107790,0.00071332,-0.00247942,-0.00113945,0
 .00064083,0.00866572,-0.02183108,-0.02015440,0.00356167,0.00140484,-0.
 00163814,0.00106615,-0.00004244,0.00108216,-0.00003813,0.00011865,-0.0
 0003296,-0.00005775,0.00011328,-0.00001927,0.00002590,0.00001283,0.000
 00063,0.00007835,0.00003187,-0.00002714,-0.00000212,-0.00000146,0.0000
 0941,-0.00001035,-0.00000273,-0.00000475,-0.00000171,0.00000927,-0.000
 00684,0.00003498,-0.00000658,-0.00000113,-0.00000163,0.00001285,0.0000
 0885,0.00015569,-0.00022955,-0.00003414,0.00043510,-0.00022115,0.00007
 242,0.03769906,-0.21166985,-0.10020229,0.00871406,-0.00647076,-0.00513
 268,-0.00065560,0.00074573,-0.00048446,-0.01493975,0.30896708,-0.00072
 198,0.00072134,-0.00006912,0.00123680,0.00000623,-0.00004747,-0.000998
 08,-0.00048732,-0.00003484,0.00025885,0.00030985,0.00008302,0.00041320
 ,-0.00011932,0.00004699,-0.00013798,-0.00006714,-0.00003189,0.00001121
 ,0.00003282,-0.00000916,0.00000163,-0.00002262,-0.00000247,0.00083036,
 -0.00038950,-0.00000198,-0.00167514,-0.00007398,0.00104250,0.00198542,
 -0.01748514,-0.00084779,0.00382794,0.00029369,-0.00087194,-0.00025005,
 -0.00089019,0.00027457,-0.00003719,0.00003759,-0.00004028,-0.00002691,
 0.00005081,-0.00002166,0.00001152,0.00000854,0.00000073,0.00002950,0.0
 0001188,-0.00000725,-0.00000058,0.00000221,0.00000653,-0.00000379,-0.0
 0000459,0.00000026,-0.00000171,0.00000255,-0.00000089,0.00001573,-0.00
 000345,-0.00000133,0.00000003,0.00000782,0.00000477,0.00002315,-0.0000
 8119,-0.00008477,0.00036583,-0.00014908,-0.00001094,0.02822784,-0.0978
 0702,-0.14153936,0.00065615,-0.00194907,-0.00647315,-0.00013459,0.0001
 5849,-0.00017300,-0.01743343,0.16010413,0.20011302,0.00200365,-0.00190
 908,0.00002065,-0.00310388,0.00052486,0.00035682,0.00258999,0.00038871
 ,-0.00021023,-0.00086391,-0.00018354,-0.00000301,-0.00121739,0.0005540
 6,-0.00008183,0.00039450,0.00017036,0.00004522,-0.00002176,-0.00010679
 ,0.00001058,-0.00000943,0.00006463,0.00000301,-0.00267927,-0.00081963,
 -0.00033889,-0.00310843,0.00690005,0.00187944,-0.03499475,-0.03503004,
 0.02011606,-0.00277913,-0.00118600,0.00108222,-0.00067569,-0.00063255,
 -0.00035765,-0.00007953,-0.00012451,0.00003782,0.00004203,-0.00015043,
 0.00004953,-0.00001390,-0.00002113,0.00000998,-0.00008598,-0.00004392,
 0.00001927,0.00000059,0.00001226,0.00000257,0.00000955,0.00000589,-0.0
 0000433,0.00000636,-0.00001483,0.00000185,-0.00005039,0.00001429,0.000
 00086,0.00000831,-0.00001606,-0.00000205,-0.00038163,0.00050694,-0.000
 25412,-0.00014760,0.00020480,0.00008460,-0.17008214,-0.07756899,0.0508
 0005,0.00059061,0.00349448,-0.00002004,-0.00411905,0.00176046,0.001142
 12,0.00749561,-0.02360095,-0.00698556,0.19230429,0.00109575,-0.0003356
 6,0.00002131,-0.00057838,0.00051949,0.00012204,0.00041364,-0.00018598,
 -0.00009361,-0.00012390,0.00013653,0.00000881,-0.00018190,0.00018045,-
 0.00003144,0.00004716,0.00000115,0.00001583,0.00000286,-0.00001930,0.0
 0000107,-0.00000358,0.00000870,0.00000195,0.00012282,0.00008227,-0.000
 14557,-0.00030523,0.00182644,0.00039333,-0.00595539,-0.00044190,0.0043
 2111,0.00312935,-0.00648743,-0.00135414,-0.00018052,0.00208777,-0.0004
 6943,-0.00010370,-0.00004583,0.00002673,-0.00000678,-0.00003998,0.0000
 2995,-0.00000003,-0.00000420,0.00000546,-0.00000987,-0.00000387,-0.000
 00517,-0.00000047,0.00000387,0.00000563,-0.00000032,0.00000357,-0.0000
 0688,0.00000312,-0.00000164,-0.00000394,-0.00000892,0.00000370,0.00000
 052,0.00000285,-0.00000266,0.00000289,-0.00007445,0.00006437,-0.000071
 99,-0.00019607,0.00005477,0.00003450,-0.08397089,-0.15401652,0.0476414
 4,0.00462104,-0.00124268,-0.00066317,0.00335460,0.00189739,-0.00055284
 ,-0.03653656,-0.07720938,-0.00497463,0.12905860,0.25385940,-0.00059908
 ,-0.00011957,0.00005028,0.00059660,-0.00011220,-0.00003469,-0.00053207
 ,-0.00002651,0.00000829,0.00018451,0.00000103,0.00005172,0.00025229,-0
 .00013936,0.00003186,-0.00007854,-0.00002940,-0.00002249,0.00000290,0.
 00002182,-0.00000844,0.00000251,-0.00001405,-0.00000136,0.00013189,0.0
 0088377,-0.00038808,0.00187989,-0.00196017,0.00115636,0.00963999,0.009
 65194,0.00325053,0.00002179,0.00153846,0.00041256,0.00056853,-0.000161
 96,0.00026276,0.00001934,0.00002140,-0.00003232,-0.00000690,0.00003860
 ,-0.00002966,0.00000295,0.00000770,-0.00000208,0.00001453,0.00000626,0
 .00000140,0.00000027,-0.00000029,0.00000075,-0.00000123,-0.00000421,0.
 00000430,-0.00000270,0.00000159,0.00000197,0.00001120,-0.00000355,-0.0
 0000116,-0.00000114,0.00000522,0.00000076,0.00009493,-0.00015607,-0.00
 020777,0.00008919,-0.00005654,-0.00003162,0.05226991,0.04512597,-0.101
 38407,-0.00130742,-0.00053001,-0.00161104,0.00083870,-0.00076191,-0.00
 065913,-0.01165255,-0.01638523,0.01692076,-0.07361626,-0.09037470,0.13
 244717,0.00314671,-0.00165131,-0.00060181,-0.00467316,0.00060603,0.000
 32929,0.00337183,0.00129139,-0.00029409,-0.00075022,-0.00077677,0.0000
 0735,-0.00142177,0.00051994,-0.00004493,0.00045164,0.00020169,0.000054
 28,-0.00003034,-0.00011985,0.00000638,-0.00000926,0.00007246,0.0000008
 9,-0.00140048,0.00224731,0.00160094,0.00285334,0.00103561,-0.00025675,
 -0.01976889,0.01618718,-0.03707475,-0.00243609,-0.00351312,-0.00102897
 ,-0.00203187,0.00033130,0.00210379,-0.00004522,-0.00017706,0.00002354,
 0.00005233,-0.00017311,0.00003647,-0.00002076,-0.00002262,0.00000602,-
 0.00011453,-0.00004982,0.00002988,0.00000214,0.00001422,0.00000123,0.0
 0001382,0.00000178,0.00000174,0.00000446,-0.00001775,0.00000652,-0.000
 05438,0.00001374,-0.00000019,0.00000798,-0.00001550,-0.00000382,-0.000
 06057,0.00013246,0.00010921,-0.00039000,0.00028184,0.00018277,-0.12651
 229,0.02719467,-0.08270232,-0.00199635,0.00359621,-0.00189483,-0.00011
 121,0.00032655,-0.00105547,0.01194889,-0.00782650,-0.01168429,0.019017
 34,-0.00938388,0.01987259,0.12246501,-0.00101542,0.00160406,0.00019180
 ,0.00208063,-0.00024680,-0.00012316,-0.00149631,-0.00073338,0.00009951
 ,0.00031190,0.00045306,0.00001207,0.00060503,-0.00018437,0.00001344,-0
 .00019644,-0.00009269,-0.00002460,0.00001558,0.00004865,-0.00000408,0.
 00000280,-0.00003100,0.00000114,0.00167939,-0.00113121,-0.00091636,-0.
 00111677,-0.00179910,0.00117614,0.01352150,0.00546211,0.01412162,-0.00
 047448,0.00056532,-0.00026482,0.00020145,0.00073298,-0.00078718,0.0000
 1993,0.00007227,-0.00000290,-0.00002529,0.00006976,-0.00001002,0.00001
 150,0.00000845,-0.00000002,0.00005182,0.00002114,-0.00001662,-0.000001
 37,-0.00000414,0.00000271,-0.00000645,0.00000050,-0.00000352,-0.000000
 68,0.00000701,-0.00000484,0.00002156,-0.00000439,0.00000008,-0.0000020
 5,0.00000632,0.00000365,0.00012734,-0.00018874,-0.00016222,0.00001121,
 -0.00007499,0.00003349,0.02678006,-0.08545005,0.04530866,0.00495619,-0
 .00361382,0.00257041,-0.00028256,0.00033522,0.00041079,-0.01420898,0.0
 0589818,-0.04142734,0.00034232,-0.02137903,0.05299056,-0.02328212,0.10
 049531,0.00150199,-0.00100628,-0.00043453,-0.00225791,0.00024807,0.000
 25257,0.00164049,0.00058148,-0.00018280,-0.00040325,-0.00034714,0.0000
 7085,-0.00071513,0.00024568,0.00001726,0.00022520,0.00010783,0.0000058
 4,-0.00001690,-0.00006046,-0.00000464,-0.00000479,0.00003754,-0.000003
 88,-0.00135843,0.00077641,0.00076055,0.00100388,0.00122670,0.00003141,
 -0.01307960,0.00730613,-0.00932365,-0.00176392,-0.00097369,-0.00003344
 ,-0.00101597,0.00025787,0.00092745,-0.00000065,-0.00008109,-0.00005012
 ,0.00002182,-0.00007377,-0.00001124,-0.00000657,-0.00000845,0.00000482
 ,-0.00006272,-0.00003082,0.00002101,0.00000113,0.00001268,0.00000384,0
 .00000766,-0.00000446,0.00000575,-0.00000006,-0.00001169,0.00000667,-0
 .00002636,0.00000601,-0.00000162,0.00000499,-0.00000426,-0.00000019,-0
 .00011986,0.00014226,-0.00000285,-0.00026132,0.00017061,0.00002060,-0.
 08197503,0.04228538,-0.21594070,-0.00280944,0.00228436,-0.00611563,0.0
 0018876,-0.00033539,-0.00087742,-0.01956881,-0.02560447,-0.07012381,0.
 00615331,0.04539566,-0.05185659,0.11197570,-0.07075209,0.34722951,0.00
 071146,0.00087477,-0.00061241,0.00176413,0.00007146,-0.00001026,-0.001
 24565,-0.00242973,-0.00019021,0.00012565,0.00169308,-0.00005942,0.0001
 2854,0.00044061,-0.00001330,-0.00004104,-0.00007991,0.00005010,0.00003
 643,0.00000117,-0.00000693,-0.00000575,0.00000099,0.00000367,-0.004304
 51,0.00296172,-0.00102383,-0.01141836,-0.01042368,0.00894756,0.0033099
 0,-0.00190852,0.00047381,-0.00061804,-0.00012712,-0.00022033,0.0001377
 4,0.00021772,0.00013206,-0.00001584,0.00001574,0.00001074,-0.00005954,
 -0.00000342,0.00007504,0.00003096,-0.00001952,0.00002199,0.00004558,-0
 .00000642,-0.00004812,-0.00000607,0.00001054,0.00001319,-0.00001030,0.
 00001640,-0.00001625,0.00001057,-0.00000527,-0.00001438,-0.00000971,0.
 00001425,-0.00000032,0.00000835,-0.00000734,0.00001086,0.00221809,0.00
 155934,-0.00012168,0.00024025,0.00007219,0.00001224,0.00044244,0.00469
 915,-0.00060790,-0.19398494,-0.08443288,0.06225737,0.00006805,-0.00031
 277,-0.00012665,-0.00022182,-0.00177140,-0.00007939,-0.00049021,-0.001
 11311,0.00041107,-0.00006540,-0.00121301,0.00034704,0.30837877,-0.0028
 4769,0.00190841,-0.00011590,0.00273551,0.00002483,-0.00013384,-0.00267
 136,-0.00154429,0.00002693,0.00100219,0.00115393,0.00000908,0.00100102
 ,-0.00011628,0.00000314,-0.00035193,-0.00021483,0.00001326,0.00004441,
 0.00007672,-0.00001457,-0.00000063,-0.00005144,0.00000030,0.00030643,-
 0.00496872,0.00136536,-0.03996129,-0.02308638,0.01886204,0.00549140,-0
 .00541708,0.00107854,-0.00219367,-0.00158610,-0.00033551,-0.00014932,-
 0.00054719,0.00016816,0.00000564,0.00004980,0.00001687,-0.00007038,0.0
 0008673,0.00002059,0.00002790,0.00000447,0.00001045,0.00009284,0.00003
 284,-0.00005271,-0.00000347,0.00000024,0.00001365,-0.00001378,0.000008
 46,-0.00001377,0.00000441,0.00000763,-0.00001668,0.00003053,0.00000163
 ,-0.00000061,0.00000171,0.00000725,0.00001413,-0.00029710,-0.00536636,
 0.00113189,0.00003652,-0.00014953,0.00004176,0.00340546,-0.00124790,0.
 00008842,-0.07678635,-0.13948773,0.04224435,0.00021361,-0.00077373,-0.
 00019659,-0.00053545,0.00093439,0.00035446,-0.00099389,-0.00003308,0.0
 0022991,-0.00087652,0.00046626,-0.00063882,0.10821300,0.14395960,0.000
 49268,0.00001091,0.00009530,-0.00080903,-0.00002808,0.00011360,0.00065
 476,0.00068329,-0.00005355,-0.00019354,-0.00050303,0.00020512,-0.00019
 555,-0.00006023,0.00003797,0.00006795,0.00005998,-0.00005100,-0.000017
 28,-0.00001317,0.00000391,0.00000150,0.00000649,-0.00000657,0.00129980
 ,-0.00008809,0.00084335,0.01090639,0.00643608,0.00304612,-0.00153467,0
 .00211655,0.00113530,0.00094794,-0.00022584,-0.00038337,-0.00049856,0.
 00000666,0.00004777,0.00000682,-0.00000590,-0.00002748,0.00001941,0.00
 000158,-0.00004478,-0.00000627,0.00000528,-0.00000331,-0.00003466,-0.0
 0000771,0.00002974,0.00000176,0.00000412,-0.00000190,0.00000610,-0.000
 01167,0.00000939,-0.00000545,-0.00000212,0.00000922,-0.00000148,-0.000
 00423,-0.00000018,-0.00000027,0.00000374,-0.00000200,-0.00048208,0.000
 88912,-0.00072188,-0.00006868,0.00001556,-0.00002799,-0.00073053,-0.00
 123854,-0.00162362,0.05998599,0.04438561,-0.10518250,-0.00007751,0.000
 20854,-0.00015394,0.00020063,0.00092905,0.00081911,0.00030536,0.000370
 68,0.00006726,0.00030835,-0.00006260,0.00076113,-0.11065174,-0.0573088
 4,0.13860320,0.00028187,-0.00098232,-0.00026643,0.00021624,0.00003615,
 0.00005328,0.00005438,-0.00066794,-0.00010258,-0.00009612,0.00046596,0
 .00004606,-0.00016657,0.00020928,-0.00001059,0.00006486,0.00001213,0.0
 0001548,0.00000568,-0.00001673,0.00000067,-0.00000249,0.00001203,-0.00
 000053,-0.00040612,-0.00064298,-0.00040270,0.01042934,0.00500574,0.004
 97976,-0.00114559,0.00034720,0.00090772,-0.00013068,0.00125904,-0.0004
 7908,0.00097676,0.00031733,-0.00008957,0.00002056,-0.00000389,0.000016
 53,-0.00000791,-0.00002125,0.00002324,0.00000836,-0.00000833,0.0000063
 0,-0.00000340,-0.00000968,-0.00000558,-0.00000145,0.00000550,0.0000031
 3,-0.00000035,0.00000389,-0.00000317,0.00000325,-0.00000453,-0.0000019
 7,-0.00001173,0.00000653,0.00000008,0.00000390,-0.00000459,0.00000207,
 0.00026864,-0.00044412,0.00012798,0.00005728,0.00001887,0.00004586,-0.
 00152356,0.00471578,0.00208837,-0.07471699,0.01182021,0.02157811,-0.00
 008811,0.00018625,-0.00010228,-0.00486402,-0.00559110,-0.00192582,-0.0
 0001456,-0.00117411,-0.00001629,0.00037409,-0.00073254,-0.00030411,-0.
 01755103,0.00718260,0.05512206,0.08891279,-0.00068986,0.00103344,0.002
 23853,0.00188420,-0.00016689,0.00002433,-0.00239705,-0.00078668,-0.000
 00543,0.00089425,0.00057784,0.00015268,0.00104197,-0.00027906,0.000049
 66,-0.00036851,-0.00019705,-0.00004280,0.00003347,0.00008448,-0.000013
 34,0.00000254,-0.00005911,-0.00000488,-0.00264358,-0.00305174,-0.00015
 777,0.00744080,-0.02062601,-0.04112130,0.00139454,0.00073082,0.0000061
 8,0.00093666,-0.00087578,0.00160622,-0.00033194,-0.00105889,-0.0001801
 9,0.00001778,-0.00000291,-0.00008705,-0.00006702,0.00010452,-0.0000174
 9,0.00002160,0.00001524,0.00000373,0.00007735,0.00003761,-0.00002876,-
 0.00000193,-0.00000009,0.00001305,-0.00001090,-0.00000397,-0.00000641,
 -0.00000163,0.00000983,-0.00000880,0.00003962,-0.00000609,-0.00000078,
 -0.00000067,0.00001467,0.00001224,-0.00015635,-0.00020248,-0.00124630,
 -0.00000451,-0.00008149,-0.00020172,0.00351234,-0.00376400,-0.00243350
 ,0.01213581,-0.13164275,-0.08988570,0.00005134,-0.00027386,0.00007310,
 -0.00390460,0.00063794,0.00089983,-0.00089892,0.00036453,0.00033397,-0
 .00141467,0.00089308,-0.00030753,-0.00147134,0.01902082,0.01059863,-0.
 01049343,0.12238398,-0.00017054,0.00029838,0.00089250,0.00087401,-0.00
 024302,0.00011056,-0.00122079,-0.00015789,-0.00011854,0.00051917,0.000
 08354,0.00036969,0.00057500,-0.00023127,0.00007343,-0.00019402,-0.0000
 9190,-0.00008739,0.00001154,0.00004789,-0.00000925,0.00000340,-0.00003
 589,-0.00001077,-0.00102142,-0.00220854,0.00043617,0.00375243,-0.01374
 970,-0.01331118,0.00125857,-0.00025916,0.00033722,-0.00000804,-0.00098
 048,0.00083293,-0.00028467,-0.00040945,-0.00008521,0.00005621,-0.00001
 597,-0.00009742,-0.00003181,0.00007608,-0.00005277,0.00001647,0.000015
 50,0.,0.00002585,0.00001775,0.00000706,0.00000045,0.00000716,0.0000105
 9,-0.00000251,-0.00001550,0.00000450,-0.00000546,0.00000307,0.00000348
 ,0.00002444,-0.00000602,-0.00000155,0.00000141,0.00001450,0.00000804,-
 0.00049473,0.00027342,-0.00104715,-0.00003404,-0.00008894,-0.00013210,
 0.00159696,-0.00323503,-0.00653660,0.01976579,-0.08926283,-0.22904853,
 0.00004809,-0.00027905,-0.00002766,-0.00016385,0.00283044,0.00321885,-
 0.00056612,0.00046701,0.00081874,-0.00039170,-0.00025331,0.00183128,0.
 04404364,-0.00134278,-0.05502759,-0.03583200,0.11816290,0.36415225,-0.
 00011148,-0.00057388,0.00096310,0.00002000,0.00048759,0.00005369,0.000
 74246,-0.00110418,-0.00022380,-0.00047448,0.00078769,0.00006993,-0.000
 62456,0.00047199,-0.00000095,0.00022628,0.00008024,0.00002258,0.000000
 73,-0.00005730,0.00000078,-0.00000622,0.00003813,-0.00000199,0.0012818
 0,0.00296556,-0.00073926,-0.01343849,0.00971725,-0.01454911,-0.0005404
 3,-0.00050773,0.00057728,0.00014440,0.00147655,0.00076727,0.00071922,0
 .00057175,-0.00016614,-0.00008580,0.00001880,-0.00005516,0.00000147,-0
 .00006025,0.00002678,0.00001157,-0.00002049,0.00001412,-0.00003384,-0.
 00003426,0.00000005,-0.00000232,0.00001549,0.00000644,0.00000297,0.000
 00465,-0.00000254,0.00000581,-0.00001347,0.00000033,-0.00003277,0.0000
 1389,-0.00000051,0.00000884,-0.00001014,0.00000321,0.00074548,-0.00085
 484,-0.00043561,0.00011044,0.00005509,-0.00013673,-0.00426229,0.009865
 30,-0.00500817,-0.19532815,0.06641788,-0.08688813,-0.00010085,0.000305
 10,-0.00007259,-0.00140990,-0.00569762,0.00420134,0.00045582,-0.001943
 72,0.00090858,-0.00181681,-0.00668572,0.00267884,-0.08760869,-0.002042
 35,-0.01502020,-0.00094733,-0.00462740,-0.03215173,0.30234713,0.000165
 23,0.00022255,-0.00159561,0.00158717,-0.00065574,-0.00018543,-0.002108
 69,-0.00047266,0.00011063,0.00078757,0.00033836,0.00000243,0.00097263,
 -0.00030766,0.00000861,-0.00034471,-0.00017553,-0.00001050,0.00002739,
 0.00008001,-0.00000926,0.00000342,-0.00005349,-0.00000055,-0.00287527,
 -0.00592956,0.00191552,0.03873780,-0.01153672,0.02295325,0.00027359,0.
 00143254,-0.00082250,0.00016301,0.00016173,-0.00044516,0.00047928,-0.0
 0055706,0.00013833,0.00014760,-0.00001268,0.00000273,-0.00005169,0.000
 09139,0.00000037,0.00001343,0.00001527,-0.00000146,0.00007591,0.000039
 37,-0.00003032,-0.00000100,-0.00000746,0.00000586,-0.00001034,0.000001
 07,-0.00000659,-0.00000135,0.00001213,-0.00000955,0.00003758,-0.000007
 23,-0.00000025,-0.00000362,0.00001108,0.00000714,-0.00013359,0.0001888
 4,0.00069246,0.00000115,-0.00007810,0.00005830,0.00283357,-0.00356135,
 0.00057074,0.06311293,-0.11578710,0.04488340,0.00001150,-0.00013350,0.
 00001858,-0.00304201,0.00057786,0.00292933,-0.00070143,0.00035474,-0.0
 0002246,-0.00475380,-0.00220597,-0.00084426,-0.01553670,0.01684661,-0.
 00717183,-0.01080694,0.01717003,-0.00943093,-0.06905960,0.10393824,-0.
 00075979,-0.00062204,0.00006888,-0.00030098,0.00045949,0.00009716,0.00
 063755,-0.00030661,-0.00016642,-0.00029013,0.00020487,0.00013740,-0.00
 039648,0.00021629,0.00002863,0.00013752,0.00006399,-0.00001786,-0.0000
 0598,-0.00003482,-0.00000032,-0.00000292,0.00002172,-0.00000469,0.0008
 9950,0.00360719,-0.00045170,-0.01543299,0.00482214,0.00062712,-0.00007
 155,-0.00122441,0.00095712,0.00000201,0.00051514,-0.00004424,0.0003020
 8,0.00014774,-0.00000412,-0.00010264,0.00001477,-0.00002837,0.00000756
 ,-0.00002980,-0.00000904,0.00000616,-0.00000888,0.00000736,-0.00003208
 ,-0.00002184,0.00001225,-0.00000092,0.00001170,0.00000471,0.00000364,-
 0.00000410,0.00000284,0.00000037,-0.00000853,0.00000441,-0.00001701,0.
 00000543,-0.00000075,0.00000508,-0.00000258,0.00000200,0.00023403,-0.0
 0014113,-0.00015349,0.00003651,0.00004645,-0.00002998,-0.00173013,0.00
 100227,-0.00633570,-0.08436238,0.04755477,-0.13114336,-0.00002582,0.00
 009512,-0.00007946,0.00388699,0.00351348,-0.00213800,0.00031881,-0.000
 11841,0.00078301,0.00037698,-0.00212037,0.00301257,-0.00300725,-0.0055
 2267,0.01748416,-0.04547401,0.00157467,-0.06751356,0.14515828,-0.05371
 104,0.18489142\\0.00000189,-0.00000283,-0.00000016,0.00000986,0.000005
 36,0.00000407,-0.00001523,0.00000782,0.00000468,-0.00000900,-0.0000041
 5,-0.00000555,0.00000278,-0.00000368,-0.00000499,0.00000027,-0.0000015
 8,0.00000187,0.00000229,-0.00000034,-0.00000064,-0.00000118,-0.0000004
 0,0.00000108,0.00000202,-0.00000234,0.00000074,0.00000030,0.00000204,-
 0.00000207,-0.00000084,-0.00000031,0.00000042,-0.00000026,0.00000020,0
 .00000219,-0.00000017,0.00000006,0.00000238,-0.00000179,0.00000206,0.0
 0000363,0.00000536,0.,0.00000300,0.00000112,0.00000034,-0.00000116,-0.
 00000070,-0.00000211,-0.00000025,-0.00000049,-0.00000040,0.00000320,0.
 00000076,0.00000185,0.00000258,-0.00000026,-0.00000050,-0.00000094,0.0
 0000060,0.00000080,0.00000109,0.00000055,0.00000247,-0.00000107,0.0000
 0207,0.,-0.00000279,0.00000062,0.00000030,0.00000421,0.00000033,-0.000
 00072,-0.00000043,-0.00000086,-0.00000123,-0.00000343,0.00000016,-0.00
 000013,0.00000339,0.00000009,0.00000052,-0.00000264,0.00000106,0.00000
 086,0.00000130,-0.00000020,-0.00000227,0.00000033,-0.00000062,-0.00000
 110,-0.00000491,-0.00000021,0.00000119,-0.00000539,-0.00000032,-0.0000
 0178,-0.00000373\\\@


      LET US REMEMBER, PLEASE, THAT THE SEARCH FOR THE CONSTITUTION
      OF THE WORLD IS ONE OF THE GREATEST AND NOBLEST PROBLEMS PRESENTED 
      BY NATURE.

                                                  -- GALILEO
 Job cpu time:       0 days  6 hours 42 minutes 13.8 seconds.
 File lengths (MBytes):  RWF=    837 Int=      0 D2E=      0 Chk=     18 Scr=      1
 Normal termination of Gaussian 09 at Thu Nov 14 10:30:03 2019.
pbs_rusage has been removed.
Please contact help@nci.org.au if you require this functionality.
