 Entering Gaussian System, Link 0=/apps/gaussian/g09e01/g09/g09
 AtFile(1): /home/507/hio507/Basis/6-31pGd.gbs
 Initial command:
 /apps/gaussian/g09e01/g09/l1.exe "/jobfs/local/3890896.r-man2/Gau-17168.inp" -scrdir="/jobfs/local/3890896.r-man2/"
 Entering Link 1 = /apps/gaussian/g09e01/g09/l1.exe PID=     17169.
  
 Copyright (c) 1988,1990,1992,1993,1995,1998,2003,2009,2015,
            Gaussian, Inc.  All Rights Reserved.
  
 This is part of the Gaussian(R) 09 program.  It is based on
 the Gaussian(R) 03 system (copyright 2003, Gaussian, Inc.),
 the Gaussian(R) 98 system (copyright 1998, Gaussian, Inc.),
 the Gaussian(R) 94 system (copyright 1995, Gaussian, Inc.),
 the Gaussian 92(TM) system (copyright 1992, Gaussian, Inc.),
 the Gaussian 90(TM) system (copyright 1990, Gaussian, Inc.),
 the Gaussian 88(TM) system (copyright 1988, Gaussian, Inc.),
 the Gaussian 86(TM) system (copyright 1986, Carnegie Mellon
 University), and the Gaussian 82(TM) system (copyright 1983,
 Carnegie Mellon University). Gaussian is a federally registered
 trademark of Gaussian, Inc.
  
 This software contains proprietary and confidential information,
 including trade secrets, belonging to Gaussian, Inc.
  
 This software is provided under written license and may be
 used, copied, transmitted, or stored only in accord with that
 written license.
  
 The following legend is applicable only to US Government
 contracts under FAR:
  
                    RESTRICTED RIGHTS LEGEND
  
 Use, reproduction and disclosure by the US Government is
 subject to restrictions as set forth in subparagraphs (a)
 and (c) of the Commercial Computer Software - Restricted
 Rights clause in FAR 52.227-19.
  
 Gaussian, Inc.
 340 Quinnipiac St., Bldg. 40, Wallingford CT 06492
  
  
 ---------------------------------------------------------------
 Warning -- This program may not be used in any manner that
 competes with the business of Gaussian, Inc. or will provide
 assistance to any competitor of Gaussian, Inc.  The licensee
 of this program is prohibited from giving any competitor of
 Gaussian, Inc. access to this program.  By using this program,
 the user acknowledges that Gaussian, Inc. is engaged in the
 business of creating and licensing software in the field of
 computational chemistry and represents and warrants to the
 licensee that it is not a competitor of Gaussian, Inc. and that
 it will not use this program in any manner prohibited above.
 ---------------------------------------------------------------
  

 Cite this work as:
 Gaussian 09, Revision E.01,
 M. J. Frisch, G. W. Trucks, H. B. Schlegel, G. E. Scuseria, 
 M. A. Robb, J. R. Cheeseman, G. Scalmani, V. Barone, B. Mennucci, 
 G. A. Petersson, H. Nakatsuji, M. Caricato, X. Li, H. P. Hratchian, 
 A. F. Izmaylov, J. Bloino, G. Zheng, J. L. Sonnenberg, M. Hada, 
 M. Ehara, K. Toyota, R. Fukuda, J. Hasegawa, M. Ishida, T. Nakajima, 
 Y. Honda, O. Kitao, H. Nakai, T. Vreven, J. A. Montgomery, Jr., 
 J. E. Peralta, F. Ogliaro, M. Bearpark, J. J. Heyd, E. Brothers, 
 K. N. Kudin, V. N. Staroverov, T. Keith, R. Kobayashi, J. Normand, 
 K. Raghavachari, A. Rendell, J. C. Burant, S. S. Iyengar, J. Tomasi, 
 M. Cossi, N. Rega, J. M. Millam, M. Klene, J. E. Knox, J. B. Cross, 
 V. Bakken, C. Adamo, J. Jaramillo, R. Gomperts, R. E. Stratmann, 
 O. Yazyev, A. J. Austin, R. Cammi, C. Pomelli, J. W. Ochterski, 
 R. L. Martin, K. Morokuma, V. G. Zakrzewski, G. A. Voth, 
 P. Salvador, J. J. Dannenberg, S. Dapprich, A. D. Daniels, 
 O. Farkas, J. B. Foresman, J. V. Ortiz, J. Cioslowski, 
 and D. J. Fox, Gaussian, Inc., Wallingford CT, 2013.
 
 ******************************************
 Gaussian 09:  ES64L-G09RevE.01 30-Nov-2015
                30-Nov-2019 
 ******************************************
 %chk=NM2.MP2_6-31pGd.chk
 %mem=1114112000
 %nproc=8
 Will use up to    8 processors via shared memory.
 -------------------------------------------------------------
 # MP2/Gen 6D SCF=Tight INT(grid=ultrafine) maxdisk=3489660928
 -------------------------------------------------------------
 1/38=1/1;
 2/12=2,17=6,18=5,40=1/2;
 3/5=7,8=2,11=9,16=1,25=1,30=1,75=-5/1,2,3;
 4//1;
 5/5=2,32=2,38=5/2;
 8/10=1/1;
 9/16=-3/6;
 6/7=2,8=2,9=2,10=2/1;
 99/5=1,9=1/99;
 ---------------
 NM2.MP2_6-31pGd
 ---------------
 Symbolic Z-matrix:
 Charge =  0 Multiplicity = 1
 C                    -5.90996   1.10291   0.20594 
 N                    -4.64948   0.51828   0.07779 
 C                    -3.41381   1.16305   0.14615 
 O                    -3.28493   2.34753   0.3578 
 N                    -2.35401   0.30927  -0.02092 
 C                    -1.00625   0.86248  -0.08175 
 C                     0.0281   -0.25286  -0.0502 
 C                     1.44847   0.30082  -0.10487 
 C                    -6.12744   2.48447   0.143 
 C                    -7.41413   2.994     0.24792 
 C                    -8.5134    2.14413   0.42852 
 C                    -8.28623   0.77319   0.47964 
 C                    -7.00743   0.25644   0.37142 
 H                    -4.6362   -0.48941   0.12939 
 H                    -2.50942  -0.55043  -0.52755 
 H                    -0.88312   1.52479   0.77655 
 H                    -0.88265   1.47876  -0.98 
 H                    -0.13404  -0.92893  -0.89821 
 H                    -0.11387  -0.84512   0.85861 
 H                     1.61294   0.87694  -1.01849 
 H                     2.18699  -0.50167  -0.08001 
 H                     1.64455   0.96054   0.74353 
 H                    -5.29064   3.15277   0.016 
 H                    -6.86113  -0.81799   0.42007 
 C                    -9.94057   2.62323   0.5359 
 C                    -7.55149   4.50222   0.19389 
 H                    -9.12145   0.09876   0.61647 
 F                    -10.06498   3.69804   1.31965 
 F                    -10.72801   1.66853   1.05996 
 F                    -10.46437   2.93036  -0.65887 
 F                    -6.46921   5.07316  -0.3491 
 F                    -7.69469   5.02896   1.41621 
 F                    -8.60095   4.88634  -0.54004 
 
                          Input orientation:                          
 ---------------------------------------------------------------------
 Center     Atomic      Atomic             Coordinates (Angstroms)
 Number     Number       Type             X           Y           Z
 ---------------------------------------------------------------------
      1          6           0       -5.909955    1.102910    0.205944
      2          7           0       -4.649477    0.518284    0.077789
      3          6           0       -3.413812    1.163054    0.146151
      4          8           0       -3.284933    2.347533    0.357804
      5          7           0       -2.354008    0.309265   -0.020919
      6          6           0       -1.006248    0.862479   -0.081751
      7          6           0        0.028098   -0.252861   -0.050201
      8          6           0        1.448466    0.300816   -0.104868
      9          6           0       -6.127442    2.484471    0.143003
     10          6           0       -7.414132    2.994004    0.247922
     11          6           0       -8.513400    2.144130    0.428520
     12          6           0       -8.286228    0.773186    0.479641
     13          6           0       -7.007432    0.256442    0.371419
     14          1           0       -4.636201   -0.489411    0.129387
     15          1           0       -2.509423   -0.550433   -0.527548
     16          1           0       -0.883119    1.524789    0.776552
     17          1           0       -0.882654    1.478758   -0.979995
     18          1           0       -0.134043   -0.928927   -0.898206
     19          1           0       -0.113866   -0.845121    0.858615
     20          1           0        1.612938    0.876941   -1.018491
     21          1           0        2.186994   -0.501666   -0.080009
     22          1           0        1.644546    0.960542    0.743535
     23          1           0       -5.290636    3.152775    0.016001
     24          1           0       -6.861133   -0.817986    0.420074
     25          6           0       -9.940573    2.623235    0.535896
     26          6           0       -7.551486    4.502217    0.193886
     27          1           0       -9.121449    0.098762    0.616469
     28          9           0      -10.064979    3.698041    1.319645
     29          9           0      -10.728008    1.668533    1.059964
     30          9           0      -10.464373    2.930358   -0.658869
     31          9           0       -6.469213    5.073157   -0.349101
     32          9           0       -7.694687    5.028956    1.416205
     33          9           0       -8.600951    4.886337   -0.540044
 ---------------------------------------------------------------------
                    Distance matrix (angstroms):
                    1          2          3          4          5
     1  C    0.000000
     2  N    1.395355   0.000000
     3  C    2.497584   1.395446   0.000000
     4  O    2.909104   2.299247   1.210122   0.000000
     5  N    3.650493   2.307078   1.371150   2.272573   0.000000
     6  C    4.918019   3.662927   2.436934   2.755177   1.458150
     7  C    6.096244   4.742441   3.726944   4.231393   2.447707
     8  C    7.408530   6.104553   4.944513   5.177662   3.803409
     9  C    1.399990   2.460594   3.018268   2.853900   4.358577
    10  C    2.416722   3.715031   4.400602   4.180943   5.734541
    11  C    2.812757   4.206696   5.200773   5.232899   6.442580
    12  C    2.414602   3.667754   4.899353   5.244651   5.971350
    13  C    1.395832   2.390550   3.713058   4.269642   4.670233
    14  H    2.040538   1.009102   2.055519   3.150611   2.422578
    15  H    3.851646   2.467473   2.051300   3.127854   1.009905
    16  H    5.076678   3.960653   2.632995   2.573125   2.068084
    17  H    5.178944   4.028693   2.788303   2.883647   2.110076
    18  H    6.221629   4.841087   4.027896   4.716021   2.689051
    19  H    6.149427   4.800034   3.928106   4.527639   2.669161
    20  H    7.625236   6.367755   5.167830   5.295845   4.129656
    21  H    8.259360   6.913938   5.847347   6.184788   4.613220
    22  H    7.574942   6.344567   5.097534   5.135396   4.122739
    23  H    2.149786   2.712092   2.738320   2.188170   4.087872
    24  H    2.154167   2.606569   3.985421   4.776358   4.666835
    25  C    4.320433   5.712826   6.699451   6.663728   7.951131
    26  C    3.774925   4.930199   5.317202   4.782574   6.681375
    27  H    3.389769   4.523793   5.825035   6.260095   6.800650
    28  F    5.023869   6.401619   7.213964   6.979831   8.528775
    29  F    4.925740   6.263887   7.388371   7.506892   8.552181
    30  F    4.982990   6.338279   7.313127   7.274452   8.547229
    31  F    4.047679   4.923469   4.986949   4.250692   6.303752
    32  F    4.479268   5.604536   5.906279   5.268413   7.270740
    33  F    4.702369   5.922478   6.421846   5.959169   7.761661
                    6          7          8          9         10
     6  C    0.000000
     7  C    1.521463   0.000000
     8  C    2.518258   1.525448   0.000000
     9  C    5.376615   6.739509   7.888230   0.000000
    10  C    6.761143   8.125133   9.269486   1.387877   0.000000
    11  C    7.632845   8.884364  10.145003   2.426963   1.401175
    12  C    7.302140   8.394136   9.763660   2.775280   2.397140
    13  C    6.048706   7.066528   8.469417   2.406381   2.770362
    14  H    3.879271   4.673745   6.140237   3.326854   4.457032
    15  H    2.110590   2.599119   4.070401   4.769732   6.100866
    16  H    1.091100   2.161915   2.776923   5.368919   6.715071
    17  H    1.096320   2.166216   2.754545   5.457140   6.816447
    18  H    2.153247   1.096570   2.155455   6.975402   8.348814
    19  H    2.143952   1.094016   2.163874   6.910961   8.270775
    20  H    2.781695   2.173881   1.092556   7.990413   9.358085
    21  H    3.472419   2.173391   1.090880   8.837228  10.222958
    22  H    2.778025   2.171467   1.092462   7.942719   9.297324
    23  H    4.859114   6.315985   7.318728   1.078426   2.142015
    24  H    6.111912   6.928349   8.400995   3.394303   3.855738
    25  C    9.127098  10.391816  11.641066   3.835830   2.569690
    26  C    7.494252   8.951002   9.936809   2.470181   1.515418
    27  H    8.180908   9.180538  10.596426   3.857442   3.381300
    28  F    9.595047  10.925031  12.088416   4.285025   2.944699
    29  F    9.821703  10.982624  12.308290   4.761490   3.660336
    30  F    9.698727  10.981589  12.212172   4.432921   3.182811
    31  F    6.902555   8.406596   9.247948   2.657117   2.360547
    32  F    8.021136   9.470446  10.405106   3.248339   2.363182
    33  F    8.607030  10.055435  11.054735   3.514792   2.368618
                   11         12         13         14         15
    11  C    0.000000
    12  C    1.390578   0.000000
    13  C    2.415485   1.383495   0.000000
    14  H    4.696561   3.878083   2.497521   0.000000
    15  H    6.649998   6.011479   4.657389   2.226763   0.000000
    16  H    7.663282   7.447086   6.267379   4.308300   2.941443
    17  H    7.788126   7.579002   6.390092   4.381042   2.639830
    18  H    9.023164   8.441195   7.089465   4.638809   2.433736
    19  H    8.925960   8.339667   6.998003   4.594542   2.783340
    20  H   10.307392  10.012425   8.753722   6.498945   4.390020
    21  H   11.034368  10.565361   9.236665   6.826419   4.717945
    22  H   10.231518   9.936046   8.688552   6.475131   4.599364
    23  H    3.402020   3.853696   3.385624   3.702250   4.663083
    24  H    3.391782   2.136884   1.085434   2.267770   4.461721
    25  C    1.509270   2.482479   3.772543   6.163617   8.150158
    26  C    2.557520   3.811453   4.284171   5.780951   7.174410
    27  H    2.142097   1.082203   2.134006   4.549795   6.741596
    28  F    2.369840   3.524818   4.700248   6.958671   8.862736
    29  F    2.351468   2.664716   4.038661   6.529380   8.659628
    30  F    2.367882   3.270154   4.490185   6.803216   8.684145
    31  F    3.655488   4.741108   4.899956   5.876312   6.880156
    32  F    3.157220   4.397574   4.933639   6.439147   7.860962
    33  F    2.909550   4.249331   4.980562   6.713124   8.164885
                   16         17         18         19         20
    16  H    0.000000
    17  H    1.757150   0.000000
    18  H    3.063763   2.522708   0.000000
    19  H    2.492981   3.061362   1.758934   0.000000
    20  H    3.142004   2.567420   2.515466   3.077479   0.000000
    21  H    3.777011   3.762286   2.497841   2.508572   1.763760
    22  H    2.590087   3.102554   3.070632   2.523028   1.764291
    23  H    4.759725   4.819195   6.639768   6.594855   7.342270
    24  H    6.430577   6.555718   6.855940   6.761558   8.760829
    25  C    9.126992   9.254926  10.528178  10.425824  11.787675
    26  C    7.326098   7.415701   9.257886   9.184448   9.929711
    27  H    8.362371   8.504753   9.171905   9.060138  10.886033
    28  F    9.451166   9.722585  11.178157  10.948860  12.239250
    29  F    9.850017  10.056264  11.082117  10.909584  12.539759
    30  F    9.789611   9.696370  11.030280  11.121600  12.255908
    31  F    6.712858   6.672883   8.744193   8.767841   9.131127
    32  F    7.686729   8.046706   9.900313   9.606484  10.478495
    33  F    8.520467   8.448506  10.277845  10.336173  10.983064
                   21         22         23         24         25
    21  H    0.000000
    22  H    1.763669   0.000000
    23  H    8.323408   7.309715   0.000000
    24  H    9.067455   8.695652   4.289135   0.000000
    25  C   12.538829  11.705667   4.708781   4.619347   0.000000
    26  C   10.952254   9.869781   2.638955   5.369573   3.058641
    27  H   11.345769  10.801178   4.935857   2.447044   2.655263
    28  F   13.027181  12.039052   4.979072   5.609667   1.336020
    29  F   13.145592  12.396833   5.732176   4.641655   1.343933
    30  F   13.121393  12.347988   5.222305   5.310135   1.340207
    31  F   10.299563   9.161907   2.282589   5.954057   4.340009
    32  F   11.422524  10.209101   3.355605   5.989476   3.406823
    33  F   12.067393  11.046703   3.777910   6.040537   2.841455
                   26         27         28         29         30
    26  C    0.000000
    27  H    4.694015   0.000000
    28  F    2.869091   3.786756   0.000000
    29  F    4.343978   2.289521   2.150801   0.000000
    30  F    3.418017   3.383470   2.159484   2.148509   0.000000
    31  F    1.338701   5.719378   4.195854   5.631542   4.544100
    32  F    1.338666   5.194425   2.720100   4.540968   4.047370
    33  F    1.337003   4.952708   2.648371   4.175962   2.704129
                   31         32         33
    31  F    0.000000
    32  F    2.149429   0.000000
    33  F    2.148410   2.160686   0.000000
 Stoichiometry    C12H12F6N2O
 Framework group  C1[X(C12H12F6N2O)]
 Deg. of freedom    93
 Full point group                 C1      NOp   1
 Largest Abelian subgroup         C1      NOp   1
 Largest concise Abelian subgroup C1      NOp   1
                         Standard orientation:                         
 ---------------------------------------------------------------------
 Center     Atomic      Atomic             Coordinates (Angstroms)
 Number     Number       Type             X           Y           Z
 ---------------------------------------------------------------------
      1          6           0        0.477651   -0.994912   -0.072457
      2          7           0        1.861944   -1.156612   -0.140301
      3          6           0        2.832463   -0.170000    0.038474
      4          8           0        2.577757    0.981758    0.308610
      5          7           0        4.111417   -0.646454   -0.093137
      6          6           0        5.223270    0.295409   -0.039504
      7          6           0        6.548832   -0.449490    0.014014
      8          6           0        7.729179    0.514662    0.078698
      9          6           0       -0.152946    0.254878   -0.090951
     10          6           0       -1.537724    0.338638   -0.051234
     11          6           0       -2.327954   -0.816331    0.018597
     12          6           0       -1.690842   -2.052346    0.026412
     13          6           0       -0.311161   -2.145170   -0.017436
     14          1           0        2.183573   -2.113040   -0.130922
     15          1           0        4.255488   -1.479712   -0.645255
     16          1           0        5.091692    0.909707    0.852586
     17          1           0        5.195747    0.973767   -0.900311
     18          1           0        6.647095   -1.089430   -0.871020
     19          1           0        6.550945   -1.111301    0.885147
     20          1           0        7.753674    1.168330   -0.796400
     21          1           0        8.677412   -0.023160    0.118974
     22          1           0        7.668178    1.149444    0.965718
     23          1           0        0.441473    1.153723   -0.132756
     24          1           0        0.157576   -3.124095   -0.004883
     25          6           0       -3.836851   -0.804633    0.050013
     26          6           0       -2.131850    1.732735   -0.050061
     27          1           0       -2.282362   -2.957122    0.077857
     28          9           0       -4.327271    0.130340    0.868708
     29          9           0       -4.316017   -1.984781    0.478738
     30          9           0       -4.368449   -0.599984   -1.163114
     31          9           0       -1.253054    2.639717   -0.494160
     32          9           0       -2.492933    2.114403    1.181188
     33          9           0       -3.209886    1.821376   -0.835909
 ---------------------------------------------------------------------
 Rotational constants (GHZ):      0.7113354      0.1183305      0.1055328
 General basis read from cards:  (6D, 7F)
 There are   423 symmetry adapted cartesian basis functions of A   symmetry.
 There are   423 symmetry adapted basis functions of A   symmetry.
   423 basis functions,   720 primitive gaussians,   423 cartesian basis functions
    80 alpha electrons       80 beta electrons
       nuclear repulsion energy      1781.1099787613 Hartrees.
 NAtoms=   33 NActive=   33 NUniq=   33 SFac= 1.00D+00 NAtFMM=   60 NAOKFM=F Big=F
 Integral buffers will be    131072 words long.
 Raffenetti 1 integral format.
 Two-electron integral symmetry is turned on.
 One-electron integrals computed using PRISM.
 NBasis=   423 RedAO= T EigKep=  1.06D-06  NBF=   423
 NBsUse=   422 1.00D-06 EigRej=  2.14D-07 NBFU=   422
 ExpMin= 4.38D-02 ExpMax= 7.00D+03 ExpMxC= 1.05D+03 IAcc=3 IRadAn=         5 AccDes= 0.00D+00
 Harris functional with IExCor=  205 and IRadAn=       5 diagonalized for initial guess.
 HarFok:  IExCor=  205 AccDes= 0.00D+00 IRadAn=         5 IDoV= 1 UseB2=F ITyADJ=14
 ICtDFT=  3500011 ScaDFX=  1.000000  1.000000  1.000000  1.000000
 FoFCou: FMM=F IPFlag=           0 FMFlag=      100000 FMFlg1=           0
         NFxFlg=           0 DoJE=T BraDBF=F KetDBF=T FulRan=T
         wScrn=  0.000000 ICntrl=     500 IOpCl=  0 I1Cent=   200000004 NGrid=           0
         NMat0=    1 NMatS0=      1 NMatT0=    0 NMatD0=    1 NMtDS0=    0 NMtDT0=    0
 Petite list used in FoFCou.
 Requested convergence on RMS density matrix=1.00D-08 within 128 cycles.
 Requested convergence on MAX density matrix=1.00D-06.
 Requested convergence on             energy=1.00D-06.
 No special actions if energy rises.
 Initial convergence to 1.0D-05 achieved.  Increase integral accuracy.
 SCF Done:  E(RHF) =  -1241.89107766     A.U. after   17 cycles
            NFock= 17  Conv=0.84D-08     -V/T= 2.0025
 ExpMin= 4.38D-02 ExpMax= 7.00D+03 ExpMxC= 1.05D+03 IAcc=3 IRadAn=         5 AccDes= 0.00D+00
 HarFok:  IExCor=  205 AccDes= 0.00D+00 IRadAn=         5 IDoV=-2 UseB2=F ITyADJ=14
 ICtDFT= 12500011 ScaDFX=  1.000000  1.000000  1.000000  1.000000
 Range of M.O.s used for correlation:    22   422
 NBasis=   423 NAE=    80 NBE=    80 NFC=    21 NFV=     0
 NROrb=    401 NOA=    59 NOB=    59 NVA=   342 NVB=   342

 **** Warning!!: The largest alpha MO coefficient is  0.19233752D+03

 Fully direct method using O(OVN) memory.
 JobTyp=1 Pass  1:  I=   1 to  18 NPSUse=  8 ParTrn=T ParDer=T DoDerP=F.
 JobTyp=1 Pass  2:  I=  19 to  59 NPSUse=  8 ParTrn=T ParDer=T DoDerP=F.
 Spin components of T(2) and E(2):
     alpha-alpha T2 =       0.1293915931D+00 E2=     -0.4267561558D+00
     alpha-beta  T2 =       0.6593866834D+00 E2=     -0.2241807717D+01
     beta-beta   T2 =       0.1293915931D+00 E2=     -0.4267561558D+00
 ANorm=    0.1384980097D+01
 E2 =    -0.3095320029D+01 EUMP2 =    -0.12449863976843D+04

 **********************************************************************

            Population analysis using the SCF density.

 **********************************************************************

 Orbital symmetries:
       Occupied  (A) (A) (A) (A) (A) (A) (A) (A) (A) (A) (A) (A)
                 (A) (A) (A) (A) (A) (A) (A) (A) (A) (A) (A) (A)
                 (A) (A) (A) (A) (A) (A) (A) (A) (A) (A) (A) (A)
                 (A) (A) (A) (A) (A) (A) (A) (A) (A) (A) (A) (A)
                 (A) (A) (A) (A) (A) (A) (A) (A) (A) (A) (A) (A)
                 (A) (A) (A) (A) (A) (A) (A) (A) (A) (A) (A) (A)
                 (A) (A) (A) (A) (A) (A) (A) (A)
       Virtual   (A) (A) (A) (A) (A) (A) (A) (A) (A) (A) (A) (A)
                 (A) (A) (A) (A) (A) (A) (A) (A) (A) (A) (A) (A)
                 (A) (A) (A) (A) (A) (A) (A) (A) (A) (A) (A) (A)
                 (A) (A) (A) (A) (A) (A) (A) (A) (A) (A) (A) (A)
                 (A) (A) (A) (A) (A) (A) (A) (A) (A) (A) (A) (A)
                 (A) (A) (A) (A) (A) (A) (A) (A) (A) (A) (A) (A)
                 (A) (A) (A) (A) (A) (A) (A) (A) (A) (A) (A) (A)
                 (A) (A) (A) (A) (A) (A) (A) (A) (A) (A) (A) (A)
                 (A) (A) (A) (A) (A) (A) (A) (A) (A) (A) (A) (A)
                 (A) (A) (A) (A) (A) (A) (A) (A) (A) (A) (A) (A)
                 (A) (A) (A) (A) (A) (A) (A) (A) (A) (A) (A) (A)
                 (A) (A) (A) (A) (A) (A) (A) (A) (A) (A) (A) (A)
                 (A) (A) (A) (A) (A) (A) (A) (A) (A) (A) (A) (A)
                 (A) (A) (A) (A) (A) (A) (A) (A) (A) (A) (A) (A)
                 (A) (A) (A) (A) (A) (A) (A) (A) (A) (A) (A) (A)
                 (A) (A) (A) (A) (A) (A) (A) (A) (A) (A) (A) (A)
                 (A) (A) (A) (A) (A) (A) (A) (A) (A) (A) (A) (A)
                 (A) (A) (A) (A) (A) (A) (A) (A) (A) (A) (A) (A)
                 (A) (A) (A) (A) (A) (A) (A) (A) (A) (A) (A) (A)
                 (A) (A) (A) (A) (A) (A) (A) (A) (A) (A) (A) (A)
                 (A) (A) (A) (A) (A) (A) (A) (A) (A) (A) (A) (A)
                 (A) (A) (A) (A) (A) (A) (A) (A) (A) (A) (A) (A)
                 (A) (A) (A) (A) (A) (A) (A) (A) (A) (A) (A) (A)
                 (A) (A) (A) (A) (A) (A) (A) (A) (A) (A) (A) (A)
                 (A) (A) (A) (A) (A) (A) (A) (A) (A) (A) (A) (A)
                 (A) (A) (A) (A) (A) (A) (A) (A) (A) (A) (A) (A)
                 (A) (A) (A) (A) (A) (A) (A) (A) (A) (A) (A) (A)
                 (A) (A) (A) (A) (A) (A) (A) (A) (A) (A) (A) (A)
                 (A) (A) (A) (A) (A) (A)
 The electronic state is 1-A.
 Alpha  occ. eigenvalues --  -26.35368 -26.35141 -26.34993 -26.34987 -26.34686
 Alpha  occ. eigenvalues --  -26.34684 -20.55341 -15.63562 -15.61112 -11.52231
 Alpha  occ. eigenvalues --  -11.52165 -11.41161 -11.32944 -11.29766 -11.28632
 Alpha  occ. eigenvalues --  -11.28099 -11.27743 -11.27283 -11.26542 -11.24648
 Alpha  occ. eigenvalues --  -11.23317  -1.73760  -1.73291  -1.63985  -1.63631
 Alpha  occ. eigenvalues --   -1.63483  -1.63311  -1.43011  -1.29282  -1.25099
 Alpha  occ. eigenvalues --   -1.19643  -1.09106  -1.08146  -1.06665  -0.99041
 Alpha  occ. eigenvalues --   -0.96880  -0.94415  -0.89309  -0.88687  -0.83971
 Alpha  occ. eigenvalues --   -0.83485  -0.82860  -0.82532  -0.82266  -0.81728
 Alpha  occ. eigenvalues --   -0.81513  -0.78861  -0.76707  -0.72315  -0.71377
 Alpha  occ. eigenvalues --   -0.71232  -0.70663  -0.70635  -0.68136  -0.67683
 Alpha  occ. eigenvalues --   -0.67352  -0.66431  -0.65776  -0.65627  -0.64938
 Alpha  occ. eigenvalues --   -0.64466  -0.64424  -0.64271  -0.63439  -0.62923
 Alpha  occ. eigenvalues --   -0.61466  -0.59838  -0.58550  -0.57042  -0.55644
 Alpha  occ. eigenvalues --   -0.54542  -0.53743  -0.52656  -0.50548  -0.49939
 Alpha  occ. eigenvalues --   -0.47710  -0.46396  -0.41948  -0.37913  -0.34075
 Alpha virt. eigenvalues --    0.04003   0.06650   0.07335   0.07715   0.08312
 Alpha virt. eigenvalues --    0.08640   0.09162   0.09348   0.10464   0.10664
 Alpha virt. eigenvalues --    0.10822   0.11258   0.12112   0.12206   0.12659
 Alpha virt. eigenvalues --    0.12999   0.13185   0.13622   0.14462   0.14690
 Alpha virt. eigenvalues --    0.15086   0.15714   0.16963   0.17232   0.17631
 Alpha virt. eigenvalues --    0.18441   0.19091   0.19499   0.19702   0.20174
 Alpha virt. eigenvalues --    0.20868   0.21358   0.21891   0.22469   0.23254
 Alpha virt. eigenvalues --    0.24355   0.24760   0.25422   0.26179   0.26419
 Alpha virt. eigenvalues --    0.27585   0.27878   0.29044   0.29401   0.29421
 Alpha virt. eigenvalues --    0.30175   0.30568   0.31109   0.31211   0.31780
 Alpha virt. eigenvalues --    0.31836   0.32679   0.32802   0.33443   0.33981
 Alpha virt. eigenvalues --    0.34151   0.34601   0.35626   0.36268   0.37042
 Alpha virt. eigenvalues --    0.37301   0.37743   0.38370   0.39024   0.39356
 Alpha virt. eigenvalues --    0.39641   0.40441   0.40780   0.41066   0.41200
 Alpha virt. eigenvalues --    0.41504   0.42093   0.42332   0.42785   0.43449
 Alpha virt. eigenvalues --    0.43574   0.44190   0.45236   0.45536   0.46051
 Alpha virt. eigenvalues --    0.46659   0.46821   0.47106   0.47288   0.47457
 Alpha virt. eigenvalues --    0.48532   0.48796   0.49104   0.49702   0.50085
 Alpha virt. eigenvalues --    0.50909   0.51300   0.51731   0.52350   0.52732
 Alpha virt. eigenvalues --    0.53475   0.54409   0.55270   0.55956   0.56326
 Alpha virt. eigenvalues --    0.56775   0.57418   0.57768   0.58071   0.58829
 Alpha virt. eigenvalues --    0.59938   0.60568   0.61118   0.62228   0.62903
 Alpha virt. eigenvalues --    0.63754   0.65554   0.66948   0.68442   0.69463
 Alpha virt. eigenvalues --    0.70812   0.71399   0.75627   0.81381   0.84316
 Alpha virt. eigenvalues --    0.84760   0.85315   0.87977   0.89512   0.90715
 Alpha virt. eigenvalues --    0.91499   0.92599   0.93162   0.94749   0.94781
 Alpha virt. eigenvalues --    0.95511   0.96330   0.97206   0.98199   1.01154
 Alpha virt. eigenvalues --    1.01795   1.02332   1.02621   1.04214   1.04904
 Alpha virt. eigenvalues --    1.05432   1.06746   1.08053   1.10637   1.11704
 Alpha virt. eigenvalues --    1.12438   1.12959   1.13355   1.14692   1.16563
 Alpha virt. eigenvalues --    1.16814   1.18069   1.18761   1.21460   1.22524
 Alpha virt. eigenvalues --    1.23146   1.23750   1.25273   1.26173   1.27386
 Alpha virt. eigenvalues --    1.28016   1.30484   1.31923   1.34174   1.35664
 Alpha virt. eigenvalues --    1.36492   1.36675   1.37728   1.38473   1.39548
 Alpha virt. eigenvalues --    1.40495   1.41052   1.45043   1.45460   1.46105
 Alpha virt. eigenvalues --    1.47216   1.48738   1.49778   1.53256   1.53941
 Alpha virt. eigenvalues --    1.56563   1.58617   1.59585   1.61316   1.61795
 Alpha virt. eigenvalues --    1.63184   1.65260   1.67156   1.68247   1.69188
 Alpha virt. eigenvalues --    1.69992   1.71163   1.71269   1.74262   1.76517
 Alpha virt. eigenvalues --    1.77493   1.79491   1.85293   1.87771   1.88714
 Alpha virt. eigenvalues --    1.89471   1.90626   1.91598   1.92384   1.92903
 Alpha virt. eigenvalues --    1.93890   1.95355   1.96526   1.96959   1.97708
 Alpha virt. eigenvalues --    1.98475   1.98740   1.99514   1.99807   2.00692
 Alpha virt. eigenvalues --    2.00844   2.01435   2.02249   2.03379   2.04087
 Alpha virt. eigenvalues --    2.04506   2.05338   2.06728   2.07815   2.09112
 Alpha virt. eigenvalues --    2.10683   2.11337   2.11746   2.12603   2.13069
 Alpha virt. eigenvalues --    2.13735   2.14655   2.15181   2.16065   2.17246
 Alpha virt. eigenvalues --    2.17742   2.18542   2.19337   2.19824   2.21115
 Alpha virt. eigenvalues --    2.21794   2.23111   2.23166   2.25322   2.25886
 Alpha virt. eigenvalues --    2.28668   2.30216   2.30366   2.31296   2.32102
 Alpha virt. eigenvalues --    2.33865   2.35543   2.36348   2.38413   2.38867
 Alpha virt. eigenvalues --    2.39157   2.39406   2.41289   2.41796   2.42576
 Alpha virt. eigenvalues --    2.43607   2.44115   2.44972   2.45469   2.46254
 Alpha virt. eigenvalues --    2.49025   2.50553   2.51050   2.52115   2.54717
 Alpha virt. eigenvalues --    2.55208   2.57599   2.59139   2.59923   2.62275
 Alpha virt. eigenvalues --    2.63191   2.64963   2.65640   2.68035   2.68559
 Alpha virt. eigenvalues --    2.71546   2.73891   2.74484   2.76788   2.79948
 Alpha virt. eigenvalues --    2.80634   2.82967   2.85763   2.87258   2.92121
 Alpha virt. eigenvalues --    2.94023   2.95377   2.97544   2.99698   3.00770
 Alpha virt. eigenvalues --    3.02780   3.04791   3.08328   3.08833   3.09449
 Alpha virt. eigenvalues --    3.12021   3.14828   3.17267   3.17405   3.20573
 Alpha virt. eigenvalues --    3.21758   3.23688   3.29471   3.33866   3.36635
 Alpha virt. eigenvalues --    3.46834   3.53112   3.55839   3.56974   3.59565
 Alpha virt. eigenvalues --    3.60758   3.65371   3.68804   3.71170   3.75260
 Alpha virt. eigenvalues --    3.82164   4.54723   4.65339   4.66473   4.71263
 Alpha virt. eigenvalues --    4.72062   4.79532   4.80235   4.81288   4.86000
 Alpha virt. eigenvalues --    4.89081   4.96697   4.99984   5.01563   5.07359
 Alpha virt. eigenvalues --    5.23270   6.26911   6.32953   6.46337   6.60353
 Alpha virt. eigenvalues --    7.36169   7.67544
          Condensed to atoms (all electrons):
               1          2          3          4          5          6
     1  C   21.546106  -0.276057  -1.359035  -0.233247  -0.153436  -0.563528
     2  N   -0.276057   7.684962   0.212533  -0.084265  -0.205285  -0.129244
     3  C   -1.359035   0.212533   6.236036   0.655778   0.304218  -0.561232
     4  O   -0.233247  -0.084265   0.655778   8.297154  -0.127499  -0.088498
     5  N   -0.153436  -0.205285   0.304218  -0.127499   7.448872   0.401249
     6  C   -0.563528  -0.129244  -0.561232  -0.088498   0.401249   6.474008
     7  C    0.032051   0.004700   0.011258   0.012285  -0.120027  -0.124315
     8  C   -0.004971   0.000095  -0.046700  -0.000736   0.004789  -0.049217
     9  C   -4.903973  -0.020501   1.198962   0.264747  -0.012427   0.204743
    10  C   -4.486594   0.079816   0.180906   0.027077  -0.000451   0.035851
    11  C   -2.162467   0.013873  -0.419138  -0.028375  -0.012304  -0.038970
    12  C    0.367310   0.083584   0.322176   0.013480   0.019084   0.016155
    13  C    0.259626   0.161655  -1.537738  -0.069811  -0.056600  -0.158849
    14  H   -0.086757   0.271299  -0.025911   0.002026   0.015470   0.003881
    15  H    0.004306   0.033031   0.036441   0.002247   0.260688  -0.073098
    16  H   -0.009730   0.004690   0.025010  -0.009348  -0.036389   0.396885
    17  H   -0.001711   0.004664   0.065397  -0.001183  -0.074872   0.401757
    18  H   -0.003402  -0.000394  -0.026912  -0.000324   0.001118  -0.025514
    19  H    0.003363   0.000478   0.037824  -0.000265  -0.000514  -0.094124
    20  H    0.000283   0.000019   0.008707  -0.000037  -0.000377  -0.024726
    21  H   -0.000002   0.000012   0.001853   0.000013   0.000344   0.053284
    22  H   -0.000208  -0.000065  -0.009455  -0.000083  -0.001020  -0.024101
    23  H    0.022166  -0.006433   0.035344  -0.007061   0.000670   0.003959
    24  H    0.160982  -0.010726  -0.010010   0.000079   0.000472  -0.000292
    25  C   -0.207340   0.004476  -0.083458  -0.002285   0.003053  -0.000551
    26  C   -1.941262  -0.004429   0.034509   0.004768   0.009066   0.006809
    27  H   -0.020416  -0.000231   0.001890  -0.000003  -0.000011   0.000014
    28  F    0.022130  -0.000079   0.000286   0.000005   0.000000   0.000002
    29  F    0.013992   0.000013   0.000219  -0.000001   0.000000   0.000000
    30  F   -0.014070   0.000050  -0.000223  -0.000002   0.000002   0.000001
    31  F    0.149426  -0.000727   0.000041  -0.000382  -0.000056  -0.000025
    32  F    0.015796   0.000263   0.001202   0.000069   0.000002  -0.000024
    33  F    0.039151  -0.000045  -0.001479  -0.000006  -0.000000  -0.000022
               7          8          9         10         11         12
     1  C    0.032051  -0.004971  -4.903973  -4.486594  -2.162467   0.367310
     2  N    0.004700   0.000095  -0.020501   0.079816   0.013873   0.083584
     3  C    0.011258  -0.046700   1.198962   0.180906  -0.419138   0.322176
     4  O    0.012285  -0.000736   0.264747   0.027077  -0.028375   0.013480
     5  N   -0.120027   0.004789  -0.012427  -0.000451  -0.012304   0.019084
     6  C   -0.124315  -0.049217   0.204743   0.035851  -0.038970   0.016155
     7  C    5.691772   0.218820  -0.029421  -0.002828   0.000182  -0.000692
     8  C    0.218820   5.401824   0.000634   0.000087  -0.000215   0.000087
     9  C   -0.029421   0.000634  17.080160  -0.018487  -3.241558   1.681026
    10  C   -0.002828   0.000087  -0.018487  42.384715 -12.456360 -14.222140
    11  C    0.000182  -0.000215  -3.241558 -12.456360  35.726544  -2.879989
    12  C   -0.000692   0.000087   1.681026 -14.222140  -2.879989  22.466479
    13  C    0.023132  -0.001504  -7.520724  -0.048494  -1.801273  -2.352031
    14  H   -0.001072  -0.000057   0.062044   0.006788   0.006778   0.026121
    15  H   -0.001097   0.002349   0.012916   0.000618  -0.000361  -0.000804
    16  H   -0.030802  -0.005095   0.004961   0.000592   0.000059   0.000034
    17  H   -0.082007  -0.000511   0.004746   0.000817   0.000087  -0.000027
    18  H    0.393079  -0.012782   0.000674   0.000029  -0.000007   0.000005
    19  H    0.428272  -0.044319  -0.000339  -0.000002   0.000012  -0.000006
    20  H   -0.019884   0.390951  -0.000049  -0.000002   0.000000  -0.000000
    21  H   -0.089132   0.395579   0.000019   0.000000  -0.000000  -0.000000
    22  H   -0.034056   0.423942  -0.000033   0.000001  -0.000000   0.000000
    23  H   -0.000113   0.000014   0.318602  -0.019603  -0.037140  -0.031522
    24  H   -0.000030   0.000000   0.042477  -0.032189  -0.018013   0.073131
    25  C    0.000030  -0.000002  -1.436871  -1.024170  -2.611621   0.115098
    26  C    0.000067   0.000051   1.784335  -3.875311  -3.039572   0.130054
    27  H   -0.000000  -0.000000  -0.006652   0.071376   0.028154   0.245633
    28  F    0.000000   0.000000   0.063345  -0.092448   0.098469  -0.000418
    29  F   -0.000000   0.000000   0.008345  -0.016020   0.043768   0.004510
    30  F   -0.000000  -0.000000  -0.008922  -0.092164   0.354164  -0.118412
    31  F    0.000005  -0.000001   0.018184  -0.056292   0.013061  -0.008108
    32  F   -0.000002  -0.000000  -0.028671   0.194838  -0.073179   0.023954
    33  F    0.000000  -0.000000  -0.021540   0.169977  -0.112073  -0.004813
              13         14         15         16         17         18
     1  C    0.259626  -0.086757   0.004306  -0.009730  -0.001711  -0.003402
     2  N    0.161655   0.271299   0.033031   0.004690   0.004664  -0.000394
     3  C   -1.537738  -0.025911   0.036441   0.025010   0.065397  -0.026912
     4  O   -0.069811   0.002026   0.002247  -0.009348  -0.001183  -0.000324
     5  N   -0.056600   0.015470   0.260688  -0.036389  -0.074872   0.001118
     6  C   -0.158849   0.003881  -0.073098   0.396885   0.401757  -0.025514
     7  C    0.023132  -0.001072  -0.001097  -0.030802  -0.082007   0.393079
     8  C   -0.001504  -0.000057   0.002349  -0.005095  -0.000511  -0.012782
     9  C   -7.520724   0.062044   0.012916   0.004961   0.004746   0.000674
    10  C   -0.048494   0.006788   0.000618   0.000592   0.000817   0.000029
    11  C   -1.801273   0.006778  -0.000361   0.000059   0.000087  -0.000007
    12  C   -2.352031   0.026121  -0.000804   0.000034  -0.000027   0.000005
    13  C   19.096590  -0.021315  -0.010294  -0.001221  -0.001909  -0.000593
    14  H   -0.021315   0.273671   0.000964  -0.000002   0.000005   0.000004
    15  H   -0.010294   0.000964   0.306603   0.002205   0.001478   0.001723
    16  H   -0.001221  -0.000002   0.002205   0.463336  -0.033241   0.003130
    17  H   -0.001909   0.000005   0.001478  -0.033241   0.511625  -0.003916
    18  H   -0.000593   0.000004   0.001723   0.003130  -0.003916   0.530238
    19  H    0.000423  -0.000004   0.000402  -0.003167   0.003422  -0.034450
    20  H    0.000024  -0.000000   0.000006   0.000286   0.001337  -0.003454
    21  H   -0.000007  -0.000000   0.000000  -0.000096  -0.000112  -0.002734
    22  H   -0.000003   0.000000  -0.000002   0.001336   0.000073   0.003541
    23  H    0.024680  -0.000090  -0.000002  -0.000003   0.000001  -0.000000
    24  H    0.100773   0.004743   0.000003  -0.000000   0.000000  -0.000000
    25  C   -0.473982   0.000946  -0.000016   0.000000  -0.000003  -0.000000
    26  C    0.940134   0.000618   0.000050  -0.000021  -0.000003  -0.000000
    27  H    0.031926  -0.000006   0.000000   0.000000  -0.000000  -0.000000
    28  F    0.001601  -0.000000  -0.000000  -0.000000  -0.000000  -0.000000
    29  F    0.076709   0.000000   0.000000   0.000000  -0.000000  -0.000000
    30  F   -0.002845   0.000000  -0.000000   0.000000  -0.000000   0.000000
    31  F   -0.003129   0.000000   0.000000   0.000000   0.000000   0.000000
    32  F   -0.014171  -0.000000   0.000000  -0.000000   0.000000  -0.000000
    33  F    0.003970  -0.000000   0.000000   0.000000   0.000000   0.000000
              19         20         21         22         23         24
     1  C    0.003363   0.000283  -0.000002  -0.000208   0.022166   0.160982
     2  N    0.000478   0.000019   0.000012  -0.000065  -0.006433  -0.010726
     3  C    0.037824   0.008707   0.001853  -0.009455   0.035344  -0.010010
     4  O   -0.000265  -0.000037   0.000013  -0.000083  -0.007061   0.000079
     5  N   -0.000514  -0.000377   0.000344  -0.001020   0.000670   0.000472
     6  C   -0.094124  -0.024726   0.053284  -0.024101   0.003959  -0.000292
     7  C    0.428272  -0.019884  -0.089132  -0.034056  -0.000113  -0.000030
     8  C   -0.044319   0.390951   0.395579   0.423942   0.000014   0.000000
     9  C   -0.000339  -0.000049   0.000019  -0.000033   0.318602   0.042477
    10  C   -0.000002  -0.000002   0.000000   0.000001  -0.019603  -0.032189
    11  C    0.000012   0.000000  -0.000000  -0.000000  -0.037140  -0.018013
    12  C   -0.000006  -0.000000  -0.000000   0.000000  -0.031522   0.073131
    13  C    0.000423   0.000024  -0.000007  -0.000003   0.024680   0.100773
    14  H   -0.000004  -0.000000  -0.000000   0.000000  -0.000090   0.004743
    15  H    0.000402   0.000006   0.000000  -0.000002  -0.000002   0.000003
    16  H   -0.003167   0.000286  -0.000096   0.001336  -0.000003  -0.000000
    17  H    0.003422   0.001337  -0.000112   0.000073   0.000001   0.000000
    18  H   -0.034450  -0.003454  -0.002734   0.003541  -0.000000  -0.000000
    19  H    0.498557   0.003250  -0.002649  -0.003428   0.000000  -0.000000
    20  H    0.003250   0.501901  -0.025365  -0.030338   0.000000  -0.000000
    21  H   -0.002649  -0.025365   0.493342  -0.024711   0.000000   0.000000
    22  H   -0.003428  -0.030338  -0.024711   0.499346  -0.000000  -0.000000
    23  H    0.000000   0.000000   0.000000  -0.000000   0.330996  -0.000079
    24  H   -0.000000  -0.000000   0.000000  -0.000000  -0.000079   0.436947
    25  C    0.000000   0.000000  -0.000000  -0.000000   0.004873   0.014440
    26  C    0.000000  -0.000000   0.000000  -0.000000   0.008614   0.001643
    27  H   -0.000000   0.000000  -0.000000   0.000000   0.000007  -0.000934
    28  F    0.000000   0.000000  -0.000000  -0.000000   0.000013   0.000014
    29  F    0.000000   0.000000  -0.000000  -0.000000   0.000007   0.000059
    30  F   -0.000000  -0.000000  -0.000000   0.000000   0.000008   0.000011
    31  F   -0.000000  -0.000000   0.000000   0.000000   0.002454  -0.000001
    32  F    0.000000  -0.000000   0.000000  -0.000000  -0.000233  -0.000001
    33  F    0.000000  -0.000000  -0.000000   0.000000   0.000154   0.000001
              25         26         27         28         29         30
     1  C   -0.207340  -1.941262  -0.020416   0.022130   0.013992  -0.014070
     2  N    0.004476  -0.004429  -0.000231  -0.000079   0.000013   0.000050
     3  C   -0.083458   0.034509   0.001890   0.000286   0.000219  -0.000223
     4  O   -0.002285   0.004768  -0.000003   0.000005  -0.000001  -0.000002
     5  N    0.003053   0.009066  -0.000011   0.000000   0.000000   0.000002
     6  C   -0.000551   0.006809   0.000014   0.000002   0.000000   0.000001
     7  C    0.000030   0.000067  -0.000000   0.000000  -0.000000  -0.000000
     8  C   -0.000002   0.000051  -0.000000   0.000000   0.000000  -0.000000
     9  C   -1.436871   1.784335  -0.006652   0.063345   0.008345  -0.008922
    10  C   -1.024170  -3.875311   0.071376  -0.092448  -0.016020  -0.092164
    11  C   -2.611621  -3.039572   0.028154   0.098469   0.043768   0.354164
    12  C    0.115098   0.130054   0.245633  -0.000418   0.004510  -0.118412
    13  C   -0.473982   0.940134   0.031926   0.001601   0.076709  -0.002845
    14  H    0.000946   0.000618  -0.000006  -0.000000   0.000000   0.000000
    15  H   -0.000016   0.000050   0.000000  -0.000000   0.000000  -0.000000
    16  H    0.000000  -0.000021   0.000000  -0.000000   0.000000   0.000000
    17  H   -0.000003  -0.000003  -0.000000  -0.000000  -0.000000  -0.000000
    18  H   -0.000000  -0.000000  -0.000000  -0.000000  -0.000000   0.000000
    19  H    0.000000   0.000000  -0.000000   0.000000   0.000000  -0.000000
    20  H    0.000000  -0.000000   0.000000   0.000000   0.000000  -0.000000
    21  H   -0.000000   0.000000  -0.000000  -0.000000  -0.000000  -0.000000
    22  H   -0.000000  -0.000000   0.000000  -0.000000  -0.000000   0.000000
    23  H    0.004873   0.008614   0.000007   0.000013   0.000007   0.000008
    24  H    0.014440   0.001643  -0.000934   0.000014   0.000059   0.000011
    25  C   13.459843  -3.714359  -0.035082  -0.144032  -0.031590  -0.025133
    26  C   -3.714359  13.590686   0.013393   0.175411   0.017659   0.035080
    27  H   -0.035082   0.013393   0.392109   0.000072  -0.001307   0.000047
    28  F   -0.144032   0.175411   0.000072   9.290783  -0.015501  -0.023687
    29  F   -0.031590   0.017659  -0.001307  -0.015501   9.351397  -0.024502
    30  F   -0.025133   0.035080   0.000047  -0.023687  -0.024502   9.275900
    31  F    0.014360  -0.001188   0.000010   0.000435  -0.000002   0.000096
    32  F    0.025072  -0.013841   0.000013   0.001277   0.000087  -0.001270
    33  F    0.194227  -0.143112   0.000030  -0.004585   0.000346  -0.000038
              31         32         33
     1  C    0.149426   0.015796   0.039151
     2  N   -0.000727   0.000263  -0.000045
     3  C    0.000041   0.001202  -0.001479
     4  O   -0.000382   0.000069  -0.000006
     5  N   -0.000056   0.000002  -0.000000
     6  C   -0.000025  -0.000024  -0.000022
     7  C    0.000005  -0.000002   0.000000
     8  C   -0.000001  -0.000000  -0.000000
     9  C    0.018184  -0.028671  -0.021540
    10  C   -0.056292   0.194838   0.169977
    11  C    0.013061  -0.073179  -0.112073
    12  C   -0.008108   0.023954  -0.004813
    13  C   -0.003129  -0.014171   0.003970
    14  H    0.000000  -0.000000  -0.000000
    15  H    0.000000   0.000000   0.000000
    16  H    0.000000  -0.000000   0.000000
    17  H    0.000000   0.000000   0.000000
    18  H    0.000000  -0.000000   0.000000
    19  H   -0.000000   0.000000   0.000000
    20  H   -0.000000  -0.000000  -0.000000
    21  H    0.000000   0.000000  -0.000000
    22  H    0.000000  -0.000000   0.000000
    23  H    0.002454  -0.000233   0.000154
    24  H   -0.000001  -0.000001   0.000001
    25  C    0.014360   0.025072   0.194227
    26  C   -0.001188  -0.013841  -0.143112
    27  H    0.000010   0.000013   0.000030
    28  F    0.000435   0.001277  -0.004585
    29  F   -0.000002   0.000087   0.000346
    30  F    0.000096  -0.001270  -0.000038
    31  F    9.329100  -0.022190  -0.012415
    32  F   -0.022190   9.267433  -0.022412
    33  F   -0.012415  -0.022412   9.292392
 Mulliken charges:
               1
     1  C   -0.208483
     2  N   -0.821732
     3  C    0.710701
     4  O   -0.626318
     5  N   -0.667826
     6  C   -0.042270
     7  C   -0.280174
     8  C   -0.673113
     9  C    0.499247
    10  C   -0.709934
    11  C   -1.352537
    12  C    0.031043
    13  C   -0.644751
    14  H    0.459857
    15  H    0.419644
    16  H    0.226589
    17  H    0.204087
    18  H    0.180940
    19  H    0.207264
    20  H    0.197468
    21  H    0.200363
    22  H    0.199264
    23  H    0.349717
    24  H    0.236500
    25  C    1.954078
    26  C    1.980151
    27  H    0.279970
    28  F   -0.373092
    29  F   -0.428189
    30  F   -0.354089
    31  F   -0.422657
    32  F   -0.354012
    33  F   -0.377706
 Sum of Mulliken charges =  -0.00000
 Mulliken charges with hydrogens summed into heavy atoms:
               1
     1  C   -0.208483
     2  N   -0.361875
     3  C    0.710701
     4  O   -0.626318
     5  N   -0.248182
     6  C    0.388407
     7  C    0.108030
     8  C   -0.076018
     9  C    0.848965
    10  C   -0.709934
    11  C   -1.352537
    12  C    0.311012
    13  C   -0.408251
    25  C    1.954078
    26  C    1.980151
    28  F   -0.373092
    29  F   -0.428189
    30  F   -0.354089
    31  F   -0.422657
    32  F   -0.354012
    33  F   -0.377706
 Electronic spatial extent (au):  <R**2>=           9551.2223
 Charge=             -0.0000 electrons
 Dipole moment (field-independent basis, Debye):
    X=              7.1814    Y=             -5.8662    Z=             -1.2045  Tot=              9.3506
 Quadrupole moment (field-independent basis, Debye-Ang):
   XX=           -114.4764   YY=           -115.9152   ZZ=           -124.0160
   XY=             -6.8324   XZ=             -4.3249   YZ=              0.5585
 Traceless Quadrupole moment (field-independent basis, Debye-Ang):
   XX=              3.6595   YY=              2.2207   ZZ=             -5.8802
   XY=             -6.8324   XZ=             -4.3249   YZ=              0.5585
 Octapole moment (field-independent basis, Debye-Ang**2):
  XXX=            106.5790  YYY=            -11.4555  ZZZ=              1.0629  XYY=            -19.6812
  XXY=            -16.2042  XXZ=            -13.2531  XZZ=            -24.5981  YZZ=             12.5908
  YYZ=             -3.8312  XYZ=              5.0429
 Hexadecapole moment (field-independent basis, Debye-Ang**3):
 XXXX=          -9673.2679 YYYY=          -1314.7142 ZZZZ=           -280.8105 XXXY=           -136.9633
 XXXZ=            -58.5253 YYYX=            -55.1338 YYYZ=              6.3362 ZZZX=             -4.5034
 ZZZY=             -4.3659 XXYY=          -1924.8874 XXZZ=          -1757.8653 YYZZ=           -290.2562
 XXYZ=             24.1210 YYXZ=             -9.9651 ZZXY=             -7.0433
 N-N= 1.781109978761D+03 E-N=-6.494189126245D+03  KE= 1.238842414736D+03
 1\1\GINC-R4158\SP\RMP2-FC\Gen\C12H12F6N2O1\ROOT\30-Nov-2019\0\\# MP2/G
 en 6D SCF=Tight INT(grid=ultrafine) maxdisk=3489660928\\NM2.MP2_6-31pG
 d\\0,1\C,0,-5.9099550208,1.1029102801,0.205943735\N,0,-4.6494767407,0.
 5182841404,0.0777892364\C,0,-3.4138117188,1.1630544142,0.1461509459\O,
 0,-3.2849333303,2.3475327393,0.3578042168\N,0,-2.3540075044,0.30926537
 19,-0.0209191281\C,0,-1.0062482953,0.8624790515,-0.0817512412\C,0,0.02
 80975331,-0.2528611764,-0.0502013951\C,0,1.4484660143,0.3008155964,-0.
 1048682475\C,0,-6.1274416311,2.484471159,0.1430033865\C,0,-7.414131960
 9,2.9940043568,0.2479216523\C,0,-8.5133997698,2.144129899,0.4285202959
 \C,0,-8.2862282832,0.7731861788,0.479640616\C,0,-7.0074316598,0.256441
 9841,0.3714194019\H,0,-4.6362012495,-0.4894107678,0.1293869442\H,0,-2.
 5094227633,-0.550433239,-0.527548491\H,0,-0.8831189383,1.524788659,0.7
 765518953\H,0,-0.8826544472,1.4787579946,-0.9799953312\H,0,-0.13404311
 08,-0.9289267974,-0.8982055488\H,0,-0.1138658777,-0.8451207642,0.85861
 48971\H,0,1.6129378672,0.8769409254,-1.0184913194\H,0,2.1869941428,-0.
 5016664591,-0.0800088839\H,0,1.6445455155,0.9605415683,0.7435347149\H,
 0,-5.2906362333,3.1527747816,0.0160013344\H,0,-6.8611330525,-0.8179860
 945,0.4200742544\C,0,-9.9405732722,2.6232346345,0.5358963699\C,0,-7.55
 14864036,4.5022174458,0.193885837\H,0,-9.1214485945,0.0987615974,0.616
 4686543\F,0,-10.0649794547,3.6980410318,1.3196454496\F,0,-10.728008147
 9,1.6685333292,1.0599639754\F,0,-10.4643725553,2.9303579665,-0.6588691
 509\F,0,-6.469213274,5.0731571004,-0.3491007019\F,0,-7.6946869392,5.02
 89562193,1.416205448\F,0,-8.6009508436,4.8863368726,-0.5400438223\\Ver
 sion=ES64L-G09RevE.01\State=1-A\HF=-1241.8910777\MP2=-1244.9863977\RMS
 D=8.432e-09\PG=C01 [X(C12H12F6N2O1)]\\@


 THE WORLD IS MADE UP OF THE WILLS, THE WON'TS, AND THE CANT'S:
 THE WILLS DO EVERYTHING,
 THE WON'TS DO NOTHING,
 THE CAN'TS CAN'T DO ANYTHING.

                               -- FROM WALT DISNEY'S "BLACK HOLE"
 Job cpu time:       0 days  0 hours 24 minutes 38.8 seconds.
 File lengths (MBytes):  RWF=     98 Int=      0 D2E=      0 Chk=     11 Scr=      1
 Normal termination of Gaussian 09 at Sat Nov 30 15:09:51 2019.
pbs_rusage has been removed.
Please contact help@nci.org.au if you require this functionality.
