 Entering Gaussian System, Link 0=/apps/gaussian/g09e01/g09/g09
 AtFile(1): /home/507/hio507/Basis/6-31pGd.gbs
 Initial command:
 /apps/gaussian/g09e01/g09/l1.exe "/jobfs/local/3890899.r-man2/Gau-56879.inp" -scrdir="/jobfs/local/3890899.r-man2/"
 Entering Link 1 = /apps/gaussian/g09e01/g09/l1.exe PID=     56880.
  
 Copyright (c) 1988,1990,1992,1993,1995,1998,2003,2009,2015,
            Gaussian, Inc.  All Rights Reserved.
  
 This is part of the Gaussian(R) 09 program.  It is based on
 the Gaussian(R) 03 system (copyright 2003, Gaussian, Inc.),
 the Gaussian(R) 98 system (copyright 1998, Gaussian, Inc.),
 the Gaussian(R) 94 system (copyright 1995, Gaussian, Inc.),
 the Gaussian 92(TM) system (copyright 1992, Gaussian, Inc.),
 the Gaussian 90(TM) system (copyright 1990, Gaussian, Inc.),
 the Gaussian 88(TM) system (copyright 1988, Gaussian, Inc.),
 the Gaussian 86(TM) system (copyright 1986, Carnegie Mellon
 University), and the Gaussian 82(TM) system (copyright 1983,
 Carnegie Mellon University). Gaussian is a federally registered
 trademark of Gaussian, Inc.
  
 This software contains proprietary and confidential information,
 including trade secrets, belonging to Gaussian, Inc.
  
 This software is provided under written license and may be
 used, copied, transmitted, or stored only in accord with that
 written license.
  
 The following legend is applicable only to US Government
 contracts under FAR:
  
                    RESTRICTED RIGHTS LEGEND
  
 Use, reproduction and disclosure by the US Government is
 subject to restrictions as set forth in subparagraphs (a)
 and (c) of the Commercial Computer Software - Restricted
 Rights clause in FAR 52.227-19.
  
 Gaussian, Inc.
 340 Quinnipiac St., Bldg. 40, Wallingford CT 06492
  
  
 ---------------------------------------------------------------
 Warning -- This program may not be used in any manner that
 competes with the business of Gaussian, Inc. or will provide
 assistance to any competitor of Gaussian, Inc.  The licensee
 of this program is prohibited from giving any competitor of
 Gaussian, Inc. access to this program.  By using this program,
 the user acknowledges that Gaussian, Inc. is engaged in the
 business of creating and licensing software in the field of
 computational chemistry and represents and warrants to the
 licensee that it is not a competitor of Gaussian, Inc. and that
 it will not use this program in any manner prohibited above.
 ---------------------------------------------------------------
  

 Cite this work as:
 Gaussian 09, Revision E.01,
 M. J. Frisch, G. W. Trucks, H. B. Schlegel, G. E. Scuseria, 
 M. A. Robb, J. R. Cheeseman, G. Scalmani, V. Barone, B. Mennucci, 
 G. A. Petersson, H. Nakatsuji, M. Caricato, X. Li, H. P. Hratchian, 
 A. F. Izmaylov, J. Bloino, G. Zheng, J. L. Sonnenberg, M. Hada, 
 M. Ehara, K. Toyota, R. Fukuda, J. Hasegawa, M. Ishida, T. Nakajima, 
 Y. Honda, O. Kitao, H. Nakai, T. Vreven, J. A. Montgomery, Jr., 
 J. E. Peralta, F. Ogliaro, M. Bearpark, J. J. Heyd, E. Brothers, 
 K. N. Kudin, V. N. Staroverov, T. Keith, R. Kobayashi, J. Normand, 
 K. Raghavachari, A. Rendell, J. C. Burant, S. S. Iyengar, J. Tomasi, 
 M. Cossi, N. Rega, J. M. Millam, M. Klene, J. E. Knox, J. B. Cross, 
 V. Bakken, C. Adamo, J. Jaramillo, R. Gomperts, R. E. Stratmann, 
 O. Yazyev, A. J. Austin, R. Cammi, C. Pomelli, J. W. Ochterski, 
 R. L. Martin, K. Morokuma, V. G. Zakrzewski, G. A. Voth, 
 P. Salvador, J. J. Dannenberg, S. Dapprich, A. D. Daniels, 
 O. Farkas, J. B. Foresman, J. V. Ortiz, J. Cioslowski, 
 and D. J. Fox, Gaussian, Inc., Wallingford CT, 2013.
 
 ******************************************
 Gaussian 09:  ES64L-G09RevE.01 30-Nov-2015
                30-Nov-2019 
 ******************************************
 %chk=NM2_c2.MP2_6-31pGd.chk
 %mem=1114112000
 %nproc=8
 Will use up to    8 processors via shared memory.
 -------------------------------------------------------------
 # MP2/Gen 6D SCF=Tight INT(grid=ultrafine) maxdisk=3489660928
 -------------------------------------------------------------
 1/38=1/1;
 2/12=2,17=6,18=5,40=1/2;
 3/5=7,8=2,11=9,16=1,25=1,30=1,75=-5/1,2,3;
 4//1;
 5/5=2,32=2,38=5/2;
 8/10=1/1;
 9/16=-3/6;
 6/7=2,8=2,9=2,10=2/1;
 99/5=1,9=1/99;
 ------------------
 NM2_c2.MP2_6-31pGd
 ------------------
 Symbolic Z-matrix:
 Charge =  0 Multiplicity = 1
 C                    -5.84511   1.39561   0.2411 
 N                    -4.62737   0.71737   0.17948 
 C                    -3.35598   1.27974   0.07659 
 O                    -3.15263   2.4706   -0.00794 
 N                    -2.35453   0.34452   0.05028 
 C                    -0.96702   0.79158   0.05509 
 C                    -0.03103  -0.37726  -0.21468 
 C                     1.42867   0.06567  -0.2206 
 C                    -7.00947   0.61845   0.18978 
 C                    -8.26654   1.19267   0.25939 
 C                    -8.391     2.58227   0.39488 
 C                    -7.23153   3.34681   0.43911 
 C                    -5.96638   2.7804    0.36529 
 H                    -4.69465  -0.28138   0.0525 
 H                    -2.53557  -0.56589   0.44771 
 H                    -0.72007   1.27171   1.00932 
 H                    -0.86366   1.55299  -0.71954 
 H                    -0.29427  -0.83028  -1.17504 
 H                    -0.17614  -1.14901   0.55065 
 H                     1.60622   0.8194   -0.99124 
 H                     2.09599  -0.7746   -0.41711 
 H                     1.71362   0.49975   0.74069 
 H                    -6.92872  -0.4575    0.08654 
 H                    -5.08644   3.40323   0.39751 
 C                    -9.71721   3.29821   0.45612 
 C                    -9.45473   0.25608   0.22445 
 H                    -7.31302   4.42146   0.54049 
 F                    -10.59943   2.67474   1.24503 
 F                    -10.28029   3.42535  -0.75366 
 F                    -9.57242   4.54073   0.94181 
 F                    -9.10932  -0.94856  -0.26051 
 F                    -10.44089   0.71482  -0.54865 
 F                    -9.95678   0.04368   1.4468 
 
                          Input orientation:                          
 ---------------------------------------------------------------------
 Center     Atomic      Atomic             Coordinates (Angstroms)
 Number     Number       Type             X           Y           Z
 ---------------------------------------------------------------------
      1          6           0       -5.845111    1.395607    0.241100
      2          7           0       -4.627373    0.717373    0.179484
      3          6           0       -3.355976    1.279735    0.076591
      4          8           0       -3.152633    2.470603   -0.007944
      5          7           0       -2.354530    0.344521    0.050276
      6          6           0       -0.967021    0.791579    0.055090
      7          6           0       -0.031031   -0.377265   -0.214684
      8          6           0        1.428668    0.065668   -0.220604
      9          6           0       -7.009472    0.618452    0.189779
     10          6           0       -8.266535    1.192667    0.259393
     11          6           0       -8.390998    2.582269    0.394882
     12          6           0       -7.231532    3.346806    0.439113
     13          6           0       -5.966380    2.780403    0.365289
     14          1           0       -4.694646   -0.281376    0.052502
     15          1           0       -2.535570   -0.565894    0.447710
     16          1           0       -0.720071    1.271706    1.009319
     17          1           0       -0.863665    1.552994   -0.719538
     18          1           0       -0.294269   -0.830276   -1.175043
     19          1           0       -0.176137   -1.149006    0.550650
     20          1           0        1.606224    0.819402   -0.991236
     21          1           0        2.095988   -0.774604   -0.417105
     22          1           0        1.713617    0.499755    0.740694
     23          1           0       -6.928720   -0.457500    0.086542
     24          1           0       -5.086443    3.403229    0.397508
     25          6           0       -9.717205    3.298207    0.456124
     26          6           0       -9.454733    0.256084    0.224449
     27          1           0       -7.313019    4.421458    0.540493
     28          9           0      -10.599434    2.674736    1.245035
     29          9           0      -10.280288    3.425346   -0.753664
     30          9           0       -9.572420    4.540735    0.941809
     31          9           0       -9.109317   -0.948561   -0.260510
     32          9           0      -10.440895    0.714816   -0.548648
     33          9           0       -9.956782    0.043681    1.446804
 ---------------------------------------------------------------------
                    Distance matrix (angstroms):
                    1          2          3          4          5
     1  C    0.000000
     2  N    1.395236   0.000000
     3  C    2.497255   1.394019   0.000000
     4  O    2.909824   2.298652   1.211058   0.000000
     5  N    3.650391   2.306844   1.370479   2.271692   0.000000
     6  C    4.918863   3.663217   2.438414   2.756809   1.457760
     7  C    6.095437   4.741304   3.726359   4.230543   2.447412
     8  C    7.408763   6.104132   4.945210   5.178538   3.803120
     9  C    1.400836   2.384174   3.714585   4.283079   4.665082
    10  C    2.429983   3.670939   4.914732   5.277934   5.976194
    11  C    2.813068   4.205842   5.210504   5.255017   6.447109
    12  C    2.401780   3.709847   4.407283   4.195833   5.740214
    13  C    1.395632   2.466486   3.024824   2.855250   4.367862
    14  H    2.042404   1.009035   2.056620   3.155131   2.422374
    15  H    3.852692   2.468675   2.053568   3.131885   1.009745
    16  H    5.183777   4.032730   2.796075   2.896469   2.109713
    17  H    5.075668   3.958788   2.630609   2.566661   2.067776
    18  H    6.145882   4.796432   3.923364   4.519754   2.669500
    19  H    6.221587   4.840933   4.029254   4.719441   2.688195
    20  H    7.574501   6.343401   5.096626   5.132256   4.122843
    21  H    8.258578   6.912706   5.847047   6.184400   4.612808
    22  H    7.628008   6.369495   5.172057   5.303309   4.129236
    23  H    2.152232   2.585568   3.972730   4.779284   4.644111
    24  H    2.151879   2.733514   2.758030   2.184904   4.115776
    25  C    4.319633   5.713460   6.684573   6.632790   7.943423
    26  C    3.785256   4.849559   6.185836   6.683904   7.102890
    27  H    3.376413   4.589473   5.073837   4.627681   6.438039
    28  F    5.024703   6.374337   7.468532   7.554235   8.650768
    29  F    4.977970   6.337139   7.296511   7.229876   8.541396
    30  F    4.927033   6.297041   7.072970   6.811839   8.396486
    31  F    4.049911   4.801745   6.178987   6.872886   6.884461
    32  F    4.712579   5.858943   7.134853   7.516243   8.116965
    33  F    4.493023   5.519289   6.853900   7.369035   7.735310
                    6          7          8          9         10
     6  C    0.000000
     7  C    1.521529   0.000000
     8  C    2.518389   1.525432   0.000000
     9  C    6.046431   7.060715   8.466179   0.000000
    10  C    7.313380   8.397201   9.772282   1.383755   0.000000
    11  C    7.644440   8.889289  10.155685   2.409825   1.401728
    12  C    6.776486   8.132858   9.284404   2.748707   2.396632
    13  C    5.389363   6.748008   7.899354   2.406840   2.796933
    14  H    3.878972   4.672247   6.139218   2.487360   3.869626
    15  H    2.111215   2.597511   4.069484   4.635192   5.997663
    16  H    1.096384   2.166117   2.753964   6.376123   7.584046
    17  H    1.091093   2.161957   2.777745   6.282609   7.476004
    18  H    2.143883   1.093985   2.163835   7.003964   8.349068
    19  H    2.153357   1.096529   2.155381   7.067432   8.427503
    20  H    2.777978   2.171554   1.092481   8.698586   9.958654
    21  H    3.472452   2.173261   1.090864   9.231377  10.569281
    22  H    2.782271   2.173868   1.092575   8.741274  10.015748
    23  H    6.091227   6.904730   8.379378   1.083906   2.131356
    24  H    4.889540   6.342248   7.346295   3.390601   3.875390
    25  C    9.110968  10.381765  11.624877   3.818880   2.564458
    26  C    8.506274   9.455165  10.894162   2.472209   1.513349
    27  H    7.326891   8.753593   9.796391   3.831187   3.378358
    28  F    9.886639  11.096695  12.394780   4.269624   2.934354
    29  F    9.712248  10.945210  12.193082   4.412140   3.172750
    30  F    9.428432  10.796403  11.933205   4.745372   3.657948
    31  F    8.332147   9.096360  10.586755   2.658503   2.359118
    32  F    9.493401  10.472318  11.891826   3.511299   2.368356
    33  F    9.127541  10.072650  11.506919   3.255319   2.363693
                   11         12         13         14         15
    11  C    0.000000
    12  C    1.389544   0.000000
    13  C    2.432880   1.388118   0.000000
    14  H    4.688359   4.443981   3.330111   0.000000
    15  H    6.648289   6.112393   4.793219   2.213311   0.000000
    16  H    7.806294   6.857864   5.496790   4.373191   2.643523
    17  H    7.678677   6.716395   5.359206   4.317103   2.940650
    18  H    8.925646   8.257066   6.898005   4.601247   2.779687
    19  H    9.023891   8.366801   7.000109   4.627942   2.432600
    20  H   10.245656   9.302667   7.939145   6.480900   4.598268
    21  H   11.041050  10.233365   8.846016   6.824699   4.716227
    22  H   10.322775   9.392142   8.020264   6.492272   4.390562
    23  H    3.387259   3.832590   3.389368   2.241265   4.409304
    24  H    3.405006   2.146234   1.078535   3.721404   4.718411
    25  C    1.508358   2.486206   3.787487   6.180811   8.155196
    26  C    2.563537   3.813302   4.308206   4.793419   6.971392
    27  H    2.136786   1.082495   2.130069   5.404689   6.906975
    28  F    2.368227   3.527598   4.717023   6.710235   8.727159
    29  F    2.366295   3.274721   4.503089   6.751970   8.795109
    30  F    2.351697   2.675430   4.053969   6.916380   8.708562
    31  F    3.662278   4.739802   4.916793   4.475761   6.622852
    32  F    2.929114   4.266503   5.012306   5.862862   8.070136
    33  F    3.162696   4.399211   4.958087   5.453422   7.512932
                   16         17         18         19         20
    16  H    0.000000
    17  H    1.757466   0.000000
    18  H    3.061220   2.492323   0.000000
    19  H    2.523111   3.063801   1.758852   0.000000
    20  H    3.101362   2.590817   2.523311   3.070644   0.000000
    21  H    3.761949   3.777396   2.508166   2.497856   1.763618
    22  H    2.567276   3.143878   3.077439   2.515094   1.764451
    23  H    6.510683   6.440244   6.763616   6.803746   8.696974
    24  H    4.897234   4.743734   6.584863   6.697566   7.307296
    25  C    9.239110   9.100172  10.416180  10.527042  11.681583
    26  C    8.828467   8.739539   9.330213   9.390049  11.141813
    27  H    7.321728   7.170072   8.932336   9.053467   9.740324
    28  F    9.981275   9.995151  11.150709  11.124221  12.546763
    29  F    9.957109   9.601024  10.863170  11.167802  12.171137
    30  F    9.436905   9.355698  10.927622  10.991646  11.939308
    31  F    8.770490   8.628979   8.863151   8.972172  10.884966
    32  F    9.860618   9.615356  10.282689  10.490354  12.055700
    33  F    9.328250   9.468676  10.049977   9.893765  11.842672
                   21         22         23         24         25
    21  H    0.000000
    22  H    1.763717   0.000000
    23  H    9.044312   8.719761   0.000000
    24  H    8.348964   7.401942   4.289045   0.000000
    25  C   12.526047  11.771831   4.692288   4.632324   0.000000
    26  C   11.614348  11.182930   2.628490   5.386690   3.062202
    27  H   10.790990   9.843779   4.915077   2.452525   2.654980
    28  F   13.260256  12.513837   4.962574   5.625129   1.337694
    29  F   13.073831  12.435672   5.197639   5.319935   1.340453
    30  F   12.893844  11.989353   5.718652   4.659847   1.341912
    31  F   11.207750  10.965215   2.261988   5.962766   4.349497
    32  F   12.625732  12.224598   3.756748   6.065717   2.864821
    33  F   12.223461  11.700632   3.357179   6.008974   3.410393
                   26         27         28         29         30
    26  C    0.000000
    27  H    4.694376   0.000000
    28  F    2.863881   3.787867   0.000000
    29  F    3.417963   3.386999   2.158719   0.000000
    30  F    4.345882   2.297863   2.151431   2.149371   0.000000
    31  F    1.343751   5.718863   4.197069   4.554716   5.638475
    32  F    1.334402   4.970817   2.661526   2.723013   4.196828
    33  F    1.338401   5.193824   2.715908   4.047514   4.541612
                   31         32         33
    31  F    0.000000
    32  F    2.150103   0.000000
    33  F    2.148875   2.160235   0.000000
 Stoichiometry    C12H12F6N2O
 Framework group  C1[X(C12H12F6N2O)]
 Deg. of freedom    93
 Full point group                 C1      NOp   1
 Largest Abelian subgroup         C1      NOp   1
 Largest concise Abelian subgroup C1      NOp   1
                         Standard orientation:                         
 ---------------------------------------------------------------------
 Center     Atomic      Atomic             Coordinates (Angstroms)
 Number     Number       Type             X           Y           Z
 ---------------------------------------------------------------------
      1          6           0        0.565523   -0.043546   -0.051216
      2          7           0        1.883148    0.414358   -0.080751
      3          6           0        3.042573   -0.353770    0.014120
      4          8           0        3.042266   -1.554390    0.172782
      5          7           0        4.189796    0.392248   -0.060377
      6          6           0        5.478121   -0.289424   -0.085038
      7          6           0        6.612680    0.712543    0.069526
      8          6           0        7.973260    0.022991    0.052652
      9          6           0       -0.444334    0.926459   -0.010994
     10          6           0       -1.783180    0.577148    0.004856
     11          6           0       -2.150679   -0.775092   -0.030243
     12          6           0       -1.143133   -1.731408   -0.064085
     13          6           0        0.202532   -1.390928   -0.075496
     14          1           0        1.994477    1.415409   -0.020299
     15          1           0        4.148948    1.294170   -0.512540
     16          1           0        5.593085   -0.862870   -1.012400
     17          1           0        5.486136   -1.008233    0.735775
     18          1           0        6.477326    1.262558    1.005457
     19          1           0        6.565799    1.449352   -0.741209
     20          1           0        8.055415   -0.701456    0.866249
     21          1           0        8.783540    0.744423    0.166525
     22          1           0        8.133181   -0.512270   -0.886305
     23          1           0       -0.175232    1.976104    0.015087
     24          1           0        0.959925   -2.158480   -0.096909
     25          6           0       -3.581492   -1.251107    0.006207
     26          6           0       -2.789907    1.706987    0.018670
     27          1           0       -1.412647   -2.779533   -0.088377
     28          9           0       -4.380276   -0.532879   -0.790985
     29          9           0       -4.099563   -1.203640    1.241586
     30          9           0       -3.675543   -2.527252   -0.397942
     31          9           0       -2.220039    2.860350    0.406832
     32          9           0       -3.802083    1.475596    0.856874
     33          9           0       -3.305882    1.928335   -1.196276
 ---------------------------------------------------------------------
 Rotational constants (GHZ):      0.6929654      0.1113146      0.0994739
 General basis read from cards:  (6D, 7F)
 There are   423 symmetry adapted cartesian basis functions of A   symmetry.
 There are   423 symmetry adapted basis functions of A   symmetry.
   423 basis functions,   720 primitive gaussians,   423 cartesian basis functions
    80 alpha electrons       80 beta electrons
       nuclear repulsion energy      1765.1482395752 Hartrees.
 NAtoms=   33 NActive=   33 NUniq=   33 SFac= 1.00D+00 NAtFMM=   60 NAOKFM=F Big=F
 Integral buffers will be    131072 words long.
 Raffenetti 1 integral format.
 Two-electron integral symmetry is turned on.
 One-electron integrals computed using PRISM.
 NBasis=   423 RedAO= T EigKep=  1.56D-06  NBF=   423
 NBsUse=   421 1.00D-06 EigRej=  8.71D-07 NBFU=   421
 ExpMin= 4.38D-02 ExpMax= 7.00D+03 ExpMxC= 1.05D+03 IAcc=3 IRadAn=         5 AccDes= 0.00D+00
 Harris functional with IExCor=  205 and IRadAn=       5 diagonalized for initial guess.
 HarFok:  IExCor=  205 AccDes= 0.00D+00 IRadAn=         5 IDoV= 1 UseB2=F ITyADJ=14
 ICtDFT=  3500011 ScaDFX=  1.000000  1.000000  1.000000  1.000000
 FoFCou: FMM=F IPFlag=           0 FMFlag=      100000 FMFlg1=           0
         NFxFlg=           0 DoJE=T BraDBF=F KetDBF=T FulRan=T
         wScrn=  0.000000 ICntrl=     500 IOpCl=  0 I1Cent=   200000004 NGrid=           0
         NMat0=    1 NMatS0=      1 NMatT0=    0 NMatD0=    1 NMtDS0=    0 NMtDT0=    0
 Petite list used in FoFCou.
 Requested convergence on RMS density matrix=1.00D-08 within 128 cycles.
 Requested convergence on MAX density matrix=1.00D-06.
 Requested convergence on             energy=1.00D-06.
 No special actions if energy rises.
 Initial convergence to 1.0D-05 achieved.  Increase integral accuracy.
 SCF Done:  E(RHF) =  -1241.89217436     A.U. after   17 cycles
            NFock= 17  Conv=0.42D-08     -V/T= 2.0025
 ExpMin= 4.38D-02 ExpMax= 7.00D+03 ExpMxC= 1.05D+03 IAcc=3 IRadAn=         5 AccDes= 0.00D+00
 HarFok:  IExCor=  205 AccDes= 0.00D+00 IRadAn=         5 IDoV=-2 UseB2=F ITyADJ=14
 ICtDFT= 12500011 ScaDFX=  1.000000  1.000000  1.000000  1.000000
 Range of M.O.s used for correlation:    22   421
 NBasis=   423 NAE=    80 NBE=    80 NFC=    21 NFV=     0
 NROrb=    400 NOA=    59 NOB=    59 NVA=   341 NVB=   341

 **** Warning!!: The largest alpha MO coefficient is  0.11953458D+03

 Fully direct method using O(OVN) memory.
 JobTyp=1 Pass  1:  I=   1 to  18 NPSUse=  8 ParTrn=T ParDer=T DoDerP=F.
 JobTyp=1 Pass  2:  I=  19 to  59 NPSUse=  8 ParTrn=T ParDer=T DoDerP=F.
 Spin components of T(2) and E(2):
     alpha-alpha T2 =       0.1293254834D+00 E2=     -0.4266411395D+00
     alpha-beta  T2 =       0.6591396213D+00 E2=     -0.2241396943D+01
     beta-beta   T2 =       0.1293254834D+00 E2=     -0.4266411395D+00
 ANorm=    0.1384843164D+01
 E2 =    -0.3094679222D+01 EUMP2 =    -0.12449868535822D+04

 **********************************************************************

            Population analysis using the SCF density.

 **********************************************************************

 Orbital symmetries:
       Occupied  (A) (A) (A) (A) (A) (A) (A) (A) (A) (A) (A) (A)
                 (A) (A) (A) (A) (A) (A) (A) (A) (A) (A) (A) (A)
                 (A) (A) (A) (A) (A) (A) (A) (A) (A) (A) (A) (A)
                 (A) (A) (A) (A) (A) (A) (A) (A) (A) (A) (A) (A)
                 (A) (A) (A) (A) (A) (A) (A) (A) (A) (A) (A) (A)
                 (A) (A) (A) (A) (A) (A) (A) (A) (A) (A) (A) (A)
                 (A) (A) (A) (A) (A) (A) (A) (A)
       Virtual   (A) (A) (A) (A) (A) (A) (A) (A) (A) (A) (A) (A)
                 (A) (A) (A) (A) (A) (A) (A) (A) (A) (A) (A) (A)
                 (A) (A) (A) (A) (A) (A) (A) (A) (A) (A) (A) (A)
                 (A) (A) (A) (A) (A) (A) (A) (A) (A) (A) (A) (A)
                 (A) (A) (A) (A) (A) (A) (A) (A) (A) (A) (A) (A)
                 (A) (A) (A) (A) (A) (A) (A) (A) (A) (A) (A) (A)
                 (A) (A) (A) (A) (A) (A) (A) (A) (A) (A) (A) (A)
                 (A) (A) (A) (A) (A) (A) (A) (A) (A) (A) (A) (A)
                 (A) (A) (A) (A) (A) (A) (A) (A) (A) (A) (A) (A)
                 (A) (A) (A) (A) (A) (A) (A) (A) (A) (A) (A) (A)
                 (A) (A) (A) (A) (A) (A) (A) (A) (A) (A) (A) (A)
                 (A) (A) (A) (A) (A) (A) (A) (A) (A) (A) (A) (A)
                 (A) (A) (A) (A) (A) (A) (A) (A) (A) (A) (A) (A)
                 (A) (A) (A) (A) (A) (A) (A) (A) (A) (A) (A) (A)
                 (A) (A) (A) (A) (A) (A) (A) (A) (A) (A) (A) (A)
                 (A) (A) (A) (A) (A) (A) (A) (A) (A) (A) (A) (A)
                 (A) (A) (A) (A) (A) (A) (A) (A) (A) (A) (A) (A)
                 (A) (A) (A) (A) (A) (A) (A) (A) (A) (A) (A) (A)
                 (A) (A) (A) (A) (A) (A) (A) (A) (A) (A) (A) (A)
                 (A) (A) (A) (A) (A) (A) (A) (A) (A) (A) (A) (A)
                 (A) (A) (A) (A) (A) (A) (A) (A) (A) (A) (A) (A)
                 (A) (A) (A) (A) (A) (A) (A) (A) (A) (A) (A) (A)
                 (A) (A) (A) (A) (A) (A) (A) (A) (A) (A) (A) (A)
                 (A) (A) (A) (A) (A) (A) (A) (A) (A) (A) (A) (A)
                 (A) (A) (A) (A) (A) (A) (A) (A) (A) (A) (A) (A)
                 (A) (A) (A) (A) (A) (A) (A) (A) (A) (A) (A) (A)
                 (A) (A) (A) (A) (A) (A) (A) (A) (A) (A) (A) (A)
                 (A) (A) (A) (A) (A) (A) (A) (A) (A) (A) (A) (A)
                 (A) (A) (A) (A) (A)
 The electronic state is 1-A.
 Alpha  occ. eigenvalues --  -26.36115 -26.35721 -26.35470 -26.35393 -26.35095
 Alpha  occ. eigenvalues --  -26.34741 -20.55372 -15.63632 -15.61169 -11.52982
 Alpha  occ. eigenvalues --  -11.52274 -11.41235 -11.32952 -11.30197 -11.28643
 Alpha  occ. eigenvalues --  -11.27827 -11.27797 -11.27728 -11.26078 -11.24696
 Alpha  occ. eigenvalues --  -11.23379  -1.74381  -1.73524  -1.64623  -1.64249
 Alpha  occ. eigenvalues --   -1.63829  -1.63453  -1.43027  -1.29341  -1.25157
 Alpha  occ. eigenvalues --   -1.19794  -1.09046  -1.08408  -1.06740  -0.99533
 Alpha  occ. eigenvalues --   -0.96857  -0.94565  -0.89610  -0.88588  -0.84672
 Alpha  occ. eigenvalues --   -0.83657  -0.83267  -0.83180  -0.82600  -0.82096
 Alpha  occ. eigenvalues --   -0.81802  -0.78231  -0.77032  -0.72541  -0.71957
 Alpha  occ. eigenvalues --   -0.71652  -0.70987  -0.70946  -0.68261  -0.68049
 Alpha  occ. eigenvalues --   -0.67205  -0.66966  -0.66187  -0.65970  -0.65310
 Alpha  occ. eigenvalues --   -0.65113  -0.64654  -0.64494  -0.63543  -0.62832
 Alpha  occ. eigenvalues --   -0.61468  -0.60111  -0.58635  -0.57105  -0.55567
 Alpha  occ. eigenvalues --   -0.54631  -0.53962  -0.52709  -0.50614  -0.49999
 Alpha  occ. eigenvalues --   -0.47774  -0.46403  -0.41989  -0.37908  -0.34087
 Alpha virt. eigenvalues --    0.04447   0.07352   0.07807   0.07886   0.07996
 Alpha virt. eigenvalues --    0.08249   0.09083   0.09463   0.10269   0.10613
 Alpha virt. eigenvalues --    0.10835   0.11143   0.11862   0.12014   0.12445
 Alpha virt. eigenvalues --    0.12712   0.12962   0.13542   0.14748   0.14839
 Alpha virt. eigenvalues --    0.15178   0.15688   0.17347   0.17601   0.17834
 Alpha virt. eigenvalues --    0.18444   0.18618   0.19076   0.19599   0.20807
 Alpha virt. eigenvalues --    0.20927   0.21314   0.22030   0.22109   0.23586
 Alpha virt. eigenvalues --    0.24804   0.24898   0.25538   0.26010   0.26430
 Alpha virt. eigenvalues --    0.27267   0.27482   0.28241   0.29272   0.29800
 Alpha virt. eigenvalues --    0.30089   0.30766   0.31302   0.31623   0.32240
 Alpha virt. eigenvalues --    0.32447   0.32943   0.33391   0.33417   0.33694
 Alpha virt. eigenvalues --    0.34156   0.34902   0.35860   0.36315   0.36851
 Alpha virt. eigenvalues --    0.37492   0.37612   0.38676   0.39279   0.39513
 Alpha virt. eigenvalues --    0.40386   0.40531   0.40919   0.41131   0.41460
 Alpha virt. eigenvalues --    0.41674   0.42135   0.42356   0.43348   0.43520
 Alpha virt. eigenvalues --    0.44146   0.44782   0.45029   0.45580   0.45775
 Alpha virt. eigenvalues --    0.46474   0.46575   0.46855   0.47591   0.47978
 Alpha virt. eigenvalues --    0.48466   0.48918   0.49128   0.49695   0.50379
 Alpha virt. eigenvalues --    0.50922   0.51329   0.52036   0.52198   0.52852
 Alpha virt. eigenvalues --    0.53280   0.54726   0.55552   0.55847   0.56106
 Alpha virt. eigenvalues --    0.57235   0.57419   0.57761   0.58622   0.59526
 Alpha virt. eigenvalues --    0.59963   0.61294   0.61928   0.62546   0.63508
 Alpha virt. eigenvalues --    0.65035   0.66977   0.67670   0.68652   0.69875
 Alpha virt. eigenvalues --    0.70969   0.76450   0.80876   0.84117   0.84678
 Alpha virt. eigenvalues --    0.84972   0.87407   0.89488   0.90113   0.90905
 Alpha virt. eigenvalues --    0.91957   0.92445   0.93430   0.94465   0.95852
 Alpha virt. eigenvalues --    0.96884   0.98498   0.99796   1.00463   1.01568
 Alpha virt. eigenvalues --    1.02174   1.02768   1.03571   1.04141   1.05418
 Alpha virt. eigenvalues --    1.06657   1.08412   1.10011   1.10585   1.11576
 Alpha virt. eigenvalues --    1.12834   1.13461   1.14787   1.16283   1.17004
 Alpha virt. eigenvalues --    1.18568   1.18977   1.20170   1.22641   1.23381
 Alpha virt. eigenvalues --    1.24408   1.25240   1.25729   1.26119   1.27789
 Alpha virt. eigenvalues --    1.31238   1.31718   1.33741   1.34459   1.36282
 Alpha virt. eigenvalues --    1.37808   1.38244   1.38983   1.39735   1.40148
 Alpha virt. eigenvalues --    1.41181   1.44213   1.44743   1.46037   1.47766
 Alpha virt. eigenvalues --    1.48819   1.50142   1.52537   1.54179   1.56693
 Alpha virt. eigenvalues --    1.57735   1.59318   1.60688   1.61471   1.63000
 Alpha virt. eigenvalues --    1.63892   1.66531   1.68025   1.69098   1.70636
 Alpha virt. eigenvalues --    1.71654   1.73100   1.74023   1.76060   1.77370
 Alpha virt. eigenvalues --    1.79616   1.84323   1.87507   1.88172   1.89023
 Alpha virt. eigenvalues --    1.89562   1.90200   1.91835   1.92931   1.93777
 Alpha virt. eigenvalues --    1.94417   1.95862   1.96046   1.97300   1.98114
 Alpha virt. eigenvalues --    1.98221   1.98749   1.98961   1.99843   2.00271
 Alpha virt. eigenvalues --    2.00986   2.02069   2.02617   2.03219   2.03468
 Alpha virt. eigenvalues --    2.05161   2.05323   2.07910   2.09066   2.09609
 Alpha virt. eigenvalues --    2.10447   2.11024   2.12214   2.13015   2.13640
 Alpha virt. eigenvalues --    2.13887   2.14605   2.15654   2.16647   2.17363
 Alpha virt. eigenvalues --    2.18090   2.18947   2.19882   2.20841   2.21109
 Alpha virt. eigenvalues --    2.21799   2.24013   2.25558   2.26497   2.28775
 Alpha virt. eigenvalues --    2.29738   2.30256   2.30531   2.32141   2.34059
 Alpha virt. eigenvalues --    2.35370   2.36794   2.38105   2.38800   2.39020
 Alpha virt. eigenvalues --    2.40233   2.40586   2.40798   2.42567   2.43556
 Alpha virt. eigenvalues --    2.43757   2.44178   2.45145   2.46198   2.47839
 Alpha virt. eigenvalues --    2.49112   2.50552   2.51715   2.53119   2.54422
 Alpha virt. eigenvalues --    2.57195   2.58488   2.59626   2.61609   2.63206
 Alpha virt. eigenvalues --    2.64192   2.65545   2.67286   2.68099   2.71351
 Alpha virt. eigenvalues --    2.73886   2.74143   2.78133   2.78637   2.80718
 Alpha virt. eigenvalues --    2.82421   2.85432   2.86478   2.92701   2.94120
 Alpha virt. eigenvalues --    2.95300   2.97360   2.99155   3.01041   3.01909
 Alpha virt. eigenvalues --    3.04766   3.08090   3.08918   3.09926   3.11541
 Alpha virt. eigenvalues --    3.12973   3.16233   3.18027   3.21042   3.22614
 Alpha virt. eigenvalues --    3.26280   3.28314   3.33156   3.36700   3.46880
 Alpha virt. eigenvalues --    3.53083   3.55241   3.56683   3.59165   3.60333
 Alpha virt. eigenvalues --    3.65030   3.67518   3.71934   3.75074   3.81738
 Alpha virt. eigenvalues --    4.54518   4.65248   4.66422   4.70507   4.73267
 Alpha virt. eigenvalues --    4.78386   4.80412   4.81001   4.86634   4.88014
 Alpha virt. eigenvalues --    4.96682   4.99073   5.01778   5.07728   5.22984
 Alpha virt. eigenvalues --    6.25768   6.27130   6.45084   6.48716   7.33012
 Alpha virt. eigenvalues --    7.66618
          Condensed to atoms (all electrons):
               1          2          3          4          5          6
     1  C   18.931552  -0.052111  -1.314110  -0.325927  -0.170240  -0.572046
     2  N   -0.052111   7.646993   0.247695  -0.071799  -0.196277  -0.097220
     3  C   -1.314110   0.247695   6.104438   0.612716   0.270337  -0.511596
     4  O   -0.325927  -0.071799   0.612716   8.305293  -0.134394  -0.095561
     5  N   -0.170240  -0.196277   0.270337  -0.134394   7.467385   0.398442
     6  C   -0.572046  -0.097220  -0.511596  -0.095561   0.398442   6.402141
     7  C    0.013707  -0.000564  -0.007788   0.010632  -0.114742  -0.062321
     8  C   -0.003872   0.000862  -0.042921  -0.000710   0.004696  -0.052161
     9  C   -0.130441   0.163326  -0.042112  -0.086328  -0.008184   0.015855
    10  C   -2.548693   0.114233  -0.654981  -0.034939   0.016785  -0.035806
    11  C   -1.704220  -0.033063   0.070784   0.035626   0.022045   0.006838
    12  C   -2.472559   0.029450   0.367214   0.172639  -0.010035   0.034759
    13  C   -1.626495  -0.249856   0.110732   0.264288  -0.024816   0.057704
    14  H   -0.084298   0.266149  -0.032473   0.002515   0.018265   0.002253
    15  H    0.011264   0.032169   0.038870   0.002733   0.259713  -0.075031
    16  H    0.009524   0.003713   0.072869  -0.000816  -0.073728   0.380276
    17  H   -0.003404   0.005310   0.023441  -0.009092  -0.039180   0.397604
    18  H    0.004235   0.000023   0.037627  -0.000277  -0.000772  -0.088976
    19  H   -0.003527   0.000130  -0.026106  -0.000297   0.001680  -0.035380
    20  H   -0.000163  -0.000050  -0.009680  -0.000080  -0.000817  -0.027081
    21  H   -0.000001   0.000011   0.002228   0.000013   0.000361   0.050983
    22  H    0.000213   0.000004   0.007843  -0.000040  -0.000667  -0.018248
    23  H    0.077508  -0.008242  -0.020038   0.000133   0.000070  -0.000804
    24  H   -0.037402  -0.004356   0.067427  -0.009989   0.000676   0.006316
    25  C    0.406382   0.010833  -0.005953   0.001764   0.004239   0.000570
    26  C   -2.406392   0.003882  -0.020063  -0.003123   0.000162   0.000888
    27  H   -0.040466  -0.000496  -0.002375  -0.000003   0.000004  -0.000043
    28  F   -0.009331   0.000006  -0.000443   0.000001   0.000001  -0.000002
    29  F   -0.008215  -0.000070  -0.000656   0.000001   0.000001  -0.000004
    30  F    0.004377  -0.000054  -0.000913   0.000003  -0.000000  -0.000005
    31  F    0.141144  -0.000486  -0.001766   0.000003  -0.000029  -0.000025
    32  F    0.026226   0.000155  -0.000699   0.000000   0.000000  -0.000004
    33  F   -0.014883   0.000262  -0.001251  -0.000001   0.000003  -0.000006
               7          8          9         10         11         12
     1  C    0.013707  -0.003872  -0.130441  -2.548693  -1.704220  -2.472559
     2  N   -0.000564   0.000862   0.163326   0.114233  -0.033063   0.029450
     3  C   -0.007788  -0.042921  -0.042112  -0.654981   0.070784   0.367214
     4  O    0.010632  -0.000710  -0.086328  -0.034939   0.035626   0.172639
     5  N   -0.114742   0.004696  -0.008184   0.016785   0.022045  -0.010035
     6  C   -0.062321  -0.052161   0.015855  -0.035806   0.006838   0.034759
     7  C    5.645719   0.220912   0.001554   0.002488  -0.000996  -0.002022
     8  C    0.220912   5.401734   0.000497  -0.000002  -0.000184  -0.000301
     9  C    0.001554   0.000497  10.599274   0.109381  -1.610656  -2.122203
    10  C    0.002488  -0.000002   0.109381  26.437951  -8.576352  -1.598097
    11  C   -0.000996  -0.000184  -1.610656  -8.576352  25.484800   0.963034
    12  C   -0.002022  -0.000301  -2.122203  -1.598097   0.963034  13.409855
    13  C   -0.006964  -0.001458  -0.403179  -2.733156  -3.787794  -2.435496
    14  H   -0.000803  -0.000079   0.036078   0.029030   0.010357   0.004131
    15  H   -0.001743   0.001656  -0.012097  -0.001902  -0.000201   0.001712
    16  H   -0.074228  -0.002103   0.000105   0.000093  -0.000022  -0.000016
    17  H   -0.028867  -0.005405   0.001819   0.000228  -0.000184  -0.000314
    18  H    0.422925  -0.044001   0.000089   0.000045   0.000001  -0.000027
    19  H    0.402274  -0.013711   0.000511   0.000009  -0.000010  -0.000013
    20  H   -0.031019   0.423861   0.000023   0.000000  -0.000000  -0.000005
    21  H   -0.085692   0.394118  -0.000010  -0.000000   0.000000   0.000001
    22  H   -0.026805   0.392554   0.000003   0.000001  -0.000000  -0.000002
    23  H    0.000015  -0.000002   0.297792  -0.038112  -0.003096  -0.006827
    24  H   -0.000199   0.000023  -0.006619  -0.003575   0.010643  -0.020914
    25  C   -0.000084  -0.000006  -1.570047  -0.820405  -1.260968  -0.128392
    26  C    0.000288   0.000027   1.213611  -2.983552  -2.708539  -0.473411
    27  H    0.000001  -0.000000  -0.000312   0.028610  -0.079895   0.357550
    28  F    0.000000  -0.000000   0.038156  -0.124287   0.060874   0.041775
    29  F   -0.000000  -0.000000   0.012907  -0.072674   0.190220  -0.030552
    30  F    0.000000  -0.000000   0.006849   0.004843  -0.072700   0.032054
    31  F    0.000001   0.000000   0.064997  -0.081922  -0.001154   0.004696
    32  F    0.000000  -0.000000   0.008125   0.111189  -0.087074   0.021132
    33  F   -0.000000   0.000000  -0.042024   0.266604  -0.083016   0.004463
              13         14         15         16         17         18
     1  C   -1.626495  -0.084298   0.011264   0.009524  -0.003404   0.004235
     2  N   -0.249856   0.266149   0.032169   0.003713   0.005310   0.000023
     3  C    0.110732  -0.032473   0.038870   0.072869   0.023441   0.037627
     4  O    0.264288   0.002515   0.002733  -0.000816  -0.009092  -0.000277
     5  N   -0.024816   0.018265   0.259713  -0.073728  -0.039180  -0.000772
     6  C    0.057704   0.002253  -0.075031   0.380276   0.397604  -0.088976
     7  C   -0.006964  -0.000803  -0.001743  -0.074228  -0.028867   0.422925
     8  C   -0.001458  -0.000079   0.001656  -0.002103  -0.005405  -0.044001
     9  C   -0.403179   0.036078  -0.012097   0.000105   0.001819   0.000089
    10  C   -2.733156   0.029030  -0.001902   0.000093   0.000228   0.000045
    11  C   -3.787794   0.010357  -0.000201  -0.000022  -0.000184   0.000001
    12  C   -2.435496   0.004131   0.001712  -0.000016  -0.000314  -0.000027
    13  C   16.184544   0.008547   0.010741  -0.000644  -0.002735  -0.000326
    14  H    0.008547   0.272021   0.001079   0.000003  -0.000002  -0.000004
    15  H    0.010741   0.001079   0.305509   0.001502   0.002200   0.000393
    16  H   -0.000644   0.000003   0.001502   0.512884  -0.033289   0.003435
    17  H   -0.002735  -0.000002   0.002200  -0.033289   0.464359  -0.003177
    18  H   -0.000326  -0.000004   0.000393   0.003435  -0.003177   0.497946
    19  H   -0.000347   0.000002   0.001728  -0.003892   0.003125  -0.034271
    20  H   -0.000099   0.000000  -0.000002   0.000077   0.001330  -0.003425
    21  H    0.000025  -0.000000   0.000000  -0.000113  -0.000096  -0.002653
    22  H   -0.000013  -0.000000   0.000006   0.001335   0.000287   0.003248
    23  H   -0.007076   0.004799   0.000002   0.000000  -0.000000   0.000000
    24  H    0.319424  -0.000080  -0.000001  -0.000000  -0.000003  -0.000000
    25  C   -1.347328   0.000977  -0.000001  -0.000001  -0.000004   0.000000
    26  C    1.255753   0.002077  -0.000043   0.000001   0.000008   0.000000
    27  H    0.050280   0.000002  -0.000000   0.000000  -0.000000  -0.000000
    28  F    0.027244   0.000000  -0.000000  -0.000000  -0.000000  -0.000000
    29  F   -0.004233   0.000000   0.000000   0.000000  -0.000000   0.000000
    30  F    0.145331   0.000000  -0.000000  -0.000000   0.000000  -0.000000
    31  F   -0.016173  -0.000028   0.000000   0.000000   0.000000  -0.000000
    32  F   -0.007475   0.000000  -0.000000  -0.000000   0.000000  -0.000000
    33  F   -0.007644   0.000001  -0.000000  -0.000000   0.000000  -0.000000
              19         20         21         22         23         24
     1  C   -0.003527  -0.000163  -0.000001   0.000213   0.077508  -0.037402
     2  N    0.000130  -0.000050   0.000011   0.000004  -0.008242  -0.004356
     3  C   -0.026106  -0.009680   0.002228   0.007843  -0.020038   0.067427
     4  O   -0.000297  -0.000080   0.000013  -0.000040   0.000133  -0.009989
     5  N    0.001680  -0.000817   0.000361  -0.000667   0.000070   0.000676
     6  C   -0.035380  -0.027081   0.050983  -0.018248  -0.000804   0.006316
     7  C    0.402274  -0.031019  -0.085692  -0.026805   0.000015  -0.000199
     8  C   -0.013711   0.423861   0.394118   0.392554  -0.000002   0.000023
     9  C    0.000511   0.000023  -0.000010   0.000003   0.297792  -0.006619
    10  C    0.000009   0.000000  -0.000000   0.000001  -0.038112  -0.003575
    11  C   -0.000010  -0.000000   0.000000  -0.000000  -0.003096   0.010643
    12  C   -0.000013  -0.000005   0.000001  -0.000002  -0.006827  -0.020914
    13  C   -0.000347  -0.000099   0.000025  -0.000013  -0.007076   0.319424
    14  H    0.000002   0.000000  -0.000000  -0.000000   0.004799  -0.000080
    15  H    0.001728  -0.000002   0.000000   0.000006   0.000002  -0.000001
    16  H   -0.003892   0.000077  -0.000113   0.001335   0.000000  -0.000000
    17  H    0.003125   0.001330  -0.000096   0.000287  -0.000000  -0.000003
    18  H   -0.034271  -0.003425  -0.002653   0.003248   0.000000  -0.000000
    19  H    0.528902   0.003534  -0.002730  -0.003428  -0.000000  -0.000000
    20  H    0.003534   0.499829  -0.024666  -0.030433  -0.000000  -0.000000
    21  H   -0.002730  -0.024666   0.492783  -0.025351   0.000000   0.000000
    22  H   -0.003428  -0.030433  -0.025351   0.502402   0.000000   0.000000
    23  H   -0.000000  -0.000000   0.000000   0.000000   0.408824  -0.000083
    24  H   -0.000000  -0.000000   0.000000   0.000000  -0.000083   0.354890
    25  C   -0.000000  -0.000000   0.000000  -0.000000   0.017845   0.000366
    26  C    0.000001   0.000000  -0.000000   0.000000   0.013536   0.001637
    27  H   -0.000000   0.000000  -0.000000  -0.000000   0.000009  -0.000329
    28  F   -0.000000  -0.000000   0.000000  -0.000000   0.000030   0.000008
    29  F   -0.000000  -0.000000   0.000000  -0.000000   0.000018   0.000009
    30  F    0.000000   0.000000  -0.000000  -0.000000   0.000012  -0.000010
    31  F    0.000000   0.000000  -0.000000  -0.000000  -0.000896   0.000002
    32  F    0.000000  -0.000000  -0.000000   0.000000   0.000074   0.000000
    33  F    0.000000   0.000000  -0.000000  -0.000000  -0.000152  -0.000000
              25         26         27         28         29         30
     1  C    0.406382  -2.406392  -0.040466  -0.009331  -0.008215   0.004377
     2  N    0.010833   0.003882  -0.000496   0.000006  -0.000070  -0.000054
     3  C   -0.005953  -0.020063  -0.002375  -0.000443  -0.000656  -0.000913
     4  O    0.001764  -0.003123  -0.000003   0.000001   0.000001   0.000003
     5  N    0.004239   0.000162   0.000004   0.000001   0.000001  -0.000000
     6  C    0.000570   0.000888  -0.000043  -0.000002  -0.000004  -0.000005
     7  C   -0.000084   0.000288   0.000001   0.000000  -0.000000   0.000000
     8  C   -0.000006   0.000027  -0.000000  -0.000000  -0.000000  -0.000000
     9  C   -1.570047   1.213611  -0.000312   0.038156   0.012907   0.006849
    10  C   -0.820405  -2.983552   0.028610  -0.124287  -0.072674   0.004843
    11  C   -1.260968  -2.708539  -0.079895   0.060874   0.190220  -0.072700
    12  C   -0.128392  -0.473411   0.357550   0.041775  -0.030552   0.032054
    13  C   -1.347328   1.255753   0.050280   0.027244  -0.004233   0.145331
    14  H    0.000977   0.002077   0.000002   0.000000   0.000000   0.000000
    15  H   -0.000001  -0.000043  -0.000000  -0.000000   0.000000  -0.000000
    16  H   -0.000001   0.000001   0.000000  -0.000000   0.000000  -0.000000
    17  H   -0.000004   0.000008  -0.000000  -0.000000  -0.000000   0.000000
    18  H    0.000000   0.000000  -0.000000  -0.000000   0.000000  -0.000000
    19  H   -0.000000   0.000001  -0.000000  -0.000000  -0.000000   0.000000
    20  H   -0.000000   0.000000   0.000000  -0.000000  -0.000000   0.000000
    21  H    0.000000  -0.000000  -0.000000   0.000000   0.000000  -0.000000
    22  H   -0.000000   0.000000  -0.000000  -0.000000  -0.000000  -0.000000
    23  H    0.017845   0.013536   0.000009   0.000030   0.000018   0.000012
    24  H    0.000366   0.001637  -0.000329   0.000008   0.000009  -0.000010
    25  C   12.927274  -4.173814   0.001156  -0.107097   0.008533  -0.022065
    26  C   -4.173814  14.143064   0.015521   0.192499   0.025534   0.020010
    27  H    0.001156   0.015521   0.388500   0.000119   0.000006  -0.000107
    28  F   -0.107097   0.192499   0.000119   9.301853  -0.023828  -0.013258
    29  F    0.008533   0.025534   0.000006  -0.023828   9.285104  -0.022963
    30  F   -0.022065   0.020010  -0.000107  -0.013258  -0.022963   9.346634
    31  F    0.024801  -0.018305   0.000009   0.000431   0.000106   0.000002
    32  F    0.185002  -0.134973   0.000028  -0.003300   0.000314   0.000367
    33  F    0.027543  -0.018962   0.000016   0.000224  -0.001369   0.000049
              31         32         33
     1  C    0.141144   0.026226  -0.014883
     2  N   -0.000486   0.000155   0.000262
     3  C   -0.001766  -0.000699  -0.001251
     4  O    0.000003   0.000000  -0.000001
     5  N   -0.000029   0.000000   0.000003
     6  C   -0.000025  -0.000004  -0.000006
     7  C    0.000001   0.000000  -0.000000
     8  C    0.000000  -0.000000   0.000000
     9  C    0.064997   0.008125  -0.042024
    10  C   -0.081922   0.111189   0.266604
    11  C   -0.001154  -0.087074  -0.083016
    12  C    0.004696   0.021132   0.004463
    13  C   -0.016173  -0.007475  -0.007644
    14  H   -0.000028   0.000000   0.000001
    15  H    0.000000  -0.000000  -0.000000
    16  H    0.000000  -0.000000  -0.000000
    17  H    0.000000   0.000000   0.000000
    18  H   -0.000000  -0.000000  -0.000000
    19  H    0.000000   0.000000   0.000000
    20  H    0.000000  -0.000000   0.000000
    21  H   -0.000000  -0.000000  -0.000000
    22  H   -0.000000   0.000000  -0.000000
    23  H   -0.000896   0.000074  -0.000152
    24  H    0.000002   0.000000  -0.000000
    25  C    0.024801   0.185002   0.027543
    26  C   -0.018305  -0.134973  -0.018962
    27  H    0.000009   0.000028   0.000016
    28  F    0.000431  -0.003300   0.000224
    29  F    0.000106   0.000314  -0.001369
    30  F    0.000002   0.000367   0.000049
    31  F    9.354316  -0.014681  -0.023637
    32  F   -0.014681   9.290265  -0.023813
    33  F   -0.023637  -0.023813   9.268752
 Mulliken charges:
               1
     1  C   -0.097337
     2  N   -0.810562
     3  C    0.661705
     4  O   -0.634985
     5  N   -0.690983
     6  C   -0.082310
     7  C   -0.275679
     8  C   -0.674021
     9  C   -0.536741
    10  C   -0.813032
    11  C   -0.845095
    12  C   -0.143281
    13  C    0.228695
    14  H    0.459481
    15  H    0.419745
    16  H    0.203034
    17  H    0.226044
    18  H    0.207942
    19  H    0.181814
    20  H    0.198867
    21  H    0.200788
    22  H    0.197090
    23  H    0.264660
    24  H    0.322138
    25  C    1.818881
    26  C    2.052679
    27  H    0.282215
    28  F   -0.381676
    29  F   -0.358190
    30  F   -0.428457
    31  F   -0.431408
    32  F   -0.370860
    33  F   -0.351161
 Sum of Mulliken charges =  -0.00000
 Mulliken charges with hydrogens summed into heavy atoms:
               1
     1  C   -0.097337
     2  N   -0.351081
     3  C    0.661705
     4  O   -0.634985
     5  N   -0.271237
     6  C    0.346768
     7  C    0.114077
     8  C   -0.077276
     9  C   -0.272081
    10  C   -0.813032
    11  C   -0.845095
    12  C    0.138934
    13  C    0.550833
    25  C    1.818881
    26  C    2.052679
    28  F   -0.381676
    29  F   -0.358190
    30  F   -0.428457
    31  F   -0.431408
    32  F   -0.370860
    33  F   -0.351161
 Electronic spatial extent (au):  <R**2>=          10081.2320
 Charge=             -0.0000 electrons
 Dipole moment (field-independent basis, Debye):
    X=              6.9752    Y=              2.7111    Z=             -0.9157  Tot=              7.5394
 Quadrupole moment (field-independent basis, Debye-Ang):
   XX=           -119.7909   YY=           -121.4717   ZZ=           -124.0820
   XY=             13.2761   XZ=             -3.2372   YZ=             -0.2190
 Traceless Quadrupole moment (field-independent basis, Debye-Ang):
   XX=              1.9906   YY=              0.3098   ZZ=             -2.3004
   XY=             13.2761   XZ=             -3.2372   YZ=             -0.2190
 Octapole moment (field-independent basis, Debye-Ang**2):
  XXX=             92.3522  YYY=             12.7464  ZZZ=              1.2132  XYY=            -26.8150
  XXY=             42.8148  XXZ=            -11.9409  XZZ=            -28.2457  YZZ=              4.1706
  YYZ=             -2.3113  XYZ=             -4.0164
 Hexadecapole moment (field-independent basis, Debye-Ang**3):
 XXXX=         -10252.7735 YYYY=          -1370.7258 ZZZZ=           -277.1533 XXXY=             80.7750
 XXXZ=            -33.1372 YYYX=             38.1862 YYYZ=             -7.9651 ZZZX=             -1.8866
 ZZZY=              2.4803 XXYY=          -2094.8732 XXZZ=          -1864.3997 YYZZ=           -282.1824
 XXYZ=            -10.2782 YYXZ=            -12.9641 ZZXY=             -9.7870
 N-N= 1.765148239575D+03 E-N=-6.461934947749D+03  KE= 1.238841929098D+03
 1\1\GINC-R3710\SP\RMP2-FC\Gen\C12H12F6N2O1\ROOT\30-Nov-2019\0\\# MP2/G
 en 6D SCF=Tight INT(grid=ultrafine) maxdisk=3489660928\\NM2_c2.MP2_6-3
 1pGd\\0,1\C,0,-5.8451110657,1.3956072891,0.2410996075\N,0,-4.627372989
 5,0.7173734403,0.1794840355\C,0,-3.3559758025,1.279735103,0.0765910143
 \O,0,-3.1526328263,2.4706033855,-0.007944027\N,0,-2.3545297797,0.34452
 09325,0.0502761653\C,0,-0.9670212277,0.7915786583,0.0550898992\C,0,-0.
 0310305275,-0.3772647782,-0.2146835876\C,0,1.4286680526,0.065667665,-0
 .2206035552\C,0,-7.0094721727,0.6184521531,0.1897791191\C,0,-8.2665354
 785,1.1926672156,0.2593929305\C,0,-8.390997741,2.5822691817,0.39488164
 93\C,0,-7.231532269,3.3468059155,0.4391125309\C,0,-5.9663799895,2.7804
 033184,0.3652893505\H,0,-4.6946457214,-0.2813762974,0.0525015468\H,0,-
 2.5355703394,-0.565893622,0.4477100621\H,0,-0.7200714954,1.2717056925,
 1.0093185964\H,0,-0.8636648896,1.5529941913,-0.7195378329\H,0,-0.29426
 86982,-0.8302763705,-1.1750427021\H,0,-0.1761373625,-1.1490062619,0.55
 06502582\H,0,1.6062244216,0.8194015671,-0.9912355711\H,0,2.0959881347,
 -0.7746037732,-0.4171053005\H,0,1.7136165905,0.4997547845,0.7406940353
 \H,0,-6.9287201985,-0.4574996853,0.0865417836\H,0,-5.086443091,3.40322
 85416,0.397508339\C,0,-9.7172052082,3.2982067907,0.4561241002\C,0,-9.4
 547334297,0.2560835061,0.2244489373\H,0,-7.3130192581,4.4214579091,0.5
 404927392\F,0,-10.5994339425,2.6747356283,1.2450349391\F,0,-10.2802880
 573,3.4253464609,-0.7536636452\F,0,-9.5724201183,4.5407348691,0.941809
 3387\F,0,-9.109317486,-0.9485608369,-0.2605104779\F,0,-10.4408945084,0
 .7148159864,-0.5486480475\F,0,-9.9567815251,0.0436814395,1.446803769\\
 Version=ES64L-G09RevE.01\State=1-A\HF=-1241.8921744\MP2=-1244.9868536\
 RMSD=4.185e-09\PG=C01 [X(C12H12F6N2O1)]\\@


 TERENCE, THIS IS STUPID STUFF:
 YOU EAT YOUR VICTUALS FAST ENOUGH;
 THERE CAN'T BE MUCH AMISS, 'TIS CLEAR
 TO SEE THE RATE YOU DRINK YOUR BEER.
 BUT OH, GOOD LORD, THE VERSE YOU MAKE,
 IT GIVES A CHAP THE BELLY-ACHE.
 THE COW, THE OLD COW, SHE IS DEAD;
 IT SLEEPS WELL, THE HORNED HEAD:
 WE POOR LADS, 'TIS OUR TURN NOW
 TO HEAR SUCH TUNES AS KILLED THE COW.
 PRETTY FRIENDSHIP 'TIS TO RHYME
 YOUR FRIENDS TO DEATH BEFORE THEIR TIME.
 MOPING, MELANCHOLY MAD:
 COME PIPE A TUNE TO DANCE TO, LAD.

     -- A. E. HOUSMAN
 Job cpu time:       0 days  0 hours 24 minutes 20.2 seconds.
 File lengths (MBytes):  RWF=     98 Int=      0 D2E=      0 Chk=     11 Scr=      1
 Normal termination of Gaussian 09 at Sat Nov 30 15:11:35 2019.
pbs_rusage has been removed.
Please contact help@nci.org.au if you require this functionality.
