Process 0 of 1 is on r4208 - thread support 0
initial socket setup ...start
initial socket setup ...done 
now start server 0 ... 
r4208 10.9.71
Q-Chem Developer Version! Running on 10.9.71.*
                  Welcome to Q-Chem
     A Quantum Leap Into The Future Of Chemistry


 Q-Chem 5.0, Q-Chem, Inc., Pleasanton, CA (2017)

 Yihan Shao,  Zhengting Gan,  E. Epifanovsky,  A. T. B. Gilbert,  M. Wormit,  
 J. Kussmann,  A. W. Lange,  A. Behn,  Jia Deng,  Xintian Feng,  D. Ghosh,  
 M. Goldey,  P. R. Horn,  L. D. Jacobson,  I. Kaliman,  T. Kus,  A. Landau,  
 Jie Liu,  E. I. Proynov,  R. M. Richard,  R. P. Steele,  E. J. Sundstrom,  
 H. L. Woodcock III,  P. M. Zimmerman,  D. Zuev,  B. Albrecht,  E. Alguire,  
 S. A. Baeppler,  Z. Benda,  Y. A. Bernard,  E. J. Berquist,  K. B. Bravaya,  
 D. Casanova,  Chun-Min Chang,  Yunqing Chen,  A. Chien,  K. D. Closser,  
 M. P. Coons,  S. Dasgupta,  M. Diedenhofen,  Hainam Do,  R. G. Edgar,  
 Po-Tung Fang,  S. Fatehi,  Qingguo Feng,  Qinghui Ge,  A. Ghysels,  
 J. Gomes,  J. Gonthier,  A. Gunina,  M. W. D. Hanson-Heine,  
 P. H. P. Harbach,  A. W. Hauser,  J. E. Herr,  E. G. Hohenstein,  
 Z. C. Holden,  Kerwin Hui,  T.-C. Jagau,  Hyunjun Ji,  B. Kaduk,  
 K. Khistyaev,  Jaehoon Kim,  P. Klunzinger,  K. Koh,  D. Kosenkov,  
 T. Kowalczyk,  C. M. Krauter,  A. Kunitsa,  Ka Un Lao,  A. Laurent,  
 K. V. Lawler,  Joonho Lee,  D. Lefrancois,  S. Lehtola,  D. S. Levine,  
 Yi-Pei Li,  You-Sheng Lin,  Fenglai Liu,  E. Livshits,  A. Luenser,  
 P. Manohar,  E. Mansoor,  S. F. Manzer,  Shan-Ping Mao,  Yuezhi Mao,  
 N. Mardirossian,  A. V. Marenich,  L. A. Martinez-Martinez,  S. A. Maurer,  
 N. J. Mayhall,  S. C. McKenzie,  J.-M. Mewes,  A. F. Morrison,  K. Nanda,  
 T. S. Nguyen-Beck,  R. Olivares-Amaya,  J. A. Parkhill,  T. M. Perrine,  
 F. Plasser,  S. Prager,  A. Prociuk,  D. R. Rehn,  F. Rob,  M. Schneider,  
 N. Sergueev,  S. M. Sharada,  S. Sharma,  D. W. Small,  T. Stauch,  
 T. Stein,  Yu-Chuan Su,  A. J. W. Thom,  T. Tsuchimochi,  L. Vogt,  
 O. Vydrov,  M. A. Watson,  J. Wenzel,  M. de Wergifosse,  T. A. Wesolowski,  
 A. White,  J. Witte,  A. Yamada,  Jun Yang,  K. Yao,  S. Yeganeh,  
 S. R. Yost,  Zhi-Qiang You,  A. Zech,  Igor Ying Zhang,  Xing Zhang,  
 Yan Zhao,  Ying Zhu,  B. R. Brooks,  G. K. L. Chan,  C. J. Cramer,  
 M. S. Gordon,  W. J. Hehre,  A. Klamt,  M. W. Schmidt,  C. D. Sherrill,  
 D. G. Truhlar,  A. Aspuru-Guzik,  R. Baer,  A. T. Bell,  N. A. Besley,  
 Jeng-Da Chai,  A. Dreuw,  B. D. Dunietz,  T. R. Furlani,  Chao-Ping Hsu,  
 Yousung Jung,  Jing Kong,  D. S. Lambrecht,  WanZhen Liang,  C. Ochsenfeld,  
 V. A. Rassolov,  L. V. Slipchenko,  J. E. Subotnik,  T. Van Voorhis,  
 J. M. Herbert,  A. I. Krylov,  P. M. W. Gill,  M. Head-Gordon

 Contributors to earlier versions of Q-Chem not listed above: 
 R. D. Adamson,  B. Austin,  J. Baker,  G. J. O. Beran,  K. Brandhorst,  
 S. T. Brown,  E. F. C. Byrd,  A. K. Chakraborty,  C.-L. Cheng,  
 Siu Hung Chien,  D. M. Chipman,  D. L. Crittenden,  H. Dachsel,  
 R. A. DiStasio Jr.,  R. J. Doerksen,  A. D. Dutoi,  L. Fusti-Molnar,  
 W. A. Goddard III,  A. Golubeva-Zadorozhnaya,  S. R. Gwaltney,  G. Hawkins,  
 A. Heyden,  S. Hirata,  G. Kedziora,  F. J. Keil,  C. Kelley,  Jihan Kim,  
 R. A. King,  R. Z. Khaliullin,  P. P. Korambath,  W. Kurlancheek,  
 A. M. Lee,  M. S. Lee,  S. V. Levchenko,  Ching Yeh Lin,  D. Liotard,  
 R. C. Lochan,  I. Lotan,  P. E. Maslen,  N. Nair,  D. P. O'Neill,  
 D. Neuhauser,  E. Neuscamman,  C. M. Oana,  R. Olson,  B. Peters,  
 R. Peverati,  P. A. Pieniazek,  Y. M. Rhee,  J. Ritchie,  M. A. Rohrdanz,  
 E. Rosta,  N. J. Russ,  H. F. Schaefer III,  N. E. Schultz,  N. Shenvi,  
 A. C. Simmonett,  A. Sodt,  D. Stuck,  K. S. Thanthiriwatte,  V. Vanovschi,  
 Tao Wang,  A. Warshel,  C. F. Williams,  Q. Wu,  X. Xu,  W. Zhang

 Please cite Q-Chem as follows:
 Y. Shao et al., Mol. Phys. 113, 184-215 (2015)
 DOI: 10.1080/00268976.2014.952696

 Q-Chem 5.0.0 for Intel X86 EM64T Linux

 Parts of Q-Chem use Armadillo 5.200.1 (Boston Tea Smuggler).
 http://arma.sourceforge.net/

 Q-Chem begins on Mon Dec  9 10:14:59 2019  

Host: r4208
0

     Scratch files written to /jobfs/local/4046359.r-man2/NM2_c2.CCSD-T_6-31pGd.mo//
 Parallel job on  1  processors
Core orbitals will be frozen

Checking the input file for inconsistencies... 	...done.

--------------------------------------------------------------
User input:
--------------------------------------------------------------
$molecule
  0 1
    C     -5.8451110657    1.3956072891    0.2410996075
    N     -4.6273729895    0.7173734403    0.1794840355
    C     -3.3559758025    1.2797351030    0.0765910143
    O     -3.1526328263    2.4706033855   -0.0079440270
    N     -2.3545297797    0.3445209325    0.0502761653
    C     -0.9670212277    0.7915786583    0.0550898992
    C     -0.0310305275   -0.3772647782   -0.2146835876
    C      1.4286680526    0.0656676650   -0.2206035552
    C     -7.0094721727    0.6184521531    0.1897791191
    C     -8.2665354785    1.1926672156    0.2593929305
    C     -8.3909977410    2.5822691817    0.3948816493
    C     -7.2315322690    3.3468059155    0.4391125309
    C     -5.9663799895    2.7804033184    0.3652893505
    H     -4.6946457214   -0.2813762974    0.0525015468
    H     -2.5355703394   -0.5658936220    0.4477100621
    H     -0.7200714954    1.2717056925    1.0093185964
    H     -0.8636648896    1.5529941913   -0.7195378329
    H     -0.2942686982   -0.8302763705   -1.1750427021
    H     -0.1761373625   -1.1490062619    0.5506502582
    H      1.6062244216    0.8194015671   -0.9912355711
    H      2.0959881347   -0.7746037732   -0.4171053005
    H      1.7136165905    0.4997547845    0.7406940353
    H     -6.9287201985   -0.4574996853    0.0865417836
    H     -5.0864430910    3.4032285416    0.3975083390
    C     -9.7172052082    3.2982067907    0.4561241002
    C     -9.4547334297    0.2560835061    0.2244489373
    H     -7.3130192581    4.4214579091    0.5404927392
    F    -10.5994339425    2.6747356283    1.2450349391
    F    -10.2802880573    3.4253464609   -0.7536636452
    F     -9.5724201183    4.5407348691    0.9418093387
    F     -9.1093174860   -0.9485608369   -0.2605104779
    F    -10.4408945084    0.7148159864   -0.5486480475
    F     -9.9567815251    0.0436814395    1.4468037690

$end

$rem

    JOBTYPE               sp
    METHOD                CCSD(T)
    BASIS                 6-31+G*
    CC_BACKEND            XM

    MEM_TOTAL             60000
$end
--------------------------------------------------------------
 ----------------------------------------------------------------
             Standard Nuclear Orientation (Angstroms)
    I     Atom           X                Y                Z
 ----------------------------------------------------------------
    1      C       0.5655234947    -0.0435463579    -0.0512155692
    2      N       1.8831481296     0.4143582701    -0.0807507656
    3      C       3.0425734325    -0.3537699110     0.0141201201
    4      O       3.0422664330    -1.5543897807     0.1727821501
    5      N       4.1897963326     0.3922475158    -0.0603766508
    6      C       5.4781206622    -0.2894239745    -0.0850376586
    7      C       6.6126795909     0.7125427932     0.0695260434
    8      C       7.9732597305     0.0229914258     0.0526519417
    9      C      -0.4443344117     0.9264587403    -0.0109936370
   10      C      -1.7831802817     0.5771484320     0.0048563005
   11      C      -2.1506788637    -0.7750921266    -0.0302426431
   12      C      -1.1431331748    -1.7314076442    -0.0640846947
   13      C       0.2025322334    -1.3909279227    -0.0754962165
   14      H       1.9944765287     1.4154091216    -0.0202991997
   15      H       4.1489476970     1.2941695914    -0.5125403446
   16      H       5.5930850826    -0.8628697085    -1.0124004345
   17      H       5.4861358927    -1.0082328322     0.7357752628
   18      H       6.4773255583     1.2625578329     1.0054567075
   19      H       6.5657989797     1.4493521892    -0.7412087646
   20      H       8.0554150938    -0.7014562221     0.8662494251
   21      H       8.7835402629     0.7444229787     0.1665250779
   22      H       8.1331805430    -0.5122700041    -0.8863054000
   23      H      -0.1752322303     1.9761039112     0.0150873599
   24      H       0.9599250679    -2.1584797893    -0.0969086788
   25      C      -3.5814915268    -1.2511069004     0.0062073500
   26      C      -2.7899072200     1.7069867198     0.0186698381
   27      H      -1.4126466972    -2.7795332780    -0.0883766779
   28      F      -4.3802763784    -0.5328789558    -0.7909849243
   29      F      -4.0995633781    -1.2036400070     1.2415864945
   30      F      -3.6755425391    -2.5272520383    -0.3979422421
   31      F      -2.2200393169     2.8603496862     0.4068324877
   32      F      -3.8020827048     1.4755955552     0.8568744828
   33      F      -3.3058819575     1.9283351277    -1.1962759282
 ----------------------------------------------------------------
 Molecular Point Group                 C1    NOp =  1
 Largest Abelian Subgroup              C1    NOp =  1
 Nuclear Repulsion Energy =  1765.1482469470 hartrees
 There are       80 alpha and       80 beta electrons
 Requested basis set is 6-31+G(d)
 There are 129 shells and 423 basis functions
 Total memory of 50485MB is distributed as follows: 
   QALLOC including MEM_STATIC uses 30062MB
   MEM_STATIC is set to 62MB
   CCMAN JOB total memory use is  50423MB
 Warning: actual memory use might exceed 50485MB

 Total QAlloc Memory Limit  30062 MB
 Mega-Array Size        61 MB
 MEM_STATIC part        62 MB
 A cutoff of  1.0D-14 yielded   5975 shell pairs
 There are     69622 function pairs
 
 -------------------------------------------------------
 OpenMP Integral Computing Module                       
 Release: version 1.0, May 2013, Q-Chem Inc. Pittsburgh 
 -------------------------------------------------------
 Integral Job Info:
 Integral job number is                      11
 Integral operator is                         1
 short-range coefficients                     0
 long-range coefficients              100000000
 Omega coefficients                           0
 if combine SR and LR in K                    0
 Integral screening is                        0
 Integral computing path is                   2
 max size of driver memory is            800000
 size of driver memory is                593474
 size of scratch memory is              2260544
 max col of scratch BK array               1296
 max len of scratch array in speh3          155
 max len of scratch index in speh4           18
 max int batch size is                      520
 min int batch size is                       52
 fixed nKL is                                52
 max L of basis functions is                  2
 order of int derivative is                   0
 number of shells is                        129
 number of basis is                         423
 number of cartesian basis is               423
 number of contracted shell pairs          5975
 number of primitive shell pairs          18766
 maxK2 (contraction) of shell pair           36
 max number of K2 of shell pair               1
 max number of CS2 of shell pair            902
 max number of PS2 of shell pair           4950
 mem total for path MDJ                  179058
 -------------------------------------------------------
 Smallest overlap matrix eigenvalue = 5.86E-07
 Linear dependence detected in AO basis
 Number of orthogonalized atomic orbitals = 421
 Maximum deviation from orthogonality = 2.327E-10

 Scale SEOQF with 1.000000e-02/1.000000e-01/1.000000e-01

 Standard Electronic Orientation quadrupole field applied
 Nucleus-field energy     =     0.0000000263 hartrees
 Guess from superposition of atomic densities
 Warning:  Energy on first SCF cycle will be non-variational
 A restricted Hartree-Fock SCF calculation will be
 performed using Pulay DIIS extrapolation
 SCF converges when DIIS error is below 1.0E-08
 -------------------------------------------------------
 OpenMP Integral computing Module                
 Release: version 1.0, May 2013, Q-Chem Inc. Pittsburgh 
 -------------------------------------------------------
 ---------------------------------------
  Cycle       Energy         DIIS Error
 ---------------------------------------
    1   -1248.7330095624      3.65E-02
    2   -1241.4221545498      4.72E-03
    3   -1241.7525018894      2.92E-03
    4   -1241.8852547925      4.97E-04
    5   -1241.8913045623      1.85E-04
    6   -1241.8920983805      4.29E-05
    7   -1241.8921598585      1.66E-05
    8   -1241.8921726250      4.97E-06
    9   -1241.8921740733      2.21E-06
   10   -1241.8921743008      7.44E-07
   11   -1241.8921743342      3.23E-07
   12   -1241.8921743400      1.14E-07
   13   -1241.8921743408      3.64E-08
   14   -1241.8921743409      1.98E-08
   15   -1241.8921743410      8.10E-09 Convergence criterion met
 ---------------------------------------
 SCF time:  CPU 324.55 s  wall 42.58 s
 SCF   energy in the final basis set = -1241.8921743410
 Total energy in the final basis set = -1241.8921743410


 ------------------------------------------------------------------------------

   CCMAN2: suite of methods based on coupled cluster
           and equation of motion theories.

   Components:
   * libvmm-1.3-trunk
     by Evgeny Epifanovsky, Ilya Kaliman.
   * libtensor-2.5-release
     by Evgeny Epifanovsky, Michael Wormit, Dmitry Zuev, Sam Manzer, 
        Ilya Kaliman.
   * libcc-2.5-trunk
     by Evgeny Epifanovsky, Arik Landau, Tomasz Kus, Kirill Khistyaev, 
        Dmitry Zuev, Prashant Manohar, Xintian Feng, Anna Krylov, 
        Matthew Goldey, Alec White, Thomas Jagau, Kaushik Nanda, 
        Anastasia Gunina, Alexander Kunitsa, Joonho Lee.

   CCMAN original authors:
   Anna I. Krylov, C. David Sherrill, Steven R. Gwaltney,
   Edward F. C. Byrd (2000)
   Sergey V. Levchenko, Lyudmila V. Slipchenko, Tao Wang,
   Ana-Maria C. Cristian (2003)
   Piotr A. Pieniazek, C. Melania Oana, Evgeny Epifanovsky (2007)
   Prashant Manohar (2009)

 ------------------------------------------------------------------------------


================================================================================
This program uses libxm tensor contraction code.
See https://github.com/ilyak/libxm for more info.
libxm is (c) Ilya Kaliman 2014-2016.
================================================================================

 Calculation will run on 8 cores using libxm for tensor contractions

 
 Alpha MOs, Restricted
 -- Occupied --                  
-26.361 -26.357 -26.355 -26.354 -26.351 -26.347 -20.554 -15.636
  1 A     2 A     3 A     4 A     5 A     6 A     7 A     8 A                  
-15.612 -11.530 -11.523 -11.412 -11.330 -11.302 -11.286 -11.278
  9 A    10 A    11 A    12 A    13 A    14 A    15 A    16 A                  
-11.278 -11.277 -11.261 -11.247 -11.234  -1.744  -1.735  -1.646
 17 A    18 A    19 A    20 A    21 A    22 A    23 A    24 A                  
 -1.642  -1.638  -1.635  -1.430  -1.293  -1.252  -1.198  -1.090
 25 A    26 A    27 A    28 A    29 A    30 A    31 A    32 A                  
 -1.084  -1.067  -0.995  -0.969  -0.946  -0.896  -0.886  -0.847
 33 A    34 A    35 A    36 A    37 A    38 A    39 A    40 A                  
 -0.837  -0.833  -0.832  -0.826  -0.821  -0.818  -0.782  -0.770
 41 A    42 A    43 A    44 A    45 A    46 A    47 A    48 A                  
 -0.725  -0.720  -0.717  -0.710  -0.709  -0.683  -0.680  -0.672
 49 A    50 A    51 A    52 A    53 A    54 A    55 A    56 A                  
 -0.670  -0.662  -0.660  -0.653  -0.651  -0.647  -0.645  -0.635
 57 A    58 A    59 A    60 A    61 A    62 A    63 A    64 A                  
 -0.628  -0.615  -0.601  -0.586  -0.571  -0.556  -0.546  -0.540
 65 A    66 A    67 A    68 A    69 A    70 A    71 A    72 A                  
 -0.527  -0.506  -0.500  -0.478  -0.464  -0.420  -0.379  -0.341
 73 A    74 A    75 A    76 A    77 A    78 A    79 A    80 A                  
 -- Virtual --                   
  0.044   0.074   0.078   0.079   0.080   0.082   0.091   0.095
 81 A    82 A    83 A    84 A    85 A    86 A    87 A    88 A                  
  0.103   0.106   0.108   0.111   0.119   0.120   0.124   0.127
 89 A    90 A    91 A    92 A    93 A    94 A    95 A    96 A                  
  0.130   0.135   0.147   0.148   0.152   0.157   0.173   0.176
 97 A    98 A    99 A   100 A   101 A   102 A   103 A   104 A                  
  0.178   0.184   0.186   0.191   0.196   0.208   0.209   0.213
105 A   106 A   107 A   108 A   109 A   110 A   111 A   112 A                  
  0.220   0.221   0.236   0.248   0.249   0.255   0.260   0.264
113 A   114 A   115 A   116 A   117 A   118 A   119 A   120 A                  
  0.273   0.275   0.282   0.293   0.298   0.301   0.308   0.313
121 A   122 A   123 A   124 A   125 A   126 A   127 A   128 A                  
  0.316   0.322   0.324   0.329   0.334   0.334   0.337   0.342
129 A   130 A   131 A   132 A   133 A   134 A   135 A   136 A                  
  0.349   0.359   0.363   0.369   0.375   0.376   0.387   0.393
137 A   138 A   139 A   140 A   141 A   142 A   143 A   144 A                  
  0.395   0.404   0.405   0.409   0.411   0.415   0.417   0.421
145 A   146 A   147 A   148 A   149 A   150 A   151 A   152 A                  
  0.424   0.433   0.435   0.441   0.448   0.450   0.456   0.458
153 A   154 A   155 A   156 A   157 A   158 A   159 A   160 A                  
  0.465   0.466   0.469   0.476   0.480   0.485   0.489   0.491
161 A   162 A   163 A   164 A   165 A   166 A   167 A   168 A                  
  0.497   0.504   0.509   0.513   0.520   0.522   0.529   0.533
169 A   170 A   171 A   172 A   173 A   174 A   175 A   176 A                  
  0.547   0.556   0.558   0.561   0.572   0.574   0.578   0.586
177 A   178 A   179 A   180 A   181 A   182 A   183 A   184 A                  
  0.595   0.600   0.613   0.619   0.625   0.635   0.650   0.670
185 A   186 A   187 A   188 A   189 A   190 A   191 A   192 A                  
  0.677   0.687   0.699   0.710   0.765   0.809   0.841   0.847
193 A   194 A   195 A   196 A   197 A   198 A   199 A   200 A                  
  0.850   0.874   0.895   0.901   0.909   0.920   0.924   0.934
201 A   202 A   203 A   204 A   205 A   206 A   207 A   208 A                  
  0.945   0.959   0.969   0.985   0.998   1.005   1.016   1.022
209 A   210 A   211 A   212 A   213 A   214 A   215 A   216 A                  
  1.028   1.036   1.041   1.054   1.067   1.084   1.100   1.106
217 A   218 A   219 A   220 A   221 A   222 A   223 A   224 A                  
  1.116   1.128   1.135   1.148   1.163   1.170   1.186   1.190
225 A   226 A   227 A   228 A   229 A   230 A   231 A   232 A                  
  1.202   1.226   1.234   1.244   1.252   1.257   1.261   1.278
233 A   234 A   235 A   236 A   237 A   238 A   239 A   240 A                  
  1.312   1.317   1.337   1.345   1.363   1.378   1.382   1.390
241 A   242 A   243 A   244 A   245 A   246 A   247 A   248 A                  
  1.397   1.401   1.412   1.442   1.447   1.460   1.478   1.488
249 A   250 A   251 A   252 A   253 A   254 A   255 A   256 A                  
  1.501   1.525   1.542   1.567   1.577   1.593   1.607   1.615
257 A   258 A   259 A   260 A   261 A   262 A   263 A   264 A                  
  1.630   1.639   1.665   1.680   1.691   1.706   1.717   1.731
265 A   266 A   267 A   268 A   269 A   270 A   271 A   272 A                  
  1.740   1.761   1.774   1.796   1.843   1.875   1.882   1.890
273 A   274 A   275 A   276 A   277 A   278 A   279 A   280 A                  
  1.896   1.902   1.918   1.929   1.938   1.944   1.959   1.960
281 A   282 A   283 A   284 A   285 A   286 A   287 A   288 A                  
  1.973   1.981   1.982   1.987   1.990   1.998   2.003   2.010
289 A   290 A   291 A   292 A   293 A   294 A   295 A   296 A                  
  2.021   2.026   2.032   2.035   2.052   2.053   2.079   2.091
297 A   298 A   299 A   300 A   301 A   302 A   303 A   304 A                  
  2.096   2.104   2.110   2.122   2.130   2.136   2.139   2.146
305 A   306 A   307 A   308 A   309 A   310 A   311 A   312 A                  
  2.157   2.166   2.174   2.181   2.189   2.199   2.208   2.211
313 A   314 A   315 A   316 A   317 A   318 A   319 A   320 A                  
  2.218   2.240   2.256   2.265   2.288   2.297   2.303   2.305
321 A   322 A   323 A   324 A   325 A   326 A   327 A   328 A                  
  2.321   2.341   2.354   2.368   2.381   2.388   2.390   2.402
329 A   330 A   331 A   332 A   333 A   334 A   335 A   336 A                  
  2.406   2.408   2.426   2.436   2.438   2.442   2.451   2.462
337 A   338 A   339 A   340 A   341 A   342 A   343 A   344 A                  
  2.478   2.491   2.506   2.517   2.531   2.544   2.572   2.585
345 A   346 A   347 A   348 A   349 A   350 A   351 A   352 A                  
  2.596   2.616   2.632   2.642   2.655   2.673   2.681   2.714
353 A   354 A   355 A   356 A   357 A   358 A   359 A   360 A                  
  2.739   2.741   2.781   2.786   2.807   2.824   2.854   2.865
361 A   362 A   363 A   364 A   365 A   366 A   367 A   368 A                  
  2.927   2.941   2.953   2.974   2.992   3.010   3.019   3.048
369 A   370 A   371 A   372 A   373 A   374 A   375 A   376 A                  
  3.081   3.089   3.099   3.115   3.130   3.162   3.180   3.210
377 A   378 A   379 A   380 A   381 A   382 A   383 A   384 A                  
  3.226   3.263   3.283   3.332   3.367   3.469   3.531   3.552
385 A   386 A   387 A   388 A   389 A   390 A   391 A   392 A                  
  3.567   3.592   3.603   3.650   3.675   3.719   3.751   3.817
393 A   394 A   395 A   396 A   397 A   398 A   399 A   400 A                  
  4.545   4.652   4.664   4.705   4.733   4.784   4.804   4.810
401 A   402 A   403 A   404 A   405 A   406 A   407 A   408 A                  
  4.866   4.880   4.967   4.991   5.018   5.077   5.230   6.258
409 A   410 A   411 A   412 A   413 A   414 A   415 A   416 A                  
  6.271   6.451   6.487   7.330   7.666
417 A   418 A   419 A   420 A   421 A                                          
 
 Beta MOs, Restricted
 -- Occupied --                  
-26.361 -26.357 -26.355 -26.354 -26.351 -26.347 -20.554 -15.636
  1 A     2 A     3 A     4 A     5 A     6 A     7 A     8 A                  
-15.612 -11.530 -11.523 -11.412 -11.330 -11.302 -11.286 -11.278
  9 A    10 A    11 A    12 A    13 A    14 A    15 A    16 A                  
-11.278 -11.277 -11.261 -11.247 -11.234  -1.744  -1.735  -1.646
 17 A    18 A    19 A    20 A    21 A    22 A    23 A    24 A                  
 -1.642  -1.638  -1.635  -1.430  -1.293  -1.252  -1.198  -1.090
 25 A    26 A    27 A    28 A    29 A    30 A    31 A    32 A                  
 -1.084  -1.067  -0.995  -0.969  -0.946  -0.896  -0.886  -0.847
 33 A    34 A    35 A    36 A    37 A    38 A    39 A    40 A                  
 -0.837  -0.833  -0.832  -0.826  -0.821  -0.818  -0.782  -0.770
 41 A    42 A    43 A    44 A    45 A    46 A    47 A    48 A                  
 -0.725  -0.720  -0.717  -0.710  -0.709  -0.683  -0.680  -0.672
 49 A    50 A    51 A    52 A    53 A    54 A    55 A    56 A                  
 -0.670  -0.662  -0.660  -0.653  -0.651  -0.647  -0.645  -0.635
 57 A    58 A    59 A    60 A    61 A    62 A    63 A    64 A                  
 -0.628  -0.615  -0.601  -0.586  -0.571  -0.556  -0.546  -0.540
 65 A    66 A    67 A    68 A    69 A    70 A    71 A    72 A                  
 -0.527  -0.506  -0.500  -0.478  -0.464  -0.420  -0.379  -0.341
 73 A    74 A    75 A    76 A    77 A    78 A    79 A    80 A                  
 -- Virtual --                   
  0.044   0.074   0.078   0.079   0.080   0.082   0.091   0.095
 81 A    82 A    83 A    84 A    85 A    86 A    87 A    88 A                  
  0.103   0.106   0.108   0.111   0.119   0.120   0.124   0.127
 89 A    90 A    91 A    92 A    93 A    94 A    95 A    96 A                  
  0.130   0.135   0.147   0.148   0.152   0.157   0.173   0.176
 97 A    98 A    99 A   100 A   101 A   102 A   103 A   104 A                  
  0.178   0.184   0.186   0.191   0.196   0.208   0.209   0.213
105 A   106 A   107 A   108 A   109 A   110 A   111 A   112 A                  
  0.220   0.221   0.236   0.248   0.249   0.255   0.260   0.264
113 A   114 A   115 A   116 A   117 A   118 A   119 A   120 A                  
  0.273   0.275   0.282   0.293   0.298   0.301   0.308   0.313
121 A   122 A   123 A   124 A   125 A   126 A   127 A   128 A                  
  0.316   0.322   0.324   0.329   0.334   0.334   0.337   0.342
129 A   130 A   131 A   132 A   133 A   134 A   135 A   136 A                  
  0.349   0.359   0.363   0.369   0.375   0.376   0.387   0.393
137 A   138 A   139 A   140 A   141 A   142 A   143 A   144 A                  
  0.395   0.404   0.405   0.409   0.411   0.415   0.417   0.421
145 A   146 A   147 A   148 A   149 A   150 A   151 A   152 A                  
  0.424   0.433   0.435   0.441   0.448   0.450   0.456   0.458
153 A   154 A   155 A   156 A   157 A   158 A   159 A   160 A                  
  0.465   0.466   0.469   0.476   0.480   0.485   0.489   0.491
161 A   162 A   163 A   164 A   165 A   166 A   167 A   168 A                  
  0.497   0.504   0.509   0.513   0.520   0.522   0.529   0.533
169 A   170 A   171 A   172 A   173 A   174 A   175 A   176 A                  
  0.547   0.556   0.558   0.561   0.572   0.574   0.578   0.586
177 A   178 A   179 A   180 A   181 A   182 A   183 A   184 A                  
  0.595   0.600   0.613   0.619   0.625   0.635   0.650   0.670
185 A   186 A   187 A   188 A   189 A   190 A   191 A   192 A                  
  0.677   0.687   0.699   0.710   0.765   0.809   0.841   0.847
193 A   194 A   195 A   196 A   197 A   198 A   199 A   200 A                  
  0.850   0.874   0.895   0.901   0.909   0.920   0.924   0.934
201 A   202 A   203 A   204 A   205 A   206 A   207 A   208 A                  
  0.945   0.959   0.969   0.985   0.998   1.005   1.016   1.022
209 A   210 A   211 A   212 A   213 A   214 A   215 A   216 A                  
  1.028   1.036   1.041   1.054   1.067   1.084   1.100   1.106
217 A   218 A   219 A   220 A   221 A   222 A   223 A   224 A                  
  1.116   1.128   1.135   1.148   1.163   1.170   1.186   1.190
225 A   226 A   227 A   228 A   229 A   230 A   231 A   232 A                  
  1.202   1.226   1.234   1.244   1.252   1.257   1.261   1.278
233 A   234 A   235 A   236 A   237 A   238 A   239 A   240 A                  
  1.312   1.317   1.337   1.345   1.363   1.378   1.382   1.390
241 A   242 A   243 A   244 A   245 A   246 A   247 A   248 A                  
  1.397   1.401   1.412   1.442   1.447   1.460   1.478   1.488
249 A   250 A   251 A   252 A   253 A   254 A   255 A   256 A                  
  1.501   1.525   1.542   1.567   1.577   1.593   1.607   1.615
257 A   258 A   259 A   260 A   261 A   262 A   263 A   264 A                  
  1.630   1.639   1.665   1.680   1.691   1.706   1.717   1.731
265 A   266 A   267 A   268 A   269 A   270 A   271 A   272 A                  
  1.740   1.761   1.774   1.796   1.843   1.875   1.882   1.890
273 A   274 A   275 A   276 A   277 A   278 A   279 A   280 A                  
  1.896   1.902   1.918   1.929   1.938   1.944   1.959   1.960
281 A   282 A   283 A   284 A   285 A   286 A   287 A   288 A                  
  1.973   1.981   1.982   1.987   1.990   1.998   2.003   2.010
289 A   290 A   291 A   292 A   293 A   294 A   295 A   296 A                  
  2.021   2.026   2.032   2.035   2.052   2.053   2.079   2.091
297 A   298 A   299 A   300 A   301 A   302 A   303 A   304 A                  
  2.096   2.104   2.110   2.122   2.130   2.136   2.139   2.146
305 A   306 A   307 A   308 A   309 A   310 A   311 A   312 A                  
  2.157   2.166   2.174   2.181   2.189   2.199   2.208   2.211
313 A   314 A   315 A   316 A   317 A   318 A   319 A   320 A                  
  2.218   2.240   2.256   2.265   2.288   2.297   2.303   2.305
321 A   322 A   323 A   324 A   325 A   326 A   327 A   328 A                  
  2.321   2.341   2.354   2.368   2.381   2.388   2.390   2.402
329 A   330 A   331 A   332 A   333 A   334 A   335 A   336 A                  
  2.406   2.408   2.426   2.436   2.438   2.442   2.451   2.462
337 A   338 A   339 A   340 A   341 A   342 A   343 A   344 A                  
  2.478   2.491   2.506   2.517   2.531   2.544   2.572   2.585
345 A   346 A   347 A   348 A   349 A   350 A   351 A   352 A                  
  2.596   2.616   2.632   2.642   2.655   2.673   2.681   2.714
353 A   354 A   355 A   356 A   357 A   358 A   359 A   360 A                  
  2.739   2.741   2.781   2.786   2.807   2.824   2.854   2.865
361 A   362 A   363 A   364 A   365 A   366 A   367 A   368 A                  
  2.927   2.941   2.953   2.974   2.992   3.010   3.019   3.048
369 A   370 A   371 A   372 A   373 A   374 A   375 A   376 A                  
  3.081   3.089   3.099   3.115   3.130   3.162   3.180   3.210
377 A   378 A   379 A   380 A   381 A   382 A   383 A   384 A                  
  3.226   3.263   3.283   3.332   3.367   3.469   3.531   3.552
385 A   386 A   387 A   388 A   389 A   390 A   391 A   392 A                  
  3.567   3.592   3.603   3.650   3.675   3.719   3.751   3.817
393 A   394 A   395 A   396 A   397 A   398 A   399 A   400 A                  
  4.545   4.652   4.664   4.705   4.733   4.784   4.804   4.810
401 A   402 A   403 A   404 A   405 A   406 A   407 A   408 A                  
  4.866   4.880   4.967   4.991   5.018   5.077   5.230   6.258
409 A   410 A   411 A   412 A   413 A   414 A   415 A   416 A                  
  6.271   6.451   6.487   7.330   7.666
417 A   418 A   419 A   420 A   421 A                                          

 Occupation and symmetry of molecular orbitals

 Point group: C1 (1 irreducible representation).

                           A     All 
 -------------------------------------
 All molecular orbitals:
  - Alpha                  421   421 
  - Beta                   421   421 
 -------------------------------------
 Alpha orbitals:
  - Frozen occupied        21    21  
  - Active occupied        59    59  
  - Active virtual         341   341 
  - Frozen virtual         0     0   
 -------------------------------------
 Beta orbitals:
  - Frozen occupied        21    21  
  - Active occupied        59    59  
  - Active virtual         341   341 
  - Frozen virtual         0     0   
 -------------------------------------

 Import integrals:   CPU 0.00 s  wall 0.00 s

 Import integrals:   CPU 3443.70 s  wall 976.82 s

 MP2 amplitudes:   CPU 40.46 s  wall 112.00 s

           CCSD T amplitudes will be solved using DIIS.

           Start     Size      MaxIter   EConv     TConv     
           3         7         100       1.00e-06  1.00e-04  
 ------------------------------------------------------------------------------
           Energy (a.u.)   Ediff      Tdiff       Comment
 ------------------------------------------------------------------------------
         -1244.98685360                           
     1   -1244.95905079   2.78e-02   1.57e+00     Step took 55.32.
     2   -1245.05218347   9.31e-02   2.12e-01     
     3   -1245.04985042   2.33e-03   7.91e-02     
     4   -1245.05900466   9.15e-03   2.66e-02     Switched to DIIS steps.
     5   -1245.06204822   3.04e-03   1.72e-02     
     6   -1245.06223329   1.85e-04   3.68e-03     
     7   -1245.06221954   1.38e-05   1.79e-03     
     8   -1245.06220810   1.14e-05   5.09e-04     
     9   -1245.06220882   7.18e-07   1.93e-04     
    10   -1245.06220888   5.93e-08   5.71e-05     
 ------------------------------------------------------------------------------
         -1245.06220888                           CCSD T converged.


 ------------------------------------------------------------------------------
 == (T) code is based on LIBPT ==
 == Author: Ilya Kaliman, 2016 ==

 Starting (T) calculation...
 (T) calculation completed in 93131 sec
 ------------------------------------------------------------------------------

 SCF energy                 = -1241.89217434
 MP2 energy                 = -1244.98685360
 CCSD correlation energy     =    -3.17003454
 CCSD total energy           = -1245.06220888
 CCSD(T) correlation energy =    -0.11352881
 CCSD(T) total energy       = -1245.17573769

 CCSD  T1^2 = 0.0459  T2^2 = 0.9918  Leading amplitudes:

 Amplitude    Orbitals with energies
  0.0170       64 (A) A                  ->    114 (A) A                  
              -0.6354                          0.2211                     
  0.0170       64 (A) B                  ->    114 (A) B                  
              -0.6354                          0.2211                     
  0.0162       64 (A) A                  ->    107 (A) A                  
              -0.6354                          0.1862                     
  0.0162       64 (A) B                  ->    107 (A) B                  
              -0.6354                          0.1862                     

 Amplitude    Orbitals with energies
 -0.0406       79 (A) A      79 (A) B    ->    84 (A) A      84 (A) B     
              -0.3791       -0.3791            0.0789        0.0789       
  0.0406       79 (A) A      79 (A) B    ->    84 (A) B      84 (A) A     
              -0.3791       -0.3791            0.0789        0.0789       
  0.0406       79 (A) B      79 (A) A    ->    84 (A) A      84 (A) B     
              -0.3791       -0.3791            0.0789        0.0789       
 -0.0406       79 (A) B      79 (A) A    ->    84 (A) B      84 (A) A     
              -0.3791       -0.3791            0.0789        0.0789       

 CCSD calculation:   CPU 892462.63 s  wall 132947.09 s

 Total ccman2 time:   CPU 895995.33 s  wall 134057.20 s

 
 --------------------------------------------------------------
 
                    Orbital Energies (a.u.)
 --------------------------------------------------------------
 
 Alpha MOs
 -- Occupied --
-26.361 -26.357 -26.355 -26.354 -26.351 -26.347 -20.554 -15.636
-15.612 -11.530 -11.523 -11.412 -11.330 -11.302 -11.286 -11.278
-11.278 -11.277 -11.261 -11.247 -11.234  -1.744  -1.735  -1.646
 -1.642  -1.638  -1.635  -1.430  -1.293  -1.252  -1.198  -1.090
 -1.084  -1.067  -0.995  -0.969  -0.946  -0.896  -0.886  -0.847
 -0.837  -0.833  -0.832  -0.826  -0.821  -0.818  -0.782  -0.770
 -0.725  -0.720  -0.717  -0.710  -0.709  -0.683  -0.680  -0.672
 -0.670  -0.662  -0.660  -0.653  -0.651  -0.647  -0.645  -0.635
 -0.628  -0.615  -0.601  -0.586  -0.571  -0.556  -0.546  -0.540
 -0.527  -0.506  -0.500  -0.478  -0.464  -0.420  -0.379  -0.341
 -- Virtual --
  0.044   0.074   0.078   0.079   0.080   0.082   0.091   0.095
  0.103   0.106   0.108   0.111   0.119   0.120   0.124   0.127
  0.130   0.135   0.147   0.148   0.152   0.157   0.173   0.176
  0.178   0.184   0.186   0.191   0.196   0.208   0.209   0.213
  0.220   0.221   0.236   0.248   0.249   0.255   0.260   0.264
  0.273   0.275   0.282   0.293   0.298   0.301   0.308   0.313
  0.316   0.322   0.324   0.329   0.334   0.334   0.337   0.342
  0.349   0.359   0.363   0.369   0.375   0.376   0.387   0.393
  0.395   0.404   0.405   0.409   0.411   0.415   0.417   0.421
  0.424   0.433   0.435   0.441   0.448   0.450   0.456   0.458
  0.465   0.466   0.469   0.476   0.480   0.485   0.489   0.491
  0.497   0.504   0.509   0.513   0.520   0.522   0.529   0.533
  0.547   0.556   0.558   0.561   0.572   0.574   0.578   0.586
  0.595   0.600   0.613   0.619   0.625   0.635   0.650   0.670
  0.677   0.687   0.699   0.710   0.765   0.809   0.841   0.847
  0.850   0.874   0.895   0.901   0.909   0.920   0.924   0.934
  0.945   0.959   0.969   0.985   0.998   1.005   1.016   1.022
  1.028   1.036   1.041   1.054   1.067   1.084   1.100   1.106
  1.116   1.128   1.135   1.148   1.163   1.170   1.186   1.190
  1.202   1.226   1.234   1.244   1.252   1.257   1.261   1.278
  1.312   1.317   1.337   1.345   1.363   1.378   1.382   1.390
  1.397   1.401   1.412   1.442   1.447   1.460   1.478   1.488
  1.501   1.525   1.542   1.567   1.577   1.593   1.607   1.615
  1.630   1.639   1.665   1.680   1.691   1.706   1.717   1.731
  1.740   1.761   1.774   1.796   1.843   1.875   1.882   1.890
  1.896   1.902   1.918   1.929   1.938   1.944   1.959   1.960
  1.973   1.981   1.982   1.987   1.990   1.998   2.003   2.010
  2.021   2.026   2.032   2.035   2.052   2.053   2.079   2.091
  2.096   2.104   2.110   2.122   2.130   2.136   2.139   2.146
  2.157   2.166   2.174   2.181   2.189   2.199   2.208   2.211
  2.218   2.240   2.256   2.265   2.288   2.297   2.303   2.305
  2.321   2.341   2.354   2.368   2.381   2.388   2.390   2.402
  2.406   2.408   2.426   2.436   2.438   2.442   2.451   2.462
  2.478   2.491   2.506   2.517   2.531   2.544   2.572   2.585
  2.596   2.616   2.632   2.642   2.655   2.673   2.681   2.714
  2.739   2.741   2.781   2.786   2.807   2.824   2.854   2.865
  2.927   2.941   2.953   2.974   2.992   3.010   3.019   3.048
  3.081   3.089   3.099   3.115   3.130   3.162   3.180   3.210
  3.226   3.263   3.283   3.332   3.367   3.469   3.531   3.552
  3.567   3.592   3.603   3.650   3.675   3.719   3.751   3.817
  4.545   4.652   4.664   4.705   4.733   4.784   4.804   4.810
  4.866   4.880   4.967   4.991   5.018   5.077   5.230   6.258
  6.271   6.451   6.487   7.330   7.666
 --------------------------------------------------------------
 
          Ground-State Mulliken Net Atomic Charges

     Atom                 Charge (a.u.)
  ----------------------------------------
      1 C                    -0.097337
      2 N                    -0.810562
      3 C                     0.661705
      4 O                    -0.634985
      5 N                    -0.690983
      6 C                    -0.082310
      7 C                    -0.275680
      8 C                    -0.674021
      9 C                    -0.536742
     10 C                    -0.813039
     11 C                    -0.845095
     12 C                    -0.143281
     13 C                     0.228696
     14 H                     0.459481
     15 H                     0.419745
     16 H                     0.203034
     17 H                     0.226044
     18 H                     0.207942
     19 H                     0.181814
     20 H                     0.198867
     21 H                     0.200788
     22 H                     0.197090
     23 H                     0.264660
     24 H                     0.322138
     25 C                     1.818883
     26 C                     2.052684
     27 H                     0.282215
     28 F                    -0.381676
     29 F                    -0.358190
     30 F                    -0.428457
     31 F                    -0.431408
     32 F                    -0.370860
     33 F                    -0.351161
  ----------------------------------------
  Sum of atomic charges =     0.000000

 -----------------------------------------------------------------
                    Cartesian Multipole Moments
 -----------------------------------------------------------------
    Charge (ESU x 10^10)
                 0.0000
    Dipole Moment (Debye)
         X       6.9752      Y       2.7111      Z      -0.9157
       Tot       7.5394
    Quadrupole Moments (Debye-Ang)
        XX    -119.7909     XY      13.2761     YY    -121.4717
        XZ      -3.2372     YZ      -0.2190     ZZ    -124.0820
    Octopole Moments (Debye-Ang^2)
       XXX      92.3521    XXY      42.8148    XYY     -26.8150
       YYY      12.7464    XXZ     -11.9409    XYZ      -4.0164
       YYZ      -2.3113    XZZ     -28.2457    YZZ       4.1706
       ZZZ       1.2132
    Hexadecapole Moments (Debye-Ang^3)
      XXXX  -10252.7745   XXXY      80.7752   XXYY   -2094.8733
      XYYY      38.1863   YYYY   -1370.7259   XXXZ     -33.1373
      XXYZ     -10.2782   XYYZ     -12.9641   YYYZ      -7.9651
      XXZZ   -1864.3998   XYZZ      -9.7870   YYZZ    -282.1824
      XZZZ      -1.8866   YZZZ       2.4803   ZZZZ    -277.1533
 -----------------------------------------------------------------
Archival summary:
1\1\r4208\SP\ProcedureUnspecified\6-31+G*\6121212\hio507\TueDec1023:30:012019TueDec1023:30:012019\0\\#,ProcedureUnspecified,6-31+G*,\\0,1\F\C,1,1.3344\F,2,1.3384,1,107.846\F,2,1.34375,1,106.802,3,114.118,0\C,2,1.51335,1,112.387,3,-123.702,0\C,5,1.38375,2,117.083,1,-137.967,0\H,6,1.08391,5,118.973,2,1.68793,0\C,6,1.40084,5,121.536,2,-178.724,0\N,8,1.39524,6,117.01,5,179.237,0\H,9,1.00903,8,115.374,6,3.15093,0\C,9,1.39402,8,127.097,6,172.954,0\O,11,1.21106,9,123.709,8,-1.96637,0\N,11,1.37048,9,113.115,8,179.415,0\H,13,1.00974,11,118.47,9,-23.1409,0\C,8,1.39563,6,118.784,5,-0.00602433,0\H,15,1.07854,8,120.315,6,-179.405,0\C,15,1.38812,8,119.261,6,0.231083,0\H,17,1.08249,15,118.599,8,179.685,0\C,17,1.38954,15,122.297,8,0.0534383,0\C,13,1.45776,11,119.089,9,-175.038,0\H,20,1.09109,13,107.568,11,-49.5867,0\H,20,1.09638,13,110.583,11,66.8304,0\C,19,1.50836,17,118.113,15,-178.851,0\F,23,1.33769,19,112.494,17,-138.221,0\F,23,1.34045,19,112.192,17,100.517,0\F,23,1.34191,19,111.059,17,-18.5555,0\C,20,1.52153,13,110.447,11,-170.385,0\H,27,1.09399,20,109.01,13,57.7511,0\H,27,1.09653,20,109.603,13,-58.8423,0\C,27,1.52543,20,111.487,13,179.766,0\H,30,1.09086,27,111.248,20,-179.84,0\H,30,1.09248,27,111.014,20,-59.8482,0\H,30,1.09258,27,111.193,20,60.0452,0\\HF=-1241.89217\\@

 Total job time:  134101.77s(wall), 896321.97s(cpu) 
 Tue Dec 10 23:30:01 2019

        *************************************************************
        *                                                           *
        *  Thank you very much for using Q-Chem.  Have a nice day.  *
        *                                                           *
        *************************************************************


0 sent ACK to 0 
now end server 0 ... 
