 Entering Gaussian System, Link 0=/apps/gaussian/g09e01/g09/g09
 Initial command:
 /apps/gaussian/g09e01/g09/l1.exe "/jobfs/local/3579223.r-man2/Gau-2641.inp" -scrdir="/jobfs/local/3579223.r-man2/"
 Entering Link 1 = /apps/gaussian/g09e01/g09/l1.exe PID=      2643.
  
 Copyright (c) 1988,1990,1992,1993,1995,1998,2003,2009,2015,
            Gaussian, Inc.  All Rights Reserved.
  
 This is part of the Gaussian(R) 09 program.  It is based on
 the Gaussian(R) 03 system (copyright 2003, Gaussian, Inc.),
 the Gaussian(R) 98 system (copyright 1998, Gaussian, Inc.),
 the Gaussian(R) 94 system (copyright 1995, Gaussian, Inc.),
 the Gaussian 92(TM) system (copyright 1992, Gaussian, Inc.),
 the Gaussian 90(TM) system (copyright 1990, Gaussian, Inc.),
 the Gaussian 88(TM) system (copyright 1988, Gaussian, Inc.),
 the Gaussian 86(TM) system (copyright 1986, Carnegie Mellon
 University), and the Gaussian 82(TM) system (copyright 1983,
 Carnegie Mellon University). Gaussian is a federally registered
 trademark of Gaussian, Inc.
  
 This software contains proprietary and confidential information,
 including trade secrets, belonging to Gaussian, Inc.
  
 This software is provided under written license and may be
 used, copied, transmitted, or stored only in accord with that
 written license.
  
 The following legend is applicable only to US Government
 contracts under FAR:
  
                    RESTRICTED RIGHTS LEGEND
  
 Use, reproduction and disclosure by the US Government is
 subject to restrictions as set forth in subparagraphs (a)
 and (c) of the Commercial Computer Software - Restricted
 Rights clause in FAR 52.227-19.
  
 Gaussian, Inc.
 340 Quinnipiac St., Bldg. 40, Wallingford CT 06492
  
  
 ---------------------------------------------------------------
 Warning -- This program may not be used in any manner that
 competes with the business of Gaussian, Inc. or will provide
 assistance to any competitor of Gaussian, Inc.  The licensee
 of this program is prohibited from giving any competitor of
 Gaussian, Inc. access to this program.  By using this program,
 the user acknowledges that Gaussian, Inc. is engaged in the
 business of creating and licensing software in the field of
 computational chemistry and represents and warrants to the
 licensee that it is not a competitor of Gaussian, Inc. and that
 it will not use this program in any manner prohibited above.
 ---------------------------------------------------------------
  

 Cite this work as:
 Gaussian 09, Revision E.01,
 M. J. Frisch, G. W. Trucks, H. B. Schlegel, G. E. Scuseria, 
 M. A. Robb, J. R. Cheeseman, G. Scalmani, V. Barone, B. Mennucci, 
 G. A. Petersson, H. Nakatsuji, M. Caricato, X. Li, H. P. Hratchian, 
 A. F. Izmaylov, J. Bloino, G. Zheng, J. L. Sonnenberg, M. Hada, 
 M. Ehara, K. Toyota, R. Fukuda, J. Hasegawa, M. Ishida, T. Nakajima, 
 Y. Honda, O. Kitao, H. Nakai, T. Vreven, J. A. Montgomery, Jr., 
 J. E. Peralta, F. Ogliaro, M. Bearpark, J. J. Heyd, E. Brothers, 
 K. N. Kudin, V. N. Staroverov, T. Keith, R. Kobayashi, J. Normand, 
 K. Raghavachari, A. Rendell, J. C. Burant, S. S. Iyengar, J. Tomasi, 
 M. Cossi, N. Rega, J. M. Millam, M. Klene, J. E. Knox, J. B. Cross, 
 V. Bakken, C. Adamo, J. Jaramillo, R. Gomperts, R. E. Stratmann, 
 O. Yazyev, A. J. Austin, R. Cammi, C. Pomelli, J. W. Ochterski, 
 R. L. Martin, K. Morokuma, V. G. Zakrzewski, G. A. Voth, 
 P. Salvador, J. J. Dannenberg, S. Dapprich, A. D. Daniels, 
 O. Farkas, J. B. Foresman, J. V. Ortiz, J. Cioslowski, 
 and D. J. Fox, Gaussian, Inc., Wallingford CT, 2013.
 
 ******************************************
 Gaussian 09:  ES64L-G09RevE.01 30-Nov-2015
                14-Nov-2019 
 ******************************************
 %chk=NM2_c2.M062X_6-311pGd_opt_water_GD3.chk
 %mem=196608000
 %nproc=8
 Will use up to    8 processors via shared memory.
 ----------------------------------------------------------------------
 # M062X/6-311+G* SCF=Tight INT(grid=ultrafine) OPT IOP(2/17=4) Empiric
 alDispersion=GD3 SCRF=(SMD,Solvent=h2o) maxdisk=2684354560
 ----------------------------------------------------------------------
 1/14=-1,18=20,19=15,26=4,38=1/1,3;
 2/9=110,12=2,17=4,18=5,40=1/2;
 3/5=4,6=6,7=11,11=2,16=1,25=1,30=1,70=32201,71=1,72=1,74=-55,75=-5,124=31/1,2,3;
 4//1;
 5/5=2,32=2,38=5,53=1/2;
 6/7=2,8=2,9=2,10=2,28=1/1;
 7//1,2,3,16;
 1/14=-1,18=20,19=15,26=4/3(2);
 2/9=110,17=4/2;
 99//99;
 2/9=110,17=4/2;
 3/5=4,6=6,7=11,11=2,16=1,25=1,30=1,70=32205,71=1,72=1,74=-55,75=-5,124=31/1,2,3;
 4/5=5,16=3,69=1/1;
 5/5=2,32=2,38=5,53=1/2;
 7//1,2,3,16;
 1/14=-1,18=20,19=15,26=4/3(-5);
 2/9=110,17=4/2;
 6/7=2,8=2,9=2,10=2,19=2,28=1/1;
 99/9=1/99;
 -----------------------------------
 NM2_c2.M062X_6-311pGd_opt_water_GD3
 -----------------------------------
 Symbolic Z-matrix:
 Charge =  0 Multiplicity = 1
 C                    -5.83093   1.39865   0.36343 
 N                    -4.61351   0.72782   0.31819 
 C                    -3.35958   1.28497   0.1224 
 O                    -3.17845   2.49659  -0.00992 
 N                    -2.35323   0.39113   0.08211 
 C                    -0.97353   0.8197   -0.11461 
 C                    -0.0421   -0.38073  -0.10181 
 C                     1.40599   0.0458   -0.30794 
 C                    -6.98744   0.62558   0.17904 
 C                    -8.24536   1.19706   0.22326 
 C                    -8.38517   2.57333   0.46614 
 C                    -7.23607   3.33121   0.65218 
 C                    -5.96914   2.76524   0.60991 
 H                    -4.67392  -0.28243   0.27255 
 H                    -2.53791  -0.5924    0.22698 
 H                    -0.69441   1.52172   0.67634 
 H                    -0.89155   1.35089  -1.06703 
 H                    -0.34329  -1.0794   -0.88854 
 H                    -0.14614  -0.90745   0.85195 
 H                     1.53228   0.55561  -1.2665 
 H                     2.07476  -0.81677  -0.29747 
 H                     1.7297    0.72995   0.48063 
 H                    -6.88151  -0.4366   -0.00756 
 H                    -5.1042    3.38674   0.77787 
 C                    -9.71097   3.28      0.5038 
 C                    -9.42532   0.27576   0.0324 
 H                    -7.32048   4.3929    0.84618 
 F                    -10.64822   2.59492   1.18024 
 F                    -10.21287   3.50702  -0.72509 
 F                    -9.61816   4.47998   1.09449 
 F                    -9.06919  -0.88332  -0.53655 
 F                    -10.37224   0.8103   -0.75315 
 F                    -10.01553  -0.04042   1.19775 
 

 GradGradGradGradGradGradGradGradGradGradGradGradGradGradGradGradGradGrad
 Berny optimization.
 Initialization pass.
                           ----------------------------
                           !    Initial Parameters    !
                           ! (Angstroms and Degrees)  !
 --------------------------                            --------------------------
 ! Name  Definition              Value          Derivative Info.                !
 --------------------------------------------------------------------------------
 ! R1    R(1,2)                  1.3907         estimate D2E/DX2                !
 ! R2    R(1,9)                  1.4033         estimate D2E/DX2                !
 ! R3    R(1,13)                 1.3955         estimate D2E/DX2                !
 ! R4    R(2,3)                  1.386          estimate D2E/DX2                !
 ! R5    R(2,14)                 1.0131         estimate D2E/DX2                !
 ! R6    R(3,4)                  1.2322         estimate D2E/DX2                !
 ! R7    R(3,5)                  1.3466         estimate D2E/DX2                !
 ! R8    R(5,6)                  1.4581         estimate D2E/DX2                !
 ! R9    R(5,15)                 1.0112         estimate D2E/DX2                !
 ! R10   R(6,7)                  1.5195         estimate D2E/DX2                !
 ! R11   R(6,16)                 1.0938         estimate D2E/DX2                !
 ! R12   R(6,17)                 1.0936         estimate D2E/DX2                !
 ! R13   R(7,8)                  1.5236         estimate D2E/DX2                !
 ! R14   R(7,18)                 1.0944         estimate D2E/DX2                !
 ! R15   R(7,19)                 1.0945         estimate D2E/DX2                !
 ! R16   R(8,20)                 1.093          estimate D2E/DX2                !
 ! R17   R(8,21)                 1.0915         estimate D2E/DX2                !
 ! R18   R(8,22)                 1.093          estimate D2E/DX2                !
 ! R19   R(9,10)                 1.3824         estimate D2E/DX2                !
 ! R20   R(9,23)                 1.0836         estimate D2E/DX2                !
 ! R21   R(10,11)                1.4045         estimate D2E/DX2                !
 ! R22   R(10,26)                1.5091         estimate D2E/DX2                !
 ! R23   R(11,12)                1.389          estimate D2E/DX2                !
 ! R24   R(11,25)                1.5028         estimate D2E/DX2                !
 ! R25   R(12,13)                1.3882         estimate D2E/DX2                !
 ! R26   R(12,27)                1.0826         estimate D2E/DX2                !
 ! R27   R(13,24)                1.0782         estimate D2E/DX2                !
 ! R28   R(25,28)                1.3436         estimate D2E/DX2                !
 ! R29   R(25,29)                1.3467         estimate D2E/DX2                !
 ! R30   R(25,30)                1.3407         estimate D2E/DX2                !
 ! R31   R(26,31)                1.3394         estimate D2E/DX2                !
 ! R32   R(26,32)                1.3414         estimate D2E/DX2                !
 ! R33   R(26,33)                1.344          estimate D2E/DX2                !
 ! A1    A(2,1,9)              116.8359         estimate D2E/DX2                !
 ! A2    A(2,1,13)             124.3887         estimate D2E/DX2                !
 ! A3    A(9,1,13)             118.7558         estimate D2E/DX2                !
 ! A4    A(1,2,3)              127.0592         estimate D2E/DX2                !
 ! A5    A(1,2,14)             115.4851         estimate D2E/DX2                !
 ! A6    A(3,2,14)             116.6431         estimate D2E/DX2                !
 ! A7    A(2,3,4)              122.9162         estimate D2E/DX2                !
 ! A8    A(2,3,5)              114.4251         estimate D2E/DX2                !
 ! A9    A(4,3,5)              122.658          estimate D2E/DX2                !
 ! A10   A(3,5,6)              121.0709         estimate D2E/DX2                !
 ! A11   A(3,5,15)             120.3226         estimate D2E/DX2                !
 ! A12   A(6,5,15)             118.5585         estimate D2E/DX2                !
 ! A13   A(5,6,7)              110.2859         estimate D2E/DX2                !
 ! A14   A(5,6,16)             109.4244         estimate D2E/DX2                !
 ! A15   A(5,6,17)             109.3414         estimate D2E/DX2                !
 ! A16   A(7,6,16)             110.1543         estimate D2E/DX2                !
 ! A17   A(7,6,17)             110.1889         estimate D2E/DX2                !
 ! A18   A(16,6,17)            107.3918         estimate D2E/DX2                !
 ! A19   A(6,7,8)              111.1188         estimate D2E/DX2                !
 ! A20   A(6,7,18)             109.2437         estimate D2E/DX2                !
 ! A21   A(6,7,19)             109.2244         estimate D2E/DX2                !
 ! A22   A(8,7,18)             110.0616         estimate D2E/DX2                !
 ! A23   A(8,7,19)             110.0579         estimate D2E/DX2                !
 ! A24   A(18,7,19)            107.0397         estimate D2E/DX2                !
 ! A25   A(7,8,20)             111.041          estimate D2E/DX2                !
 ! A26   A(7,8,21)             111.0878         estimate D2E/DX2                !
 ! A27   A(7,8,22)             111.0449         estimate D2E/DX2                !
 ! A28   A(20,8,21)            107.8315         estimate D2E/DX2                !
 ! A29   A(20,8,22)            107.8515         estimate D2E/DX2                !
 ! A30   A(21,8,22)            107.8341         estimate D2E/DX2                !
 ! A31   A(1,9,10)             121.1991         estimate D2E/DX2                !
 ! A32   A(1,9,23)             118.82           estimate D2E/DX2                !
 ! A33   A(10,9,23)            119.9795         estimate D2E/DX2                !
 ! A34   A(9,10,11)            120.0804         estimate D2E/DX2                !
 ! A35   A(9,10,26)            117.0693         estimate D2E/DX2                !
 ! A36   A(11,10,26)           122.836          estimate D2E/DX2                !
 ! A37   A(10,11,12)           118.389          estimate D2E/DX2                !
 ! A38   A(10,11,25)           123.5673         estimate D2E/DX2                !
 ! A39   A(12,11,25)           118.0272         estimate D2E/DX2                !
 ! A40   A(11,12,13)           121.901          estimate D2E/DX2                !
 ! A41   A(11,12,27)           119.6428         estimate D2E/DX2                !
 ! A42   A(13,12,27)           118.4534         estimate D2E/DX2                !
 ! A43   A(1,13,12)            119.6701         estimate D2E/DX2                !
 ! A44   A(1,13,24)            120.8319         estimate D2E/DX2                !
 ! A45   A(12,13,24)           119.4952         estimate D2E/DX2                !
 ! A46   A(11,25,28)           112.845          estimate D2E/DX2                !
 ! A47   A(11,25,29)           112.6553         estimate D2E/DX2                !
 ! A48   A(11,25,30)           111.7672         estimate D2E/DX2                !
 ! A49   A(28,25,29)           106.5817         estimate D2E/DX2                !
 ! A50   A(28,25,30)           106.4292         estimate D2E/DX2                !
 ! A51   A(29,25,30)           106.0785         estimate D2E/DX2                !
 ! A52   A(10,26,31)           111.9699         estimate D2E/DX2                !
 ! A53   A(10,26,32)           112.5022         estimate D2E/DX2                !
 ! A54   A(10,26,33)           112.1674         estimate D2E/DX2                !
 ! A55   A(31,26,32)           106.4853         estimate D2E/DX2                !
 ! A56   A(31,26,33)           106.3491         estimate D2E/DX2                !
 ! A57   A(32,26,33)           106.9486         estimate D2E/DX2                !
 ! D1    D(9,1,2,3)            161.7994         estimate D2E/DX2                !
 ! D2    D(9,1,2,14)            -7.4548         estimate D2E/DX2                !
 ! D3    D(13,1,2,3)           -19.8352         estimate D2E/DX2                !
 ! D4    D(13,1,2,14)          170.9107         estimate D2E/DX2                !
 ! D5    D(2,1,9,10)           179.1835         estimate D2E/DX2                !
 ! D6    D(2,1,9,23)            -1.2405         estimate D2E/DX2                !
 ! D7    D(13,1,9,10)            0.7221         estimate D2E/DX2                !
 ! D8    D(13,1,9,23)         -179.7019         estimate D2E/DX2                !
 ! D9    D(2,1,13,12)         -179.0722         estimate D2E/DX2                !
 ! D10   D(2,1,13,24)            0.32           estimate D2E/DX2                !
 ! D11   D(9,1,13,12)           -0.7359         estimate D2E/DX2                !
 ! D12   D(9,1,13,24)          178.6563         estimate D2E/DX2                !
 ! D13   D(1,2,3,4)              1.7055         estimate D2E/DX2                !
 ! D14   D(1,2,3,5)           -177.9938         estimate D2E/DX2                !
 ! D15   D(14,2,3,4)           170.8516         estimate D2E/DX2                !
 ! D16   D(14,2,3,5)            -8.8478         estimate D2E/DX2                !
 ! D17   D(2,3,5,6)           -179.8807         estimate D2E/DX2                !
 ! D18   D(2,3,5,15)            -2.4356         estimate D2E/DX2                !
 ! D19   D(4,3,5,6)              0.4191         estimate D2E/DX2                !
 ! D20   D(4,3,5,15)           177.8641         estimate D2E/DX2                !
 ! D21   D(3,5,6,7)            179.2771         estimate D2E/DX2                !
 ! D22   D(3,5,6,16)            57.955          estimate D2E/DX2                !
 ! D23   D(3,5,6,17)           -59.4114         estimate D2E/DX2                !
 ! D24   D(15,5,6,7)             1.788          estimate D2E/DX2                !
 ! D25   D(15,5,6,16)         -119.5341         estimate D2E/DX2                !
 ! D26   D(15,5,6,17)          123.0995         estimate D2E/DX2                !
 ! D27   D(5,6,7,8)            179.9229         estimate D2E/DX2                !
 ! D28   D(5,6,7,18)            58.3001         estimate D2E/DX2                !
 ! D29   D(5,6,7,19)           -58.4718         estimate D2E/DX2                !
 ! D30   D(16,6,7,8)           -59.1902         estimate D2E/DX2                !
 ! D31   D(16,6,7,18)          179.1869         estimate D2E/DX2                !
 ! D32   D(16,6,7,19)           62.4151         estimate D2E/DX2                !
 ! D33   D(17,6,7,8)            59.1171         estimate D2E/DX2                !
 ! D34   D(17,6,7,18)          -62.5057         estimate D2E/DX2                !
 ! D35   D(17,6,7,19)         -179.2776         estimate D2E/DX2                !
 ! D36   D(6,7,8,20)           -60.0688         estimate D2E/DX2                !
 ! D37   D(6,7,8,21)           179.9321         estimate D2E/DX2                !
 ! D38   D(6,7,8,22)            59.927          estimate D2E/DX2                !
 ! D39   D(18,7,8,20)           61.0753         estimate D2E/DX2                !
 ! D40   D(18,7,8,21)          -58.9238         estimate D2E/DX2                !
 ! D41   D(18,7,8,22)         -178.9289         estimate D2E/DX2                !
 ! D42   D(19,7,8,20)          178.814          estimate D2E/DX2                !
 ! D43   D(19,7,8,21)           58.8149         estimate D2E/DX2                !
 ! D44   D(19,7,8,22)          -61.1902         estimate D2E/DX2                !
 ! D45   D(1,9,10,11)           -0.4852         estimate D2E/DX2                !
 ! D46   D(1,9,10,26)         -179.1509         estimate D2E/DX2                !
 ! D47   D(23,9,10,11)         179.9436         estimate D2E/DX2                !
 ! D48   D(23,9,10,26)           1.278          estimate D2E/DX2                !
 ! D49   D(9,10,11,12)           0.2573         estimate D2E/DX2                !
 ! D50   D(9,10,11,25)         178.7465         estimate D2E/DX2                !
 ! D51   D(26,10,11,12)        178.8432         estimate D2E/DX2                !
 ! D52   D(26,10,11,25)         -2.6676         estimate D2E/DX2                !
 ! D53   D(9,10,26,31)         -18.4067         estimate D2E/DX2                !
 ! D54   D(9,10,26,32)        -138.2959         estimate D2E/DX2                !
 ! D55   D(9,10,26,33)         101.0734         estimate D2E/DX2                !
 ! D56   D(11,10,26,31)        162.9676         estimate D2E/DX2                !
 ! D57   D(11,10,26,32)         43.0783         estimate D2E/DX2                !
 ! D58   D(11,10,26,33)        -77.5524         estimate D2E/DX2                !
 ! D59   D(10,11,12,13)         -0.2881         estimate D2E/DX2                !
 ! D60   D(10,11,12,27)       -179.6629         estimate D2E/DX2                !
 ! D61   D(25,11,12,13)       -178.862          estimate D2E/DX2                !
 ! D62   D(25,11,12,27)          1.7632         estimate D2E/DX2                !
 ! D63   D(10,11,25,28)         43.4151         estimate D2E/DX2                !
 ! D64   D(10,11,25,29)        -77.3426         estimate D2E/DX2                !
 ! D65   D(10,11,25,30)        163.3285         estimate D2E/DX2                !
 ! D66   D(12,11,25,28)       -138.0906         estimate D2E/DX2                !
 ! D67   D(12,11,25,29)        101.1517         estimate D2E/DX2                !
 ! D68   D(12,11,25,30)        -18.1771         estimate D2E/DX2                !
 ! D69   D(11,12,13,1)           0.5369         estimate D2E/DX2                !
 ! D70   D(11,12,13,24)       -178.8635         estimate D2E/DX2                !
 ! D71   D(27,12,13,1)         179.9189         estimate D2E/DX2                !
 ! D72   D(27,12,13,24)          0.5185         estimate D2E/DX2                !
 --------------------------------------------------------------------------------
 Trust Radius=3.00D-01 FncErr=1.00D-07 GrdErr=1.00D-06
 Number of steps in this run=    172 maximum allowed number of steps=    198.
 GradGradGradGradGradGradGradGradGradGradGradGradGradGradGradGradGradGrad

                          Input orientation:                          
 ---------------------------------------------------------------------
 Center     Atomic      Atomic             Coordinates (Angstroms)
 Number     Number       Type             X           Y           Z
 ---------------------------------------------------------------------
      1          6           0       -5.830932    1.398650    0.363427
      2          7           0       -4.613513    0.727817    0.318188
      3          6           0       -3.359576    1.284972    0.122402
      4          8           0       -3.178449    2.496594   -0.009919
      5          7           0       -2.353232    0.391134    0.082114
      6          6           0       -0.973528    0.819700   -0.114607
      7          6           0       -0.042097   -0.380734   -0.101812
      8          6           0        1.405991    0.045804   -0.307942
      9          6           0       -6.987445    0.625579    0.179044
     10          6           0       -8.245359    1.197059    0.223264
     11          6           0       -8.385170    2.573328    0.466144
     12          6           0       -7.236068    3.331210    0.652182
     13          6           0       -5.969144    2.765243    0.609907
     14          1           0       -4.673921   -0.282431    0.272546
     15          1           0       -2.537911   -0.592398    0.226980
     16          1           0       -0.694407    1.521717    0.676343
     17          1           0       -0.891551    1.350886   -1.067034
     18          1           0       -0.343293   -1.079396   -0.888537
     19          1           0       -0.146140   -0.907454    0.851947
     20          1           0        1.532276    0.555615   -1.266503
     21          1           0        2.074759   -0.816770   -0.297470
     22          1           0        1.729698    0.729950    0.480634
     23          1           0       -6.881514   -0.436597   -0.007559
     24          1           0       -5.104199    3.386737    0.777867
     25          6           0       -9.710968    3.279996    0.503797
     26          6           0       -9.425322    0.275764    0.032401
     27          1           0       -7.320481    4.392897    0.846176
     28          9           0      -10.648225    2.594922    1.180238
     29          9           0      -10.212866    3.507018   -0.725092
     30          9           0       -9.618161    4.479977    1.094485
     31          9           0       -9.069195   -0.883317   -0.536551
     32          9           0      -10.372239    0.810303   -0.753149
     33          9           0      -10.015531   -0.040424    1.197745
 ---------------------------------------------------------------------
                    Distance matrix (angstroms):
                    1          2          3          4          5
     1  C    0.000000
     2  N    1.390745   0.000000
     3  C    2.485683   1.386042   0.000000
     4  O    2.894915   2.301224   1.232210   0.000000
     5  N    3.631615   2.297381   1.346588   2.263275   0.000000
     6  C    4.915087   3.666777   2.442515   2.772113   1.458064
     7  C    6.073983   4.722620   3.718941   4.257249   2.443554
     8  C    7.392833   6.090288   4.942809   5.206945   3.795148
     9  C    1.403266   2.380203   3.687742   4.247923   4.641152
    10  C    2.426878   3.663263   4.887614   5.236099   5.948663
    11  C    2.813281   4.201571   5.199483   5.229003   6.426020
    12  C    2.406777   3.710391   4.415309   4.195145   5.728099
    13  C    1.395504   2.464536   3.039524   2.871295   4.357727
    14  H    2.042784   1.013081   2.051048   3.168470   2.423954
    15  H    3.850569   2.461587   2.051972   3.163586   1.011152
    16  H    5.147520   4.014717   2.732403   2.755323   2.093568
    17  H    5.142566   4.019957   2.740484   2.767678   2.092409
    18  H    6.149984   4.791345   3.963609   4.647341   2.672915
    19  H    6.154156   4.787112   3.957921   4.639532   2.673991
    20  H    7.588427   6.349144   5.137240   5.247603   4.116187
    21  H    8.236797   6.891863   5.841713   6.217496   4.605456
    22  H    7.591049   6.345292   5.131967   5.239426   4.116301
    23  H    2.146970   2.570175   3.922338   4.724013   4.604185
    24  H    2.156940   2.742614   2.809049   2.263067   4.126200
    25  C    4.314377   5.703693   6.668266   6.599351   7.915784
    26  C    3.780223   4.841439   6.149787   6.630030   7.073206
    27  H    3.378952   4.586857   5.086434   4.635223   6.424287
    28  F    5.030363   6.375496   7.480601   7.564634   8.652714
    29  F    4.983114   6.337597   7.254193   7.142510   8.493183
    30  F    4.936813   6.303002   7.093863   6.828133   8.397781
    31  F    4.062472   4.814502   6.142918   6.811903   6.863755
    32  F    4.713423   5.858113   7.083032   7.426074   8.073280
    33  F    4.503098   5.526808   6.871301   7.391928   7.755108
                    6          7          8          9         10
     6  C    0.000000
     7  C    1.519464   0.000000
     8  C    2.509662   1.523608   0.000000
     9  C    6.024211   7.023490   8.427518   0.000000
    10  C    7.289450   8.359941   9.734275   1.382350   0.000000
    11  C    7.638385   8.868818  10.141717   2.414495   1.404512
    12  C    6.790808   8.130207   9.295210   2.757918   2.399424
    13  C    5.409828   6.747860   7.913938   2.408473   2.791030
    14  H    3.880398   4.647967   6.116374   2.487091   3.866069
    15  H    2.134947   2.526261   4.030856   4.613472   5.981399
    16  H    1.093772   2.156468   2.749328   6.375947   7.571496
    17  H    1.093616   2.156788   2.749210   6.264080   7.467732
    18  H    2.145397   1.094433   2.159435   6.942004   8.298252
    19  H    2.145194   1.094493   2.159433   7.043184   8.391756
    20  H    2.770498   2.170692   1.093021   8.641768   9.911256
    21  H    3.464610   2.170135   1.091510   9.188633  10.527654
    22  H    2.769439   2.170742   1.093020   8.722983   9.989303
    23  H    6.041030   6.840295   8.306965   1.083633   2.140603
    24  H    4.944556   6.371228   7.397525   3.395467   3.868999
    25  C    9.098261  10.356389  11.606279   3.816933   2.562292
    26  C    8.470555   9.407121  10.839098   2.467209   1.509148
    27  H    7.346744   8.755633   9.817358   3.840399   3.384789
    28  F    9.921079  11.090002  12.410350   4.275747   2.939998
    29  F    9.641563  10.906312  12.130616   4.418539   3.179052
    30  F    9.465158  10.805492  11.964974   4.755532   3.663491
    31  F    8.283606   9.051524  10.518795   2.668806   2.363047
    32  F    9.420382  10.418957  11.811408   3.515670   2.372042
    33  F    9.177140  10.063501  11.520664   3.263528   2.369491
                   11         12         13         14         15
    11  C    0.000000
    12  C    1.389040   0.000000
    13  C    2.427897   1.388237   0.000000
    14  H    4.686813   4.446024   3.328624   0.000000
    15  H    6.653530   6.135812   4.815989   2.158864   0.000000
    16  H    7.765173   6.787355   5.419744   4.387999   2.840760
    17  H    7.745924   6.865151   5.531228   4.332265   2.856803
    18  H    8.935846   8.326921   6.976875   4.553856   2.509560
    19  H    8.952447   8.262764   6.888735   4.607294   2.492070
    20  H   10.267862   9.395166   8.042057   6.448866   4.484958
    21  H   11.022069  10.237143   8.852035   6.793756   4.647808
    22  H   10.281479   9.337074   7.964377   6.486490   4.474978
    23  H    3.397797   3.841528   3.386069   2.230627   4.352720
    24  H    3.394640   2.136293   1.078237   3.728710   4.766846
    25  C    1.502843   2.479873   3.778555   6.173833   8.156275
    26  C    2.559072   3.809555   4.298394   4.790101   6.944638
    27  H    2.142153   1.082561   2.128659   5.402964   6.936104
    28  F    2.373144   3.530407   4.716787   6.692935   8.766122
    29  F    2.373034   3.284679   4.510169   6.784918   8.753090
    30  F    2.355927   2.681354   4.060844   6.913872   8.752799
    31  F    3.663561   4.747176   4.923075   4.509339   6.582195
    32  F    2.922905   4.262100   5.006691   5.892109   8.019035
    33  F    3.166230   4.403518   4.958888   5.426542   7.560546
                   16         17         18         19         20
    16  H    0.000000
    17  H    1.762785   0.000000
    18  H    3.055801   2.497742   0.000000
    19  H    2.496459   3.055851   1.760034   0.000000
    20  H    3.109038   2.558746   2.516720   3.073350   0.000000
    21  H    3.753014   3.753659   2.503061   2.502354   1.765432
    22  H    2.557632   3.106732   3.073378   2.517485   1.766877
    23  H    6.525566   6.340129   6.628548   6.806300   8.565120
    24  H    4.789037   5.029389   6.737170   6.559566   7.499167
    25  C    9.188020   9.163575  10.425749  10.447100  11.703280
    26  C    8.842847   8.671211   9.228642   9.390148  11.037863
    27  H    7.223391   7.365144   9.035284   8.919917   9.877219
    28  F   10.024180  10.089130  11.134274  11.075568  12.590072
    29  F    9.823772   9.573544  10.884409  11.104665  12.122387
    30  F    9.410608   9.519301  10.993733  10.899652  12.054341
    31  F    8.797294   8.493935   8.735199   9.030472  10.723551
    32  F    9.808670   9.501274  10.206324  10.492861  11.918300
    33  F    9.465490   9.503262   9.949081   9.913435  11.822844
                   21         22         23         24         25
    21  H    0.000000
    22  H    1.765461   0.000000
    23  H    8.969025   8.703570   0.000000
    24  H    8.388281   7.338188   4.288778   0.000000
    25  C   12.503156  11.721439   4.698975   4.616149   0.000000
    26  C   11.556570  11.173257   2.641972   5.376428   3.054377
    27  H   10.803661   9.770186   4.923979   2.434939   2.658985
    28  F   13.255097  12.537166   4.978863   5.614721   1.343633
    29  F   13.033178  12.320337   5.211991   5.326521   1.346702
    30  F   12.911911  11.967181   5.733798   4.655242   1.340701
    31  F   11.146717  10.966010   2.294633   5.973462   4.339052
    32  F   12.561162  12.164932   3.780982   6.060880   2.848960
    33  F   12.207109  11.792291   3.381091   6.003575   3.405806
                   26         27         28         29         30
    26  C    0.000000
    27  H    4.695037   0.000000
    28  F    2.862082   3.797129   0.000000
    29  F    3.411015   3.408747   2.156789   0.000000
    30  F    4.340578   2.312698   2.149841   2.147367   0.000000
    31  F    1.339403   5.727859   4.187941   4.540768   5.632634
    32  F    1.341444   4.970518   2.645566   2.701566   4.177187
    33  F    1.344005   5.200118   2.710287   4.039875   4.539008
                   31         32         33
    31  F    0.000000
    32  F    2.147833   0.000000
    33  F    2.147976   2.158000   0.000000
 Stoichiometry    C12H12F6N2O
 Framework group  C1[X(C12H12F6N2O)]
 Deg. of freedom    93
 Full point group                 C1      NOp   1
 Largest Abelian subgroup         C1      NOp   1
 Largest concise Abelian subgroup C1      NOp   1
                         Standard orientation:                         
 ---------------------------------------------------------------------
 Center     Atomic      Atomic             Coordinates (Angstroms)
 Number     Number       Type             X           Y           Z
 ---------------------------------------------------------------------
      1          6           0        0.571805   -0.067720   -0.179639
      2          7           0        1.887441    0.376882   -0.254491
      3          6           0        3.033907   -0.360660   -0.003967
      4          8           0        3.009061   -1.554962    0.298302
      5          7           0        4.180062    0.337890   -0.111919
      6          6           0        5.472498   -0.296470    0.118623
      7          6           0        6.595467    0.706719   -0.084663
      8          6           0        7.955957    0.063545    0.153611
      9          6           0       -0.424913    0.915707   -0.087008
     10          6           0       -1.763225    0.575219   -0.024717
     11          6           0       -2.148711   -0.774788   -0.063888
     12          6           0       -1.156740   -1.742335   -0.160208
     13          6           0        0.189404   -1.409083   -0.223796
     14          1           0        2.004160    1.378294   -0.353911
     15          1           0        4.161540    1.308828   -0.393635
     16          1           0        5.591496   -1.139595   -0.567902
     17          1           0        5.503313   -0.696465    1.135996
     18          1           0        6.453982    1.549894    0.598581
     19          1           0        6.542109    1.106081   -1.102296
     20          1           0        8.034328   -0.322609    1.173139
     21          1           0        8.762307    0.784301    0.006285
     22          1           0        8.122015   -0.769724   -0.533979
     23          1           0       -0.129381    1.957846   -0.057578
     24          1           0        0.926055   -2.190961   -0.316568
     25          6           0       -3.576843   -1.234087    0.025673
     26          6           0       -2.757183    1.708125    0.053386
     27          1           0       -1.431335   -2.788829   -0.197425
     28          9           0       -4.410680   -0.494579   -0.724791
     29          9           0       -4.056045   -1.196081    1.283659
     30          9           0       -3.718263   -2.501703   -0.387401
     31          9           0       -2.181991    2.853465    0.442425
     32          9           0       -3.746742    1.463709    0.925456
     33          9           0       -3.334517    1.958990   -1.134091
 ---------------------------------------------------------------------
 Rotational constants (GHZ):      0.6922492      0.1116895      0.0999145
 Standard basis: 6-311+G(d) (5D, 7F)
 There are   519 symmetry adapted cartesian basis functions of A   symmetry.
 There are   498 symmetry adapted basis functions of A   symmetry.
   498 basis functions,   816 primitive gaussians,   519 cartesian basis functions
    80 alpha electrons       80 beta electrons
       nuclear repulsion energy      1765.9944499632 Hartrees.
 NAtoms=   33 NActive=   33 NUniq=   33 SFac= 1.00D+00 NAtFMM=   60 NAOKFM=F Big=F
 Integral buffers will be    131072 words long.
 Raffenetti 2 integral format.
 Two-electron integral symmetry is turned on.
 Nuclear repulsion after empirical dispersion term =     1765.9929008763 Hartrees.
 ------------------------------------------------------------------------------
 Polarizable Continuum Model (PCM)
 =================================
 Model                : PCM (using non-symmetric T matrix).
 Atomic radii         : SMD-Coulomb.
 Polarization charges : Total charges.
 Charge compensation  : None.
 Solution method      : On-the-fly selection.
 Cavity type          : VdW (van der Waals Surface) (Alpha=1.000).
 Cavity algorithm     : GePol (No added spheres)
                        Default sphere list used, NSphG=   33.
                        Lebedev-Laikov grids with approx.  5.0 points / Ang**2.
                        Smoothing algorithm: York/Karplus (Gamma=1.0000).
                        Polarization charges: spherical gaussians, with
                                              point-specific exponents (IZeta= 3).
                        Self-potential: point-specific (ISelfS= 7).
                        Self-field    : sphere-specific E.n sum rule (ISelfD= 2).
 1st derivatives      : Analytical E(r).r(x)/FMM algorithm (CHGder, D1EAlg=3).
                        Cavity 1st derivative terms included.
 Solvent              : Water, Eps=  78.355300 Eps(inf)=   1.777849
 ------------------------------------------------------------------------------
 ------------------------------------------------------------------------------
 Atomic radii for non-electrostatic terms: SMD-CDS.
 ------------------------------------------------------------------------------
 Nuclear repulsion after PCM non-electrostatic terms =     1766.0060839848 Hartrees.
 One-electron integrals computed using PRISM.
 NBasis=   498 RedAO= T EigKep=  1.44D-06  NBF=   498
 NBsUse=   496 1.00D-06 EigRej=  8.64D-07 NBFU=   496
 ExpMin= 4.38D-02 ExpMax= 1.14D+04 ExpMxC= 1.72D+03 IAcc=3 IRadAn=         5 AccDes= 0.00D+00
 Harris functional with IExCor= 1009 and IRadAn=       5 diagonalized for initial guess.
 HarFok:  IExCor= 1009 AccDes= 0.00D+00 IRadAn=         5 IDoV= 1 UseB2=F ITyADJ=14
 ICtDFT=  3500011 ScaDFX=  1.000000  1.000000  1.000000  1.000000
 FoFCou: FMM=F IPFlag=           0 FMFlag=      100000 FMFlg1=           0
         NFxFlg=           0 DoJE=T BraDBF=F KetDBF=T FulRan=T
         wScrn=  0.000000 ICntrl=     500 IOpCl=  0 I1Cent=   200000004 NGrid=           0
         NMat0=    1 NMatS0=      1 NMatT0=    0 NMatD0=    1 NMtDS0=    0 NMtDT0=    0
 Petite list used in FoFCou.
 Requested convergence on RMS density matrix=1.00D-08 within 128 cycles.
 Requested convergence on MAX density matrix=1.00D-06.
 Requested convergence on             energy=1.00D-06.
 No special actions if energy rises.
 Inv3:  Mode=1 IEnd=    18081075.
 Iteration    1 A*A^-1 deviation from unit magnitude is 6.11D-15 for   2438.
 Iteration    1 A*A^-1 deviation from orthogonality  is 4.75D-15 for   2070   1972.
 Iteration    1 A^-1*A deviation from unit magnitude is 6.88D-15 for   2438.
 Iteration    1 A^-1*A deviation from orthogonality  is 3.68D-12 for   2263   1334.
 Error on total polarization charges =  0.04530
 SCF Done:  E(RM062X) =  -1248.26445662     A.U. after   15 cycles
            NFock= 15  Conv=0.40D-08     -V/T= 2.0031
 SMD-CDS (non-electrostatic) energy       (kcal/mol) =       8.27
 (included in total energy above)

 **********************************************************************

            Population analysis using the SCF density.

 **********************************************************************

 Orbital symmetries:
       Occupied  (A) (A) (A) (A) (A) (A) (A) (A) (A) (A) (A) (A)
                 (A) (A) (A) (A) (A) (A) (A) (A) (A) (A) (A) (A)
                 (A) (A) (A) (A) (A) (A) (A) (A) (A) (A) (A) (A)
                 (A) (A) (A) (A) (A) (A) (A) (A) (A) (A) (A) (A)
                 (A) (A) (A) (A) (A) (A) (A) (A) (A) (A) (A) (A)
                 (A) (A) (A) (A) (A) (A) (A) (A) (A) (A) (A) (A)
                 (A) (A) (A) (A) (A) (A) (A) (A)
       Virtual   (A) (A) (A) (A) (A) (A) (A) (A) (A) (A) (A) (A)
                 (A) (A) (A) (A) (A) (A) (A) (A) (A) (A) (A) (A)
                 (A) (A) (A) (A) (A) (A) (A) (A) (A) (A) (A) (A)
                 (A) (A) (A) (A) (A) (A) (A) (A) (A) (A) (A) (A)
                 (A) (A) (A) (A) (A) (A) (A) (A) (A) (A) (A) (A)
                 (A) (A) (A) (A) (A) (A) (A) (A) (A) (A) (A) (A)
                 (A) (A) (A) (A) (A) (A) (A) (A) (A) (A) (A) (A)
                 (A) (A) (A) (A) (A) (A) (A) (A) (A) (A) (A) (A)
                 (A) (A) (A) (A) (A) (A) (A) (A) (A) (A) (A) (A)
                 (A) (A) (A) (A) (A) (A) (A) (A) (A) (A) (A) (A)
                 (A) (A) (A) (A) (A) (A) (A) (A) (A) (A) (A) (A)
                 (A) (A) (A) (A) (A) (A) (A) (A) (A) (A) (A) (A)
                 (A) (A) (A) (A) (A) (A) (A) (A) (A) (A) (A) (A)
                 (A) (A) (A) (A) (A) (A) (A) (A) (A) (A) (A) (A)
                 (A) (A) (A) (A) (A) (A) (A) (A) (A) (A) (A) (A)
                 (A) (A) (A) (A) (A) (A) (A) (A) (A) (A) (A) (A)
                 (A) (A) (A) (A) (A) (A) (A) (A) (A) (A) (A) (A)
                 (A) (A) (A) (A) (A) (A) (A) (A) (A) (A) (A) (A)
                 (A) (A) (A) (A) (A) (A) (A) (A) (A) (A) (A) (A)
                 (A) (A) (A) (A) (A) (A) (A) (A) (A) (A) (A) (A)
                 (A) (A) (A) (A) (A) (A) (A) (A) (A) (A) (A) (A)
                 (A) (A) (A) (A) (A) (A) (A) (A) (A) (A) (A) (A)
                 (A) (A) (A) (A) (A) (A) (A) (A) (A) (A) (A) (A)
                 (A) (A) (A) (A) (A) (A) (A) (A) (A) (A) (A) (A)
                 (A) (A) (A) (A) (A) (A) (A) (A) (A) (A) (A) (A)
                 (A) (A) (A) (A) (A) (A) (A) (A) (A) (A) (A) (A)
                 (A) (A) (A) (A) (A) (A) (A) (A) (A) (A) (A) (A)
                 (A) (A) (A) (A) (A) (A) (A) (A) (A) (A) (A) (A)
                 (A) (A) (A) (A) (A) (A) (A) (A) (A) (A) (A) (A)
                 (A) (A) (A) (A) (A) (A) (A) (A) (A) (A) (A) (A)
                 (A) (A) (A) (A) (A) (A) (A) (A) (A) (A) (A) (A)
                 (A) (A) (A) (A) (A) (A) (A) (A) (A) (A) (A) (A)
                 (A) (A) (A) (A) (A) (A) (A) (A) (A) (A) (A) (A)
                 (A) (A) (A) (A) (A) (A) (A) (A) (A) (A) (A) (A)
                 (A) (A) (A) (A) (A) (A) (A) (A)
 The electronic state is 1-A.
 Alpha  occ. eigenvalues --  -25.28920 -25.28851 -25.28680 -25.28598 -25.28566
 Alpha  occ. eigenvalues --  -25.28240 -19.60188 -14.79272 -14.77234 -10.81704
 Alpha  occ. eigenvalues --  -10.81418 -10.68768 -10.61828 -10.59778 -10.58783
 Alpha  occ. eigenvalues --  -10.57087 -10.57044 -10.56700 -10.55924 -10.53074
 Alpha  occ. eigenvalues --  -10.51760  -1.48445  -1.47881  -1.39005  -1.38636
 Alpha  occ. eigenvalues --   -1.38484  -1.38179  -1.19030  -1.07205  -1.03800
 Alpha  occ. eigenvalues --   -0.99742  -0.90657  -0.90173  -0.87778  -0.83436
 Alpha  occ. eigenvalues --   -0.81440  -0.78225  -0.75096  -0.74057  -0.70873
 Alpha  occ. eigenvalues --   -0.70795  -0.70540  -0.70000  -0.69946  -0.68759
 Alpha  occ. eigenvalues --   -0.68219  -0.64587  -0.63830  -0.60114  -0.59181
 Alpha  occ. eigenvalues --   -0.59120  -0.58341  -0.58226  -0.56433  -0.56054
 Alpha  occ. eigenvalues --   -0.55443  -0.54850  -0.54413  -0.53807  -0.53507
 Alpha  occ. eigenvalues --   -0.52805  -0.52585  -0.52397  -0.52131  -0.51351
 Alpha  occ. eigenvalues --   -0.50469  -0.49362  -0.47923  -0.46819  -0.45477
 Alpha  occ. eigenvalues --   -0.45447  -0.43683  -0.42140  -0.40145  -0.39978
 Alpha  occ. eigenvalues --   -0.39087  -0.36612  -0.33980  -0.33254  -0.28959
 Alpha virt. eigenvalues --   -0.01917  -0.00466   0.01170   0.02316   0.02698
 Alpha virt. eigenvalues --    0.03267   0.03642   0.03776   0.04585   0.04681
 Alpha virt. eigenvalues --    0.05198   0.05505   0.06340   0.06563   0.06797
 Alpha virt. eigenvalues --    0.07216   0.07617   0.08047   0.08581   0.08983
 Alpha virt. eigenvalues --    0.09193   0.09553   0.09899   0.11058   0.11236
 Alpha virt. eigenvalues --    0.11664   0.12160   0.12524   0.12938   0.13671
 Alpha virt. eigenvalues --    0.14046   0.14554   0.14857   0.15675   0.16090
 Alpha virt. eigenvalues --    0.16800   0.17164   0.17455   0.17729   0.18670
 Alpha virt. eigenvalues --    0.18680   0.19108   0.19540   0.19685   0.20549
 Alpha virt. eigenvalues --    0.20606   0.21247   0.21274   0.21794   0.21945
 Alpha virt. eigenvalues --    0.22513   0.22991   0.23277   0.23783   0.23905
 Alpha virt. eigenvalues --    0.24230   0.24638   0.25086   0.25165   0.25868
 Alpha virt. eigenvalues --    0.26163   0.26449   0.26860   0.27077   0.27179
 Alpha virt. eigenvalues --    0.27680   0.28148   0.28241   0.28423   0.28649
 Alpha virt. eigenvalues --    0.29282   0.29763   0.30039   0.30438   0.30763
 Alpha virt. eigenvalues --    0.31374   0.31657   0.32102   0.32406   0.32731
 Alpha virt. eigenvalues --    0.33234   0.33968   0.34291   0.34809   0.35316
 Alpha virt. eigenvalues --    0.35720   0.36014   0.36572   0.36876   0.37240
 Alpha virt. eigenvalues --    0.38061   0.38112   0.38460   0.38648   0.39080
 Alpha virt. eigenvalues --    0.39725   0.40887   0.41117   0.41925   0.42230
 Alpha virt. eigenvalues --    0.43043   0.43222   0.43991   0.44337   0.44619
 Alpha virt. eigenvalues --    0.44742   0.45600   0.46918   0.47501   0.48102
 Alpha virt. eigenvalues --    0.48539   0.48758   0.49723   0.50033   0.50588
 Alpha virt. eigenvalues --    0.51942   0.52298   0.54148   0.54852   0.55075
 Alpha virt. eigenvalues --    0.56098   0.56980   0.57526   0.58400   0.59857
 Alpha virt. eigenvalues --    0.60150   0.60979   0.61682   0.62946   0.63915
 Alpha virt. eigenvalues --    0.64555   0.65489   0.66594   0.67836   0.68483
 Alpha virt. eigenvalues --    0.68884   0.69122   0.69648   0.70384   0.70984
 Alpha virt. eigenvalues --    0.71433   0.72394   0.72898   0.73223   0.73543
 Alpha virt. eigenvalues --    0.73754   0.74908   0.75485   0.76431   0.77260
 Alpha virt. eigenvalues --    0.77833   0.78793   0.79278   0.79355   0.80186
 Alpha virt. eigenvalues --    0.81563   0.82278   0.82628   0.82729   0.85204
 Alpha virt. eigenvalues --    0.86034   0.87799   0.88357   0.91000   0.91689
 Alpha virt. eigenvalues --    0.93511   0.94428   0.95027   0.95784   0.96465
 Alpha virt. eigenvalues --    0.97709   0.98363   0.99915   1.03267   1.03809
 Alpha virt. eigenvalues --    1.05232   1.05365   1.07065   1.08436   1.10019
 Alpha virt. eigenvalues --    1.10945   1.11614   1.14303   1.14402   1.15686
 Alpha virt. eigenvalues --    1.16411   1.18657   1.20854   1.22113   1.23144
 Alpha virt. eigenvalues --    1.25394   1.25915   1.29221   1.31026   1.32401
 Alpha virt. eigenvalues --    1.34719   1.36530   1.38671   1.39195   1.40851
 Alpha virt. eigenvalues --    1.42628   1.43588   1.44755   1.46209   1.46362
 Alpha virt. eigenvalues --    1.47809   1.48126   1.48963   1.49079   1.49685
 Alpha virt. eigenvalues --    1.50152   1.51752   1.52202   1.53559   1.54023
 Alpha virt. eigenvalues --    1.54711   1.54862   1.55495   1.56730   1.57553
 Alpha virt. eigenvalues --    1.57671   1.58972   1.59184   1.60124   1.61347
 Alpha virt. eigenvalues --    1.61514   1.61776   1.62092   1.62597   1.63740
 Alpha virt. eigenvalues --    1.64500   1.66320   1.68986   1.73236   1.75336
 Alpha virt. eigenvalues --    1.76471   1.77649   1.77845   1.78378   1.80174
 Alpha virt. eigenvalues --    1.81399   1.81859   1.84142   1.84632   1.85301
 Alpha virt. eigenvalues --    1.86451   1.87958   1.88925   1.89409   1.91670
 Alpha virt. eigenvalues --    1.94208   1.96687   1.97409   1.98313   2.00338
 Alpha virt. eigenvalues --    2.01166   2.03729   2.04450   2.07357   2.10510
 Alpha virt. eigenvalues --    2.11029   2.11832   2.14069   2.14686   2.15768
 Alpha virt. eigenvalues --    2.17147   2.21139   2.23004   2.24596   2.26017
 Alpha virt. eigenvalues --    2.28386   2.34738   2.35697   2.38721   2.39974
 Alpha virt. eigenvalues --    2.40568   2.42281   2.43665   2.49517   2.52461
 Alpha virt. eigenvalues --    2.55649   2.56397   2.57534   2.58882   2.60628
 Alpha virt. eigenvalues --    2.61764   2.63813   2.65426   2.68029   2.72300
 Alpha virt. eigenvalues --    2.72732   2.78064   2.82124   2.83056   2.83851
 Alpha virt. eigenvalues --    2.86721   2.88972   2.92235   2.94080   2.95006
 Alpha virt. eigenvalues --    2.98568   2.98976   2.99166   3.00040   3.02262
 Alpha virt. eigenvalues --    3.04809   3.06122   3.07319   3.09647   3.13234
 Alpha virt. eigenvalues --    3.13787   3.14466   3.18248   3.23404   3.24772
 Alpha virt. eigenvalues --    3.25815   3.29703   3.30588   3.35289   3.38686
 Alpha virt. eigenvalues --    3.40122   3.41069   3.41512   3.44906   3.48940
 Alpha virt. eigenvalues --    3.54277   3.58102   3.67155   3.69283   3.70800
 Alpha virt. eigenvalues --    3.78233   3.79970   3.80372   3.81277   3.82919
 Alpha virt. eigenvalues --    3.83652   3.83935   3.84884   3.85366   3.85694
 Alpha virt. eigenvalues --    3.86735   3.87001   3.88233   3.88681   3.90627
 Alpha virt. eigenvalues --    3.93963   3.98237   3.98803   3.99711   4.00428
 Alpha virt. eigenvalues --    4.00689   4.00918   4.02912   4.05511   4.06732
 Alpha virt. eigenvalues --    4.12038   4.13059   4.21218   4.22681   4.26957
 Alpha virt. eigenvalues --    4.27808   4.30127   4.31805   4.54905   4.58465
 Alpha virt. eigenvalues --    4.72469   4.79678   4.81620   4.90274   4.98693
 Alpha virt. eigenvalues --    4.98850   5.01553   5.02488   5.18321   5.21731
 Alpha virt. eigenvalues --    5.40539   5.87966   6.46089   6.47703   6.49862
 Alpha virt. eigenvalues --    6.50129   6.50742   6.52994   6.53375   6.54559
 Alpha virt. eigenvalues --    6.55066   6.55473   6.58166   6.62239   6.63096
 Alpha virt. eigenvalues --    6.63603   6.87459   6.88512   6.89252   6.90920
 Alpha virt. eigenvalues --   23.45610  23.59689  23.64549  23.65396  23.74567
 Alpha virt. eigenvalues --   23.82315  23.92668  23.93633  23.97588  24.09039
 Alpha virt. eigenvalues --   24.13238  24.20607  35.60321  35.70642  50.12895
 Alpha virt. eigenvalues --   66.89302  66.89504  66.90389  66.90978  66.95768
 Alpha virt. eigenvalues --   66.98097
          Condensed to atoms (all electrons):
               1          2          3          4          5          6
     1  C   22.531348  -0.143650  -1.433063  -0.001748  -0.338428  -0.774666
     2  N   -0.143650   7.692921   0.416074  -0.135915  -0.457558  -0.383651
     3  C   -1.433063   0.416074   8.388870   0.607058   0.252365  -0.981789
     4  O   -0.001748  -0.135915   0.607058   8.315470  -0.188706  -0.121198
     5  N   -0.338428  -0.457558   0.252365  -0.188706   7.555369   0.491051
     6  C   -0.774666  -0.383651  -0.981789  -0.121198   0.491051   8.431146
     7  C   -0.016654   0.024576   0.187660   0.015631  -0.109558  -0.906540
     8  C   -0.023930  -0.013814  -0.271726  -0.003443   0.003689   0.424702
     9  C   -0.428137   0.013066   0.331847  -0.015119  -0.030680   0.087847
    10  C   -4.782712   0.071022  -1.232150  -0.033813   0.003772  -0.057268
    11  C   -0.597511   0.016111   0.173970   0.027965   0.071152   0.011747
    12  C   -1.108681   0.018909  -0.512595  -0.014752  -0.012853  -0.069620
    13  C   -2.603926  -0.065437   0.058109   0.082099  -0.055764  -0.140443
    14  H   -0.048027   0.256579  -0.053812  -0.001179   0.051510   0.010839
    15  H   -0.014169   0.062190   0.022784  -0.002048   0.262392  -0.056828
    16  H    0.007176   0.002370   0.015792   0.000427  -0.060628   0.407263
    17  H    0.006395   0.010497   0.082076   0.001107  -0.053925   0.307575
    18  H   -0.000820  -0.001304  -0.006248  -0.000143   0.007280  -0.065218
    19  H    0.001165  -0.001038   0.009579  -0.000092   0.006211  -0.072565
    20  H   -0.000005  -0.000078  -0.001803  -0.000041  -0.000541  -0.044168
    21  H    0.000133   0.000008   0.006673   0.000020  -0.001412   0.086389
    22  H   -0.000202  -0.000002  -0.001554  -0.000052   0.000512  -0.052061
    23  H    0.070209  -0.016335  -0.011191  -0.000053  -0.001205  -0.000950
    24  H   -0.062769  -0.012333   0.042527  -0.008287   0.000596   0.005446
    25  C    0.481015   0.007443  -0.134688   0.002312   0.009905  -0.001821
    26  C   -4.252895  -0.001259  -0.097167  -0.004205  -0.006733  -0.001347
    27  H   -0.005349  -0.001107   0.004237   0.000141   0.000038   0.000054
    28  F   -0.031601   0.000005  -0.001417   0.000002   0.000003  -0.000007
    29  F    0.008382  -0.000105   0.000310  -0.000001   0.000002  -0.000000
    30  F   -0.002007   0.000053  -0.000258  -0.000007   0.000004   0.000001
    31  F    0.161410   0.001206   0.001752   0.000000   0.000021   0.000034
    32  F    0.036879   0.000497  -0.000892   0.000001   0.000005  -0.000007
    33  F   -0.010668   0.000985   0.000100  -0.000003   0.000002   0.000012
               7          8          9         10         11         12
     1  C   -0.016654  -0.023930  -0.428137  -4.782712  -0.597511  -1.108681
     2  N    0.024576  -0.013814   0.013066   0.071022   0.016111   0.018909
     3  C    0.187660  -0.271726   0.331847  -1.232150   0.173970  -0.512595
     4  O    0.015631  -0.003443  -0.015119  -0.033813   0.027965  -0.014752
     5  N   -0.109558   0.003689  -0.030680   0.003772   0.071152  -0.012853
     6  C   -0.906540   0.424702   0.087847  -0.057268   0.011747  -0.069620
     7  C    6.411581  -0.229259   0.000834  -0.001552  -0.003168   0.000601
     8  C   -0.229259   6.159449   0.001576  -0.000406  -0.000069  -0.001048
     9  C    0.000834   0.001576  13.611405   1.309831  -8.012657  -1.473171
    10  C   -0.001552  -0.000406   1.309831  44.366245 -19.202989  -0.505043
    11  C   -0.003168  -0.000069  -8.012657 -19.202989  48.091256  -2.425155
    12  C    0.000601  -0.001048  -1.473171  -0.505043  -2.425155  18.780545
    13  C   -0.001406  -0.006032  -0.357646  -7.617542  -2.804846  -5.899958
    14  H   -0.002170   0.000041   0.004090   0.002469   0.008369   0.009996
    15  H   -0.012443   0.002807   0.000500  -0.001790  -0.001618   0.001877
    16  H   -0.029291  -0.011200   0.002644   0.000178  -0.000193  -0.002128
    17  H   -0.008060  -0.026488  -0.001155   0.000285   0.000027   0.001290
    18  H    0.458876  -0.044982   0.000426   0.000010   0.000004  -0.000046
    19  H    0.454369  -0.051860  -0.000407  -0.000000   0.000014   0.000103
    20  H    0.011229   0.379996   0.000008   0.000001  -0.000000  -0.000001
    21  H   -0.123221   0.381176  -0.000008  -0.000000   0.000000   0.000001
    22  H    0.020290   0.378270  -0.000004  -0.000001  -0.000000   0.000004
    23  H    0.000021  -0.000002   0.352023  -0.046015  -0.024536  -0.006304
    24  H   -0.000157   0.000035  -0.033867   0.004287   0.043889   0.078328
    25  C   -0.000350  -0.000005  -2.522166   1.087477  -3.546600  -1.325360
    26  C    0.000090  -0.000002   3.217653  -6.372799  -4.776576   0.424173
    27  H    0.000001   0.000000  -0.000411  -0.031627  -0.094369   0.304478
    28  F   -0.000000  -0.000000   0.039638  -0.336952   0.056864   0.114285
    29  F   -0.000000  -0.000000   0.001765  -0.073033   0.200889  -0.079598
    30  F   -0.000000   0.000000  -0.003486  -0.032428  -0.125735   0.076672
    31  F    0.000001   0.000000   0.137930  -0.238586  -0.052117   0.001340
    32  F   -0.000000  -0.000000   0.049536   0.086911  -0.264426   0.013698
    33  F    0.000000   0.000000  -0.085488   0.320637  -0.098128  -0.006312
              13         14         15         16         17         18
     1  C   -2.603926  -0.048027  -0.014169   0.007176   0.006395  -0.000820
     2  N   -0.065437   0.256579   0.062190   0.002370   0.010497  -0.001304
     3  C    0.058109  -0.053812   0.022784   0.015792   0.082076  -0.006248
     4  O    0.082099  -0.001179  -0.002048   0.000427   0.001107  -0.000143
     5  N   -0.055764   0.051510   0.262392  -0.060628  -0.053925   0.007280
     6  C   -0.140443   0.010839  -0.056828   0.407263   0.307575  -0.065218
     7  C   -0.001406  -0.002170  -0.012443  -0.029291  -0.008060   0.458876
     8  C   -0.006032   0.000041   0.002807  -0.011200  -0.026488  -0.044982
     9  C   -0.357646   0.004090   0.000500   0.002644  -0.001155   0.000426
    10  C   -7.617542   0.002469  -0.001790   0.000178   0.000285   0.000010
    11  C   -2.804846   0.008369  -0.001618  -0.000193   0.000027   0.000004
    12  C   -5.899958   0.009996   0.001877  -0.002128   0.001290  -0.000046
    13  C   25.253267   0.039316   0.004615  -0.010420   0.007892  -0.000676
    14  H    0.039316   0.268661   0.001772   0.000071  -0.000016   0.000006
    15  H    0.004615   0.001772   0.277137   0.001657   0.002218  -0.001184
    16  H   -0.010420   0.000071   0.001657   0.441771  -0.043605   0.005551
    17  H    0.007892  -0.000016   0.002218  -0.043605   0.436218  -0.008281
    18  H   -0.000676   0.000006  -0.001184   0.005551  -0.008281   0.435724
    19  H    0.000897   0.000041  -0.001129  -0.008099   0.005422  -0.041192
    20  H   -0.000033   0.000000  -0.000048  -0.000416   0.003607  -0.008229
    21  H    0.000020   0.000000  -0.000036  -0.000039  -0.000050  -0.003093
    22  H    0.000041  -0.000000   0.000005   0.003220  -0.000546   0.005885
    23  H   -0.019899   0.004037   0.000002  -0.000000   0.000001  -0.000000
    24  H    0.255253   0.000005   0.000020   0.000002  -0.000010   0.000000
    25  C   -2.317206   0.002507  -0.000058  -0.000006   0.000001   0.000000
    26  C    1.532653   0.003515   0.000128  -0.000001   0.000020  -0.000003
    27  H    0.145854  -0.000003   0.000000  -0.000000  -0.000000  -0.000000
    28  F    0.074823   0.000001  -0.000000  -0.000000   0.000000  -0.000000
    29  F   -0.021707  -0.000000   0.000000   0.000000  -0.000000   0.000000
    30  F    0.185542   0.000001  -0.000000   0.000000  -0.000000  -0.000000
    31  F   -0.021212   0.000020   0.000000   0.000000  -0.000000   0.000000
    32  F    0.002861   0.000001  -0.000000  -0.000000   0.000000  -0.000000
    33  F   -0.015903  -0.000012   0.000000   0.000000  -0.000000   0.000000
              19         20         21         22         23         24
     1  C    0.001165  -0.000005   0.000133  -0.000202   0.070209  -0.062769
     2  N   -0.001038  -0.000078   0.000008  -0.000002  -0.016335  -0.012333
     3  C    0.009579  -0.001803   0.006673  -0.001554  -0.011191   0.042527
     4  O   -0.000092  -0.000041   0.000020  -0.000052  -0.000053  -0.008287
     5  N    0.006211  -0.000541  -0.001412   0.000512  -0.001205   0.000596
     6  C   -0.072565  -0.044168   0.086389  -0.052061  -0.000950   0.005446
     7  C    0.454369   0.011229  -0.123221   0.020290   0.000021  -0.000157
     8  C   -0.051860   0.379996   0.381176   0.378270  -0.000002   0.000035
     9  C   -0.000407   0.000008  -0.000008  -0.000004   0.352023  -0.033867
    10  C   -0.000000   0.000001  -0.000000  -0.000001  -0.046015   0.004287
    11  C    0.000014  -0.000000   0.000000  -0.000000  -0.024536   0.043889
    12  C    0.000103  -0.000001   0.000001   0.000004  -0.006304   0.078328
    13  C    0.000897  -0.000033   0.000020   0.000041  -0.019899   0.255253
    14  H    0.000041   0.000000   0.000000  -0.000000   0.004037   0.000005
    15  H   -0.001129  -0.000048  -0.000036   0.000005   0.000002   0.000020
    16  H   -0.008099  -0.000416  -0.000039   0.003220  -0.000000   0.000002
    17  H    0.005422   0.003607  -0.000050  -0.000546   0.000001  -0.000010
    18  H   -0.041192  -0.008229  -0.003093   0.005885  -0.000000   0.000000
    19  H    0.436425   0.005897  -0.003185  -0.008314  -0.000000  -0.000000
    20  H    0.005897   0.445304  -0.024325  -0.036556  -0.000000  -0.000000
    21  H   -0.003185  -0.024325   0.424916  -0.024399   0.000000   0.000000
    22  H   -0.008314  -0.036556  -0.024399   0.446104   0.000000  -0.000000
    23  H   -0.000000  -0.000000   0.000000   0.000000   0.345816  -0.000028
    24  H   -0.000000  -0.000000   0.000000  -0.000000  -0.000028   0.360621
    25  C    0.000000  -0.000000   0.000000  -0.000000   0.011447   0.011192
    26  C    0.000001   0.000000  -0.000000  -0.000000   0.012072  -0.000152
    27  H    0.000000   0.000000  -0.000000  -0.000000   0.000026  -0.003100
    28  F    0.000000  -0.000000   0.000000  -0.000000  -0.000003   0.000015
    29  F   -0.000000  -0.000000   0.000000   0.000000   0.000010   0.000039
    30  F    0.000000   0.000000  -0.000000  -0.000000   0.000011   0.000019
    31  F   -0.000000   0.000000  -0.000000  -0.000000   0.008744  -0.000003
    32  F    0.000000  -0.000000   0.000000  -0.000000   0.000621  -0.000003
    33  F   -0.000000   0.000000  -0.000000   0.000000  -0.000927  -0.000001
              25         26         27         28         29         30
     1  C    0.481015  -4.252895  -0.005349  -0.031601   0.008382  -0.002007
     2  N    0.007443  -0.001259  -0.001107   0.000005  -0.000105   0.000053
     3  C   -0.134688  -0.097167   0.004237  -0.001417   0.000310  -0.000258
     4  O    0.002312  -0.004205   0.000141   0.000002  -0.000001  -0.000007
     5  N    0.009905  -0.006733   0.000038   0.000003   0.000002   0.000004
     6  C   -0.001821  -0.001347   0.000054  -0.000007  -0.000000   0.000001
     7  C   -0.000350   0.000090   0.000001  -0.000000  -0.000000  -0.000000
     8  C   -0.000005  -0.000002   0.000000  -0.000000  -0.000000   0.000000
     9  C   -2.522166   3.217653  -0.000411   0.039638   0.001765  -0.003486
    10  C    1.087477  -6.372799  -0.031627  -0.336952  -0.073033  -0.032428
    11  C   -3.546600  -4.776576  -0.094369   0.056864   0.200889  -0.125735
    12  C   -1.325360   0.424173   0.304478   0.114285  -0.079598   0.076672
    13  C   -2.317206   1.532653   0.145854   0.074823  -0.021707   0.185542
    14  H    0.002507   0.003515  -0.000003   0.000001  -0.000000   0.000001
    15  H   -0.000058   0.000128   0.000000  -0.000000   0.000000  -0.000000
    16  H   -0.000006  -0.000001  -0.000000  -0.000000   0.000000   0.000000
    17  H    0.000001   0.000020  -0.000000   0.000000  -0.000000  -0.000000
    18  H    0.000000  -0.000003  -0.000000  -0.000000   0.000000  -0.000000
    19  H    0.000000   0.000001   0.000000   0.000000  -0.000000   0.000000
    20  H   -0.000000   0.000000   0.000000  -0.000000  -0.000000   0.000000
    21  H    0.000000  -0.000000  -0.000000   0.000000   0.000000  -0.000000
    22  H   -0.000000  -0.000000  -0.000000  -0.000000   0.000000  -0.000000
    23  H    0.011447   0.012072   0.000026  -0.000003   0.000010   0.000011
    24  H    0.011192  -0.000152  -0.003100   0.000015   0.000039   0.000019
    25  C   19.355942  -6.291261  -0.017502  -0.028766   0.151410   0.014403
    26  C   -6.291261  21.048772   0.012340   0.263452  -0.029016   0.034902
    27  H   -0.017502   0.012340   0.355923   0.000708  -0.000708   0.009340
    28  F   -0.028766   0.263452   0.000708   9.003560  -0.038044  -0.022672
    29  F    0.151410  -0.029016  -0.000708  -0.038044   8.981329  -0.041763
    30  F    0.014403   0.034902   0.009340  -0.022672  -0.041763   9.031873
    31  F    0.033350   0.123031   0.000009   0.001693   0.000093   0.000084
    32  F    0.236383  -0.010566   0.000038  -0.003608   0.001559   0.001668
    33  F   -0.009286   0.079619   0.000005   0.003030  -0.000976   0.000057
              31         32         33
     1  C    0.161410   0.036879  -0.010668
     2  N    0.001206   0.000497   0.000985
     3  C    0.001752  -0.000892   0.000100
     4  O    0.000000   0.000001  -0.000003
     5  N    0.000021   0.000005   0.000002
     6  C    0.000034  -0.000007   0.000012
     7  C    0.000001  -0.000000   0.000000
     8  C    0.000000  -0.000000   0.000000
     9  C    0.137930   0.049536  -0.085488
    10  C   -0.238586   0.086911   0.320637
    11  C   -0.052117  -0.264426  -0.098128
    12  C    0.001340   0.013698  -0.006312
    13  C   -0.021212   0.002861  -0.015903
    14  H    0.000020   0.000001  -0.000012
    15  H    0.000000  -0.000000   0.000000
    16  H    0.000000  -0.000000   0.000000
    17  H   -0.000000   0.000000  -0.000000
    18  H    0.000000  -0.000000   0.000000
    19  H   -0.000000   0.000000  -0.000000
    20  H    0.000000  -0.000000   0.000000
    21  H   -0.000000   0.000000  -0.000000
    22  H   -0.000000  -0.000000   0.000000
    23  H    0.008744   0.000621  -0.000927
    24  H   -0.000003  -0.000003  -0.000001
    25  C    0.033350   0.236383  -0.009286
    26  C    0.123031  -0.010566   0.079619
    27  H    0.000009   0.000038   0.000005
    28  F    0.001693  -0.003608   0.003030
    29  F    0.000093   0.001559  -0.000976
    30  F    0.000084   0.001668   0.000057
    31  F    9.029683  -0.025643  -0.042687
    32  F   -0.025643   8.997704  -0.038523
    33  F   -0.042687  -0.038523   8.954012
 Mulliken charges:
               1
     1  C   -0.622495
     2  N   -0.360927
     3  C    0.138569
     4  O   -0.521429
     5  N   -0.397891
     6  C   -0.533957
     7  C   -0.141933
     8  C   -1.047475
     9  C   -0.198219
    10  C   -0.686419
    11  C   -0.671564
    12  C   -0.383676
    13  C    0.316813
    14  H    0.441374
    15  H    0.451246
    16  H    0.277904
    17  H    0.277507
    18  H    0.267657
    19  H    0.267758
    20  H    0.270203
    21  H    0.280432
    22  H    0.269359
    23  H    0.322410
    24  H    0.318435
    25  C    0.790288
    26  C    1.091562
    27  H    0.320983
    28  F   -0.095007
    29  F   -0.060838
    30  F   -0.126276
    31  F   -0.120154
    32  F   -0.084694
    33  F   -0.049547
 Sum of Mulliken charges =  -0.00000
 Mulliken charges with hydrogens summed into heavy atoms:
               1
     1  C   -0.622495
     2  N    0.080447
     3  C    0.138569
     4  O   -0.521429
     5  N    0.053355
     6  C    0.021454
     7  C    0.393481
     8  C   -0.227481
     9  C    0.124190
    10  C   -0.686419
    11  C   -0.671564
    12  C   -0.062692
    13  C    0.635249
    25  C    0.790288
    26  C    1.091562
    28  F   -0.095007
    29  F   -0.060838
    30  F   -0.126276
    31  F   -0.120154
    32  F   -0.084694
    33  F   -0.049547
 Electronic spatial extent (au):  <R**2>=          10045.6417
 Charge=              0.0000 electrons
 Dipole moment (field-independent basis, Debye):
    X=              9.1633    Y=              4.8826    Z=             -1.7751  Tot=             10.5336
 Quadrupole moment (field-independent basis, Debye-Ang):
   XX=           -118.5758   YY=           -120.2890   ZZ=           -124.4481
   XY=             20.9327   XZ=             -3.9104   YZ=              0.9193
 Traceless Quadrupole moment (field-independent basis, Debye-Ang):
   XX=              2.5285   YY=              0.8153   ZZ=             -3.3438
   XY=             20.9327   XZ=             -3.9104   YZ=              0.9193
 Octapole moment (field-independent basis, Debye-Ang**2):
  XXX=            159.5320  YYY=             18.8599  ZZZ=              3.9275  XYY=            -22.0453
  XXY=             69.3482  XXZ=            -15.3197  XZZ=            -25.3092  YZZ=              5.7381
  YYZ=             -6.5262  XYZ=             -0.6586
 Hexadecapole moment (field-independent basis, Debye-Ang**3):
 XXXX=         -10085.0422 YYYY=          -1370.0807 ZZZZ=           -292.2825 XXXY=            218.2704
 XXXZ=            -56.6670 YYYX=             66.7665 YYYZ=              0.2739 ZZZX=             -1.0462
 ZZZY=              1.8791 XXYY=          -2080.4798 XXZZ=          -1864.0510 YYZZ=           -286.1922
 XXYZ=              8.4886 YYXZ=            -25.6684 ZZXY=             -4.2448
 N-N= 1.766006083985D+03 E-N=-6.471649041505D+03  KE= 1.244468586890D+03
 D1PCM: PCM CHGder 1st derivatives, ID1Alg=3 FixD1E=F DoIter=F DoCFld=F I1PDM=0.
 Calling FoFJK, ICntrl=      2127 FMM=F ISym2X=0 I1Cent= 0 IOpClX= 0 NMat=1 NMatS=1 NMatT=0.
 ***** Axes restored to original set *****
 -------------------------------------------------------------------
 Center     Atomic                   Forces (Hartrees/Bohr)
 Number     Number              X              Y              Z
 -------------------------------------------------------------------
      1        6           0.000004267    0.000001781   -0.000002912
      2        7           0.000003350   -0.000002195    0.000000428
      3        6          -0.000009083   -0.000001826    0.000000739
      4        8          -0.000000417    0.000003053    0.000000949
      5        7           0.000005118    0.000006156   -0.000000555
      6        6          -0.000000737    0.000002634    0.000000202
      7        6           0.000001681    0.000005712    0.000000504
      8        6           0.000001831    0.000006271    0.000001977
      9        6           0.000002159   -0.000003828    0.000000132
     10        6          -0.000001312   -0.000000744    0.000002312
     11        6          -0.000000527   -0.000004146   -0.000001474
     12        6          -0.000004718   -0.000004343   -0.000000770
     13        6          -0.000002578   -0.000001247    0.000000944
     14        1           0.000001705    0.000002268    0.000000341
     15        1           0.000001062    0.000001038    0.000000598
     16        1          -0.000000262    0.000004838    0.000001147
     17        1          -0.000000155    0.000004647    0.000000620
     18        1           0.000003297    0.000004526    0.000000993
     19        1           0.000002106    0.000005199    0.000001611
     20        1           0.000000856    0.000007812    0.000001020
     21        1           0.000002310    0.000007638    0.000001055
     22        1           0.000000317    0.000007432    0.000001698
     23        1           0.000002352   -0.000001543   -0.000000167
     24        1          -0.000003900    0.000000111   -0.000000029
     25        6          -0.000001596   -0.000003957   -0.000009832
     26        6          -0.000001992    0.000000139   -0.000004016
     27        1          -0.000004465   -0.000002077   -0.000000589
     28        9          -0.000003652   -0.000009343    0.000002376
     29        9          -0.000000710   -0.000003059    0.000002865
     30        9          -0.000001319   -0.000005886   -0.000000541
     31        9           0.000001186   -0.000007371   -0.000002482
     32        9           0.000003590   -0.000012344    0.000002011
     33        9           0.000000240   -0.000007345   -0.000001157
 -------------------------------------------------------------------
 Cartesian Forces:  Max     0.000012344 RMS     0.000003671

 GradGradGradGradGradGradGradGradGradGradGradGradGradGradGradGradGradGrad
 Berny optimization.
 FormGI is forming the generalized inverse of G from B-inverse, IUseBI=4.
 Internal  Forces:  Max     0.000008683 RMS     0.000001974
 Search for a local minimum.
 Step number   1 out of a maximum of  172
 All quantities printed in internal units (Hartrees-Bohrs-Radians)
 Mixed Optimization -- En-DIIS/RFO-DIIS
 Second derivative matrix not updated -- first step.
 ITU=  0
     Eigenvalues ---    0.00454   0.00508   0.00645   0.00728   0.00924
     Eigenvalues ---    0.01529   0.01539   0.01580   0.01814   0.01876
     Eigenvalues ---    0.01907   0.02020   0.02095   0.02137   0.02149
     Eigenvalues ---    0.02190   0.02204   0.02239   0.02241   0.02398
     Eigenvalues ---    0.03777   0.04494   0.04958   0.05558   0.05569
     Eigenvalues ---    0.05574   0.08134   0.09162   0.10469   0.10535
     Eigenvalues ---    0.10677   0.10708   0.12038   0.12640   0.15878
     Eigenvalues ---    0.15989   0.15999   0.15999   0.16000   0.16000
     Eigenvalues ---    0.16000   0.16000   0.21889   0.21917   0.22002
     Eigenvalues ---    0.22047   0.22372   0.23478   0.24598   0.24989
     Eigenvalues ---    0.24990   0.24994   0.25000   0.25000   0.25000
     Eigenvalues ---    0.25000   0.25000   0.25000   0.25000   0.25000
     Eigenvalues ---    0.30022   0.30418   0.31436   0.32081   0.34299
     Eigenvalues ---    0.34305   0.34380   0.34398   0.34466   0.34466
     Eigenvalues ---    0.34639   0.35559   0.35687   0.36208   0.37208
     Eigenvalues ---    0.41969   0.42565   0.45460   0.45603   0.45780
     Eigenvalues ---    0.46158   0.47189   0.47309   0.48014   0.48293
     Eigenvalues ---    0.55729   0.55754   0.56317   0.56399   0.56883
     Eigenvalues ---    0.57048   0.57339   0.90172
 RFO step:  Lambda= 0.00000000D+00 EMin= 4.53657208D-03
 Linear search not attempted -- first point.
 Iteration  1 RMS(Cart)=  0.00010057 RMS(Int)=  0.00000000
 Iteration  2 RMS(Cart)=  0.00000001 RMS(Int)=  0.00000000
 Variable       Old X    -DE/DX   Delta X   Delta X   Delta X     New X
                                 (Linear)    (Quad)   (Total)
    R1        2.62813  -0.00000   0.00000  -0.00000  -0.00000   2.62812
    R2        2.65179   0.00000   0.00000   0.00000   0.00000   2.65179
    R3        2.63712  -0.00000   0.00000  -0.00000  -0.00000   2.63712
    R4        2.61924  -0.00001   0.00000  -0.00001  -0.00001   2.61923
    R5        1.91445  -0.00000   0.00000  -0.00000  -0.00000   1.91444
    R6        2.32854   0.00000   0.00000   0.00000   0.00000   2.32854
    R7        2.54468   0.00000   0.00000   0.00000   0.00000   2.54469
    R8        2.75534  -0.00000   0.00000  -0.00000  -0.00000   2.75534
    R9        1.91080   0.00000   0.00000   0.00000   0.00000   1.91080
   R10        2.87137   0.00000   0.00000   0.00000   0.00000   2.87137
   R11        2.06693   0.00000   0.00000   0.00000   0.00000   2.06693
   R12        2.06663   0.00000   0.00000   0.00000   0.00000   2.06663
   R13        2.87920  -0.00000   0.00000  -0.00000  -0.00000   2.87920
   R14        2.06818   0.00000   0.00000   0.00000   0.00000   2.06818
   R15        2.06829   0.00000   0.00000   0.00000   0.00000   2.06829
   R16        2.06551   0.00000   0.00000   0.00000   0.00000   2.06551
   R17        2.06266   0.00000   0.00000   0.00000   0.00000   2.06266
   R18        2.06551   0.00000   0.00000   0.00000   0.00000   2.06551
   R19        2.61226   0.00000   0.00000   0.00001   0.00001   2.61227
   R20        2.04777  -0.00000   0.00000  -0.00000  -0.00000   2.04777
   R21        2.65414   0.00000   0.00000   0.00000   0.00000   2.65415
   R22        2.85188   0.00000   0.00000   0.00002   0.00002   2.85189
   R23        2.62490  -0.00000   0.00000  -0.00001  -0.00001   2.62490
   R24        2.83996  -0.00000   0.00000  -0.00001  -0.00001   2.83996
   R25        2.62339  -0.00000   0.00000  -0.00000  -0.00000   2.62339
   R26        2.04574   0.00000   0.00000   0.00000   0.00000   2.04575
   R27        2.03757  -0.00000   0.00000  -0.00000  -0.00000   2.03757
   R28        2.53910   0.00000   0.00000   0.00001   0.00001   2.53911
   R29        2.54490  -0.00000   0.00000  -0.00001  -0.00001   2.54489
   R30        2.53356  -0.00000   0.00000  -0.00000  -0.00000   2.53356
   R31        2.53111   0.00000   0.00000   0.00000   0.00000   2.53111
   R32        2.53496  -0.00001   0.00000  -0.00001  -0.00001   2.53495
   R33        2.53980   0.00000   0.00000   0.00000   0.00000   2.53980
    A1        2.03917  -0.00000   0.00000  -0.00002  -0.00002   2.03916
    A2        2.17099   0.00000   0.00000   0.00002   0.00002   2.17101
    A3        2.07268  -0.00000   0.00000  -0.00000  -0.00000   2.07268
    A4        2.21760   0.00000   0.00000   0.00000   0.00000   2.21760
    A5        2.01559  -0.00000   0.00000  -0.00000  -0.00000   2.01559
    A6        2.03581  -0.00000   0.00000   0.00000   0.00000   2.03581
    A7        2.14529   0.00000   0.00000   0.00000   0.00000   2.14530
    A8        1.99709  -0.00000   0.00000  -0.00000  -0.00000   1.99709
    A9        2.14079  -0.00000   0.00000  -0.00000  -0.00000   2.14078
   A10        2.11309   0.00000   0.00000   0.00001   0.00001   2.11310
   A11        2.10003  -0.00000   0.00000  -0.00001  -0.00001   2.10002
   A12        2.06924  -0.00000   0.00000  -0.00000  -0.00000   2.06923
   A13        1.92485   0.00000   0.00000   0.00000   0.00000   1.92485
   A14        1.90982  -0.00000   0.00000  -0.00000  -0.00000   1.90981
   A15        1.90837  -0.00000   0.00000   0.00000   0.00000   1.90837
   A16        1.92256  -0.00000   0.00000  -0.00001  -0.00001   1.92255
   A17        1.92316   0.00000   0.00000   0.00001   0.00001   1.92317
   A18        1.87434   0.00000   0.00000  -0.00000  -0.00000   1.87434
   A19        1.93939  -0.00000   0.00000  -0.00000  -0.00000   1.93939
   A20        1.90666   0.00000   0.00000   0.00001   0.00001   1.90667
   A21        1.90632  -0.00000   0.00000  -0.00000  -0.00000   1.90632
   A22        1.92094  -0.00000   0.00000   0.00000   0.00000   1.92094
   A23        1.92087  -0.00000   0.00000  -0.00000  -0.00000   1.92087
   A24        1.86819  -0.00000   0.00000  -0.00000  -0.00000   1.86819
   A25        1.93803  -0.00000   0.00000  -0.00000  -0.00000   1.93803
   A26        1.93885   0.00000   0.00000   0.00000   0.00000   1.93885
   A27        1.93810  -0.00000   0.00000  -0.00000  -0.00000   1.93810
   A28        1.88201   0.00000   0.00000   0.00000   0.00000   1.88202
   A29        1.88236   0.00000   0.00000  -0.00000  -0.00000   1.88236
   A30        1.88206   0.00000   0.00000   0.00000   0.00000   1.88206
   A31        2.11532   0.00000   0.00000   0.00001   0.00001   2.11533
   A32        2.07380  -0.00000   0.00000  -0.00001  -0.00001   2.07379
   A33        2.09404  -0.00000   0.00000  -0.00000  -0.00000   2.09404
   A34        2.09580  -0.00000   0.00000  -0.00001  -0.00001   2.09579
   A35        2.04325  -0.00000   0.00000  -0.00002  -0.00002   2.04323
   A36        2.14389   0.00001   0.00000   0.00003   0.00003   2.14392
   A37        2.06628   0.00000   0.00000   0.00000   0.00000   2.06628
   A38        2.15666   0.00001   0.00000   0.00003   0.00003   2.15669
   A39        2.05996  -0.00001   0.00000  -0.00003  -0.00003   2.05993
   A40        2.12757   0.00000   0.00000   0.00001   0.00001   2.12758
   A41        2.08816  -0.00000   0.00000  -0.00001  -0.00001   2.08815
   A42        2.06740  -0.00000   0.00000   0.00000   0.00000   2.06740
   A43        2.08864  -0.00000   0.00000  -0.00000  -0.00000   2.08863
   A44        2.10891   0.00000   0.00000   0.00001   0.00001   2.10892
   A45        2.08559  -0.00000   0.00000  -0.00001  -0.00001   2.08558
   A46        1.96952  -0.00000   0.00000  -0.00000  -0.00000   1.96952
   A47        1.96621   0.00000   0.00000   0.00002   0.00002   1.96623
   A48        1.95071  -0.00001   0.00000  -0.00003  -0.00003   1.95067
   A49        1.86020   0.00000   0.00000   0.00002   0.00002   1.86022
   A50        1.85754   0.00000   0.00000  -0.00000  -0.00000   1.85754
   A51        1.85142  -0.00000   0.00000  -0.00001  -0.00001   1.85141
   A52        1.95424   0.00000   0.00000   0.00000   0.00000   1.95425
   A53        1.96353   0.00001   0.00000   0.00002   0.00002   1.96356
   A54        1.95769   0.00000   0.00000   0.00001   0.00001   1.95770
   A55        1.85852  -0.00000   0.00000  -0.00002  -0.00002   1.85850
   A56        1.85614  -0.00000   0.00000  -0.00001  -0.00001   1.85613
   A57        1.86661  -0.00000   0.00000  -0.00001  -0.00001   1.86660
    D1        2.82393   0.00000   0.00000   0.00004   0.00004   2.82397
    D2       -0.13011   0.00000   0.00000   0.00003   0.00003  -0.13008
    D3       -0.34619  -0.00000   0.00000  -0.00001  -0.00001  -0.34620
    D4        2.98295  -0.00000   0.00000  -0.00002  -0.00002   2.98294
    D5        3.12734  -0.00000   0.00000  -0.00004  -0.00004   3.12730
    D6       -0.02165  -0.00000   0.00000  -0.00002  -0.00002  -0.02167
    D7        0.01260   0.00000   0.00000   0.00001   0.00001   0.01261
    D8       -3.13639   0.00000   0.00000   0.00003   0.00003  -3.13636
    D9       -3.12540   0.00000   0.00000   0.00004   0.00004  -3.12536
   D10        0.00559   0.00000   0.00000   0.00003   0.00003   0.00562
   D11       -0.01284  -0.00000   0.00000  -0.00001  -0.00001  -0.01286
   D12        3.11814  -0.00000   0.00000  -0.00002  -0.00002   3.11812
   D13        0.02977   0.00000   0.00000   0.00003   0.00003   0.02980
   D14       -3.10658  -0.00000   0.00000  -0.00001  -0.00001  -3.10658
   D15        2.98192   0.00000   0.00000   0.00004   0.00004   2.98196
   D16       -0.15442  -0.00000   0.00000   0.00000   0.00000  -0.15442
   D17       -3.13951   0.00000   0.00000   0.00004   0.00004  -3.13947
   D18       -0.04251   0.00000   0.00000   0.00001   0.00001  -0.04250
   D19        0.00731   0.00000   0.00000   0.00000   0.00000   0.00732
   D20        3.10431  -0.00000   0.00000  -0.00002  -0.00002   3.10430
   D21        3.12898  -0.00000   0.00000  -0.00004  -0.00004   3.12893
   D22        1.01151  -0.00000   0.00000  -0.00003  -0.00003   1.01147
   D23       -1.03692  -0.00000   0.00000  -0.00003  -0.00003  -1.03696
[...]
 00464649,0.00027020,0.00136047,0.00059537,-0.00028340,0.00066924,0.223
 35942,0.00049855,0.00048479,0.00004557,-0.00023925,0.00007861,0.000007
 06,0.00012057,0.00006066,0.00002302,-0.00001237,-0.00004258,-0.0000048
 6,-0.00002989,0.00001214,0.00000345,0.00000364,-0.00000107,-0.00000256
 ,-0.00000027,-0.00000266,0.00000027,-0.00000079,0.00000168,0.00000004,
 -0.00091465,0.00058562,-0.00024342,-0.00047020,-0.00061721,0.00008607,
 0.00322662,0.00986183,0.00008637,0.00040084,-0.00065241,-0.00046025,0.
 00050144,0.00022746,0.00022554,-0.00000853,-0.00001307,-0.00001531,-0.
 00000020,-0.00000499,0.00000088,-0.00000353,0.00000031,0.00000057,-0.0
 0000230,0.00000010,-0.00000007,-0.00000002,0.00000047,0.00000038,0.000
 00012,0.00000034,-0.00000060,0.00000009,-0.00000006,-0.00000022,-0.000
 00071,0.00000008,0.00000013,-0.00000002,-0.00000015,0.00000014,-0.0000
 8106,0.00001389,0.00000384,0.00003945,-0.00006046,0.00004974,-0.060471
 69,-0.10236459,0.03912254,-0.00437771,0.00254711,0.00221160,0.00036717
 ,0.00023556,0.00006332,0.11724470,0.17670163,-0.00090729,0.00007420,-0
 .00010638,0.00094834,-0.00023495,-0.00001857,-0.00064463,-0.00027699,0
 .00003929,0.00020196,0.00014962,-0.00004735,0.00024205,-0.00009991,-0.
 00001191,-0.00004893,-0.00002704,0.00000761,0.00000664,0.00001702,-0.0
 0000353,0.00000242,-0.00000864,0.00000061,0.00078530,-0.00013430,-0.00
 008139,-0.00125855,0.00120805,0.00094865,0.01125878,0.00965679,0.00226
 336,0.00192248,-0.00284442,-0.00097973,0.00058763,0.00094848,0.0002906
 3,0.00003919,0.00004827,0.00001224,0.00000021,0.00002602,-0.00000176,0
 .00001790,0.00000282,-0.00000028,0.00001540,0.00000273,-0.00000379,-0.
 00000059,-0.00000102,-0.00000049,-0.00000009,-0.00000185,0.00000137,0.
 00000018,0.00000020,-0.00000005,0.00000441,0.00000035,-0.00000065,0.00
 000051,0.00000065,0.00000016,0.00006815,-0.00002961,-0.00003884,0.0002
 1621,-0.00021690,0.00003406,0.07331052,0.03375396,-0.10799695,0.000056
 77,0.00094894,-0.00274184,-0.00009512,-0.00000282,0.00003644,-0.109419
 13,-0.08141442,0.16233778,0.00453563,-0.00068265,0.00007955,-0.0053078
 9,0.00117284,-0.00014448,0.00328029,0.00168313,-0.00015171,-0.00071226
 ,-0.00099070,0.00013448,-0.00113002,0.00042353,0.00010417,0.00022615,0
 .00011058,-0.00004584,-0.00003020,-0.00008280,0.00001205,-0.00000994,0
 .00003969,-0.00000306,-0.00452678,-0.00038169,0.00147810,0.00109642,-0
 .00388884,-0.00170088,-0.01880846,0.01365720,-0.03553566,0.00184328,0.
 00331141,-0.00042748,-0.00132012,0.00116452,0.00181598,-0.00016874,-0.
 00026698,-0.00014312,0.00000677,-0.00012293,0.00000521,-0.00008420,-0.
 00001223,-0.00000047,-0.00008290,-0.00000960,0.00001959,0.00000228,0.0
 0000802,0.00000268,0.00000160,0.00000674,-0.00000403,-0.00000185,-0.00
 000194,0.00000192,-0.00002049,-0.00000195,0.00000260,-0.00000193,-0.00
 000186,-0.00000086,-0.00027130,0.00007629,0.00025046,-0.00022370,0.000
 08458,0.00006748,-0.10789474,0.02088164,-0.07066025,-0.00333527,-0.000
 83830,-0.00184930,0.00025521,-0.00005141,-0.00086352,0.01457462,-0.010
 32983,0.02743966,0.11012376,-0.00183524,0.00114790,0.00013720,0.002540
 82,-0.00061549,0.00003731,-0.00159898,-0.00079318,0.00007464,0.0003941
 5,0.00045565,-0.00007115,0.00056060,-0.00021590,-0.00005968,-0.0001146
 0,-0.00005787,0.00001998,0.00001542,0.00004076,-0.00000577,0.00000485,
 -0.00001946,0.00000190,0.00144730,0.00059977,-0.00050572,-0.00143966,0
 .00123541,-0.00066532,0.01427825,0.00557227,0.01913106,-0.00045188,-0.
 00318597,0.00094600,0.00153380,-0.00053688,-0.00086627,0.00009224,0.00
 012676,0.00007460,-0.00000344,0.00005869,-0.00000373,0.00004102,0.0000
 0696,0.00000086,0.00004115,0.00000463,-0.00000966,-0.00000109,-0.00000
 391,-0.00000114,-0.00000091,-0.00000323,0.00000182,0.00000104,0.000000
 92,-0.00000110,0.00001009,0.00000108,-0.00000129,0.00000102,0.00000093
 ,0.00000053,0.00003412,-0.00006254,0.00000942,0.00019893,-0.00012139,-
 0.00015637,0.02130654,-0.07667033,0.03107982,-0.00094510,0.00217323,-0
 .00058193,0.00008974,0.00004022,0.00039997,-0.00458254,-0.00721997,0.0
 4141521,-0.01266926,0.09090552,0.00283148,-0.00057917,0.00004394,-0.00
 326115,0.00074937,-0.00003366,0.00204728,0.00102894,-0.00012042,-0.000
 48301,-0.00059854,0.00010606,-0.00071508,0.00026882,0.00007108,0.00014
 157,0.00007220,-0.00003062,-0.00001991,-0.00005217,0.00000601,-0.00000
 677,0.00002552,-0.00000194,-0.00265477,0.00016187,0.00071670,0.0002635
 3,-0.00260233,-0.00062262,-0.01499340,0.00664085,-0.01287823,0.0003518
 5,0.00264832,-0.00017601,-0.00117394,0.00061319,0.00070793,-0.00010861
 ,-0.00016674,-0.00009099,0.00000423,-0.00007870,-0.00000087,-0.0000529
 4,-0.00000713,0.00000047,-0.00005262,-0.00000683,0.00001303,0.00000139
 ,0.00000564,0.00000203,0.00000088,0.00000371,-0.00000186,-0.00000161,-
 0.00000142,0.00000167,-0.00001282,-0.00000128,0.00000151,-0.00000096,-
 0.00000076,-0.00000035,-0.00023780,0.00008164,0.00009755,-0.00020693,0
 .00012141,0.00006629,-0.07180480,0.03440640,-0.19726109,-0.00187024,-0
 .00081456,-0.00253464,0.00038059,0.00013447,-0.00040878,0.01338948,0.0
 3593250,-0.06824487,0.10162321,-0.04185131,0.34191142,0.00131806,0.000
 12965,0.00021027,-0.00172068,0.00044814,0.00004553,0.00117964,0.000583
 98,-0.00009198,-0.00030492,-0.00034333,0.00006338,-0.00043319,0.000154
 25,0.00003942,0.00008842,0.00005093,-0.00001350,-0.00001239,-0.0000319
 9,0.00000526,-0.00000412,0.00001542,-0.00000172,-0.00105245,0.00178439
 ,-0.00004795,-0.00417364,-0.00117749,0.00045850,0.00304247,0.03114484,
 0.01225357,-0.00449982,0.00108643,0.00066038,0.00073553,0.00126671,0.0
 0013183,-0.00007654,-0.00009793,-0.00003314,0.00000355,-0.00004545,0.0
 0000074,-0.00003126,-0.00000478,0.00000064,-0.00002885,-0.00000525,0.0
 0000813,0.00000098,0.00000272,0.00000106,0.00000051,0.00000244,-0.0000
 0169,-0.00000072,-0.00000074,0.00000082,-0.00000800,-0.00000068,0.0000
 0099,-0.00000056,-0.00000086,-0.00000033,-0.00045913,0.00014292,-0.000
 12604,-0.00000107,-0.00003465,0.00002258,-0.07668504,0.00502838,0.0019
 4673,-0.00223043,-0.00071847,0.00010622,-0.00378920,0.00352918,0.00108
 178,-0.00881767,-0.05113434,-0.00518305,0.00462052,-0.01928497,-0.0250
 2602,0.09155312,-0.00322622,0.00059963,-0.00035531,0.00362000,-0.00061
 670,-0.00009517,-0.00223743,-0.00120704,0.00010666,0.00048901,0.000705
 53,-0.00008012,0.00080222,-0.00028124,-0.00006329,-0.00016136,-0.00008
 594,0.00002882,0.00002315,0.00005765,-0.00000852,0.00000686,-0.0000273
 6,0.00000226,0.00190232,-0.00202936,0.00025775,0.00565182,0.00334539,-
 0.00124925,0.00306658,-0.03833168,-0.01951653,-0.00404023,-0.00223120,
 -0.00011534,0.00073463,-0.00026204,0.00056098,0.00005922,0.00019870,0.
 00009258,-0.00000483,0.00008401,-0.00000142,0.00005978,0.00000841,0.00
 000032,0.00005543,0.00000863,-0.00001537,-0.00000212,-0.00000456,-0.00
 000108,-0.00000126,-0.00000484,0.00000253,0.00000139,0.00000101,-0.000
 00149,0.00001415,0.00000163,-0.00000189,0.00000154,0.00000156,0.000001
 04,0.00072688,-0.00024598,0.00029621,0.00012861,-0.00004329,-0.0000502
 5,0.01599505,-0.22865876,-0.07394343,0.00044255,0.00414194,0.00066691,
 0.00135741,0.00085939,-0.00001698,-0.04024631,-0.06667603,0.00217349,-
 0.01240121,-0.00291013,-0.03606104,0.02753746,0.33714243,-0.00059195,0
 .00051054,0.00007537,0.00087547,-0.00013200,-0.00005216,-0.00055601,-0
 .00029376,0.00004022,0.00013593,0.00016115,-0.00002295,0.00021100,-0.0
 0007634,-0.00001338,-0.00004062,-0.00002248,0.00000540,0.00000654,0.00
 001446,-0.00000216,0.00000185,-0.00000767,0.00000052,-0.00016743,-0.00
 076297,-0.00042178,0.00232351,0.00026059,0.00141522,-0.00053258,-0.013
 18711,0.00198038,-0.00194692,-0.00088208,0.00015790,0.00045418,-0.0002
 4874,0.00024015,0.00001166,0.00004530,-0.00000124,-0.00000164,0.000022
 09,-0.00000367,0.00001479,0.00000368,0.00000055,0.00001449,0.00000145,
 -0.00000341,-0.00000040,-0.00000095,-0.00000018,-0.00000006,-0.0000017
 7,0.00000092,0.00000022,0.00000012,-0.00000015,0.00000363,0.00000037,-
 0.00000054,0.00000077,0.00000056,0.00000035,0.00027344,-0.00002888,-0.
 00017821,0.00005238,-0.00004486,0.00001162,0.00752696,-0.07475234,-0.1
 0061784,0.00015339,0.00135609,-0.00022725,0.00052313,0.00022867,-0.000
 06445,-0.00003439,0.01093062,0.01619800,-0.02230828,-0.04976411,-0.063
 62691,0.01366843,0.12808715,0.14475471,0.00204982,-0.00107353,-0.00012
 494,-0.00087941,0.00010249,0.00001111,0.00074233,0.00037802,-0.0000893
 0,-0.00020674,-0.00022265,0.00004674,-0.00028571,0.00008917,0.00002145
 ,0.00005814,0.00003769,-0.00000674,-0.00000891,-0.00002079,0.00000311,
 -0.00000259,0.00000999,-0.00000103,-0.00536075,-0.00143239,-0.00180035
 ,0.00814173,-0.02121061,-0.00829116,-0.00318013,-0.00019326,-0.0007570
 7,0.00000169,-0.00144853,0.00002477,-0.00025703,-0.00053751,-0.0001581
 0,0.00008215,-0.00005198,0.00001214,0.00000497,-0.00002864,0.00000268,
 -0.00001957,-0.00000409,-0.00000030,-0.00001832,-0.00000364,0.00000531
 ,0.00000110,0.00000159,0.00000037,0.00000019,0.00000199,-0.00000100,-0
 .00000040,-0.00000054,0.00000059,-0.00000542,-0.00000038,0.00000066,-0
 .00000057,-0.00000074,-0.00000037,-0.00321335,-0.00405730,-0.00157887,
 0.00004643,-0.00012675,-0.00002628,-0.00202006,-0.00052408,-0.00045403
 ,-0.07933430,0.02900198,0.01367605,-0.00026751,-0.00015752,0.00004524,
 0.00061982,0.00076187,0.00007247,0.00050636,0.00033818,0.00036446,0.00
 034235,-0.00005199,0.00000664,0.11564441,0.00187870,-0.00001648,0.0006
 5361,-0.00206473,0.00021327,0.00001743,0.00136974,0.00063107,-0.000175
 85,-0.00044750,-0.00033511,0.00008739,-0.00054831,0.00019957,0.0000578
 3,0.00010730,0.00006903,-0.00001726,-0.00001656,-0.00004115,0.00000564
 ,-0.00000562,0.00002033,-0.00000157,0.00156251,-0.00244770,-0.00025378
 ,0.00892241,-0.04061090,-0.02083921,-0.00761060,0.00151674,-0.00182218
 ,0.00018460,-0.00281158,0.00021459,-0.00010441,-0.00053830,-0.00035006
 ,-0.00006092,-0.00013583,-0.00000671,0.00000030,-0.00005994,-0.0000031
 5,-0.00003611,-0.00000594,0.00000144,-0.00003586,-0.00000727,0.0000090
 4,0.00000038,0.00000467,0.00000283,0.00000012,0.00000302,-0.00000257,-
 0.00000070,-0.00000105,0.00000037,-0.00001031,-0.00000100,0.00000114,-
 0.00000027,-0.00000057,0.00000022,-0.00162566,0.00022974,-0.00040818,0
 .00000245,0.00008479,-0.00005354,-0.00151895,0.00395253,0.00052437,0.0
 1699911,-0.22803395,-0.07432713,-0.00073621,-0.00041383,0.00016431,0.0
 0042829,-0.00085115,-0.00049200,0.00044074,-0.00106702,0.00042711,0.00
 041360,-0.00142524,-0.00053633,-0.08076389,0.31960036,0.00041070,-0.00
 033284,0.00006925,-0.00061018,0.00006252,0.00003861,0.00041160,0.00020
 186,-0.00004424,-0.00013207,-0.00010644,0.00003062,-0.00016913,0.00005
 931,0.00002328,0.00003222,0.00002144,-0.00000750,-0.00000513,-0.000012
 49,0.00000105,-0.00000172,0.00000629,-0.00000059,0.00091328,-0.0009189
 6,0.00026796,0.00387804,-0.01603262,0.00083746,-0.00319537,-0.00017733
 ,0.00079592,0.00076021,-0.00097121,-0.00033073,-0.00031629,0.00013883,
 0.00003650,-0.00000586,-0.00004091,-0.00001956,0.00000121,-0.00001756,
 -0.00000292,-0.00001060,-0.00000156,0.00000054,-0.00001111,-0.00000283
 ,0.00000329,0.00000002,0.00000182,0.00000090,0.00000015,0.00000043,-0.
 00000015,-0.00000050,-0.00000054,0.00000041,-0.00000306,-0.00000035,0.
 00000020,0.00000021,0.00000012,0.00000020,-0.00127673,-0.00025905,-0.0
 0019211,-0.00000984,0.00002837,-0.00001645,-0.00057880,0.00125958,-0.0
 0031106,0.00824741,-0.07508524,-0.10195348,-0.00027464,-0.00010977,-0.
 00016791,0.00002078,-0.00051057,0.00017179,0.00028237,-0.00021548,0.00
 037885,0.00013975,-0.00052785,-0.00014792,-0.03848975,0.11905864,0.140
 79749,0.00008026,0.00009606,0.00195825,-0.00210238,-0.00051440,0.00018
 073,0.00132057,0.00081683,-0.00025137,-0.00048313,-0.00038485,0.000110
 01,-0.00063599,0.00014682,0.00006721,0.00012279,0.00010045,-0.00002321
 ,-0.00002369,-0.00004735,0.00000868,-0.00000619,0.00002414,-0.00000220
 ,-0.00179871,-0.00693745,-0.00302033,-0.03429285,0.01754137,-0.0287624
 7,0.00074438,0.00203323,0.00142435,-0.00114619,-0.00057883,0.00073068,
 -0.00042554,-0.00059077,-0.00032670,0.00003915,-0.00012914,0.00001587,
 0.00001004,-0.00006081,-0.00000038,-0.00003820,-0.00000890,-0.00000052
 ,-0.00003812,-0.00000960,0.00001180,0.00000125,0.00000446,0.00000116,0
 .00000081,0.00000356,-0.00000190,-0.00000099,-0.00000134,0.00000136,-0
 .00001219,-0.00000123,0.00000142,-0.00000095,-0.00000128,-0.00000056,0
 .00056617,0.00033966,-0.00068076,0.00013003,-0.00004990,-0.00015875,-0
 .00499609,-0.00168897,-0.00208350,-0.18681353,0.03658535,-0.08602670,-
 0.00012537,-0.00017078,-0.00004996,0.00231402,0.00199965,0.00129745,0.
 00176435,0.00034613,0.00100791,0.00076843,-0.00009680,0.00014316,-0.02
 507470,0.04705437,-0.00626833,0.23268538,-0.00031069,-0.00017821,0.000
 36577,-0.00066622,-0.00002283,0.00008434,0.00035164,0.00020982,-0.0000
 2186,-0.00010373,-0.00009426,0.00001546,-0.00016182,0.00004659,0.00001
 161,0.00002954,0.00002159,-0.00000724,-0.00000525,-0.00001253,0.000001
 17,-0.00000164,0.00000611,-0.00000017,-0.00060253,-0.00178027,-0.00093
 804,-0.01092063,0.01131586,-0.00515505,0.00064055,0.00025849,0.0004533
 0,0.00065563,0.00071726,-0.00012650,-0.00054223,0.00046048,-0.00001228
 ,-0.00002250,-0.00004438,-0.00001156,0.00000057,-0.00001718,0.00000267
 ,-0.00001029,-0.00000219,0.00000011,-0.00000940,-0.00000211,0.00000209
 ,0.00000005,0.00000115,0.00000097,-0.00000008,0.00000102,-0.00000104,0
 .00000001,-0.00000026,-0.00000007,-0.00000306,-0.00000033,0.00000040,-
 0.00000003,-0.00000028,0.00000009,-0.00029805,0.00023387,-0.00012309,-
 0.00001525,0.00002667,0.00003402,0.00277143,0.00266565,0.00232315,0.04
 353282,-0.08803421,0.03406800,0.00005707,0.,0.00002515,0.00005244,-0.0
 0467786,-0.00498000,-0.00091796,-0.00819735,-0.00124129,-0.00042619,-0
 .00099193,-0.00059354,0.05683081,-0.05128786,0.01697539,-0.09965793,0.
 14425057,0.00008622,0.00086779,0.00045840,-0.00124078,-0.00030565,0.00
 006719,0.00069753,0.00049694,-0.00013955,-0.00021696,-0.00023788,0.000
 05441,-0.00032914,0.00006530,0.00003779,0.00006152,0.00005205,-0.00001
 121,-0.00001252,-0.00002486,0.00000393,-0.00000345,0.00001300,-0.00000
 092,-0.00198712,-0.00406859,-0.00148509,-0.01703183,0.01026990,-0.0029
 7511,0.00082030,0.00124911,0.00102276,-0.00040372,-0.00029168,-0.00002
 914,-0.00002606,-0.00031189,-0.00010517,0.00002588,-0.00007670,0.00000
 168,0.00000515,-0.00003168,-0.00000373,-0.00001946,-0.00000427,-0.0000
 0002,-0.00001991,-0.00000510,0.00000648,0.00000046,0.00000263,0.000000
 76,0.00000047,0.00000145,-0.00000045,-0.00000079,-0.00000084,0.0000009
 5,-0.00000613,-0.00000069,0.00000061,-0.00000040,-0.00000041,-0.000000
 22,0.00014283,0.00004148,-0.00003629,0.00003839,-0.00004202,-0.0000211
 0,-0.00044426,0.00058553,-0.00317382,-0.08835729,0.02777519,-0.1289540
 2,-0.00005305,-0.00006737,-0.00004865,0.00045158,-0.00488643,-0.003321
 47,0.00082183,0.00077990,0.00162301,0.00007453,-0.00051421,0.00018581,
 0.00047068,0.00756794,0.01640660,0.13037910,-0.07622716,0.19259867,0.0
 0135120,0.00033985,-0.00200441,-0.00151442,-0.00011500,0.00005842,0.00
 114249,0.00056082,-0.00010727,-0.00044393,-0.00028358,0.00006104,-0.00
 050070,0.00015339,0.00004619,0.00010120,0.00007209,-0.00002276,-0.0000
 1757,-0.00003701,0.00000658,-0.00000408,0.00001785,-0.00000111,0.00015
 762,-0.00311646,-0.00005842,-0.01670623,-0.01596851,0.03240093,-0.0011
 6085,0.00206468,0.00101717,-0.00197649,-0.00048844,-0.00175750,0.00002
 283,-0.00147220,0.00009104,0.00000858,-0.00009820,0.00000572,0.0000040
 0,-0.00004799,0.00000121,-0.00003267,-0.00000675,0.00000058,-0.0000289
 1,-0.00000783,0.00000826,0.00000089,0.00000319,0.00000098,-0.00000024,
 0.00000366,-0.00000206,-0.00000031,-0.00000088,0.00000064,-0.00000967,
 -0.00000086,0.00000125,-0.00000072,-0.00000122,-0.00000050,0.00010152,
 0.00004316,0.00103954,0.00010752,-0.00006286,0.00022503,-0.00404996,-0
 .00011233,0.00174230,-0.12057261,-0.03284274,0.07648794,-0.00022265,-0
 .00016968,-0.00022151,0.00152439,0.00291265,-0.00093726,0.00109354,-0.
 00034774,0.00027553,0.00067609,-0.00020628,-0.00022126,-0.00810600,0.0
 1622198,0.03626113,0.01746718,0.00975293,-0.02392363,0.13158898,0.0001
 3694,-0.00017370,-0.00140051,-0.00128120,-0.00008700,-0.00002247,0.000
 87846,0.00046908,-0.00013396,-0.00031961,-0.00022561,0.00004352,-0.000
 39896,0.00012284,0.00004828,0.00007856,0.00005876,-0.00000904,-0.00001
 428,-0.00002927,0.00000560,-0.00000380,0.00001456,-0.00000143,-0.00030
 503,-0.00365217,0.00033312,-0.01888239,0.00089751,0.02356318,0.0005374
 5,0.00098484,-0.00056465,-0.00051488,0.00034436,-0.00080777,-0.0005714
 8,-0.00025005,0.00008954,-0.00000094,-0.00008377,0.00002637,0.00000236
 ,-0.00003925,-0.00000092,-0.00002337,-0.00000609,0.00000014,-0.0000245
 9,-0.00000590,0.00000622,0.00000014,0.00000311,0.00000130,0.00000027,0
 .00000245,-0.00000195,-0.00000040,-0.00000056,0.00000029,-0.00000755,-
 0.00000071,0.00000091,-0.00000041,-0.00000078,-0.00000018,-0.00017931,
 -0.00000352,0.00066565,0.00006339,-0.00002170,0.00013990,-0.00012123,0
 .00222124,-0.00016917,-0.03240067,-0.08722209,0.04193371,-0.00004357,-
 0.00010862,-0.00001198,0.00138361,-0.00762805,0.00033808,0.00059122,-0
 .00069007,0.00074131,-0.00001433,-0.00112260,-0.00028691,0.02435704,0.
 00356676,-0.04249102,0.00383826,-0.00487113,0.03732920,0.02324030,0.09
 753714,-0.00045518,0.00000934,0.00069126,0.00116465,0.00010580,0.00000
 997,-0.00078417,-0.00045307,0.00010911,0.00026674,0.00022109,-0.000041
 91,0.00035114,-0.00009933,-0.00003481,-0.00006650,-0.00005004,0.000008
 71,0.00001186,0.00002574,-0.00000599,0.00000414,-0.00001425,0.00000101
 ,0.00059628,0.00245361,0.00015403,0.01176867,0.00593204,-0.00848858,0.
 00090478,-0.00103485,-0.00000401,0.00069108,0.00057905,0.00068349,0.00
 005063,0.00045320,-0.00003763,-0.00001883,0.00006806,-0.00002339,-0.00
 000274,0.00003421,-0.00000571,0.00002254,0.00000600,0.00000031,0.00001
 997,0.00000454,-0.00000521,-0.00000056,-0.00000121,-0.00000033,-0.0000
 0002,-0.00000284,0.00000218,0.00000002,0.00000023,-0.00000007,0.000006
 49,0.00000054,-0.00000105,0.00000104,0.00000122,0.00000046,-0.00025860
 ,0.00010232,-0.00044301,-0.00004298,0.00004904,-0.00009360,0.00185710,
 -0.00051115,-0.00208047,0.07831639,0.04604391,-0.18559503,0.00016936,0
 .00013360,0.00006658,-0.00073534,-0.00125493,0.00125785,-0.00030239,0.
 00064980,0.00028628,-0.00039511,0.00034183,0.00031705,0.03701481,-0.02
 950436,-0.05666627,-0.00968152,0.03507522,-0.07216311,-0.12047379,-0.0
 5936436,0.32210185\\-0.00000426,-0.00000177,0.00000291,-0.00000335,0.0
 0000219,-0.00000043,0.00000909,0.00000182,-0.00000074,0.00000042,-0.00
 000305,-0.00000095,-0.00000512,-0.00000615,0.00000056,0.00000074,-0.00
 000264,-0.00000020,-0.00000168,-0.00000571,-0.00000050,-0.00000183,-0.
 00000627,-0.00000198,-0.00000217,0.00000383,-0.00000013,0.00000132,0.0
 0000074,-0.00000231,0.00000053,0.00000415,0.00000148,0.00000471,0.0000
 0434,0.00000077,0.00000258,0.00000124,-0.00000095,-0.00000170,-0.00000
 227,-0.00000034,-0.00000106,-0.00000104,-0.00000060,0.00000026,-0.0000
 0484,-0.00000115,0.00000015,-0.00000465,-0.00000062,-0.00000330,-0.000
 00453,-0.00000099,-0.00000211,-0.00000520,-0.00000161,-0.00000086,-0.0
 0000781,-0.00000102,-0.00000231,-0.00000764,-0.00000105,-0.00000032,-0
 .00000743,-0.00000170,-0.00000235,0.00000154,0.00000017,0.00000390,-0.
 00000011,0.00000003,0.00000160,0.00000396,0.00000983,0.00000199,-0.000
 00014,0.00000401,0.00000447,0.00000208,0.00000059,0.00000365,0.0000093
 4,-0.00000238,0.00000071,0.00000306,-0.00000287,0.00000132,0.00000588,
 0.00000054,-0.00000119,0.00000737,0.00000248,-0.00000359,0.00001235,-0
 .00000201,-0.00000024,0.00000734,0.00000116\\\@


 THE LENGTH OF A MEETING IS PROPORTIONAL TO THE
 SQUARE OF THE PARTICIPANTS.
 Job cpu time:       0 days  6 hours 35 minutes 32.1 seconds.
 File lengths (MBytes):  RWF=    938 Int=      0 D2E=      0 Chk=     27 Scr=      1
 Normal termination of Gaussian 09 at Thu Nov 14 10:25:35 2019.
pbs_rusage has been removed.
Please contact help@nci.org.au if you require this functionality.
