 Entering Gaussian System, Link 0=/apps/gaussian/g09e01/g09/g09
 AtFile(1): /home/507/hio507/Basis/GTMP2LARGE.gbs
 Initial command:
 /apps/gaussian/g09e01/g09/l1.exe "/jobfs/local/3890900.r-man2/Gau-9861.inp" -scrdir="/jobfs/local/3890900.r-man2/"
 Entering Link 1 = /apps/gaussian/g09e01/g09/l1.exe PID=      9862.
  
 Copyright (c) 1988,1990,1992,1993,1995,1998,2003,2009,2015,
            Gaussian, Inc.  All Rights Reserved.
  
 This is part of the Gaussian(R) 09 program.  It is based on
 the Gaussian(R) 03 system (copyright 2003, Gaussian, Inc.),
 the Gaussian(R) 98 system (copyright 1998, Gaussian, Inc.),
 the Gaussian(R) 94 system (copyright 1995, Gaussian, Inc.),
 the Gaussian 92(TM) system (copyright 1992, Gaussian, Inc.),
 the Gaussian 90(TM) system (copyright 1990, Gaussian, Inc.),
 the Gaussian 88(TM) system (copyright 1988, Gaussian, Inc.),
 the Gaussian 86(TM) system (copyright 1986, Carnegie Mellon
 University), and the Gaussian 82(TM) system (copyright 1983,
 Carnegie Mellon University). Gaussian is a federally registered
 trademark of Gaussian, Inc.
  
 This software contains proprietary and confidential information,
 including trade secrets, belonging to Gaussian, Inc.
  
 This software is provided under written license and may be
 used, copied, transmitted, or stored only in accord with that
 written license.
  
 The following legend is applicable only to US Government
 contracts under FAR:
  
                    RESTRICTED RIGHTS LEGEND
  
 Use, reproduction and disclosure by the US Government is
 subject to restrictions as set forth in subparagraphs (a)
 and (c) of the Commercial Computer Software - Restricted
 Rights clause in FAR 52.227-19.
  
 Gaussian, Inc.
 340 Quinnipiac St., Bldg. 40, Wallingford CT 06492
  
  
 ---------------------------------------------------------------
 Warning -- This program may not be used in any manner that
 competes with the business of Gaussian, Inc. or will provide
 assistance to any competitor of Gaussian, Inc.  The licensee
 of this program is prohibited from giving any competitor of
 Gaussian, Inc. access to this program.  By using this program,
 the user acknowledges that Gaussian, Inc. is engaged in the
 business of creating and licensing software in the field of
 computational chemistry and represents and warrants to the
 licensee that it is not a competitor of Gaussian, Inc. and that
 it will not use this program in any manner prohibited above.
 ---------------------------------------------------------------
  

 Cite this work as:
 Gaussian 09, Revision E.01,
 M. J. Frisch, G. W. Trucks, H. B. Schlegel, G. E. Scuseria, 
 M. A. Robb, J. R. Cheeseman, G. Scalmani, V. Barone, B. Mennucci, 
 G. A. Petersson, H. Nakatsuji, M. Caricato, X. Li, H. P. Hratchian, 
 A. F. Izmaylov, J. Bloino, G. Zheng, J. L. Sonnenberg, M. Hada, 
 M. Ehara, K. Toyota, R. Fukuda, J. Hasegawa, M. Ishida, T. Nakajima, 
 Y. Honda, O. Kitao, H. Nakai, T. Vreven, J. A. Montgomery, Jr., 
 J. E. Peralta, F. Ogliaro, M. Bearpark, J. J. Heyd, E. Brothers, 
 K. N. Kudin, V. N. Staroverov, T. Keith, R. Kobayashi, J. Normand, 
 K. Raghavachari, A. Rendell, J. C. Burant, S. S. Iyengar, J. Tomasi, 
 M. Cossi, N. Rega, J. M. Millam, M. Klene, J. E. Knox, J. B. Cross, 
 V. Bakken, C. Adamo, J. Jaramillo, R. Gomperts, R. E. Stratmann, 
 O. Yazyev, A. J. Austin, R. Cammi, C. Pomelli, J. W. Ochterski, 
 R. L. Martin, K. Morokuma, V. G. Zakrzewski, G. A. Voth, 
 P. Salvador, J. J. Dannenberg, S. Dapprich, A. D. Daniels, 
 O. Farkas, J. B. Foresman, J. V. Ortiz, J. Cioslowski, 
 and D. J. Fox, Gaussian, Inc., Wallingford CT, 2013.
 
 ******************************************
 Gaussian 09:  ES64L-G09RevE.01 30-Nov-2015
                30-Nov-2019 
 ******************************************
 %chk=NM2_c2.MP2_GTMP2LARGE.chk
 %mem=1114112000
 %nproc=8
 Will use up to    8 processors via shared memory.
 -------------------------------------------------------------
 # MP2/Gen 5D SCF=Tight INT(grid=ultrafine) maxdisk=3489660928
 -------------------------------------------------------------
 1/38=1/1;
 2/12=2,17=6,18=5,40=1/2;
 3/5=7,8=1,11=9,16=1,25=1,30=1,75=-5/1,2,3;
 4//1;
 5/5=2,32=2,38=5/2;
 8/10=1/1;
 9/16=-3/6;
 6/7=2,8=2,9=2,10=2/1;
 99/5=1,9=1/99;
 ---------------------
 NM2_c2.MP2_GTMP2LARGE
 ---------------------
 Symbolic Z-matrix:
 Charge =  0 Multiplicity = 1
 C                    -5.84511   1.39561   0.2411 
 N                    -4.62737   0.71737   0.17948 
 C                    -3.35598   1.27974   0.07659 
 O                    -3.15263   2.4706   -0.00794 
 N                    -2.35453   0.34452   0.05028 
 C                    -0.96702   0.79158   0.05509 
 C                    -0.03103  -0.37726  -0.21468 
 C                     1.42867   0.06567  -0.2206 
 C                    -7.00947   0.61845   0.18978 
 C                    -8.26654   1.19267   0.25939 
 C                    -8.391     2.58227   0.39488 
 C                    -7.23153   3.34681   0.43911 
 C                    -5.96638   2.7804    0.36529 
 H                    -4.69465  -0.28138   0.0525 
 H                    -2.53557  -0.56589   0.44771 
 H                    -0.72007   1.27171   1.00932 
 H                    -0.86366   1.55299  -0.71954 
 H                    -0.29427  -0.83028  -1.17504 
 H                    -0.17614  -1.14901   0.55065 
 H                     1.60622   0.8194   -0.99124 
 H                     2.09599  -0.7746   -0.41711 
 H                     1.71362   0.49975   0.74069 
 H                    -6.92872  -0.4575    0.08654 
 H                    -5.08644   3.40323   0.39751 
 C                    -9.71721   3.29821   0.45612 
 C                    -9.45473   0.25608   0.22445 
 H                    -7.31302   4.42146   0.54049 
 F                    -10.59943   2.67474   1.24503 
 F                    -10.28029   3.42535  -0.75366 
 F                    -9.57242   4.54073   0.94181 
 F                    -9.10932  -0.94856  -0.26051 
 F                    -10.44089   0.71482  -0.54865 
 F                    -9.95678   0.04368   1.4468 
 
                          Input orientation:                          
 ---------------------------------------------------------------------
 Center     Atomic      Atomic             Coordinates (Angstroms)
 Number     Number       Type             X           Y           Z
 ---------------------------------------------------------------------
      1          6           0       -5.845111    1.395607    0.241100
      2          7           0       -4.627373    0.717373    0.179484
      3          6           0       -3.355976    1.279735    0.076591
      4          8           0       -3.152633    2.470603   -0.007944
      5          7           0       -2.354530    0.344521    0.050276
      6          6           0       -0.967021    0.791579    0.055090
      7          6           0       -0.031031   -0.377265   -0.214684
      8          6           0        1.428668    0.065668   -0.220604
      9          6           0       -7.009472    0.618452    0.189779
     10          6           0       -8.266535    1.192667    0.259393
     11          6           0       -8.390998    2.582269    0.394882
     12          6           0       -7.231532    3.346806    0.439113
     13          6           0       -5.966380    2.780403    0.365289
     14          1           0       -4.694646   -0.281376    0.052502
     15          1           0       -2.535570   -0.565894    0.447710
     16          1           0       -0.720071    1.271706    1.009319
     17          1           0       -0.863665    1.552994   -0.719538
     18          1           0       -0.294269   -0.830276   -1.175043
     19          1           0       -0.176137   -1.149006    0.550650
     20          1           0        1.606224    0.819402   -0.991236
     21          1           0        2.095988   -0.774604   -0.417105
     22          1           0        1.713617    0.499755    0.740694
     23          1           0       -6.928720   -0.457500    0.086542
     24          1           0       -5.086443    3.403229    0.397508
     25          6           0       -9.717205    3.298207    0.456124
     26          6           0       -9.454733    0.256084    0.224449
     27          1           0       -7.313019    4.421458    0.540493
     28          9           0      -10.599434    2.674736    1.245035
     29          9           0      -10.280288    3.425346   -0.753664
     30          9           0       -9.572420    4.540735    0.941809
     31          9           0       -9.109317   -0.948561   -0.260510
     32          9           0      -10.440895    0.714816   -0.548648
     33          9           0       -9.956782    0.043681    1.446804
 ---------------------------------------------------------------------
                    Distance matrix (angstroms):
                    1          2          3          4          5
     1  C    0.000000
     2  N    1.395236   0.000000
     3  C    2.497255   1.394019   0.000000
     4  O    2.909824   2.298652   1.211058   0.000000
     5  N    3.650391   2.306844   1.370479   2.271692   0.000000
     6  C    4.918863   3.663217   2.438414   2.756809   1.457760
     7  C    6.095437   4.741304   3.726359   4.230543   2.447412
     8  C    7.408763   6.104132   4.945210   5.178538   3.803120
     9  C    1.400836   2.384174   3.714585   4.283079   4.665082
    10  C    2.429983   3.670939   4.914732   5.277934   5.976194
    11  C    2.813068   4.205842   5.210504   5.255017   6.447109
    12  C    2.401780   3.709847   4.407283   4.195833   5.740214
    13  C    1.395632   2.466486   3.024824   2.855250   4.367862
    14  H    2.042404   1.009035   2.056620   3.155131   2.422374
    15  H    3.852692   2.468675   2.053568   3.131885   1.009745
    16  H    5.183777   4.032730   2.796075   2.896469   2.109713
    17  H    5.075668   3.958788   2.630609   2.566661   2.067776
    18  H    6.145882   4.796432   3.923364   4.519754   2.669500
    19  H    6.221587   4.840933   4.029254   4.719441   2.688195
    20  H    7.574501   6.343401   5.096626   5.132256   4.122843
    21  H    8.258578   6.912706   5.847047   6.184400   4.612808
    22  H    7.628008   6.369495   5.172057   5.303309   4.129236
    23  H    2.152232   2.585568   3.972730   4.779284   4.644111
    24  H    2.151879   2.733514   2.758030   2.184904   4.115776
    25  C    4.319633   5.713460   6.684573   6.632790   7.943423
    26  C    3.785256   4.849559   6.185836   6.683904   7.102890
    27  H    3.376413   4.589473   5.073837   4.627681   6.438039
    28  F    5.024703   6.374337   7.468532   7.554235   8.650768
    29  F    4.977970   6.337139   7.296511   7.229876   8.541396
    30  F    4.927033   6.297041   7.072970   6.811839   8.396486
    31  F    4.049911   4.801745   6.178987   6.872886   6.884461
    32  F    4.712579   5.858943   7.134853   7.516243   8.116965
    33  F    4.493023   5.519289   6.853900   7.369035   7.735310
                    6          7          8          9         10
     6  C    0.000000
     7  C    1.521529   0.000000
     8  C    2.518389   1.525432   0.000000
     9  C    6.046431   7.060715   8.466179   0.000000
    10  C    7.313380   8.397201   9.772282   1.383755   0.000000
    11  C    7.644440   8.889289  10.155685   2.409825   1.401728
    12  C    6.776486   8.132858   9.284404   2.748707   2.396632
    13  C    5.389363   6.748008   7.899354   2.406840   2.796933
    14  H    3.878972   4.672247   6.139218   2.487360   3.869626
    15  H    2.111215   2.597511   4.069484   4.635192   5.997663
    16  H    1.096384   2.166117   2.753964   6.376123   7.584046
    17  H    1.091093   2.161957   2.777745   6.282609   7.476004
    18  H    2.143883   1.093985   2.163835   7.003964   8.349068
    19  H    2.153357   1.096529   2.155381   7.067432   8.427503
    20  H    2.777978   2.171554   1.092481   8.698586   9.958654
    21  H    3.472452   2.173261   1.090864   9.231377  10.569281
    22  H    2.782271   2.173868   1.092575   8.741274  10.015748
    23  H    6.091227   6.904730   8.379378   1.083906   2.131356
    24  H    4.889540   6.342248   7.346295   3.390601   3.875390
    25  C    9.110968  10.381765  11.624877   3.818880   2.564458
    26  C    8.506274   9.455165  10.894162   2.472209   1.513349
    27  H    7.326891   8.753593   9.796391   3.831187   3.378358
    28  F    9.886639  11.096695  12.394780   4.269624   2.934354
    29  F    9.712248  10.945210  12.193082   4.412140   3.172750
    30  F    9.428432  10.796403  11.933205   4.745372   3.657948
    31  F    8.332147   9.096360  10.586755   2.658503   2.359118
    32  F    9.493401  10.472318  11.891826   3.511299   2.368356
    33  F    9.127541  10.072650  11.506919   3.255319   2.363693
                   11         12         13         14         15
    11  C    0.000000
    12  C    1.389544   0.000000
    13  C    2.432880   1.388118   0.000000
    14  H    4.688359   4.443981   3.330111   0.000000
    15  H    6.648289   6.112393   4.793219   2.213311   0.000000
    16  H    7.806294   6.857864   5.496790   4.373191   2.643523
    17  H    7.678677   6.716395   5.359206   4.317103   2.940650
    18  H    8.925646   8.257066   6.898005   4.601247   2.779687
    19  H    9.023891   8.366801   7.000109   4.627942   2.432600
    20  H   10.245656   9.302667   7.939145   6.480900   4.598268
    21  H   11.041050  10.233365   8.846016   6.824699   4.716227
    22  H   10.322775   9.392142   8.020264   6.492272   4.390562
    23  H    3.387259   3.832590   3.389368   2.241265   4.409304
    24  H    3.405006   2.146234   1.078535   3.721404   4.718411
    25  C    1.508358   2.486206   3.787487   6.180811   8.155196
    26  C    2.563537   3.813302   4.308206   4.793419   6.971392
    27  H    2.136786   1.082495   2.130069   5.404689   6.906975
    28  F    2.368227   3.527598   4.717023   6.710235   8.727159
    29  F    2.366295   3.274721   4.503089   6.751970   8.795109
    30  F    2.351697   2.675430   4.053969   6.916380   8.708562
    31  F    3.662278   4.739802   4.916793   4.475761   6.622852
    32  F    2.929114   4.266503   5.012306   5.862862   8.070136
    33  F    3.162696   4.399211   4.958087   5.453422   7.512932
                   16         17         18         19         20
    16  H    0.000000
    17  H    1.757466   0.000000
    18  H    3.061220   2.492323   0.000000
    19  H    2.523111   3.063801   1.758852   0.000000
    20  H    3.101362   2.590817   2.523311   3.070644   0.000000
    21  H    3.761949   3.777396   2.508166   2.497856   1.763618
    22  H    2.567276   3.143878   3.077439   2.515094   1.764451
    23  H    6.510683   6.440244   6.763616   6.803746   8.696974
    24  H    4.897234   4.743734   6.584863   6.697566   7.307296
    25  C    9.239110   9.100172  10.416180  10.527042  11.681583
    26  C    8.828467   8.739539   9.330213   9.390049  11.141813
    27  H    7.321728   7.170072   8.932336   9.053467   9.740324
    28  F    9.981275   9.995151  11.150709  11.124221  12.546763
    29  F    9.957109   9.601024  10.863170  11.167802  12.171137
    30  F    9.436905   9.355698  10.927622  10.991646  11.939308
    31  F    8.770490   8.628979   8.863151   8.972172  10.884966
    32  F    9.860618   9.615356  10.282689  10.490354  12.055700
    33  F    9.328250   9.468676  10.049977   9.893765  11.842672
                   21         22         23         24         25
    21  H    0.000000
    22  H    1.763717   0.000000
    23  H    9.044312   8.719761   0.000000
    24  H    8.348964   7.401942   4.289045   0.000000
    25  C   12.526047  11.771831   4.692288   4.632324   0.000000
    26  C   11.614348  11.182930   2.628490   5.386690   3.062202
    27  H   10.790990   9.843779   4.915077   2.452525   2.654980
    28  F   13.260256  12.513837   4.962574   5.625129   1.337694
    29  F   13.073831  12.435672   5.197639   5.319935   1.340453
    30  F   12.893844  11.989353   5.718652   4.659847   1.341912
    31  F   11.207750  10.965215   2.261988   5.962766   4.349497
    32  F   12.625732  12.224598   3.756748   6.065717   2.864821
    33  F   12.223461  11.700632   3.357179   6.008974   3.410393
                   26         27         28         29         30
    26  C    0.000000
    27  H    4.694376   0.000000
    28  F    2.863881   3.787867   0.000000
    29  F    3.417963   3.386999   2.158719   0.000000
    30  F    4.345882   2.297863   2.151431   2.149371   0.000000
    31  F    1.343751   5.718863   4.197069   4.554716   5.638475
    32  F    1.334402   4.970817   2.661526   2.723013   4.196828
    33  F    1.338401   5.193824   2.715908   4.047514   4.541612
                   31         32         33
    31  F    0.000000
    32  F    2.150103   0.000000
    33  F    2.148875   2.160235   0.000000
 Stoichiometry    C12H12F6N2O
 Framework group  C1[X(C12H12F6N2O)]
 Deg. of freedom    93
 Full point group                 C1      NOp   1
 Largest Abelian subgroup         C1      NOp   1
 Largest concise Abelian subgroup C1      NOp   1
                         Standard orientation:                         
 ---------------------------------------------------------------------
 Center     Atomic      Atomic             Coordinates (Angstroms)
 Number     Number       Type             X           Y           Z
 ---------------------------------------------------------------------
      1          6           0        0.565523   -0.043546   -0.051216
      2          7           0        1.883148    0.414358   -0.080751
      3          6           0        3.042573   -0.353770    0.014120
      4          8           0        3.042266   -1.554390    0.172782
      5          7           0        4.189796    0.392248   -0.060377
      6          6           0        5.478121   -0.289424   -0.085038
      7          6           0        6.612680    0.712543    0.069526
      8          6           0        7.973260    0.022991    0.052652
      9          6           0       -0.444334    0.926459   -0.010994
     10          6           0       -1.783180    0.577148    0.004856
     11          6           0       -2.150679   -0.775092   -0.030243
     12          6           0       -1.143133   -1.731408   -0.064085
     13          6           0        0.202532   -1.390928   -0.075496
     14          1           0        1.994477    1.415409   -0.020299
     15          1           0        4.148948    1.294170   -0.512540
     16          1           0        5.593085   -0.862870   -1.012400
     17          1           0        5.486136   -1.008233    0.735775
     18          1           0        6.477326    1.262558    1.005457
     19          1           0        6.565799    1.449352   -0.741209
     20          1           0        8.055415   -0.701456    0.866249
     21          1           0        8.783540    0.744423    0.166525
     22          1           0        8.133181   -0.512270   -0.886305
     23          1           0       -0.175232    1.976104    0.015087
     24          1           0        0.959925   -2.158480   -0.096909
     25          6           0       -3.581492   -1.251107    0.006207
     26          6           0       -2.789907    1.706987    0.018670
     27          1           0       -1.412647   -2.779533   -0.088377
     28          9           0       -4.380276   -0.532879   -0.790985
     29          9           0       -4.099563   -1.203640    1.241586
     30          9           0       -3.675543   -2.527252   -0.397942
     31          9           0       -2.220039    2.860350    0.406832
     32          9           0       -3.802083    1.475596    0.856874
     33          9           0       -3.305882    1.928335   -1.196276
 ---------------------------------------------------------------------
 Rotational constants (GHZ):      0.6929654      0.1113146      0.0994739
 General basis read from cards:  (5D, 7F)
 There are   939 symmetry adapted cartesian basis functions of A   symmetry.
 There are   834 symmetry adapted basis functions of A   symmetry.
   834 basis functions,  1236 primitive gaussians,   939 cartesian basis functions
    80 alpha electrons       80 beta electrons
       nuclear repulsion energy      1765.1482395752 Hartrees.
 NAtoms=   33 NActive=   33 NUniq=   33 SFac= 1.00D+00 NAtFMM=   60 NAOKFM=F Big=F
 Integral buffers will be    131072 words long.
 Raffenetti 1 integral format.
 Two-electron integral symmetry is turned on.
 One-electron integrals computed using PRISM.
 NBasis=   834 RedAO= T EigKep=  1.14D-06  NBF=   834
 NBsUse=   831 1.00D-06 EigRej=  7.24D-07 NBFU=   831
 ExpMin= 3.60D-02 ExpMax= 1.14D+04 ExpMxC= 1.72D+03 IAcc=3 IRadAn=         5 AccDes= 0.00D+00
 Harris functional with IExCor=  205 and IRadAn=       5 diagonalized for initial guess.
 HarFok:  IExCor=  205 AccDes= 0.00D+00 IRadAn=         5 IDoV= 1 UseB2=F ITyADJ=14
 ICtDFT=  3500011 ScaDFX=  1.000000  1.000000  1.000000  1.000000
 FoFCou: FMM=F IPFlag=           0 FMFlag=      100000 FMFlg1=           0
         NFxFlg=           0 DoJE=T BraDBF=F KetDBF=T FulRan=T
         wScrn=  0.000000 ICntrl=     500 IOpCl=  0 I1Cent=   200000004 NGrid=           0
         NMat0=    1 NMatS0=      1 NMatT0=    0 NMatD0=    1 NMtDS0=    0 NMtDT0=    0
 Petite list used in FoFCou.
 Requested convergence on RMS density matrix=1.00D-08 within 128 cycles.
 Requested convergence on MAX density matrix=1.00D-06.
 Requested convergence on             energy=1.00D-06.
 No special actions if energy rises.
 Initial convergence to 1.0D-05 achieved.  Increase integral accuracy.
 SCF Done:  E(RHF) =  -1242.27600334     A.U. after   16 cycles
            NFock= 16  Conv=0.35D-08     -V/T= 2.0009
 ExpMin= 3.60D-02 ExpMax= 1.14D+04 ExpMxC= 1.72D+03 IAcc=3 IRadAn=         5 AccDes= 0.00D+00
 HarFok:  IExCor=  205 AccDes= 0.00D+00 IRadAn=         5 IDoV=-2 UseB2=F ITyADJ=14
 ICtDFT= 12500011 ScaDFX=  1.000000  1.000000  1.000000  1.000000
 Range of M.O.s used for correlation:    22   831
 NBasis=   834 NAE=    80 NBE=    80 NFC=    21 NFV=     0
 NROrb=    810 NOA=    59 NOB=    59 NVA=   751 NVB=   751

 **** Warning!!: The largest alpha MO coefficient is  0.11197959D+03

 Fully direct method using O(OVN) memory.
 JobTyp=1 Pass  1:  I=   1 to   3 NPSUse=  8 ParTrn=T ParDer=T DoDerP=F.
 JobTyp=1 Pass  2:  I=   4 to   6 NPSUse=  8 ParTrn=T ParDer=T DoDerP=F.
 JobTyp=1 Pass  3:  I=   7 to   9 NPSUse=  8 ParTrn=T ParDer=T DoDerP=F.
 JobTyp=1 Pass  4:  I=  10 to  12 NPSUse=  8 ParTrn=T ParDer=T DoDerP=F.
 JobTyp=1 Pass  5:  I=  13 to  15 NPSUse=  8 ParTrn=T ParDer=T DoDerP=F.
 JobTyp=1 Pass  6:  I=  16 to  19 NPSUse=  8 ParTrn=T ParDer=T DoDerP=F.
 JobTyp=1 Pass  7:  I=  20 to  23 NPSUse=  8 ParTrn=T ParDer=T DoDerP=F.
 JobTyp=1 Pass  8:  I=  24 to  28 NPSUse=  8 ParTrn=T ParDer=T DoDerP=F.
 JobTyp=1 Pass  9:  I=  29 to  34 NPSUse=  8 ParTrn=T ParDer=T DoDerP=F.
 JobTyp=1 Pass 10:  I=  35 to  42 NPSUse=  8 ParTrn=T ParDer=T DoDerP=F.
 JobTyp=1 Pass 11:  I=  43 to  59 NPSUse=  8 ParTrn=T ParDer=T DoDerP=F.
 Spin components of T(2) and E(2):
     alpha-alpha T2 =       0.1447642195D+00 E2=     -0.5267158066D+00
     alpha-beta  T2 =       0.7541305503D+00 E2=     -0.2964461506D+01
     beta-beta   T2 =       0.1447642195D+00 E2=     -0.5267158066D+00
 ANorm=    0.1429566014D+01
 E2 =    -0.4017893119D+01 EUMP2 =    -0.12462938964570D+04

 **********************************************************************

            Population analysis using the SCF density.

 **********************************************************************

 Orbital symmetries:
       Occupied  (A) (A) (A) (A) (A) (A) (A) (A) (A) (A) (A) (A)
                 (A) (A) (A) (A) (A) (A) (A) (A) (A) (A) (A) (A)
                 (A) (A) (A) (A) (A) (A) (A) (A) (A) (A) (A) (A)
                 (A) (A) (A) (A) (A) (A) (A) (A) (A) (A) (A) (A)
                 (A) (A) (A) (A) (A) (A) (A) (A) (A) (A) (A) (A)
                 (A) (A) (A) (A) (A) (A) (A) (A) (A) (A) (A) (A)
                 (A) (A) (A) (A) (A) (A) (A) (A)
       Virtual   (A) (A) (A) (A) (A) (A) (A) (A) (A) (A) (A) (A)
                 (A) (A) (A) (A) (A) (A) (A) (A) (A) (A) (A) (A)
                 (A) (A) (A) (A) (A) (A) (A) (A) (A) (A) (A) (A)
                 (A) (A) (A) (A) (A) (A) (A) (A) (A) (A) (A) (A)
                 (A) (A) (A) (A) (A) (A) (A) (A) (A) (A) (A) (A)
                 (A) (A) (A) (A) (A) (A) (A) (A) (A) (A) (A) (A)
                 (A) (A) (A) (A) (A) (A) (A) (A) (A) (A) (A) (A)
                 (A) (A) (A) (A) (A) (A) (A) (A) (A) (A) (A) (A)
                 (A) (A) (A) (A) (A) (A) (A) (A) (A) (A) (A) (A)
                 (A) (A) (A) (A) (A) (A) (A) (A) (A) (A) (A) (A)
                 (A) (A) (A) (A) (A) (A) (A) (A) (A) (A) (A) (A)
                 (A) (A) (A) (A) (A) (A) (A) (A) (A) (A) (A) (A)
                 (A) (A) (A) (A) (A) (A) (A) (A) (A) (A) (A) (A)
                 (A) (A) (A) (A) (A) (A) (A) (A) (A) (A) (A) (A)
                 (A) (A) (A) (A) (A) (A) (A) (A) (A) (A) (A) (A)
                 (A) (A) (A) (A) (A) (A) (A) (A) (A) (A) (A) (A)
                 (A) (A) (A) (A) (A) (A) (A) (A) (A) (A) (A) (A)
                 (A) (A) (A) (A) (A) (A) (A) (A) (A) (A) (A) (A)
                 (A) (A) (A) (A) (A) (A) (A) (A) (A) (A) (A) (A)
                 (A) (A) (A) (A) (A) (A) (A) (A) (A) (A) (A) (A)
                 (A) (A) (A) (A) (A) (A) (A) (A) (A) (A) (A) (A)
                 (A) (A) (A) (A) (A) (A) (A) (A) (A) (A) (A) (A)
                 (A) (A) (A) (A) (A) (A) (A) (A) (A) (A) (A) (A)
                 (A) (A) (A) (A) (A) (A) (A) (A) (A) (A) (A) (A)
                 (A) (A) (A) (A) (A) (A) (A) (A) (A) (A) (A) (A)
                 (A) (A) (A) (A) (A) (A) (A) (A) (A) (A) (A) (A)
                 (A) (A) (A) (A) (A) (A) (A) (A) (A) (A) (A) (A)
                 (A) (A) (A) (A) (A) (A) (A) (A) (A) (A) (A) (A)
                 (A) (A) (A) (A) (A) (A) (A) (A) (A) (A) (A) (A)
                 (A) (A) (A) (A) (A) (A) (A) (A) (A) (A) (A) (A)
                 (A) (A) (A) (A) (A) (A) (A) (A) (A) (A) (A) (A)
                 (A) (A) (A) (A) (A) (A) (A) (A) (A) (A) (A) (A)
                 (A) (A) (A) (A) (A) (A) (A) (A) (A) (A) (A) (A)
                 (A) (A) (A) (A) (A) (A) (A) (A) (A) (A) (A) (A)
                 (A) (A) (A) (A) (A) (A) (A) (A) (A) (A) (A) (A)
                 (A) (A) (A) (A) (A) (A) (A) (A) (A) (A) (A) (A)
                 (A) (A) (A) (A) (A) (A) (A) (A) (A) (A) (A) (A)
                 (A) (A) (A) (A) (A) (A) (A) (A) (A) (A) (A) (A)
                 (A) (A) (A) (A) (A) (A) (A) (A) (A) (A) (A) (A)
                 (A) (A) (A) (A) (A) (A) (A) (A) (A) (A) (A) (A)
                 (A) (A) (A) (A) (A) (A) (A) (A) (A) (A) (A) (A)
                 (A) (A) (A) (A) (A) (A) (A) (A) (A) (A) (A) (A)
                 (A) (A) (A) (A) (A) (A) (A) (A) (A) (A) (A) (A)
                 (A) (A) (A) (A) (A) (A) (A) (A) (A) (A) (A) (A)
                 (A) (A) (A) (A) (A) (A) (A) (A) (A) (A) (A) (A)
                 (A) (A) (A) (A) (A) (A) (A) (A) (A) (A) (A) (A)
                 (A) (A) (A) (A) (A) (A) (A) (A) (A) (A) (A) (A)
                 (A) (A) (A) (A) (A) (A) (A) (A) (A) (A) (A) (A)
                 (A) (A) (A) (A) (A) (A) (A) (A) (A) (A) (A) (A)
                 (A) (A) (A) (A) (A) (A) (A) (A) (A) (A) (A) (A)
                 (A) (A) (A) (A) (A) (A) (A) (A) (A) (A) (A) (A)
                 (A) (A) (A) (A) (A) (A) (A) (A) (A) (A) (A) (A)
                 (A) (A) (A) (A) (A) (A) (A) (A) (A) (A) (A) (A)
                 (A) (A) (A) (A) (A) (A) (A) (A) (A) (A) (A) (A)
                 (A) (A) (A) (A) (A) (A) (A) (A) (A) (A) (A) (A)
                 (A) (A) (A) (A) (A) (A) (A) (A) (A) (A) (A) (A)
                 (A) (A) (A) (A) (A) (A) (A) (A) (A) (A) (A) (A)
                 (A) (A) (A) (A) (A) (A) (A) (A) (A) (A) (A) (A)
                 (A) (A) (A) (A) (A) (A) (A) (A) (A) (A) (A) (A)
                 (A) (A) (A) (A) (A) (A) (A) (A) (A) (A) (A) (A)
                 (A) (A) (A) (A) (A) (A) (A) (A) (A) (A) (A) (A)
                 (A) (A) (A) (A) (A) (A) (A) (A) (A) (A) (A) (A)
                 (A) (A) (A) (A) (A) (A) (A)
 The electronic state is 1-A.
 Alpha  occ. eigenvalues --  -26.34462 -26.34106 -26.33871 -26.33748 -26.33482
 Alpha  occ. eigenvalues --  -26.33147 -20.53685 -15.62359 -15.59925 -11.51746
 Alpha  occ. eigenvalues --  -11.51042 -11.40193 -11.32205 -11.29407 -11.27832
 Alpha  occ. eigenvalues --  -11.27298 -11.26950 -11.26930 -11.25308 -11.24178
 Alpha  occ. eigenvalues --  -11.22872  -1.73784  -1.72928  -1.64085  -1.63736
 Alpha  occ. eigenvalues --   -1.63293  -1.62945  -1.42486  -1.28907  -1.24776
 Alpha  occ. eigenvalues --   -1.19354  -1.08664  -1.08013  -1.06400  -0.99189
 Alpha  occ. eigenvalues --   -0.96533  -0.94268  -0.89286  -0.88254  -0.84354
 Alpha  occ. eigenvalues --   -0.83397  -0.82995  -0.82915  -0.82316  -0.81829
 Alpha  occ. eigenvalues --   -0.81503  -0.77926  -0.76661  -0.72264  -0.71795
 Alpha  occ. eigenvalues --   -0.71451  -0.70817  -0.70772  -0.68081  -0.67895
 Alpha  occ. eigenvalues --   -0.66970  -0.66819  -0.66010  -0.65864  -0.65105
 Alpha  occ. eigenvalues --   -0.65027  -0.64460  -0.64405  -0.63433  -0.62619
 Alpha  occ. eigenvalues --   -0.61161  -0.59823  -0.58471  -0.56935  -0.55269
 Alpha  occ. eigenvalues --   -0.54528  -0.53665  -0.52492  -0.50438  -0.49869
 Alpha  occ. eigenvalues --   -0.47735  -0.46325  -0.42046  -0.37811  -0.34034
 Alpha virt. eigenvalues --    0.02342   0.03803   0.04799   0.05018   0.05633
 Alpha virt. eigenvalues --    0.06148   0.07373   0.07757   0.07927   0.08228
 Alpha virt. eigenvalues --    0.08486   0.08973   0.10018   0.10280   0.10807
 Alpha virt. eigenvalues --    0.10977   0.11508   0.11670   0.12446   0.12932
 Alpha virt. eigenvalues --    0.13482   0.14268   0.15102   0.15645   0.16114
 Alpha virt. eigenvalues --    0.16380   0.16859   0.17374   0.17717   0.17823
 Alpha virt. eigenvalues --    0.18033   0.18258   0.18552   0.18927   0.19227
 Alpha virt. eigenvalues --    0.19431   0.19780   0.20163   0.20856   0.21168
 Alpha virt. eigenvalues --    0.21207   0.22228   0.22564   0.22755   0.23574
 Alpha virt. eigenvalues --    0.23644   0.24135   0.24719   0.25305   0.26041
 Alpha virt. eigenvalues --    0.26397   0.26901   0.27171   0.27427   0.28427
 Alpha virt. eigenvalues --    0.28839   0.29270   0.29907   0.30457   0.30758
 Alpha virt. eigenvalues --    0.31147   0.31501   0.31849   0.32188   0.33065
 Alpha virt. eigenvalues --    0.33311   0.33836   0.34635   0.35098   0.35445
 Alpha virt. eigenvalues --    0.35654   0.36350   0.37013   0.37292   0.37455
 Alpha virt. eigenvalues --    0.38216   0.38826   0.39000   0.39047   0.39961
 Alpha virt. eigenvalues --    0.40003   0.40440   0.41274   0.41389   0.41861
 Alpha virt. eigenvalues --    0.42086   0.42515   0.42672   0.43518   0.43883
 Alpha virt. eigenvalues --    0.44040   0.44339   0.44818   0.45145   0.45449
 Alpha virt. eigenvalues --    0.45846   0.46619   0.46864   0.47490   0.47890
 Alpha virt. eigenvalues --    0.48383   0.48572   0.49495   0.49699   0.50313
 Alpha virt. eigenvalues --    0.51007   0.51828   0.52212   0.52545   0.53401
 Alpha virt. eigenvalues --    0.53985   0.54684   0.54963   0.55554   0.56034
 Alpha virt. eigenvalues --    0.56614   0.57271   0.57485   0.58015   0.58339
 Alpha virt. eigenvalues --    0.58960   0.59112   0.59388   0.60548   0.60926
 Alpha virt. eigenvalues --    0.63042   0.63341   0.63914   0.65403   0.66864
 Alpha virt. eigenvalues --    0.67077   0.67619   0.68338   0.68765   0.68964
 Alpha virt. eigenvalues --    0.69577   0.70152   0.70906   0.71557   0.71904
 Alpha virt. eigenvalues --    0.72945   0.73558   0.74420   0.74838   0.75037
 Alpha virt. eigenvalues --    0.75956   0.76159   0.77108   0.77689   0.78251
 Alpha virt. eigenvalues --    0.79534   0.79847   0.80909   0.81611   0.81863
 Alpha virt. eigenvalues --    0.82159   0.82667   0.83158   0.83843   0.84156
 Alpha virt. eigenvalues --    0.84807   0.85545   0.85631   0.86518   0.86791
 Alpha virt. eigenvalues --    0.86970   0.87755   0.88538   0.88792   0.88962
 Alpha virt. eigenvalues --    0.90029   0.90376   0.91337   0.92029   0.92491
 Alpha virt. eigenvalues --    0.92968   0.93575   0.93992   0.95264   0.96260
 Alpha virt. eigenvalues --    0.97004   0.97700   0.98280   0.98786   0.99317
 Alpha virt. eigenvalues --    0.99881   1.00487   1.01832   1.02776   1.03086
 Alpha virt. eigenvalues --    1.03308   1.03973   1.04774   1.04993   1.06217
 Alpha virt. eigenvalues --    1.07087   1.07993   1.08328   1.09435   1.09947
 Alpha virt. eigenvalues --    1.11640   1.13727   1.14519   1.15128   1.15747
 Alpha virt. eigenvalues --    1.16910   1.17657   1.18318   1.20098   1.20951
 Alpha virt. eigenvalues --    1.22068   1.22169   1.23441   1.24633   1.25649
 Alpha virt. eigenvalues --    1.26237   1.26594   1.27127   1.28357   1.29498
 Alpha virt. eigenvalues --    1.30323   1.30677   1.31430   1.33496   1.33611
 Alpha virt. eigenvalues --    1.34418   1.34764   1.35222   1.36689   1.37449
 Alpha virt. eigenvalues --    1.38173   1.38365   1.38891   1.39638   1.40286
 Alpha virt. eigenvalues --    1.41196   1.42048   1.43190   1.43717   1.43986
 Alpha virt. eigenvalues --    1.45628   1.46897   1.47597   1.48687   1.50199
 Alpha virt. eigenvalues --    1.50546   1.51539   1.52825   1.53375   1.53579
 Alpha virt. eigenvalues --    1.54745   1.54815   1.55008   1.56261   1.57837
 Alpha virt. eigenvalues --    1.58221   1.58380   1.59388   1.60234   1.60925
 Alpha virt. eigenvalues --    1.62178   1.62945   1.63479   1.63985   1.64201
 Alpha virt. eigenvalues --    1.65530   1.65973   1.67013   1.67384   1.67883
 Alpha virt. eigenvalues --    1.67962   1.68472   1.69435   1.69698   1.70079
 Alpha virt. eigenvalues --    1.70533   1.71416   1.71695   1.72387   1.73679
 Alpha virt. eigenvalues --    1.74593   1.75102   1.75389   1.76090   1.77113
 Alpha virt. eigenvalues --    1.78310   1.78996   1.79474   1.80295   1.80800
 Alpha virt. eigenvalues --    1.80978   1.81427   1.82125   1.82777   1.83256
 Alpha virt. eigenvalues --    1.83856   1.85108   1.85628   1.87028   1.88104
 Alpha virt. eigenvalues --    1.89905   1.91092   1.91781   1.92868   1.93219
 Alpha virt. eigenvalues --    1.97806   1.98436   2.00436   2.01486   2.03676
 Alpha virt. eigenvalues --    2.04574   2.05269   2.07122   2.08311   2.10265
 Alpha virt. eigenvalues --    2.14238   2.15250   2.17144   2.18887   2.21708
 Alpha virt. eigenvalues --    2.23177   2.24548   2.24894   2.26303   2.27194
 Alpha virt. eigenvalues --    2.28830   2.29715   2.30263   2.31025   2.33158
 Alpha virt. eigenvalues --    2.34784   2.36129   2.39473   2.40096   2.40618
 Alpha virt. eigenvalues --    2.41497   2.42778   2.43190   2.43919   2.45270
 Alpha virt. eigenvalues --    2.47191   2.47408   2.47739   2.52706   2.55354
 Alpha virt. eigenvalues --    2.56891   2.61305   2.64580   2.65132   2.66305
 Alpha virt. eigenvalues --    2.69644   2.70202   2.70706   2.79017   2.80736
 Alpha virt. eigenvalues --    2.82299   2.83628   2.84623   2.86070   2.88774
 Alpha virt. eigenvalues --    2.88934   2.91373   2.91678   2.92851   2.93226
 Alpha virt. eigenvalues --    2.93886   2.95165   2.96710   2.97213   2.98170
 Alpha virt. eigenvalues --    2.99567   3.00284   3.01355   3.02520   3.04462
 Alpha virt. eigenvalues --    3.04594   3.05216   3.07088   3.07508   3.09656
 Alpha virt. eigenvalues --    3.11288   3.12057   3.12946   3.13458   3.13705
 Alpha virt. eigenvalues --    3.15051   3.16136   3.16352   3.16687   3.17900
 Alpha virt. eigenvalues --    3.18884   3.19497   3.20838   3.21147   3.22559
 Alpha virt. eigenvalues --    3.24217   3.25401   3.26096   3.27381   3.28056
 Alpha virt. eigenvalues --    3.29310   3.30080   3.31343   3.32156   3.33652
 Alpha virt. eigenvalues --    3.34893   3.35293   3.36781   3.38483   3.39001
 Alpha virt. eigenvalues --    3.39434   3.40638   3.42972   3.43494   3.44178
 Alpha virt. eigenvalues --    3.45325   3.46060   3.46672   3.48007   3.48490
 Alpha virt. eigenvalues --    3.48983   3.49897   3.50960   3.52251   3.53025
 Alpha virt. eigenvalues --    3.53301   3.54043   3.55640   3.55999   3.56493
 Alpha virt. eigenvalues --    3.58489   3.58950   3.62054   3.62815   3.63297
 Alpha virt. eigenvalues --    3.64787   3.65071   3.65809   3.66965   3.67368
 Alpha virt. eigenvalues --    3.69054   3.69989   3.70388   3.70605   3.70973
 Alpha virt. eigenvalues --    3.71370   3.71724   3.72278   3.72790   3.73622
 Alpha virt. eigenvalues --    3.74360   3.75893   3.76735   3.76829   3.77577
 Alpha virt. eigenvalues --    3.78628   3.79996   3.80850   3.81595   3.81779
 Alpha virt. eigenvalues --    3.82537   3.83310   3.83576   3.84309   3.86227
 Alpha virt. eigenvalues --    3.87470   3.89059   3.89971   3.90561   3.91267
 Alpha virt. eigenvalues --    3.91484   3.91874   3.92994   3.93608   3.94544
 Alpha virt. eigenvalues --    3.95881   3.96881   3.97861   3.98140   3.99091
 Alpha virt. eigenvalues --    4.00262   4.00516   4.01355   4.02468   4.03016
 Alpha virt. eigenvalues --    4.03956   4.05268   4.05973   4.06357   4.07476
 Alpha virt. eigenvalues --    4.08723   4.09456   4.10702   4.12959   4.14871
 Alpha virt. eigenvalues --    4.15222   4.15344   4.16693   4.17655   4.18030
 Alpha virt. eigenvalues --    4.19461   4.20328   4.22881   4.24281   4.26141
 Alpha virt. eigenvalues --    4.26554   4.27560   4.28525   4.30161   4.30886
 Alpha virt. eigenvalues --    4.30907   4.33190   4.33521   4.34293   4.35269
 Alpha virt. eigenvalues --    4.35906   4.37882   4.38462   4.40582   4.41700
 Alpha virt. eigenvalues --    4.41830   4.42777   4.44440   4.44960   4.46925
 Alpha virt. eigenvalues --    4.48300   4.49344   4.51141   4.53156   4.53837
 Alpha virt. eigenvalues --    4.55640   4.56836   4.57754   4.58843   4.59703
 Alpha virt. eigenvalues --    4.61916   4.62858   4.64217   4.65116   4.67253
 Alpha virt. eigenvalues --    4.68293   4.68783   4.69239   4.70229   4.71246
 Alpha virt. eigenvalues --    4.72393   4.72874   4.73709   4.74838   4.75407
 Alpha virt. eigenvalues --    4.75952   4.76906   4.78151   4.79554   4.80125
 Alpha virt. eigenvalues --    4.82216   4.83661   4.85471   4.86630   4.87093
 Alpha virt. eigenvalues --    4.88055   4.89202   4.89586   4.90258   4.92147
 Alpha virt. eigenvalues --    4.92936   4.93196   4.95394   4.97003   5.00225
 Alpha virt. eigenvalues --    5.00935   5.01957   5.02991   5.05421   5.06920
 Alpha virt. eigenvalues --    5.11441   5.13298   5.15180   5.17321   5.18612
 Alpha virt. eigenvalues --    5.21823   5.26555   5.30121   5.32715   5.33629
 Alpha virt. eigenvalues --    5.34760   5.39738   5.44757   5.46843   5.47389
 Alpha virt. eigenvalues --    5.52708   5.57196   5.58735   5.60593   5.62821
 Alpha virt. eigenvalues --    5.63289   5.64576   5.65619   5.69235   5.73360
 Alpha virt. eigenvalues --    5.77355   5.77508   5.79537   5.83688   5.85601
 Alpha virt. eigenvalues --    5.88526   5.90427   5.93095   5.97637   6.02951
 Alpha virt. eigenvalues --    6.05839   6.06605   6.09567   6.12776   6.13944
 Alpha virt. eigenvalues --    6.14677   6.15546   6.17364   6.19070   6.21698
 Alpha virt. eigenvalues --    6.26622   6.31418   6.35225   6.41167   6.48937
 Alpha virt. eigenvalues --    6.52291   6.54941   6.73526   6.82951   6.83417
 Alpha virt. eigenvalues --    6.93949   6.96480   6.97126   6.97850   6.99646
 Alpha virt. eigenvalues --    7.01033   7.01373   7.04138   7.04484   7.05394
 Alpha virt. eigenvalues --    7.06799   7.07281   7.07321   7.08568   7.10119
 Alpha virt. eigenvalues --    7.11443   7.11712   7.11879   7.12168   7.12301
 Alpha virt. eigenvalues --    7.12533   7.13336   7.13804   7.14076   7.14625
 Alpha virt. eigenvalues --    7.15649   7.16172   7.16457   7.16892   7.17584
 Alpha virt. eigenvalues --    7.18789   7.18914   7.21058   7.24107   7.24558
 Alpha virt. eigenvalues --    7.25336   7.26641   7.29473   7.29982   7.35508
 Alpha virt. eigenvalues --    7.36194   7.38734   7.39791   7.42214   7.45067
 Alpha virt. eigenvalues --    7.45211   7.53749   7.54404   7.54542   7.57602
 Alpha virt. eigenvalues --    7.60424   7.61061   7.64907   7.68605   7.77557
 Alpha virt. eigenvalues --    7.78240   7.80124   7.80965   7.81280   7.87171
 Alpha virt. eigenvalues --    7.87840   7.91366   7.91924   7.97333   8.14352
 Alpha virt. eigenvalues --    8.27378   8.35719   8.36255   8.40803   8.41325
 Alpha virt. eigenvalues --    9.69045   9.70388   9.71793   9.72350   9.73621
 Alpha virt. eigenvalues --    9.75023   9.82351   9.83500   9.84001   9.86891
 Alpha virt. eigenvalues --    9.87975   9.92303  10.02917  10.04530  10.11984
 Alpha virt. eigenvalues --   10.13993  10.14698  10.15027  10.24331  10.25259
 Alpha virt. eigenvalues --   10.38814  10.43746  10.52030  10.54873  10.56977
 Alpha virt. eigenvalues --   10.58819  10.76317  10.76810  10.78251  10.82581
 Alpha virt. eigenvalues --   25.03888  25.38215  25.51665  25.60953  25.65007
 Alpha virt. eigenvalues --   25.66837  25.68109  25.76302  25.86732  25.89623
 Alpha virt. eigenvalues --   26.08096  26.31559  37.26933  37.34385  51.93586
 Alpha virt. eigenvalues --   68.83907  68.84315  68.85409  68.86011  68.88378
 Alpha virt. eigenvalues --   68.94180
          Condensed to atoms (all electrons):
               1          2          3          4          5          6
     1  C   27.963291  -0.398992  -1.134368  -0.293279  -0.062220  -0.915433
     2  N   -0.398992   7.060727   0.690809  -0.019282  -0.135529  -0.250554
     3  C   -1.134368   0.690809   7.806754   0.388358   0.285413  -0.904413
     4  O   -0.293279  -0.019282   0.388358   8.232380  -0.058756  -0.064847
     5  N   -0.062220  -0.135529   0.285413  -0.058756   6.724775   0.344682
     6  C   -0.915433  -0.250554  -0.904413  -0.064847   0.344682   7.283947
     7  C   -0.008253  -0.014864   0.109744   0.031057  -0.160294  -0.518684
     8  C   -0.011623  -0.017765  -0.200077   0.003220  -0.030145   0.507259
     9  C   -2.580578   0.085619  -0.636741  -0.048682  -0.131881  -0.188441
    10  C   -9.297961  -0.057773  -1.645772  -0.017606  -0.008846  -0.131047
    11  C    4.409091  -0.001443   0.163132   0.029412   0.031363   0.023801
    12  C   -4.896750   0.151838   0.696568   0.099434   0.016220   0.129233
    13  C   -2.478314  -0.156425  -0.040266   0.273520   0.070474   0.225925
    14  H    0.258052   0.378627   0.016320   0.001899   0.018061   0.022038
    15  H   -0.020788   0.015377  -0.022651   0.000625   0.351369  -0.061836
    16  H    0.006057   0.009641   0.035124  -0.015751  -0.064339   0.476654
    17  H   -0.007777   0.003259   0.047582  -0.007632  -0.049724   0.415364
    18  H   -0.001230   0.001787   0.004542  -0.000757   0.003516  -0.047296
    19  H    0.002678   0.003884   0.016978  -0.000825   0.000908  -0.037692
    20  H    0.001820   0.000502   0.005837   0.000263   0.000442  -0.025605
    21  H   -0.000579  -0.000677  -0.001315   0.000341  -0.004994   0.014299
    22  H   -0.000705  -0.000130  -0.001312   0.000577  -0.000916  -0.025855
    23  H   -0.422148  -0.027892  -0.016032  -0.000924   0.004883   0.001012
    24  H   -0.236464  -0.019311   0.050103  -0.021556   0.008942   0.011570
    25  C    1.139759   0.017285   0.022016   0.001310   0.007029   0.003594
    26  C   -5.121546  -0.020148  -0.181010   0.000202  -0.002473  -0.004549
    27  H    0.049748  -0.001274   0.001770  -0.000157   0.000056   0.000081
    28  F   -0.015901   0.000126  -0.000343  -0.000001   0.000004   0.000000
    29  F    0.003750  -0.000074  -0.000327   0.000000   0.000001  -0.000001
    30  F    0.019388  -0.000114  -0.001573   0.000005   0.000003  -0.000007
    31  F    0.154704   0.001417  -0.001373  -0.000000   0.000009  -0.000021
    32  F    0.006052   0.000077  -0.000383  -0.000000   0.000002  -0.000002
    33  F   -0.033591   0.000164  -0.002110   0.000002  -0.000004  -0.000005
               7          8          9         10         11         12
     1  C   -0.008253  -0.011623  -2.580578  -9.297961   4.409091  -4.896750
     2  N   -0.014864  -0.017765   0.085619  -0.057773  -0.001443   0.151838
     3  C    0.109744  -0.200077  -0.636741  -1.645772   0.163132   0.696568
     4  O    0.031057   0.003220  -0.048682  -0.017606   0.029412   0.099434
     5  N   -0.160294  -0.030145  -0.131881  -0.008846   0.031363   0.016220
     6  C   -0.518684   0.507259  -0.188441  -0.131047   0.023801   0.129233
     7  C    5.571395  -0.131916   0.001918   0.001034   0.001617   0.005741
     8  C   -0.131916   5.215351  -0.003177  -0.000340   0.000056   0.001050
     9  C    0.001918  -0.003177  11.540728   0.685882  -2.437011  -0.174219
    10  C    0.001034  -0.000340   0.685882  31.736200  -5.283103  -3.360306
    11  C    0.001617   0.000056  -2.437011  -5.283103  28.285231  -1.812880
    12  C    0.005741   0.001050  -0.174219  -3.360306  -1.812880  13.299823
    13  C    0.023724   0.003779  -0.412425   0.740838 -10.923165   1.516711
    14  H   -0.014486   0.000573  -0.268114  -0.296781  -0.004059   0.043428
    15  H    0.038042  -0.010330   0.026277   0.014577  -0.000009  -0.004527
    16  H   -0.102437  -0.007181   0.007748   0.003070  -0.001586  -0.002212
    17  H   -0.017230  -0.018474  -0.003219  -0.003992   0.001759   0.001567
    18  H    0.455823  -0.027901   0.001878   0.000018  -0.000215  -0.000582
    19  H    0.412173  -0.025708  -0.001306  -0.000142  -0.000096   0.000008
    20  H   -0.008919   0.412657   0.000202   0.000127  -0.000036  -0.000082
    21  H   -0.029976   0.407145  -0.000106  -0.000021   0.000014   0.000073
    22  H   -0.001592   0.426692  -0.000300  -0.000103   0.000013  -0.000003
    23  H    0.001336   0.000148   0.468473   0.362796   0.063211  -0.020314
    24  H    0.001702   0.000505  -0.009529   0.039118  -0.122319   0.085390
    25  C   -0.000125   0.000022  -1.819899  -0.901795  -1.181431  -1.462948
    26  C    0.000066   0.000015   2.207070  -5.718775  -4.579645   1.328600
    27  H   -0.000085   0.000002   0.008418   0.026131   0.026501   0.388497
    28  F   -0.000000   0.000000   0.043657  -0.158872   0.011625   0.068953
    29  F   -0.000000   0.000000  -0.004796   0.019280   0.005864  -0.096044
    30  F    0.000000  -0.000000  -0.004813   0.045844  -0.123732  -0.015049
    31  F    0.000000  -0.000000   0.102614  -0.322344   0.084192  -0.012283
    32  F    0.000000   0.000000  -0.027797   0.067602  -0.056428  -0.003262
    33  F   -0.000000   0.000000   0.010167  -0.113711   0.009093   0.016618
              13         14         15         16         17         18
     1  C   -2.478314   0.258052  -0.020788   0.006057  -0.007777  -0.001230
     2  N   -0.156425   0.378627   0.015377   0.009641   0.003259   0.001787
     3  C   -0.040266   0.016320  -0.022651   0.035124   0.047582   0.004542
     4  O    0.273520   0.001899   0.000625  -0.015751  -0.007632  -0.000757
     5  N    0.070474   0.018061   0.351369  -0.064339  -0.049724   0.003516
     6  C    0.225925   0.022038  -0.061836   0.476654   0.415364  -0.047296
     7  C    0.023724  -0.014486   0.038042  -0.102437  -0.017230   0.455823
     8  C    0.003779   0.000573  -0.010330  -0.007181  -0.018474  -0.027901
     9  C   -0.412425  -0.268114   0.026277   0.007748  -0.003219   0.001878
    10  C    0.740838  -0.296781   0.014577   0.003070  -0.003992   0.000018
    11  C  -10.923165  -0.004059  -0.000009  -0.001586   0.001759  -0.000215
    12  C    1.516711   0.043428  -0.004527  -0.002212   0.001567  -0.000582
    13  C   16.870821   0.146880  -0.020850  -0.013571  -0.003767  -0.003274
    14  H    0.146880   0.533592  -0.013838   0.000326   0.002786  -0.001003
    15  H   -0.020850  -0.013838   0.521825  -0.002129   0.002062   0.001427
    16  H   -0.013571   0.000326  -0.002129   0.603383  -0.028987   0.006543
    17  H   -0.003767   0.002786   0.002062  -0.028987   0.562670  -0.005679
    18  H   -0.003274  -0.001003   0.001427   0.006543  -0.005679   0.620168
    19  H    0.000563   0.003068  -0.001300  -0.010339   0.009092  -0.061799
    20  H   -0.000201  -0.000114   0.000802   0.001053  -0.002194  -0.007370
    21  H    0.000422  -0.000193   0.000807  -0.002390  -0.001309  -0.007336
    22  H    0.000221   0.000031   0.000107  -0.003525   0.002006   0.004349
    23  H   -0.039798  -0.019861   0.002591  -0.000022  -0.000136   0.000040
    24  H    0.545003  -0.001368   0.000403  -0.001391  -0.000579  -0.000168
    25  C   -2.562104  -0.005373   0.000009  -0.000159   0.000056  -0.000010
    26  C    2.479258  -0.006141   0.000488   0.000299  -0.000499  -0.000000
    27  H   -0.096323   0.000340  -0.000027   0.000049   0.000039   0.000003
    28  F    0.016849   0.000149  -0.000003  -0.000000  -0.000000  -0.000000
    29  F   -0.026130  -0.000108   0.000003   0.000000  -0.000000   0.000000
    30  F    0.089748  -0.000005  -0.000000  -0.000001   0.000001  -0.000000
    31  F   -0.016669   0.005429  -0.000080   0.000001  -0.000001  -0.000000
    32  F   -0.003311  -0.000188  -0.000000   0.000000  -0.000000  -0.000000
    33  F    0.014048   0.000720  -0.000020  -0.000000  -0.000000  -0.000000
              19         20         21         22         23         24
     1  C    0.002678   0.001820  -0.000579  -0.000705  -0.422148  -0.236464
     2  N    0.003884   0.000502  -0.000677  -0.000130  -0.027892  -0.019311
     3  C    0.016978   0.005837  -0.001315  -0.001312  -0.016032   0.050103
     4  O   -0.000825   0.000263   0.000341   0.000577  -0.000924  -0.021556
     5  N    0.000908   0.000442  -0.004994  -0.000916   0.004883   0.008942
     6  C   -0.037692  -0.025605   0.014299  -0.025855   0.001012   0.011570
     7  C    0.412173  -0.008919  -0.029976  -0.001592   0.001336   0.001702
     8  C   -0.025708   0.412657   0.407145   0.426692   0.000148   0.000505
     9  C   -0.001306   0.000202  -0.000106  -0.000300   0.468473  -0.009529
    10  C   -0.000142   0.000127  -0.000021  -0.000103   0.362796   0.039118
    11  C   -0.000096  -0.000036   0.000014   0.000013   0.063211  -0.122319
    12  C    0.000008  -0.000082   0.000073  -0.000003  -0.020314   0.085390
    13  C    0.000563  -0.000201   0.000422   0.000221  -0.039798   0.545003
    14  H    0.003068  -0.000114  -0.000193   0.000031  -0.019861  -0.001368
    15  H   -0.001300   0.000802   0.000807   0.000107   0.002591   0.000403
    16  H   -0.010339   0.001053  -0.002390  -0.003525  -0.000022  -0.001391
    17  H    0.009092  -0.002194  -0.001309   0.002006  -0.000136  -0.000579
    18  H   -0.061799  -0.007370  -0.007336   0.004349   0.000040  -0.000168
    19  H    0.683662   0.005100  -0.005350  -0.009199  -0.000285  -0.000106
    20  H    0.005100   0.617521  -0.023857  -0.041076  -0.000002   0.000013
    21  H   -0.005350  -0.023857   0.599855  -0.029246   0.000014   0.000037
    22  H   -0.009199  -0.041076  -0.029246   0.621122  -0.000002   0.000008
    23  H   -0.000285  -0.000002   0.000014  -0.000002   0.549515   0.001458
    24  H   -0.000106   0.000013   0.000037   0.000008   0.001458   0.408546
    25  C   -0.000014  -0.000001   0.000000   0.000001   0.010631  -0.014442
    26  C   -0.000005   0.000007   0.000000  -0.000005  -0.034147   0.041148
    27  H    0.000003  -0.000000  -0.000001  -0.000001   0.000619  -0.013217
    28  F    0.000000  -0.000000  -0.000000  -0.000000  -0.000729   0.000136
    29  F   -0.000000   0.000000  -0.000000  -0.000000   0.000256  -0.000434
    30  F    0.000000   0.000000  -0.000000   0.000000  -0.000075  -0.000103
    31  F   -0.000000   0.000000  -0.000000  -0.000000  -0.029557  -0.000261
    32  F    0.000000   0.000000   0.000000  -0.000000   0.002564  -0.000030
    33  F    0.000000   0.000000   0.000000  -0.000000  -0.002034   0.000102
              25         26         27         28         29         30
     1  C    1.139759  -5.121546   0.049748  -0.015901   0.003750   0.019388
     2  N    0.017285  -0.020148  -0.001274   0.000126  -0.000074  -0.000114
     3  C    0.022016  -0.181010   0.001770  -0.000343  -0.000327  -0.001573
     4  O    0.001310   0.000202  -0.000157  -0.000001   0.000000   0.000005
     5  N    0.007029  -0.002473   0.000056   0.000004   0.000001   0.000003
     6  C    0.003594  -0.004549   0.000081   0.000000  -0.000001  -0.000007
     7  C   -0.000125   0.000066  -0.000085  -0.000000  -0.000000   0.000000
     8  C    0.000022   0.000015   0.000002   0.000000   0.000000  -0.000000
     9  C   -1.819899   2.207070   0.008418   0.043657  -0.004796  -0.004813
    10  C   -0.901795  -5.718775   0.026131  -0.158872   0.019280   0.045844
    11  C   -1.181431  -4.579645   0.026501   0.011625   0.005864  -0.123732
    12  C   -1.462948   1.328600   0.388497   0.068953  -0.096044  -0.015049
    13  C   -2.562104   2.479258  -0.096323   0.016849  -0.026130   0.089748
    14  H   -0.005373  -0.006141   0.000340   0.000149  -0.000108  -0.000005
    15  H    0.000009   0.000488  -0.000027  -0.000003   0.000003  -0.000000
    16  H   -0.000159   0.000299   0.000049  -0.000000   0.000000  -0.000001
    17  H    0.000056  -0.000499   0.000039  -0.000000  -0.000000   0.000001
    18  H   -0.000010  -0.000000   0.000003  -0.000000   0.000000  -0.000000
    19  H   -0.000014  -0.000005   0.000003   0.000000  -0.000000   0.000000
    20  H   -0.000001   0.000007  -0.000000  -0.000000   0.000000   0.000000
    21  H    0.000000   0.000000  -0.000001  -0.000000  -0.000000  -0.000000
    22  H    0.000001  -0.000005  -0.000001  -0.000000  -0.000000   0.000000
    23  H    0.010631  -0.034147   0.000619  -0.000729   0.000256  -0.000075
    24  H   -0.014442   0.041148  -0.013217   0.000136  -0.000434  -0.000103
    25  C   17.474799  -6.587052  -0.017463   0.013955   0.303782   0.148853
    26  C   -6.587052  19.990721  -0.023770   0.163124  -0.043204   0.007365
    27  H   -0.017463  -0.023770   0.476547   0.001478  -0.000806  -0.012794
    28  F    0.013955   0.163124   0.001478   9.053179   0.030266   0.022351
    29  F    0.303782  -0.043204  -0.000806   0.030266   9.049041   0.004719
    30  F    0.148853   0.007365  -0.012794   0.022351   0.004719   9.118600
    31  F    0.016674   0.185238  -0.000083  -0.001197   0.000123   0.000073
    32  F    0.116249   0.043296   0.000033   0.015434   0.009845  -0.001308
    33  F   -0.051431   0.320587  -0.000019   0.009387  -0.001193   0.000041
              31         32         33
     1  C    0.154704   0.006052  -0.033591
     2  N    0.001417   0.000077   0.000164
     3  C   -0.001373  -0.000383  -0.002110
     4  O   -0.000000  -0.000000   0.000002
     5  N    0.000009   0.000002  -0.000004
     6  C   -0.000021  -0.000002  -0.000005
     7  C    0.000000   0.000000  -0.000000
     8  C   -0.000000   0.000000   0.000000
     9  C    0.102614  -0.027797   0.010167
    10  C   -0.322344   0.067602  -0.113711
    11  C    0.084192  -0.056428   0.009093
    12  C   -0.012283  -0.003262   0.016618
    13  C   -0.016669  -0.003311   0.014048
    14  H    0.005429  -0.000188   0.000720
    15  H   -0.000080  -0.000000  -0.000020
    16  H    0.000001   0.000000  -0.000000
    17  H   -0.000001  -0.000000  -0.000000
    18  H   -0.000000  -0.000000  -0.000000
    19  H   -0.000000   0.000000   0.000000
    20  H    0.000000   0.000000   0.000000
    21  H   -0.000000   0.000000   0.000000
    22  H   -0.000000  -0.000000  -0.000000
    23  H   -0.029557   0.002564  -0.002034
    24  H   -0.000261  -0.000030   0.000102
    25  C    0.016674   0.116249  -0.051431
    26  C    0.185238   0.043296   0.320587
    27  H   -0.000083   0.000033  -0.000019
    28  F   -0.001197   0.015434   0.009387
    29  F    0.000123   0.009845  -0.001193
    30  F    0.000073  -0.001308   0.000041
    31  F    9.101660   0.020453   0.004740
    32  F    0.020453   9.043703   0.030523
    33  F    0.004740   0.030523   9.034185
 Mulliken charges:
               1
     1  C   -0.075892
     2  N   -0.298895
     3  C    0.449015
     4  O   -0.512550
     5  N   -0.158032
     6  C   -0.283169
     7  C    0.353492
     8  C   -0.493837
     9  C   -0.437618
    10  C   -0.423228
    11  C   -0.618819
    12  C    0.011708
    13  C   -0.222191
    14  H    0.199311
    15  H    0.181601
    16  H    0.106073
    17  H    0.102955
    18  H    0.064525
    19  H    0.016046
    20  H    0.063109
    21  H    0.084342
    22  H    0.058842
    23  H    0.144410
    24  H    0.247095
    25  C    1.328221
    26  C    1.555485
    27  H    0.185703
    28  F   -0.273627
    29  F   -0.253813
    30  F   -0.297416
    31  F   -0.293460
    32  F   -0.263124
    33  F   -0.246259
 Sum of Mulliken charges =  -0.00000
 Mulliken charges with hydrogens summed into heavy atoms:
               1
     1  C   -0.075892
     2  N   -0.099584
     3  C    0.449015
     4  O   -0.512550
     5  N    0.023569
     6  C   -0.074142
     7  C    0.434063
     8  C   -0.287544
     9  C   -0.293208
    10  C   -0.423228
    11  C   -0.618819
    12  C    0.197411
    13  C    0.024905
    25  C    1.328221
    26  C    1.555485
    28  F   -0.273627
    29  F   -0.253813
    30  F   -0.297416
    31  F   -0.293460
    32  F   -0.263124
    33  F   -0.246259
 Electronic spatial extent (au):  <R**2>=          10079.3717
 Charge=             -0.0000 electrons
 Dipole moment (field-independent basis, Debye):
    X=              7.0126    Y=              2.6367    Z=             -0.8763  Tot=              7.5429
 Quadrupole moment (field-independent basis, Debye-Ang):
   XX=           -118.7994   YY=           -120.9185   ZZ=           -123.1247
   XY=             12.9340   XZ=             -3.0685   YZ=             -0.1763
 Traceless Quadrupole moment (field-independent basis, Debye-Ang):
   XX=              2.1481   YY=              0.0290   ZZ=             -2.1772
   XY=             12.9340   XZ=             -3.0685   YZ=             -0.1763
 Octapole moment (field-independent basis, Debye-Ang**2):
  XXX=             95.9300  YYY=             12.4170  ZZZ=              1.1686  XYY=            -25.8023
  XXY=             42.0464  XXZ=            -11.2705  XZZ=            -26.8121  YZZ=              4.0832
  YYZ=             -2.1990  XYZ=             -3.7241
 Hexadecapole moment (field-independent basis, Debye-Ang**3):
 XXXX=         -10167.5884 YYYY=          -1365.6114 ZZZZ=           -275.1972 XXXY=             79.4619
 XXXZ=            -30.4808 YYYX=             36.3594 YYYZ=             -8.1376 ZZZX=             -1.9121
 ZZZY=              2.6866 XXYY=          -2080.6143 XXZZ=          -1848.9485 YYZZ=           -280.3019
 XXYZ=             -9.0594 YYXZ=            -12.5862 ZZXY=             -9.7829
 N-N= 1.765148239575D+03 E-N=-6.465779642435D+03  KE= 1.241129793880D+03
 1\1\GINC-R4083\SP\RMP2-FC\Gen\C12H12F6N2O1\ROOT\30-Nov-2019\0\\# MP2/G
 en 5D SCF=Tight INT(grid=ultrafine) maxdisk=3489660928\\NM2_c2.MP2_GTM
 P2LARGE\\0,1\C,0,-5.8451110657,1.3956072891,0.2410996075\N,0,-4.627372
 9895,0.7173734403,0.1794840355\C,0,-3.3559758025,1.279735103,0.0765910
 143\O,0,-3.1526328263,2.4706033855,-0.007944027\N,0,-2.3545297797,0.34
 45209325,0.0502761653\C,0,-0.9670212277,0.7915786583,0.0550898992\C,0,
 -0.0310305275,-0.3772647782,-0.2146835876\C,0,1.4286680526,0.065667665
 ,-0.2206035552\C,0,-7.0094721727,0.6184521531,0.1897791191\C,0,-8.2665
 354785,1.1926672156,0.2593929305\C,0,-8.390997741,2.5822691817,0.39488
 16493\C,0,-7.231532269,3.3468059155,0.4391125309\C,0,-5.9663799895,2.7
 804033184,0.3652893505\H,0,-4.6946457214,-0.2813762974,0.0525015468\H,
 0,-2.5355703394,-0.565893622,0.4477100621\H,0,-0.7200714954,1.27170569
 25,1.0093185964\H,0,-0.8636648896,1.5529941913,-0.7195378329\H,0,-0.29
 42686982,-0.8302763705,-1.1750427021\H,0,-0.1761373625,-1.1490062619,0
 .5506502582\H,0,1.6062244216,0.8194015671,-0.9912355711\H,0,2.09598813
 47,-0.7746037732,-0.4171053005\H,0,1.7136165905,0.4997547845,0.7406940
 353\H,0,-6.9287201985,-0.4574996853,0.0865417836\H,0,-5.086443091,3.40
 32285416,0.397508339\C,0,-9.7172052082,3.2982067907,0.4561241002\C,0,-
 9.4547334297,0.2560835061,0.2244489373\H,0,-7.3130192581,4.4214579091,
 0.5404927392\F,0,-10.5994339425,2.6747356283,1.2450349391\F,0,-10.2802
 880573,3.4253464609,-0.7536636452\F,0,-9.5724201183,4.5407348691,0.941
 8093387\F,0,-9.109317486,-0.9485608369,-0.2605104779\F,0,-10.440894508
 4,0.7148159864,-0.5486480475\F,0,-9.9567815251,0.0436814395,1.44680376
 9\\Version=ES64L-G09RevE.01\State=1-A\HF=-1242.2760033\MP2=-1246.29389
 65\RMSD=3.501e-09\PG=C01 [X(C12H12F6N2O1)]\\@


 ON INDUCTION, OR "WHY DO YOU BELIEVE THE SUN WILL RISE TOMORROW?":

 ... THE FARMER WHO HAS FED THE CHICKEN EVERY DAY THROUGHOUT ITS
 LIFE AT LAST WRINGS ITS NECK INSTEAD, SHOWING THAT MORE REFINED VIEWS
 AS TO THE UNIFORMITY OF NATURE WOULD HAVE BEEN USEFUL TO THE CHICKEN.

                               -- BERTRAND RUSSELL
 Job cpu time:       0 days  9 hours 11 minutes 22.6 seconds.
 File lengths (MBytes):  RWF=    372 Int=      0 D2E=      0 Chk=     41 Scr=      1
 Normal termination of Gaussian 09 at Sat Nov 30 16:19:07 2019.
pbs_rusage has been removed.
Please contact help@nci.org.au if you require this functionality.
