 Entering Gaussian System, Link 0=/apps/gaussian/g16c01/g16/g16
 Initial command:
 /apps/gaussian/g16c01/g16/l1.exe "/jobfs/11098669.gadi-pbs/Gau-856059.inp" -scrdir="/jobfs/11098669.gadi-pbs/"
 Entering Link 1 = /apps/gaussian/g16c01/g16/l1.exe PID=    856060.
  
 Copyright (c) 1988-2019, Gaussian, Inc.  All Rights Reserved.
  
 This is part of the Gaussian(R) 16 program.  It is based on
 the Gaussian(R) 09 system (copyright 2009, Gaussian, Inc.),
 the Gaussian(R) 03 system (copyright 2003, Gaussian, Inc.),
 the Gaussian(R) 98 system (copyright 1998, Gaussian, Inc.),
 the Gaussian(R) 94 system (copyright 1995, Gaussian, Inc.),
 the Gaussian 92(TM) system (copyright 1992, Gaussian, Inc.),
 the Gaussian 90(TM) system (copyright 1990, Gaussian, Inc.),
 the Gaussian 88(TM) system (copyright 1988, Gaussian, Inc.),
 the Gaussian 86(TM) system (copyright 1986, Carnegie Mellon
 University), and the Gaussian 82(TM) system (copyright 1983,
 Carnegie Mellon University). Gaussian is a federally registered
 trademark of Gaussian, Inc.
  
 This software contains proprietary and confidential information,
 including trade secrets, belonging to Gaussian, Inc.
  
 This software is provided under written license and may be
 used, copied, transmitted, or stored only in accord with that
 written license.
  
 The following legend is applicable only to US Government
 contracts under FAR:
  
                    RESTRICTED RIGHTS LEGEND
  
 Use, reproduction and disclosure by the US Government is
 subject to restrictions as set forth in subparagraphs (a)
 and (c) of the Commercial Computer Software - Restricted
 Rights clause in FAR 52.227-19.
  
 Gaussian, Inc.
 340 Quinnipiac St., Bldg. 40, Wallingford CT 06492
  
  
 ---------------------------------------------------------------
 Warning -- This program may not be used in any manner that
 competes with the business of Gaussian, Inc. or will provide
 assistance to any competitor of Gaussian, Inc.  The licensee
 of this program is prohibited from giving any competitor of
 Gaussian, Inc. access to this program.  By using this program,
 the user acknowledges that Gaussian, Inc. is engaged in the
 business of creating and licensing software in the field of
 computational chemistry and represents and warrants to the
 licensee that it is not a competitor of Gaussian, Inc. and that
 it will not use this program in any manner prohibited above.
 ---------------------------------------------------------------
  

 Cite this work as:
 Gaussian 16, Revision C.01,
 M. J. Frisch, G. W. Trucks, H. B. Schlegel, G. E. Scuseria, 
 M. A. Robb, J. R. Cheeseman, G. Scalmani, V. Barone, 
 G. A. Petersson, H. Nakatsuji, X. Li, M. Caricato, A. V. Marenich, 
 J. Bloino, B. G. Janesko, R. Gomperts, B. Mennucci, H. P. Hratchian, 
 J. V. Ortiz, A. F. Izmaylov, J. L. Sonnenberg, D. Williams-Young, 
 F. Ding, F. Lipparini, F. Egidi, J. Goings, B. Peng, A. Petrone, 
 T. Henderson, D. Ranasinghe, V. G. Zakrzewski, J. Gao, N. Rega, 
 G. Zheng, W. Liang, M. Hada, M. Ehara, K. Toyota, R. Fukuda, 
 J. Hasegawa, M. Ishida, T. Nakajima, Y. Honda, O. Kitao, H. Nakai, 
 T. Vreven, K. Throssell, J. A. Montgomery, Jr., J. E. Peralta, 
 F. Ogliaro, M. J. Bearpark, J. J. Heyd, E. N. Brothers, K. N. Kudin, 
 V. N. Staroverov, T. A. Keith, R. Kobayashi, J. Normand, 
 K. Raghavachari, A. P. Rendell, J. C. Burant, S. S. Iyengar, 
 J. Tomasi, M. Cossi, J. M. Millam, M. Klene, C. Adamo, R. Cammi, 
 J. W. Ochterski, R. L. Martin, K. Morokuma, O. Farkas, 
 J. B. Foresman, and D. J. Fox, Gaussian, Inc., Wallingford CT, 2019.
 
 ******************************************
 Gaussian 16:  ES64L-G16RevC.01  3-Jul-2019
                10-Sep-2020 
 ******************************************
 %NprocShared=6
 Will use up to    6 processors via shared memory.
 %Mem=192000MB
 %chk=CP21CA.DSDPBEP86_AUG-cc-PVTZ.chk
 ---------------------------------------------------------------------
 # DSDPBEP86/AUG-cc-PVTZ SCF=Tight INT(grid=ultrafine) MaxDisk=60000MB
 ---------------------------------------------------------------------
 1/38=1,172=1/1;
 2/12=2,17=6,18=5,40=1/2;
 3/5=16,6=1,7=10,11=9,25=1,30=1,74=-77,75=-5/1,2,3;
 4//1;
 5/5=2,32=2,38=5/2;
 8/10=1/1;
 9/16=-3/6;
 6/7=2,8=2,9=2,10=2/1;
 99/5=1,9=1/99;
 ----------------------------
 CP21CA.DSDPBEP86_AUG-cc-PVTZ
 ----------------------------
 Symbolic Z-matrix:
 Charge =  0 Multiplicity = 1
 C                    -6.06358   1.35425   0.32729 
 N                    -4.7938    0.79482   0.19633 
 C                    -3.58751   1.45295   0.11001 
 O                    -3.4209    2.64339   0.12778 
 O                    -2.60847   0.54294   0.00075 
 C                    -1.27776   1.077    -0.09971 
 C                    -0.32089  -0.09023  -0.20735 
 C                     1.12133   0.397    -0.31794 
 C                    -6.29054   2.73576   0.39408 
 C                    -7.58786   3.20564   0.52708 
 C                    -8.64659   2.30663   0.5927 
 C                    -8.43725   0.9313    0.52949 
 C                    -7.1454    0.46218   0.39793 
 H                    -4.73266  -0.21239   0.16336 
 H                    -1.07669   1.68694   0.78423 
 H                    -1.22583   1.72761  -0.97601 
 H                    -0.58839  -0.69111  -1.08072 
 H                    -0.44072  -0.73073   0.6706 
 H                     1.2621    1.02345  -1.20203 
 H                     1.81286  -0.44283  -0.39404 
 H                     1.40966   0.9856    0.5563 
 H                    -5.46173   3.42492   0.34755 
 C                    -10.77506   3.11143  -1.06722 
 H                    -9.27671   0.24912   0.59591 
 H                    -6.96404  -0.60666   0.35424 
 F                    -10.70284   1.93928  -1.68506 
 F                    -12.01275   3.56765  -1.13449 
 F                    -9.95633   3.9651   -1.66688 
 S                    -10.29238   2.91711   0.72559 
 O                    -10.27703   4.2614    1.26037 
 O                    -11.15849   1.8772    1.23906 
 H                    -7.78015   4.27043   0.59217 
 
                          Input orientation:                          
 ---------------------------------------------------------------------
 Center     Atomic      Atomic             Coordinates (Angstroms)
 Number     Number       Type             X           Y           Z
 ---------------------------------------------------------------------
      1          6           0       -6.063581    1.354250    0.327292
      2          7           0       -4.793803    0.794820    0.196329
      3          6           0       -3.587513    1.452951    0.110008
      4          8           0       -3.420904    2.643388    0.127783
      5          8           0       -2.608472    0.542936    0.000752
      6          6           0       -1.277757    1.077003   -0.099712
      7          6           0       -0.320890   -0.090229   -0.207347
      8          6           0        1.121327    0.396999   -0.317940
      9          6           0       -6.290541    2.735765    0.394081
     10          6           0       -7.587863    3.205640    0.527079
     11          6           0       -8.646589    2.306629    0.592704
     12          6           0       -8.437251    0.931299    0.529487
     13          6           0       -7.145396    0.462185    0.397931
     14          1           0       -4.732665   -0.212391    0.163364
     15          1           0       -1.076694    1.686935    0.784233
     16          1           0       -1.225835    1.727607   -0.976006
     17          1           0       -0.588389   -0.691112   -1.080718
     18          1           0       -0.440719   -0.730728    0.670604
     19          1           0        1.262097    1.023448   -1.202033
     20          1           0        1.812857   -0.442827   -0.394039
     21          1           0        1.409661    0.985604    0.556300
     22          1           0       -5.461734    3.424920    0.347555
     23          6           0      -10.775063    3.111429   -1.067219
     24          1           0       -9.276710    0.249124    0.595905
     25          1           0       -6.964038   -0.606659    0.354244
     26          9           0      -10.702841    1.939280   -1.685059
     27          9           0      -12.012750    3.567647   -1.134486
     28          9           0       -9.956325    3.965104   -1.666884
     29         16           0      -10.292380    2.917114    0.725594
     30          8           0      -10.277033    4.261403    1.260365
     31          8           0      -11.158486    1.877202    1.239063
     32          1           0       -7.780152    4.270434    0.592168
 ---------------------------------------------------------------------
                    Distance matrix (angstroms):
                    1          2          3          4          5
     1  C    0.000000
     2  N    1.393718   0.000000
     3  C    2.487542   1.376852   0.000000
     4  O    2.947104   2.303639   1.202171   0.000000
     5  O    3.564076   2.208476   1.341113   2.255678   0.000000
     6  C    4.812828   3.539752   2.349530   2.664281   1.437402
     7  C    5.945658   4.577468   3.626698   4.146693   2.382694
     8  C    7.277057   5.950756   4.844724   5.086924   3.746233
     9  C    1.401626   2.458983   3.005440   2.883447   4.303584
    10  C    2.406449   3.705162   4.387331   4.223638   5.671098
    11  C    2.765755   4.157721   5.153252   5.257123   6.318218
    12  C    2.419521   3.661194   4.895717   5.315671   5.865582
    13  C    1.403956   2.383544   3.704463   4.324635   4.554992
    14  H    2.062176   1.009603   2.021777   3.142842   2.260344
    15  H    5.018816   3.867608   2.610275   2.615539   2.066137
    16  H    5.024119   3.869736   2.613884   2.622086   2.066201
    17  H    6.011964   4.639434   3.874219   4.538998   2.602534
    18  H    6.006794   4.636979   3.871051   4.534404   2.601937
    19  H    7.490916   6.219454   5.042286   5.130606   4.081530
    20  H    8.110985   6.747463   5.745610   6.098301   4.547059
    21  H    7.485832   6.216827   5.038783   5.125059   4.080439
    22  H    2.156457   2.717798   2.730897   2.196379   4.070284
    23  C    5.218276   6.537485   7.469759   7.465303   8.627336
    24  H    3.408468   4.533641   5.835431   6.343666   6.701189
    25  H    2.157941   2.588243   3.962646   4.813303   4.518570
    26  F    5.090634   6.306040   7.354364   7.537159   8.385138
    27  F    6.513719   7.846836   8.775268   8.733121   9.943746
    28  F    5.093796   6.338289   7.073191   6.905034   8.275457
    29  S    4.525918   5.917652   6.890426   6.902861   8.074935
    30  O    5.203398   6.573826   7.345775   7.134930   8.615129
    31  O    5.202198   6.539727   7.666445   7.854436   8.741648
    32  H    3.394246   4.599441   5.074338   4.676107   6.402366
                    6          7          8          9         10
     6  C    0.000000
     7  C    1.513146   0.000000
     8  C    2.503125   1.526307   0.000000
     9  C    5.303143   6.632095   7.804652   0.000000
    10  C    6.688902   8.013179   9.189805   1.386188   0.000000
    11  C    7.502740   8.700705   9.994406   2.403033   1.390477
    12  C    7.188567   8.213511   9.610933   2.807632   2.427776
    13  C    5.920713   6.873529   8.297917   2.428983   2.781906
    14  H    3.697044   4.429007   5.905271   3.342429   4.468488
    15  H    1.092612   2.170894   2.776692   5.332585   6.690883
    16  H    1.092645   2.171242   2.777182   5.342731   6.702183
    17  H    2.136312   1.093340   2.165397   6.814180   8.170821
    18  H    2.135864   1.093341   2.165404   6.805399   8.160715
    19  H    2.769267   2.176127   1.092646   7.907083   9.277586
    20  H    3.456647   2.170728   1.090556   8.740117  10.125874
    21  H    2.767836   2.176093   1.092651   7.898258   9.267408
    22  H    4.818551   6.252397   7.276530   1.078898   2.144933
    23  C    9.760829  10.967211  12.225124   4.731539   3.564955
    24  H    8.071711   8.998171  10.439164   3.891185   3.405572
    25  H    5.947654   6.686814   8.175101   3.409836   3.866866
    26  F    9.596304  10.681172  12.002441   4.942226   4.024960
    27  F   11.068611  12.285733  13.536017   5.980988   4.740408
    28  F    9.279801  10.555453  11.716032   4.381418   3.316605
    29  S    9.237455  10.456821  11.735104   4.019640   2.727099
    30  O    9.642468  10.964290  12.138669   4.355472   2.980600
    31  O   10.003072  11.109292  12.466317   5.014779   3.875695
    32  H    7.277214   8.677280   9.750288   2.147880   1.083973
                   11         12         13         14         15
    11  C    0.000000
    12  C    1.392606   0.000000
    13  C    2.386104   1.380676   0.000000
    14  H    4.674248   3.894359   2.516216   0.000000
    15  H    7.597632   7.403626   6.203094   4.166418   0.000000
    16  H    7.606820   7.409801   6.207270   4.166487   1.767014
    17  H    8.759074   8.174938   6.819885   4.353382   3.061305
    18  H    8.750309   8.168646   6.815430   4.352788   2.502493
    19  H   10.151340   9.853122   8.576762   6.271266   3.139333
    20  H   10.859705  10.382960   9.038615   6.573253   3.778058
    21  H   10.142711   9.847099   8.572517   6.270387   2.593411
    22  H    3.384372   3.886509   3.408087   3.714229   4.737072
    23  C    2.816638   3.573206   4.726484   7.005190   9.975741
    24  H    2.151834   1.083727   2.151067   4.587857   8.327246
    25  H    3.372698   2.136910   1.085001   2.273963   6.332952
    26  F    3.090521   3.324625   4.379049   6.609792   9.941015
    27  F    3.988031   4.743768   5.973553   8.304983  11.261256
    28  F    3.093814   4.041733   4.943200   6.934544   9.489250
    29  S    1.760392   2.724596   4.004691   6.404712   9.297615
    30  O    2.631589   3.874090   4.998500   7.208208   9.565606
    31  O    2.629033   2.967043   4.337588   6.842127  10.093839
    32  H    2.146448   3.403752   3.865670   5.437533   7.186633
                   16         17         18         19         20
    16  H    0.000000
    17  H    2.503498   0.000000
    18  H    3.061232   1.757983   0.000000
    19  H    2.595522   2.525615   3.079527   0.000000
    20  H    3.779301   2.509812   2.508976   1.762428   0.000000
    21  H    3.137573   3.079514   2.526414   1.764920   1.762421
    22  H    4.751372   6.536908   6.525670   7.306039   8.272189
    23  C    9.649407  10.873262  11.161580  12.217654  13.097391
    24  H    8.335071   8.898428   8.890468  10.719077  11.155146
    25  H    6.336035   6.535682   6.532164   8.529276   8.810258
    26  F    9.505851  10.468348  10.862285  12.009655  12.805618
    27  F   10.943875  12.192454  12.475828  13.516623  14.414561
    28  F    9.039092  10.477698  10.865609  11.606999  12.631851
    29  S    9.301216  10.509496  10.505475  11.866241  12.612675
    30  O    9.661557  11.130045  11.046369  12.235166  13.077931
    31  O   10.177744  11.122255  11.045133  12.686951  13.278001
    32  H    7.203070   8.895894   8.881726   9.773656  10.733744
                   21         22         23         24         25
    21  H    0.000000
    22  H    7.294512   0.000000
    23  C   12.474872   5.507388   0.000000
    24  H   10.711792   4.970050   3.633708   0.000000
    25  H    8.526133   4.302394   5.510776   2.477745   0.000000
    26  F   12.354994   5.814451   1.326980   3.176991   4.961775
    27  F   13.772684   6.718082   1.320806   4.636029   6.717935
    28  F   11.958495   4.954908   1.326156   4.403475   5.825784
    29  S   11.861583   4.871953   1.866793   2.857722   4.861352
    30  O   12.157524   4.971924   2.643505   4.188142   5.957770
    31  O   12.618218   5.970192   2.643722   2.570091   4.954378
    32  H    9.759306   2.479877   3.614741   4.290761   4.950624
                   26         27         28         29         30
    26  F    0.000000
    27  F    2.161151   0.000000
    28  F    2.159069   2.161088   0.000000
    29  S    2.633606   2.615867   2.633470   0.000000
    30  O    3.774796   3.037980   2.959634   1.446834   0.000000
    31  O    2.960060   3.036628   3.774791   1.447483   2.542012
    32  H    4.377459   4.624947   3.151551   2.856671   2.584760
                   31         32
    31  O    0.000000
    32  H    4.190366   0.000000
 Stoichiometry    C11H12F3NO4S
 Framework group  C1[X(C11H12F3NO4S)]
 Deg. of freedom    90
 Full point group                 C1      NOp   1
 Largest Abelian subgroup         C1      NOp   1
 Largest concise Abelian subgroup C1      NOp   1
                         Standard orientation:                         
 ---------------------------------------------------------------------
 Center     Atomic      Atomic             Coordinates (Angstroms)
 Number     Number       Type             X           Y           Z
 ---------------------------------------------------------------------
      1          6           0        0.944402    0.542741   -0.138276
      2          7           0        2.308525    0.727244    0.079844
      3          6           0        3.326232   -0.174716   -0.135702
      4          8           0        3.209591   -1.296819   -0.551030
      5          8           0        4.490034    0.403352    0.195942
      6          6           0        5.657615   -0.417523    0.025523
      7          6           0        6.860112    0.401716    0.440803
      8          6           0        8.146958   -0.404596    0.287501
      9          6           0        0.400891   -0.649951   -0.634905
     10          6           0       -0.969016   -0.745557   -0.823929
     11          6           0       -1.787063    0.337155   -0.520681
     12          6           0       -1.262098    1.529315   -0.028221
     13          6           0        0.102331    1.625929    0.159572
     14          1           0        2.603509    1.625395    0.434257
     15          1           0        5.718960   -0.727725   -1.020333
     16          1           0        5.547081   -1.316365    0.636863
     17          1           0        6.732166    0.722027    1.478312
     18          1           0        6.902281    1.307067   -0.170716
     19          1           0        8.128378   -1.303808    0.907943
     20          1           0        9.015149    0.184607    0.584819
     21          1           0        8.298042   -0.718039   -0.748266
     22          1           0        1.044759   -1.482529   -0.872115
     23          6           0       -4.061094   -0.474717    0.929526
     24          1           0       -1.917759    2.364493    0.188691
     25          1           0        0.528514    2.550045    0.535873
     26          9           0       -3.722478    0.377755    1.888435
     27          9           0       -5.371805   -0.637707    0.929722
     28          9           0       -3.471001   -1.639537    1.161201
     29         16           0       -3.528662    0.190772   -0.731365
     30          8           0       -3.823280   -0.866634   -1.673927
     31          8           0       -4.122039    1.508200   -0.817927
     32          1           0       -1.404666   -1.656404   -1.218346
 ---------------------------------------------------------------------
 Rotational constants (GHZ):           1.0384961           0.0959844           0.0953208
 Standard basis: Aug-CC-pVTZ (5D, 7F)
 There are  1404 symmetry adapted cartesian basis functions of A   symmetry.
 There are  1200 symmetry adapted basis functions of A   symmetry.
  1200 basis functions,  1806 primitive gaussians,  1404 cartesian basis functions
    80 alpha electrons       80 beta electrons
       nuclear repulsion energy      1753.0805340990 Hartrees.
 NAtoms=   32 NActive=   32 NUniq=   32 SFac= 1.00D+00 NAtFMM=   60 NAOKFM=F Big=F
 Integral buffers will be    131072 words long.
 Regular integral format.
 Two-electron integral symmetry is turned on.
 Nuclear repulsion after empirical dispersion term =     1753.0548973685 Hartrees.
 One-electron integrals computed using PRISM.
 NBasis=  1200 RedAO= T EigKep=  1.26D-06  NBF=  1200
 NBsUse=  1196 1.00D-06 EigRej=  8.14D-07 NBFU=  1196
 ExpMin= 2.53D-02 ExpMax= 3.74D+05 ExpMxC= 1.18D+03 IAcc=3 IRadAn=         5 AccDes= 0.00D+00
 Harris functional with IExCor= 1004 and IRadAn=       5 diagonalized for initial guess.
 HarFok:  IExCor= 1004 AccDes= 0.00D+00 IRadAn=         5 IDoV= 1 UseB2=F ITyADJ=14
 ICtDFT=  3500011 ScaDFX=  1.000000  1.000000  1.000000  1.000000
 FoFCou: FMM=F IPFlag=           0 FMFlag=      100000 FMFlg1=           0
         NFxFlg=           0 DoJE=T BraDBF=F KetDBF=T FulRan=T
         wScrn=  0.000000 ICntrl=       500 IOpCl=  0 I1Cent=   200000004 NGrid=           0
         NMat0=    1 NMatS0=      1 NMatT0=    0 NMatD0=    1 NMtDS0=    0 NMtDT0=    0
 Petite list used in FoFCou.
 Requested convergence on RMS density matrix=1.00D-08 within 128 cycles.
 Requested convergence on MAX density matrix=1.00D-06.
 Requested convergence on             energy=1.00D-06.
 No special actions if energy rises.
 SCF Done:  E(RDSDPBEP86) =  -1476.22164005     A.U. after   14 cycles
            NFock= 14  Conv=0.39D-08     -V/T= 2.0028
 DoSCS=T DFT=T ScalE2(SS,OS)=  0.220000  0.520000
 ExpMin= 2.53D-02 ExpMax= 3.74D+05 ExpMxC= 1.18D+03 IAcc=3 IRadAn=         5 AccDes= 0.00D+00
 HarFok:  IExCor=  205 AccDes= 0.00D+00 IRadAn=         5 IDoV=-2 UseB2=F ITyADJ=14
 ICtDFT= 12500011 ScaDFX=  1.000000  1.000000  1.000000  1.000000
 GSVD:  LWork=        -768 too small for GESVD, short by        3240 words or        3240 for optimal perf.
 Range of M.O.s used for correlation:    25  1196
 NBasis=  1200 NAE=    80 NBE=    80 NFC=    24 NFV=     0
 NROrb=   1172 NOA=    56 NOB=    56 NVA=  1116 NVB=  1116

 **** Warning!!: The largest alpha MO coefficient is  0.90758211D+02

 DoSCS=T DFT=T ScalE2(SS,OS)=  0.220000  0.520000
 Fully direct method using O(OVN) memory.
 JobTyp=1 Pass  1:  I=   1 to  56 NPSUse=  6 ParTrn=T ParDer=T DoDerP=F.
 Spin components of T(2) and E(2):
     alpha-alpha T2 =       0.1984111960D+00 E2=     -0.1275552029D+00
     alpha-beta  T2 =       0.1016313646D+01 E2=     -0.1693089396D+01
     beta-beta   T2 =       0.1984111960D+00 E2=     -0.1275552029D+00
 E2(DSDPBEP86) =    -0.1948199802D+01 E(DSDPBEP86) =    -0.14781698398529D+04

 **********************************************************************

            Population analysis using the SCF Density.

 **********************************************************************

 Orbital symmetries:
       Occupied  (A) (A) (A) (A) (A) (A) (A) (A) (A) (A) (A) (A)
                 (A) (A) (A) (A) (A) (A) (A) (A) (A) (A) (A) (A)
                 (A) (A) (A) (A) (A) (A) (A) (A) (A) (A) (A) (A)
                 (A) (A) (A) (A) (A) (A) (A) (A) (A) (A) (A) (A)
                 (A) (A) (A) (A) (A) (A) (A) (A) (A) (A) (A) (A)
                 (A) (A) (A) (A) (A) (A) (A) (A) (A) (A) (A) (A)
                 (A) (A) (A) (A) (A) (A) (A) (A)
       Virtual   (A) (A) (A) (A) (A) (A) (A) (A) (A) (A) (A) (A)
                 (A) (A) (A) (A) (A) (A) (A) (A) (A) (A) (A) (A)
                 (A) (A) (A) (A) (A) (A) (A) (A) (A) (A) (A) (A)
                 (A) (A) (A) (A) (A) (A) (A) (A) (A) (A) (A) (A)
                 (A) (A) (A) (A) (A) (A) (A) (A) (A) (A) (A) (A)
                 (A) (A) (A) (A) (A) (A) (A) (A) (A) (A) (A) (A)
                 (A) (A) (A) (A) (A) (A) (A) (A) (A) (A) (A) (A)
                 (A) (A) (A) (A) (A) (A) (A) (A) (A) (A) (A) (A)
                 (A) (A) (A) (A) (A) (A) (A) (A) (A) (A) (A) (A)
                 (A) (A) (A) (A) (A) (A) (A) (A) (A) (A) (A) (A)
                 (A) (A) (A) (A) (A) (A) (A) (A) (A) (A) (A) (A)
                 (A) (A) (A) (A) (A) (A) (A) (A) (A) (A) (A) (A)
                 (A) (A) (A) (A) (A) (A) (A) (A) (A) (A) (A) (A)
                 (A) (A) (A) (A) (A) (A) (A) (A) (A) (A) (A) (A)
                 (A) (A) (A) (A) (A) (A) (A) (A) (A) (A) (A) (A)
                 (A) (A) (A) (A) (A) (A) (A) (A) (A) (A) (A) (A)
                 (A) (A) (A) (A) (A) (A) (A) (A) (A) (A) (A) (A)
                 (A) (A) (A) (A) (A) (A) (A) (A) (A) (A) (A) (A)
                 (A) (A) (A) (A) (A) (A) (A) (A) (A) (A) (A) (A)
                 (A) (A) (A) (A) (A) (A) (A) (A) (A) (A) (A) (A)
                 (A) (A) (A) (A) (A) (A) (A) (A) (A) (A) (A) (A)
                 (A) (A) (A) (A) (A) (A) (A) (A) (A) (A) (A) (A)
                 (A) (A) (A) (A) (A) (A) (A) (A) (A) (A) (A) (A)
                 (A) (A) (A) (A) (A) (A) (A) (A) (A) (A) (A) (A)
                 (A) (A) (A) (A) (A) (A) (A) (A) (A) (A) (A) (A)
                 (A) (A) (A) (A) (A) (A) (A) (A) (A) (A) (A) (A)
                 (A) (A) (A) (A) (A) (A) (A) (A) (A) (A) (A) (A)
                 (A) (A) (A) (A) (A) (A) (A) (A) (A) (A) (A) (A)
                 (A) (A) (A) (A) (A) (A) (A) (A) (A) (A) (A) (A)
                 (A) (A) (A) (A) (A) (A) (A) (A) (A) (A) (A) (A)
                 (A) (A) (A) (A) (A) (A) (A) (A) (A) (A) (A) (A)
                 (A) (A) (A) (A) (A) (A) (A) (A) (A) (A) (A) (A)
                 (A) (A) (A) (A) (A) (A) (A) (A) (A) (A) (A) (A)
                 (A) (A) (A) (A) (A) (A) (A) (A) (A) (A) (A) (A)
                 (A) (A) (A) (A) (A) (A) (A) (A) (A) (A) (A) (A)
                 (A) (A) (A) (A) (A) (A) (A) (A) (A) (A) (A) (A)
                 (A) (A) (A) (A) (A) (A) (A) (A) (A) (A) (A) (A)
                 (A) (A) (A) (A) (A) (A) (A) (A) (A) (A) (A) (A)
                 (A) (A) (A) (A) (A) (A) (A) (A) (A) (A) (A) (A)
                 (A) (A) (A) (A) (A) (A) (A) (A) (A) (A) (A) (A)
                 (A) (A) (A) (A) (A) (A) (A) (A) (A) (A) (A) (A)
                 (A) (A) (A) (A) (A) (A) (A) (A) (A) (A) (A) (A)
                 (A) (A) (A) (A) (A) (A) (A) (A) (A) (A) (A) (A)
                 (A) (A) (A) (A) (A) (A) (A) (A) (A) (A) (A) (A)
                 (A) (A) (A) (A) (A) (A) (A) (A) (A) (A) (A) (A)
                 (A) (A) (A) (A) (A) (A) (A) (A) (A) (A) (A) (A)
                 (A) (A) (A) (A) (A) (A) (A) (A) (A) (A) (A) (A)
                 (A) (A) (A) (A) (A) (A) (A) (A) (A) (A) (A) (A)
                 (A) (A) (A) (A) (A) (A) (A) (A) (A) (A) (A) (A)
                 (A) (A) (A) (A) (A) (A) (A) (A) (A) (A) (A) (A)
                 (A) (A) (A) (A) (A) (A) (A) (A) (A) (A) (A) (A)
                 (A) (A) (A) (A) (A) (A) (A) (A) (A) (A) (A) (A)
                 (A) (A) (A) (A) (A) (A) (A) (A) (A) (A) (A) (A)
                 (A) (A) (A) (A) (A) (A) (A) (A) (A) (A) (A) (A)
                 (A) (A) (A) (A) (A) (A) (A) (A) (A) (A) (A) (A)
                 (A) (A) (A) (A) (A) (A) (A) (A) (A) (A) (A) (A)
                 (A) (A) (A) (A) (A) (A) (A) (A) (A) (A) (A) (A)
                 (A) (A) (A) (A) (A) (A) (A) (A) (A) (A) (A) (A)
                 (A) (A) (A) (A) (A) (A) (A) (A) (A) (A) (A) (A)
                 (A) (A) (A) (A) (A) (A) (A) (A) (A) (A) (A) (A)
                 (A) (A) (A) (A) (A) (A) (A) (A) (A) (A) (A) (A)
                 (A) (A) (A) (A) (A) (A) (A) (A) (A) (A) (A) (A)
                 (A) (A) (A) (A) (A) (A) (A) (A) (A) (A) (A) (A)
                 (A) (A) (A) (A) (A) (A) (A) (A) (A) (A) (A) (A)
                 (A) (A) (A) (A) (A) (A) (A) (A) (A) (A) (A) (A)
                 (A) (A) (A) (A) (A) (A) (A) (A) (A) (A) (A) (A)
                 (A) (A) (A) (A) (A) (A) (A) (A) (A) (A) (A) (A)
                 (A) (A) (A) (A) (A) (A) (A) (A) (A) (A) (A) (A)
                 (A) (A) (A) (A) (A) (A) (A) (A) (A) (A) (A) (A)
                 (A) (A) (A) (A) (A) (A) (A) (A) (A) (A) (A) (A)
                 (A) (A) (A) (A) (A) (A) (A) (A) (A) (A) (A) (A)
                 (A) (A) (A) (A) (A) (A) (A) (A) (A) (A) (A) (A)
                 (A) (A) (A) (A) (A) (A) (A) (A) (A) (A) (A) (A)
                 (A) (A) (A) (A) (A) (A) (A) (A) (A) (A) (A) (A)
                 (A) (A) (A) (A) (A) (A) (A) (A) (A) (A) (A) (A)
                 (A) (A) (A) (A) (A) (A) (A) (A) (A) (A) (A) (A)
                 (A) (A) (A) (A) (A) (A) (A) (A) (A) (A) (A) (A)
                 (A) (A) (A) (A) (A) (A) (A) (A) (A) (A) (A) (A)
                 (A) (A) (A) (A) (A) (A) (A) (A) (A) (A) (A) (A)
                 (A) (A) (A) (A) (A) (A) (A) (A) (A) (A) (A) (A)
                 (A) (A) (A) (A) (A) (A) (A) (A) (A) (A) (A) (A)
                 (A) (A) (A) (A) (A) (A) (A) (A) (A) (A) (A) (A)
                 (A) (A) (A) (A) (A) (A) (A) (A) (A) (A) (A) (A)
                 (A) (A) (A) (A) (A) (A) (A) (A) (A) (A) (A) (A)
                 (A) (A) (A) (A) (A) (A) (A) (A) (A) (A) (A) (A)
                 (A) (A) (A) (A) (A) (A) (A) (A) (A) (A) (A) (A)
                 (A) (A) (A) (A) (A) (A) (A) (A) (A) (A) (A) (A)
                 (A) (A) (A) (A) (A) (A) (A) (A) (A) (A) (A) (A)
                 (A) (A) (A) (A) (A) (A) (A) (A) (A) (A) (A) (A)
                 (A) (A) (A) (A) (A) (A) (A) (A) (A) (A) (A) (A)
                 (A) (A) (A) (A) (A) (A) (A) (A) (A) (A) (A) (A)
                 (A) (A) (A) (A) (A) (A) (A) (A) (A) (A) (A) (A)
                 (A) (A) (A) (A) (A) (A) (A) (A) (A) (A) (A) (A)
 The electronic state is 1-A.
 Alpha  occ. eigenvalues --  -91.00269 -25.74015 -25.73990 -25.73839 -20.07195
 Alpha  occ. eigenvalues --  -20.01744 -20.01720 -20.00619 -15.15205 -11.11619
 Alpha  occ. eigenvalues --  -11.00922 -10.91749 -10.89001 -10.87374 -10.86989
 Alpha  occ. eigenvalues --  -10.86717 -10.85694 -10.84673 -10.83257 -10.82210
 Alpha  occ. eigenvalues --   -8.77568  -6.56393  -6.56304  -6.56284  -1.60850
 Alpha  occ. eigenvalues --   -1.51389  -1.51385  -1.36435  -1.34480  -1.26174
 Alpha  occ. eigenvalues --   -1.23776  -1.18011  -1.08124  -0.99253  -0.97072
 Alpha  occ. eigenvalues --   -0.95946  -0.92656  -0.88034  -0.84242  -0.80770
 Alpha  occ. eigenvalues --   -0.79412  -0.76890  -0.76860  -0.75681  -0.74019
 Alpha  occ. eigenvalues --   -0.72328  -0.70530  -0.68072  -0.65465  -0.64679
 Alpha  occ. eigenvalues --   -0.64565  -0.64013  -0.61778  -0.60850  -0.60543
 Alpha  occ. eigenvalues --   -0.59935  -0.59486  -0.58647  -0.58575  -0.58573
 Alpha  occ. eigenvalues --   -0.57689  -0.56724  -0.55849  -0.53465  -0.53374
 Alpha  occ. eigenvalues --   -0.50538  -0.50119  -0.48237  -0.47892  -0.45894
 Alpha  occ. eigenvalues --   -0.45824  -0.45266  -0.45221  -0.43608  -0.43523
 Alpha  occ. eigenvalues --   -0.42574  -0.41814  -0.40563  -0.34989  -0.32070
 Alpha virt. eigenvalues --    0.00543   0.00818   0.01339   0.02327   0.02408
 Alpha virt. eigenvalues --    0.02870   0.03124   0.03413   0.04439   0.04638
 Alpha virt. eigenvalues --    0.04881   0.05157   0.05463   0.05871   0.06488
 Alpha virt. eigenvalues --    0.06748   0.07101   0.07595   0.08225   0.08539
 Alpha virt. eigenvalues --    0.08770   0.09169   0.09652   0.09888   0.09984
 Alpha virt. eigenvalues --    0.10201   0.10358   0.10763   0.10861   0.11039
 Alpha virt. eigenvalues --    0.11374   0.11734   0.11935   0.12331   0.12474
 Alpha virt. eigenvalues --    0.12779   0.12808   0.13375   0.13962   0.14351
 Alpha virt. eigenvalues --    0.14431   0.14590   0.14800   0.15245   0.15587
 Alpha virt. eigenvalues --    0.16195   0.16300   0.16679   0.16792   0.17302
 Alpha virt. eigenvalues --    0.17543   0.17834   0.17970   0.18253   0.18673
 Alpha virt. eigenvalues --    0.18814   0.19262   0.19600   0.19896   0.20265
 Alpha virt. eigenvalues --    0.20616   0.20922   0.21137   0.21495   0.21970
 Alpha virt. eigenvalues --    0.22275   0.22605   0.22834   0.22923   0.23159
 Alpha virt. eigenvalues --    0.23666   0.24359   0.24413   0.24687   0.24780
 Alpha virt. eigenvalues --    0.25077   0.25301   0.25730   0.25908   0.26142
 Alpha virt. eigenvalues --    0.26298   0.26610   0.26837   0.26953   0.27297
 Alpha virt. eigenvalues --    0.27910   0.28073   0.28274   0.28737   0.28865
 Alpha virt. eigenvalues --    0.29145   0.29378   0.29420   0.29678   0.29725
 Alpha virt. eigenvalues --    0.30442   0.30662   0.30893   0.31091   0.31252
 Alpha virt. eigenvalues --    0.31363   0.31851   0.31966   0.32150   0.32225
 Alpha virt. eigenvalues --    0.32716   0.32997   0.33230   0.33381   0.33758
 Alpha virt. eigenvalues --    0.33868   0.34404   0.34485   0.34923   0.35156
 Alpha virt. eigenvalues --    0.35789   0.35804   0.36138   0.36403   0.36577
 Alpha virt. eigenvalues --    0.36687   0.37141   0.37761   0.38116   0.38254
 Alpha virt. eigenvalues --    0.38431   0.39003   0.39277   0.39458   0.39930
 Alpha virt. eigenvalues --    0.40093   0.40212   0.40378   0.41094   0.41209
 Alpha virt. eigenvalues --    0.41664   0.41950   0.42320   0.42352   0.42497
 Alpha virt. eigenvalues --    0.42831   0.43075   0.43669   0.43806   0.43995
 Alpha virt. eigenvalues --    0.44269   0.44427   0.44890   0.45031   0.45459
 Alpha virt. eigenvalues --    0.45666   0.46109   0.46714   0.46905   0.47032
 Alpha virt. eigenvalues --    0.47114   0.47382   0.47744   0.47985   0.48054
 Alpha virt. eigenvalues --    0.48201   0.48527   0.48820   0.49377   0.49403
 Alpha virt. eigenvalues --    0.49612   0.49980   0.50180   0.50806   0.50942
 Alpha virt. eigenvalues --    0.51241   0.51476   0.51857   0.52095   0.52361
 Alpha virt. eigenvalues --    0.52860   0.53177   0.53425   0.53579   0.53784
 Alpha virt. eigenvalues --    0.54275   0.54818   0.55487   0.55991   0.56601
 Alpha virt. eigenvalues --    0.56724   0.57247   0.57636   0.57799   0.58395
 Alpha virt. eigenvalues --    0.58955   0.59063   0.59702   0.59988   0.60489
 Alpha virt. eigenvalues --    0.61167   0.61668   0.61940   0.62750   0.63033
 Alpha virt. eigenvalues --    0.63263   0.63873   0.64081   0.64190   0.64793
 Alpha virt. eigenvalues --    0.64938   0.65693   0.65906   0.66452   0.66780
 Alpha virt. eigenvalues --    0.67260   0.67591   0.67630   0.67992   0.68482
 Alpha virt. eigenvalues --    0.68838   0.69395   0.70222   0.70511   0.70778
 Alpha virt. eigenvalues --    0.71527   0.71870   0.72224   0.73011   0.73746
 Alpha virt. eigenvalues --    0.73807   0.74285   0.74887   0.75097   0.75340
 Alpha virt. eigenvalues --    0.76053   0.76384   0.76629   0.76930   0.77078
 Alpha virt. eigenvalues --    0.77617   0.77888   0.78266   0.78681   0.78960
 Alpha virt. eigenvalues --    0.79688   0.80007   0.80335   0.80982   0.81443
 Alpha virt. eigenvalues --    0.81785   0.82232   0.82424   0.82659   0.83100
 Alpha virt. eigenvalues --    0.83391   0.83949   0.84262   0.84469   0.85186
 Alpha virt. eigenvalues --    0.85328   0.85553   0.85830   0.86073   0.86225
 Alpha virt. eigenvalues --    0.86329   0.87249   0.87444   0.87647   0.87848
 Alpha virt. eigenvalues --    0.88308   0.88585   0.88687   0.89620   0.90012
 Alpha virt. eigenvalues --    0.90306   0.90421   0.90708   0.91144   0.91671
 Alpha virt. eigenvalues --    0.91777   0.91972   0.92870   0.92992   0.93164
 Alpha virt. eigenvalues --    0.93827   0.94164   0.94550   0.95017   0.95398
 Alpha virt. eigenvalues --    0.96064   0.96409   0.96986   0.97119   0.97523
 Alpha virt. eigenvalues --    0.97763   0.98133   0.98615   0.98890   0.99015
 Alpha virt. eigenvalues --    0.99320   0.99670   1.00236   1.00483   1.00981
 Alpha virt. eigenvalues --    1.01261   1.01858   1.02149   1.02602   1.02794
 Alpha virt. eigenvalues --    1.03254   1.03485   1.03869   1.04358   1.04513
 Alpha virt. eigenvalues --    1.04684   1.04902   1.05510   1.05637   1.05838
 Alpha virt. eigenvalues --    1.06168   1.06504   1.06814   1.07347   1.07463
 Alpha virt. eigenvalues --    1.07917   1.08232   1.08654   1.09348   1.09525
 Alpha virt. eigenvalues --    1.09595   1.10316   1.10713   1.10769   1.11032
 Alpha virt. eigenvalues --    1.11737   1.12026   1.12181   1.12488   1.13034
 Alpha virt. eigenvalues --    1.13386   1.13802   1.14364   1.14721   1.15178
 Alpha virt. eigenvalues --    1.15355   1.15937   1.16246   1.16711   1.17019
 Alpha virt. eigenvalues --    1.17644   1.17726   1.18507   1.18745   1.18951
 Alpha virt. eigenvalues --    1.19230   1.19319   1.19670   1.20109   1.20406
 Alpha virt. eigenvalues --    1.20859   1.21170   1.21570   1.21850   1.22408
 Alpha virt. eigenvalues --    1.23021   1.23272   1.23657   1.24073   1.24416
 Alpha virt. eigenvalues --    1.25088   1.25206   1.25859   1.26159   1.26783
 Alpha virt. eigenvalues --    1.27581   1.27934   1.28591   1.28944   1.29094
 Alpha virt. eigenvalues --    1.29721   1.30082   1.30387   1.30920   1.31114
 Alpha virt. eigenvalues --    1.31554   1.32419   1.33001   1.33200   1.33719
 Alpha virt. eigenvalues --    1.33839   1.34265   1.34728   1.35141   1.35521
 Alpha virt. eigenvalues --    1.36266   1.36410   1.36991   1.37782   1.38398
 Alpha virt. eigenvalues --    1.39077   1.39563   1.39818   1.39919   1.40461
 Alpha virt. eigenvalues --    1.41209   1.41454   1.42376   1.42993   1.43365
 Alpha virt. eigenvalues --    1.43564   1.44439   1.44827   1.45109   1.45665
 Alpha virt. eigenvalues --    1.46751   1.47012   1.47796   1.48119   1.48368
 Alpha virt. eigenvalues --    1.48605   1.48947   1.49432   1.50274   1.50572
 Alpha virt. eigenvalues --    1.50973   1.51514   1.52159   1.52381   1.52662
 Alpha virt. eigenvalues --    1.53056   1.53768   1.54064   1.54149   1.54866
 Alpha virt. eigenvalues --    1.55780   1.56438   1.56954   1.57076   1.57690
 Alpha virt. eigenvalues --    1.57792   1.58360   1.58857   1.59189   1.59379
 Alpha virt. eigenvalues --    1.60184   1.60741   1.61181   1.61434   1.61769
 Alpha virt. eigenvalues --    1.62539   1.62812   1.63166   1.63401   1.63819
 Alpha virt. eigenvalues --    1.64397   1.64911   1.65576   1.65748   1.66491
 Alpha virt. eigenvalues --    1.67095   1.67931   1.68449   1.68600   1.69093
 Alpha virt. eigenvalues --    1.69714   1.69896   1.70503   1.71105   1.71979
 Alpha virt. eigenvalues --    1.72322   1.72643   1.73388   1.73502   1.74639
 Alpha virt. eigenvalues --    1.74947   1.75243   1.75703   1.75969   1.76397
 Alpha virt. eigenvalues --    1.76825   1.77316   1.77782   1.79104   1.79248
 Alpha virt. eigenvalues --    1.79605   1.80719   1.81143   1.81503   1.82273
 Alpha virt. eigenvalues --    1.82679   1.83239   1.83405   1.84395   1.84886
 Alpha virt. eigenvalues --    1.85642   1.85939   1.86435   1.86965   1.87435
 Alpha virt. eigenvalues --    1.88039   1.88516   1.88758   1.89504   1.90028
 Alpha virt. eigenvalues --    1.90666   1.91791   1.92517   1.92950   1.93783
 Alpha virt. eigenvalues --    1.94321   1.94851   1.95465   1.96285   1.96516
 Alpha virt. eigenvalues --    1.96768   1.97270   1.97985   1.98398   1.99165
 Alpha virt. eigenvalues --    2.00134   2.00675   2.01790   2.02059   2.02684
 Alpha virt. eigenvalues --    2.03062   2.03369   2.04580   2.06209   2.06435
 Alpha virt. eigenvalues --    2.07193   2.08538   2.08898   2.09618   2.10018
 Alpha virt. eigenvalues --    2.10655   2.10966   2.11191   2.12495   2.12961
 Alpha virt. eigenvalues --    2.13477   2.14730   2.15088   2.15615   2.15995
 Alpha virt. eigenvalues --    2.16789   2.17646   2.18843   2.19549   2.19860
 Alpha virt. eigenvalues --    2.20346   2.21044   2.21227   2.22230   2.22938
 Alpha virt. eigenvalues --    2.23662   2.24288   2.24721   2.25470   2.25967
 Alpha virt. eigenvalues --    2.26571   2.27416   2.28602   2.29330   2.30422
 Alpha virt. eigenvalues --    2.30600   2.30846   2.32043   2.32418   2.32664
 Alpha virt. eigenvalues --    2.32798   2.33741   2.33977   2.34932   2.35170
 Alpha virt. eigenvalues --    2.36231   2.36286   2.37025   2.37759   2.38064
 Alpha virt. eigenvalues --    2.40101   2.40264   2.41532   2.42278   2.42855
 Alpha virt. eigenvalues --    2.43541   2.44218   2.44811   2.45311   2.45801
 Alpha virt. eigenvalues --    2.46920   2.47734   2.48123   2.48456   2.48833
 Alpha virt. eigenvalues --    2.49919   2.50361   2.51410   2.53261   2.53942
 Alpha virt. eigenvalues --    2.54085   2.55101   2.55689   2.56616   2.57084
 Alpha virt. eigenvalues --    2.58247   2.58305   2.59877   2.60995   2.61613
 Alpha virt. eigenvalues --    2.62382   2.62696   2.63341   2.63939   2.64473
 Alpha virt. eigenvalues --    2.65508   2.67169   2.67772   2.68530   2.69256
 Alpha virt. eigenvalues --    2.69629   2.71271   2.71806   2.72368   2.73093
 Alpha virt. eigenvalues --    2.73947   2.74866   2.75713   2.76442   2.76938
 Alpha virt. eigenvalues --    2.78024   2.78558   2.79972   2.80532   2.81594
 Alpha virt. eigenvalues --    2.82369   2.83198   2.84046   2.84544   2.84865
 Alpha virt. eigenvalues --    2.85245   2.85788   2.86908   2.88065   2.88675
 Alpha virt. eigenvalues --    2.90668   2.91152   2.93813   2.94518   2.95162
 Alpha virt. eigenvalues --    2.95677   2.96289   2.97121   2.97746   2.98731
 Alpha virt. eigenvalues --    2.99566   2.99994   3.00934   3.03053   3.03602
 Alpha virt. eigenvalues --    3.04304   3.05559   3.05910   3.06654   3.07367
 Alpha virt. eigenvalues --    3.09231   3.10063   3.11308   3.11732   3.12595
 Alpha virt. eigenvalues --    3.12867   3.14050   3.14723   3.15339   3.15935
 Alpha virt. eigenvalues --    3.16546   3.17123   3.18247   3.18946   3.19394
 Alpha virt. eigenvalues --    3.20212   3.23340   3.23694   3.24584   3.25091
 Alpha virt. eigenvalues --    3.25943   3.26562   3.27081   3.27264   3.28178
 Alpha virt. eigenvalues --    3.29873   3.30113   3.30734   3.31510   3.31903
 Alpha virt. eigenvalues --    3.32587   3.32938   3.33239   3.33605   3.34105
 Alpha virt. eigenvalues --    3.35019   3.35463   3.36069   3.37004   3.37149
 Alpha virt. eigenvalues --    3.37680   3.39284   3.39391   3.39595   3.41338
 Alpha virt. eigenvalues --    3.41524   3.42268   3.42699   3.43135   3.44645
 Alpha virt. eigenvalues --    3.45689   3.46329   3.46827   3.48040   3.48466
 Alpha virt. eigenvalues --    3.49066   3.49929   3.50227   3.50771   3.51445
 Alpha virt. eigenvalues --    3.51828   3.53263   3.54566   3.54902   3.55439
 Alpha virt. eigenvalues --    3.56446   3.56855   3.56957   3.58233   3.59094
 Alpha virt. eigenvalues --    3.59749   3.60062   3.60577   3.60909   3.61758
 Alpha virt. eigenvalues --    3.62771   3.63639   3.64106   3.65144   3.65662
 Alpha virt. eigenvalues --    3.66843   3.67129   3.67885   3.68217   3.69189
 Alpha virt. eigenvalues --    3.70142   3.70474   3.71018   3.72304   3.72861
 Alpha virt. eigenvalues --    3.73624   3.73887   3.74702   3.75171   3.75482
 Alpha virt. eigenvalues --    3.76166   3.76926   3.77170   3.77502   3.78257
 Alpha virt. eigenvalues --    3.78487   3.79101   3.79785   3.80382   3.81313
 Alpha virt. eigenvalues --    3.81525   3.82506   3.82755   3.83217   3.84014
 Alpha virt. eigenvalues --    3.84345   3.85182   3.85678   3.86000   3.87361
 Alpha virt. eigenvalues --    3.87616   3.88695   3.89008   3.89134   3.89857
 Alpha virt. eigenvalues --    3.90579   3.91885   3.92490   3.93549   3.94309
 Alpha virt. eigenvalues --    3.95148   3.97228   3.98080   3.98397   3.99482
 Alpha virt. eigenvalues --    3.99779   4.00912   4.01553   4.02552   4.03382
 Alpha virt. eigenvalues --    4.04384   4.05025   4.05546   4.05902   4.06680
 Alpha virt. eigenvalues --    4.07836   4.08501   4.09541   4.09663   4.10820
 Alpha virt. eigenvalues --    4.11017   4.11278   4.11733   4.13188   4.13516
 Alpha virt. eigenvalues --    4.14220   4.14819   4.16437   4.16565   4.16891
 Alpha virt. eigenvalues --    4.17611   4.18129   4.18310   4.19169   4.19724
 Alpha virt. eigenvalues --    4.21116   4.22621   4.23711   4.24408   4.24827
 Alpha virt. eigenvalues --    4.25596   4.25845   4.26774   4.28128   4.28567
 Alpha virt. eigenvalues --    4.30167   4.30250   4.31052   4.32375   4.32841
 Alpha virt. eigenvalues --    4.34158   4.34869   4.35830   4.36447   4.37695
 Alpha virt. eigenvalues --    4.38195   4.38776   4.40428   4.42290   4.43225
 Alpha virt. eigenvalues --    4.43407   4.43544   4.44041   4.46259   4.46293
 Alpha virt. eigenvalues --    4.46729   4.48070   4.49507   4.51142   4.51945
 Alpha virt. eigenvalues --    4.52302   4.52785   4.53348   4.53984   4.56216
 Alpha virt. eigenvalues --    4.56591   4.57189   4.57584   4.58682   4.59669
 Alpha virt. eigenvalues --    4.60827   4.62238   4.63548   4.64739   4.65389
 Alpha virt. eigenvalues --    4.66071   4.68085   4.68730   4.68998   4.70425
 Alpha virt. eigenvalues --    4.71085   4.71889   4.73203   4.73750   4.75211
 Alpha virt. eigenvalues --    4.75497   4.76524   4.77036   4.78484   4.79091
 Alpha virt. eigenvalues --    4.79738   4.80713   4.81651   4.83058   4.83636
 Alpha virt. eigenvalues --    4.85092   4.86257   4.86498   4.87018   4.88570
 Alpha virt. eigenvalues --    4.88802   4.89945   4.90474   4.91586   4.92176
 Alpha virt. eigenvalues --    4.94242   4.94687   4.94961   4.95523   4.96671
 Alpha virt. eigenvalues --    4.97051   4.99483   4.99815   5.00703   5.01832
 Alpha virt. eigenvalues --    5.02601   5.03299   5.04842   5.08242   5.08825
 Alpha virt. eigenvalues --    5.09291   5.09658   5.10087   5.10808   5.11818
 Alpha virt. eigenvalues --    5.12851   5.14108   5.15797   5.17137   5.18299
 Alpha virt. eigenvalues --    5.19191   5.19983   5.22665   5.22773   5.23500
 Alpha virt. eigenvalues --    5.24423   5.27252   5.28010   5.28548   5.32959
 Alpha virt. eigenvalues --    5.35978   5.37307   5.37731   5.37946   5.39388
 Alpha virt. eigenvalues --    5.39981   5.43256   5.44368   5.45160   5.45413
 Alpha virt. eigenvalues --    5.46222   5.49293   5.51217   5.53493   5.54959
 Alpha virt. eigenvalues --    5.55123   5.55907   5.56476   5.58469   5.59903
 Alpha virt. eigenvalues --    5.60698   5.63210   5.64345   5.65883   5.67543
 Alpha virt. eigenvalues --    5.69317   5.70376   5.72832   5.73023   5.73264
 Alpha virt. eigenvalues --    5.75150   5.76663   5.78305   5.78477   5.84248
 Alpha virt. eigenvalues --    5.84937   5.86040   5.87288   5.88309   5.91592
 Alpha virt. eigenvalues --    5.91924   5.94989   5.95393   5.98176   6.00569
 Alpha virt. eigenvalues --    6.02688   6.06136   6.07683   6.09868   6.12514
 Alpha virt. eigenvalues --    6.16397   6.19088   6.22168   6.22891   6.28031
 Alpha virt. eigenvalues --    6.30027   6.32182   6.33991   6.40130   6.43058
 Alpha virt. eigenvalues --    6.45323   6.50526   6.53051   6.56563   6.56795
 Alpha virt. eigenvalues --    6.56896   6.57245   6.60453   6.62314   6.63361
 Alpha virt. eigenvalues --    6.64384   6.67127   6.68997   6.71752   6.72578
 Alpha virt. eigenvalues --    6.74042   6.74458   6.75515   6.75973   6.77325
 Alpha virt. eigenvalues --    6.77721   6.77940   6.79357   6.82655   6.82846
 Alpha virt. eigenvalues --    6.83080   6.85229   6.88033   6.88821   6.89208
 Alpha virt. eigenvalues --    6.92248   6.97982   6.99553   6.99744   7.06019
 Alpha virt. eigenvalues --    7.07313   7.10245   7.10387   7.13328   7.13800
 Alpha virt. eigenvalues --    7.15794   7.16802   7.19151   7.21266   7.22188
 Alpha virt. eigenvalues --    7.26740   7.34819   7.37475   7.40819   7.45518
 Alpha virt. eigenvalues --    7.46805   7.50282   7.50398   7.51185   7.56447
 Alpha virt. eigenvalues --    7.58186   7.59618   7.62269   7.70050   7.71731
 Alpha virt. eigenvalues --    7.81013   7.89946   8.06396   8.19903   8.43101
 Alpha virt. eigenvalues --    8.71408   8.71872   8.74817   8.76088   8.77274
 Alpha virt. eigenvalues --    8.77808   8.89292   8.91085   9.04069   9.06815
 Alpha virt. eigenvalues --    9.07294   9.09833   9.11259   9.11978   9.13546
 Alpha virt. eigenvalues --    9.19096   9.19786   9.21833   9.22427   9.25351
 Alpha virt. eigenvalues --    9.26024   9.27607   9.28564   9.31408   9.33503
 Alpha virt. eigenvalues --    9.34566   9.38704   9.43707   9.44793   9.47885
 Alpha virt. eigenvalues --    9.48086   9.55322   9.68209   9.71626   9.89117
 Alpha virt. eigenvalues --    9.90995  12.67836  13.04738  13.71707  15.26763
 Alpha virt. eigenvalues --   15.55347  15.62471  15.63471  16.03090  16.23129
 Alpha virt. eigenvalues --   16.67961  17.34401  17.55946  17.67888  18.02996
 Alpha virt. eigenvalues --   18.62764  19.21984  19.55393  20.17073  20.58368
 Alpha virt. eigenvalues --   21.18097
          Condensed to atoms (all electrons):
               1          2          3          4          5          6
     1  C    7.931333  -0.131921  -0.910807   0.124373  -0.010372  -0.053564
     2  N   -0.131921   7.981365   0.417518  -0.184833  -0.392150  -0.107694
     3  C   -0.910807   0.417518   5.850430   0.312937   0.286132  -0.069504
     4  O    0.124373  -0.184833   0.312937   8.808541  -0.083054  -0.006899
     5  O   -0.010372  -0.392150   0.286132  -0.083054   8.642719   0.226889
     6  C   -0.053564  -0.107694  -0.069504  -0.006899   0.226889   5.564905
     7  C   -0.027473  -0.021240   0.046848  -0.016456  -0.116615   0.076037
     8  C   -0.001183  -0.002212   0.000196  -0.006423   0.002219  -0.031709
     9  C   -0.448734  -0.474993  -0.020347  -0.136774  -0.013144  -0.025601
    10  C    0.165317   0.060363  -0.099102   0.050125  -0.027424  -0.015770
    11  C   -0.095027  -0.034278  -0.084967   0.008836   0.007402  -0.006660
    12  C   -0.303074   0.232976   0.133905  -0.010742   0.019894   0.003010
    13  C   -0.531322  -0.506053  -0.121364   0.005285  -0.081158  -0.025690
    14  H   -0.018391   0.293036  -0.135410   0.023294   0.080867  -0.004347
    15  H   -0.013652   0.009107  -0.014390  -0.008021  -0.039549   0.314422
    16  H   -0.012460   0.007162  -0.007351  -0.008466  -0.032952   0.301704
    17  H   -0.002913  -0.010464  -0.000770   0.005277  -0.032628   0.048458
    18  H   -0.002845  -0.009099   0.003646   0.005124  -0.031165   0.043059
    19  H    0.000519  -0.000314   0.003793  -0.000033   0.000674  -0.003731
    20  H   -0.000049  -0.000388   0.001639  -0.000405   0.000157  -0.006921
    21  H    0.000579  -0.000285   0.003803  -0.000019   0.000445  -0.004868
    22  H   -0.276128   0.069545   0.111914  -0.108043   0.019039   0.006364
    23  C    0.007835   0.002696  -0.002440   0.000076   0.000090  -0.000102
    24  H   -0.008360   0.008445   0.005080   0.000060   0.000559   0.000166
    25  H   -0.180196  -0.031569  -0.063884   0.003033  -0.027122  -0.004387
    26  F   -0.005477  -0.004073  -0.000734   0.000008  -0.000038  -0.000020
    27  F    0.001824   0.000084   0.000118  -0.000000   0.000000   0.000001
    28  F   -0.006889  -0.000064   0.000684  -0.000026   0.000003  -0.000010
    29  S   -0.138071  -0.023485  -0.021099   0.000804  -0.000325  -0.000725
    30  O    0.018524  -0.000872  -0.000166   0.000167  -0.000036   0.000000
    31  O    0.020197   0.004477   0.001275  -0.000053   0.000044   0.000019
    32  H    0.013857  -0.033080  -0.026408  -0.000692  -0.001373  -0.000965
               7          8          9         10         11         12
     1  C   -0.027473  -0.001183  -0.448734   0.165317  -0.095027  -0.303074
     2  N   -0.021240  -0.002212  -0.474993   0.060363  -0.034278   0.232976
     3  C    0.046848   0.000196  -0.020347  -0.099102  -0.084967   0.133905
     4  O   -0.016456  -0.006423  -0.136774   0.050125   0.008836  -0.010742
     5  O   -0.116615   0.002219  -0.013144  -0.027424   0.007402   0.019894
     6  C    0.076037  -0.031709  -0.025601  -0.015770  -0.006660   0.003010
     7  C    5.522838   0.115775  -0.003029   0.000715  -0.001222   0.001064
     8  C    0.115775   5.797712  -0.000908  -0.000057  -0.000059   0.000018
     9  C   -0.003029  -0.000908   8.600857  -0.654608   0.038926  -0.111712
    10  C    0.000715  -0.000057  -0.654608   9.083359  -0.921173   0.105569
    11  C   -0.001222  -0.000059   0.038926  -0.921173   7.430884  -0.945477
    12  C    0.001064   0.000018  -0.111712   0.105569  -0.945477   9.039910
    13  C    0.003401  -0.000064   0.013119  -0.229827   0.063938  -0.785697
    14  H    0.002353   0.000095  -0.002981   0.001081   0.002977  -0.044782
    15  H    0.015395  -0.001432   0.001229  -0.001189  -0.000573   0.000621
    16  H    0.013283  -0.003749   0.002771  -0.000314  -0.001045   0.000707
    17  H    0.408582  -0.039532   0.000048  -0.000172  -0.000019   0.000096
    18  H    0.405687  -0.041237   0.000174  -0.000020  -0.000114   0.000113
    19  H    0.036028   0.362252  -0.000075   0.000048   0.000021  -0.000022
    20  H   -0.029350   0.449219  -0.000056  -0.000017  -0.000015   0.000022
    21  H    0.037274   0.363062   0.000041   0.000049   0.000022  -0.000030
    22  H    0.001345   0.000141   0.200440  -0.717686  -0.064863   0.079497
    23  C    0.000001  -0.000000  -0.013138  -0.022254   0.092451  -0.034090
    24  H    0.000000  -0.000001  -0.005407   0.027090  -0.268985   0.526944
    25  H   -0.000042  -0.000007  -0.022693   0.069374   0.061182  -0.823249
    26  F   -0.000000  -0.000000   0.003142  -0.003103  -0.054751  -0.014451
    27  F    0.000000   0.000000  -0.001392  -0.001413   0.010373  -0.004403
    28  F   -0.000000  -0.000000   0.022740  -0.022095  -0.051058   0.008500
    29  S   -0.000029  -0.000001   0.073339  -0.482575   0.071993  -0.474527
    30  O    0.000000  -0.000000  -0.041157  -0.030728   0.099345  -0.022434
    31  O    0.000000   0.000000  -0.006481  -0.016503   0.113304  -0.002096
    32  H   -0.000060   0.000001  -0.421346   0.337139  -0.179748   0.019201
              13         14         15         16         17         18
     1  C   -0.531322  -0.018391  -0.013652  -0.012460  -0.002913  -0.002845
     2  N   -0.506053   0.293036   0.009107   0.007162  -0.010464  -0.009099
     3  C   -0.121364  -0.135410  -0.014390  -0.007351  -0.000770   0.003646
     4  O    0.005285   0.023294  -0.008021  -0.008466   0.005277   0.005124
     5  O   -0.081158   0.080867  -0.039549  -0.032952  -0.032628  -0.031165
     6  C   -0.025690  -0.004347   0.314422   0.301704   0.048458   0.043059
     7  C    0.003401   0.002353   0.015395   0.013283   0.408582   0.405687
     8  C   -0.000064   0.000095  -0.001432  -0.003749  -0.039532  -0.041237
     9  C    0.013119  -0.002981   0.001229   0.002771   0.000048   0.000174
    10  C   -0.229827   0.001081  -0.001189  -0.000314  -0.000172  -0.000020
    11  C    0.063938   0.002977  -0.000573  -0.001045  -0.000019  -0.000114
    12  C   -0.785697  -0.044782   0.000621   0.000707   0.000096   0.000113
    13  C    8.768640   0.044871   0.000885   0.000879  -0.000017   0.000269
    14  H    0.044871   0.810221  -0.002189  -0.002573  -0.000544  -0.000751
    15  H    0.000885  -0.002189   0.409335   0.010427   0.017891  -0.018552
    16  H    0.000879  -0.002573   0.010427   0.413542  -0.018536   0.018542
    17  H   -0.000017  -0.000544   0.017891  -0.018536   0.405000   0.007750
    18  H    0.000269  -0.000751  -0.018552   0.018542   0.007750   0.406623
    19  H   -0.000012   0.000139  -0.007493  -0.008932   0.000710   0.000501
    20  H   -0.000021  -0.000002   0.000243   0.000196  -0.002010  -0.001961
    21  H   -0.000026   0.000126  -0.009363  -0.007553   0.000302   0.000957
    22  H   -0.087522  -0.023374  -0.000187   0.000476  -0.000074  -0.000020
    23  C   -0.021880  -0.000121  -0.000017  -0.000014   0.000000  -0.000001
    24  H   -0.524389  -0.006151   0.000000   0.000006  -0.000003   0.000002
    25  H    0.471263   0.006092  -0.000094  -0.000011  -0.000003   0.000023
    26  F    0.027260   0.000114  -0.000002   0.000001  -0.000000   0.000000
    27  F   -0.001186  -0.000000   0.000000   0.000000  -0.000000   0.000000
    28  F    0.002705  -0.000032   0.000002   0.000004  -0.000000  -0.000000
    29  S    0.195858  -0.000668  -0.000052  -0.000044  -0.000007  -0.000012
    30  O   -0.009805   0.000145  -0.000004  -0.000005   0.000000   0.000001
    31  O   -0.070402  -0.000140   0.000004   0.000002   0.000000   0.000000
    32  H    0.043476   0.001674  -0.000042  -0.000029  -0.000002   0.000002
              19         20         21         22         23         24
     1  C    0.000519  -0.000049   0.000579  -0.276128   0.007835  -0.008360
     2  N   -0.000314  -0.000388  -0.000285   0.069545   0.002696   0.008445
     3  C    0.003793   0.001639   0.003803   0.111914  -0.002440   0.005080
     4  O   -0.000033  -0.000405  -0.000019  -0.108043   0.000076   0.000060
     5  O    0.000674   0.000157   0.000445   0.019039   0.000090   0.000559
     6  C   -0.003731  -0.006921  -0.004868   0.006364  -0.000102   0.000166
     7  C    0.036028  -0.029350   0.037274   0.001345   0.000001   0.000000
     8  C    0.362252   0.449219   0.363062   0.000141  -0.000000  -0.000001
     9  C   -0.000075  -0.000056   0.000041   0.200440  -0.013138  -0.005407
    10  C    0.000048  -0.000017   0.000049  -0.717686  -0.022254   0.027090
    11  C    0.000021  -0.000015   0.000022  -0.064863   0.092451  -0.268985
    12  C   -0.000022   0.000022  -0.000030   0.079497  -0.034090   0.526944
    13  C   -0.000012  -0.000021  -0.000026  -0.087522  -0.021880  -0.524389
    14  H    0.000139  -0.000002   0.000126  -0.023374  -0.000121  -0.006151
    15  H   -0.007493   0.000243  -0.009363  -0.000187  -0.000017   0.000000
    16  H   -0.008932   0.000196  -0.007553   0.000476  -0.000014   0.000006
    17  H    0.000710  -0.002010   0.000302  -0.000074   0.000000  -0.000003
    18  H    0.000501  -0.001961   0.000957  -0.000020  -0.000001   0.000002
    19  H    0.314577   0.000121   0.021972   0.000019  -0.000000   0.000000
    20  H    0.000121   0.302657   0.000367   0.000024  -0.000000   0.000000
    21  H    0.021972   0.000367   0.314086   0.000035   0.000000   0.000000
    22  H    0.000019   0.000024   0.000035   1.483835  -0.000329   0.015933
    23  C   -0.000000  -0.000000   0.000000  -0.000329   4.311461  -0.013759
    24  H    0.000000   0.000000   0.000000   0.015933  -0.013759   1.172325
    25  H   -0.000006  -0.000003  -0.000003  -0.056732   0.001155  -0.260419
    26  F    0.000000  -0.000000  -0.000000  -0.001080   0.166831  -0.009088
    27  F    0.000000   0.000000  -0.000000  -0.000076   0.167722  -0.002287
    28  F   -0.000000   0.000000   0.000000   0.001654   0.168739   0.007053
    29  S    0.000001  -0.000001   0.000001  -0.018056   0.160071  -0.074261
    30  O    0.000000  -0.000000   0.000000  -0.001866   0.020247  -0.001377
    31  O   -0.000000   0.000000  -0.000000   0.000836   0.015464   0.039559
    32  H   -0.000001   0.000000  -0.000003  -0.253633  -0.008689  -0.027383
              25         26         27         28         29         30
     1  C   -0.180196  -0.005477   0.001824  -0.006889  -0.138071   0.018524
     2  N   -0.031569  -0.004073   0.000084  -0.000064  -0.023485  -0.000872
     3  C   -0.063884  -0.000734   0.000118   0.000684  -0.021099  -0.000166
     4  O    0.003033   0.000008  -0.000000  -0.000026   0.000804   0.000167
     5  O   -0.027122  -0.000038   0.000000   0.000003  -0.000325  -0.000036
     6  C   -0.004387  -0.000020   0.000001  -0.000010  -0.000725   0.000000
     7  C   -0.000042  -0.000000   0.000000  -0.000000  -0.000029   0.000000
     8  C   -0.000007  -0.000000   0.000000  -0.000000  -0.000001  -0.000000
     9  C   -0.022693   0.003142  -0.001392   0.022740   0.073339  -0.041157
    10  C    0.069374  -0.003103  -0.001413  -0.022095  -0.482575  -0.030728
    11  C    0.061182  -0.054751   0.010373  -0.051058   0.071993   0.099345
    12  C   -0.823249  -0.014451  -0.004403   0.008500  -0.474527  -0.022434
    13  C    0.471263   0.027260  -0.001186   0.002705   0.195858  -0.009805
    14  H    0.006092   0.000114  -0.000000  -0.000032  -0.000668   0.000145
    15  H   -0.000094  -0.000002   0.000000   0.000002  -0.000052  -0.000004
    16  H   -0.000011   0.000001   0.000000   0.000004  -0.000044  -0.000005
    17  H   -0.000003  -0.000000  -0.000000  -0.000000  -0.000007   0.000000
    18  H    0.000023   0.000000   0.000000  -0.000000  -0.000012   0.000001
    19  H   -0.000006   0.000000   0.000000  -0.000000   0.000001   0.000000
    20  H   -0.000003  -0.000000   0.000000   0.000000  -0.000001  -0.000000
    21  H   -0.000003  -0.000000  -0.000000   0.000000   0.000001   0.000000
    22  H   -0.056732  -0.001080  -0.000076   0.001654  -0.018056  -0.001866
    23  C    0.001155   0.166831   0.167722   0.168739   0.160071   0.020247
    24  H   -0.260419  -0.009088  -0.002287   0.007053  -0.074261  -0.001377
    25  H    1.516923   0.002103  -0.000032  -0.000571  -0.007639   0.001008
    26  F    0.002103   9.274653  -0.037544  -0.030673   0.063185   0.003283
    27  F   -0.000032  -0.037544   9.228151  -0.035660   0.028689   0.006216
    28  F   -0.000571  -0.030673  -0.035660   9.268630   0.057637   0.006817
    29  S   -0.007639   0.063185   0.028689   0.057637  14.490262   0.124456
    30  O    0.001008   0.003283   0.006216   0.006817   0.124456   8.853075
    31  O   -0.001504   0.006725   0.006016   0.002845   0.104768  -0.073572
    32  H    0.011410   0.007729  -0.001385  -0.007658  -0.034995   0.053055
              31         32
     1  C    0.020197   0.013857
     2  N    0.004477  -0.033080
     3  C    0.001275  -0.026408
     4  O   -0.000053  -0.000692
     5  O    0.000044  -0.001373
     6  C    0.000019  -0.000965
     7  C    0.000000  -0.000060
     8  C    0.000000   0.000001
     9  C   -0.006481  -0.421346
    10  C   -0.016503   0.337139
    11  C    0.113304  -0.179748
    12  C   -0.002096   0.019201
    13  C   -0.070402   0.043476
    14  H   -0.000140   0.001674
    15  H    0.000004  -0.000042
    16  H    0.000002  -0.000029
    17  H    0.000000  -0.000002
    18  H    0.000000   0.000002
    19  H   -0.000000  -0.000001
    20  H    0.000000   0.000000
    21  H   -0.000000  -0.000003
    22  H    0.000836  -0.253633
    23  C    0.015464  -0.008689
    24  H    0.039559  -0.027383
    25  H   -0.001504   0.011410
    26  F    0.006725   0.007729
    27  F    0.006016  -0.001385
    28  F    0.002845  -0.007658
    29  S    0.104768  -0.034995
    30  O   -0.073572   0.053055
    31  O    8.862342   0.002142
    32  H    0.002142   1.135886
 Mulliken charges:
               1
     1  C    0.894553
     2  N   -0.117710
     3  C    0.398824
     4  O   -0.777000
     5  O   -0.398028
     6  C   -0.215869
     7  C   -0.471112
     8  C   -0.962115
     9  C   -0.552251
    10  C   -0.654202
    11  C    0.708378
    12  C   -0.595261
    13  C   -0.645415
    14  H   -0.024632
    15  H    0.337242
    16  H    0.334333
    17  H    0.213578
    18  H    0.213303
    19  H    0.279244
    20  H    0.286554
    21  H    0.279029
    22  H    0.618571
    23  C    1.001992
    24  H    0.398646
    25  H    0.336599
    26  F   -0.394001
    27  F   -0.363817
    28  F   -0.393277
    29  S    1.905507
    30  O   -1.004316
    31  O   -1.009269
    32  H    0.371922
 Sum of Mulliken charges =  -0.00000
 Mulliken charges with hydrogens summed into heavy atoms:
               1
     1  C    0.894553
     2  N   -0.142342
     3  C    0.398824
     4  O   -0.777000
     5  O   -0.398028
     6  C    0.455705
     7  C   -0.044231
     8  C   -0.117288
     9  C    0.066320
    10  C   -0.282280
    11  C    0.708378
    12  C   -0.196615
    13  C   -0.308816
    23  C    1.001992
    26  F   -0.394001
    27  F   -0.363817
    28  F   -0.393277
    29  S    1.905507
    30  O   -1.004316
    31  O   -1.009269
 Electronic spatial extent (au):  <R**2>=          10799.9568
 Charge=              0.0000 electrons
 Dipole moment (field-independent basis, Debye):
    X=              7.7654    Y=              2.0252    Z=              2.5057  Tot=              8.4073
 Quadrupole moment (field-independent basis, Debye-Ang):
   XX=           -122.0491   YY=           -121.2752   ZZ=           -126.6576
   XY=              6.9881   XZ=             -5.4484   YZ=              1.0530
 Traceless Quadrupole moment (field-independent basis, Debye-Ang):
   XX=              1.2783   YY=              2.0521   ZZ=             -3.3303
   XY=              6.9881   XZ=             -5.4484   YZ=              1.0530
 Octapole moment (field-independent basis, Debye-Ang**2):
  XXX=            205.7382  YYY=             -0.2542  ZZZ=             26.4940  XYY=            -12.8924
  XXY=            -10.4005  XXZ=             53.6931  XZZ=             -4.0186  YZZ=             -4.3296
  YYZ=             15.9330  XYZ=             -3.2858
 Hexadecapole moment (field-independent basis, Debye-Ang**3):
 XXXX=         -11436.3688 YYYY=           -696.5861 ZZZZ=           -588.6145 XXXY=            110.6469
 XXXZ=           -186.8201 YYYX=             81.3526 YYYZ=             12.6715 ZZZX=           -107.6121
 ZZZY=            -16.8083 XXYY=          -2241.5972 XXZZ=          -2173.6405 YYZZ=           -222.3791
 XXYZ=            -22.5216 YYXZ=            -30.9617 ZZXY=              6.2244
 N-N= 1.753054897368D+03 E-N=-6.988176706280D+03  KE= 1.472049745493D+03
 Unable to Open any file for archive entry.
 1\1\GINC-GADI-CPU-CLX-0744\SP\RDSDPBEP86-FC\Aug-CC-pVTZ\C11H12F3N1O4S1
 \HIO507\10-Sep-2020\0\\# DSDPBEP86/AUG-cc-PVTZ SCF=Tight INT(grid=ultr
 afine) MaxDisk=60000MB\\CP21CA.DSDPBEP86_AUG-cc-PVTZ\\0,1\C,0,-6.06358
 07212,1.3542496482,0.3272924859\N,0,-4.7938026145,0.7948202192,0.19632
 91461\C,0,-3.5875129536,1.4529506957,0.1100083698\O,0,-3.4209036541,2.
 6433882887,0.1277832085\O,0,-2.6084719663,0.542935799,0.000751672\C,0,
 -1.2777566449,1.0770033745,-0.0997123396\C,0,-0.320890383,-0.090229371
 1,-0.207346622\C,0,1.1213272101,0.3969987839,-0.3179395529\C,0,-6.2905
 409748,2.7357647924,0.3940812289\C,0,-7.5878632977,3.2056399824,0.5270
 793799\C,0,-8.6465887735,2.3066293632,0.5927040637\C,0,-8.4372514966,0
 .9312987539,0.5294873348\C,0,-7.1453956881,0.4621849053,0.3979313898\H
 ,0,-4.7326646931,-0.2123906061,0.1633643071\H,0,-1.076694219,1.6869352
 244,0.7842326607\H,0,-1.2258345129,1.7276070679,-0.976006201\H,0,-0.58
 83893103,-0.6911117196,-1.0807177899\H,0,-0.4407187989,-0.7307282757,0
 .6706039631\H,0,1.2620973218,1.0234478249,-1.2020332148\H,0,1.81285736
 24,-0.4428268606,-0.3940394764\H,0,1.4096608105,0.9856037852,0.5562996
 529\H,0,-5.4617342307,3.4249202312,0.3475547454\C,0,-10.7750630882,3.1
 114294259,-1.0672188869\H,0,-9.2767097459,0.2491244509,0.5959053562\H,
 0,-6.9640375505,-0.6066589381,0.3542437\F,0,-10.7028406676,1.939279846
 5,-1.685058544\F,0,-12.0127500047,3.5676472414,-1.1344862324\F,0,-9.95
 63254832,3.9651037789,-1.6668835506\S,0,-10.2923804446,2.9171140092,0.
 7255936529\O,0,-10.2770332287,4.2614028654,1.2603651205\O,0,-11.158485
 7299,1.8772018272,1.2390629126\H,0,-7.7801518283,4.2704335856,0.592168
 0595\\Version=ES64L-G16RevC.01\State=1-A\HF=-1476.2216401\MP2=-1478.16
 98399\RMSD=3.941e-09\PG=C01 [X(C11H12F3N1O4S1)]\\@
 The archive entry for this job was punched.


 CHARLIE BROWN.."I CAN'T GET THAT STUPID KITE IN THE
 AIR... I CAN'T... I C A N N O T..."
 LUCY.."OH COME NOW CHARLIE BROWN...THAT'S NO WAY TO TALK...
 THE TROUBLE WITH YOU IS YOU DON'T BELIEVE IN YOURSELF... YOU
 DON'T BELIEVE IN YOUR OWN ABILITIES...  YOU'VE GOT TO SAY TO
 YOURSELF...'I BELIEVE I CAN FLY THIS KITE.'... GO AHEAD SAY
 IT...."
 CHARLIE BROWN.."I BELIEVE THAT I CAN FLY THIS STUPID
 KITE.....I BELIEVE THAT I CAN FLY THIS KITE........
 I  A C T U A L L Y  B E L I E V E  T H A T  I  C A N ******"
 LUCY.."I'LL BET YOU TEN-TO-ONE YOU'RE WRONG......."    SCHULZ
 Job cpu time:       1 days  8 hours  5 minutes 33.1 seconds.
 Elapsed time:       0 days  5 hours 21 minutes 50.2 seconds.
 File lengths (MBytes):  RWF=    744 Int=      0 D2E=      0 Chk=     94 Scr=      1
 Normal termination of Gaussian 16 at Thu Sep 10 16:46:14 2020.
