 Entering Gaussian System, Link 0=/apps/gaussian/g09e01/g09/g09
 Initial command:
 /apps/gaussian/g09e01/g09/l1.exe "/jobfs/local/3694482.r-man2/Gau-25271.inp" -scrdir="/jobfs/local/3694482.r-man2/"
 Entering Link 1 = /apps/gaussian/g09e01/g09/l1.exe PID=     25272.
  
 Copyright (c) 1988,1990,1992,1993,1995,1998,2003,2009,2015,
            Gaussian, Inc.  All Rights Reserved.
  
 This is part of the Gaussian(R) 09 program.  It is based on
 the Gaussian(R) 03 system (copyright 2003, Gaussian, Inc.),
 the Gaussian(R) 98 system (copyright 1998, Gaussian, Inc.),
 the Gaussian(R) 94 system (copyright 1995, Gaussian, Inc.),
 the Gaussian 92(TM) system (copyright 1992, Gaussian, Inc.),
 the Gaussian 90(TM) system (copyright 1990, Gaussian, Inc.),
 the Gaussian 88(TM) system (copyright 1988, Gaussian, Inc.),
 the Gaussian 86(TM) system (copyright 1986, Carnegie Mellon
 University), and the Gaussian 82(TM) system (copyright 1983,
 Carnegie Mellon University). Gaussian is a federally registered
 trademark of Gaussian, Inc.
  
 This software contains proprietary and confidential information,
 including trade secrets, belonging to Gaussian, Inc.
  
 This software is provided under written license and may be
 used, copied, transmitted, or stored only in accord with that
 written license.
  
 The following legend is applicable only to US Government
 contracts under FAR:
  
                    RESTRICTED RIGHTS LEGEND
  
 Use, reproduction and disclosure by the US Government is
 subject to restrictions as set forth in subparagraphs (a)
 and (c) of the Commercial Computer Software - Restricted
 Rights clause in FAR 52.227-19.
  
 Gaussian, Inc.
 340 Quinnipiac St., Bldg. 40, Wallingford CT 06492
  
  
 ---------------------------------------------------------------
 Warning -- This program may not be used in any manner that
 competes with the business of Gaussian, Inc. or will provide
 assistance to any competitor of Gaussian, Inc.  The licensee
 of this program is prohibited from giving any competitor of
 Gaussian, Inc. access to this program.  By using this program,
 the user acknowledges that Gaussian, Inc. is engaged in the
 business of creating and licensing software in the field of
 computational chemistry and represents and warrants to the
 licensee that it is not a competitor of Gaussian, Inc. and that
 it will not use this program in any manner prohibited above.
 ---------------------------------------------------------------
  

 Cite this work as:
 Gaussian 09, Revision E.01,
 M. J. Frisch, G. W. Trucks, H. B. Schlegel, G. E. Scuseria, 
 M. A. Robb, J. R. Cheeseman, G. Scalmani, V. Barone, B. Mennucci, 
 G. A. Petersson, H. Nakatsuji, M. Caricato, X. Li, H. P. Hratchian, 
 A. F. Izmaylov, J. Bloino, G. Zheng, J. L. Sonnenberg, M. Hada, 
 M. Ehara, K. Toyota, R. Fukuda, J. Hasegawa, M. Ishida, T. Nakajima, 
 Y. Honda, O. Kitao, H. Nakai, T. Vreven, J. A. Montgomery, Jr., 
 J. E. Peralta, F. Ogliaro, M. Bearpark, J. J. Heyd, E. Brothers, 
 K. N. Kudin, V. N. Staroverov, T. Keith, R. Kobayashi, J. Normand, 
 K. Raghavachari, A. Rendell, J. C. Burant, S. S. Iyengar, J. Tomasi, 
 M. Cossi, N. Rega, J. M. Millam, M. Klene, J. E. Knox, J. B. Cross, 
 V. Bakken, C. Adamo, J. Jaramillo, R. Gomperts, R. E. Stratmann, 
 O. Yazyev, A. J. Austin, R. Cammi, C. Pomelli, J. W. Ochterski, 
 R. L. Martin, K. Morokuma, V. G. Zakrzewski, G. A. Voth, 
 P. Salvador, J. J. Dannenberg, S. Dapprich, A. D. Daniels, 
 O. Farkas, J. B. Foresman, J. V. Ortiz, J. Cioslowski, 
 and D. J. Fox, Gaussian, Inc., Wallingford CT, 2013.
 
 ******************************************
 Gaussian 09:  ES64L-G09RevE.01 30-Nov-2015
                19-Nov-2019 
 ******************************************
 %chk=CP21CA.M062X_6-311pGd_opt_Pentadecane_GD3.chk
 %mem=196608000
 %nproc=4
 Will use up to    4 processors via shared memory.
 ----------------------------------------------------------------------
 # M062X/6-311+G* SCF=Tight INT(grid=ultrafine) OPT=CalcFC IOP(2/17=4) 
 EmpiricalDispersion=GD3 SCRF=(SMD,Solvent=n-Pentadecane) maxdisk=26843
 54560
 ----------------------------------------------------------------------
 1/10=4,14=-1,18=20,19=15,26=4,38=1/1,3;
 2/9=110,12=2,17=4,18=5,40=1/2;
 3/5=4,6=6,7=11,11=2,16=1,25=1,30=1,70=32201,71=2,72=151,74=-55,75=-5,124=31,140=1/1,2,3;
 4//1;
 5/5=2,32=2,38=5,53=151/2;
 8/6=4,10=90,11=11/1;
 11/6=1,8=1,9=11,15=111,16=1/1,2,10;
 10/6=1,13=1/2;
 6/7=2,8=2,9=2,10=2,28=1/1;
 7/10=1,18=20,25=1/1,2,3,16;
 1/10=4,14=-1,18=20,19=15,26=4/3(2);
 2/9=110,17=4/2;
 99//99;
 2/9=110,17=4/2;
 3/5=4,6=6,7=11,11=2,16=1,25=1,30=1,70=32205,71=1,72=151,74=-55,75=-5,124=31/1,2,3;
 4/5=5,16=3,69=1/1;
 5/5=2,32=2,38=5,53=151/2;
 7//1,2,3,16;
 1/14=-1,18=20,19=15,26=4/3(-5);
 2/9=110,17=4/2;
 6/7=2,8=2,9=2,10=2,19=2,28=1/1;
 99/9=1/99;
 -----------------------------------------
 CP21CA.M062X_6-311pGd_opt_Pentadecane_GD3
 -----------------------------------------
 Symbolic Z-matrix:
 Charge =  0 Multiplicity = 1
 C                    -6.06358   1.35425   0.32729 
 N                    -4.7938    0.79482   0.19633 
 C                    -3.58751   1.45295   0.11001 
 O                    -3.4209    2.64339   0.12778 
 O                    -2.60847   0.54294   0.00075 
 C                    -1.27776   1.077    -0.09971 
 C                    -0.32089  -0.09023  -0.20735 
 C                     1.12133   0.397    -0.31794 
 C                    -6.29054   2.73576   0.39408 
 C                    -7.58786   3.20564   0.52708 
 C                    -8.64659   2.30663   0.5927 
 C                    -8.43725   0.9313    0.52949 
 C                    -7.1454    0.46218   0.39793 
 H                    -4.73266  -0.21239   0.16336 
 H                    -1.07669   1.68694   0.78423 
 H                    -1.22583   1.72761  -0.97601 
 H                    -0.58839  -0.69111  -1.08072 
 H                    -0.44072  -0.73073   0.6706 
 H                     1.2621    1.02345  -1.20203 
 H                     1.81286  -0.44283  -0.39404 
 H                     1.40966   0.9856    0.5563 
 H                    -5.46173   3.42492   0.34755 
 C                    -10.77506   3.11143  -1.06722 
 H                    -9.27671   0.24912   0.59591 
 H                    -6.96404  -0.60666   0.35424 
 F                    -10.70284   1.93928  -1.68506 
 F                    -12.01275   3.56765  -1.13449 
 F                    -9.95633   3.9651   -1.66688 
 S                    -10.29238   2.91711   0.72559 
 O                    -10.27703   4.2614    1.26037 
 O                    -11.15849   1.8772    1.23906 
 H                    -7.78015   4.27043   0.59217 
 

 GradGradGradGradGradGradGradGradGradGradGradGradGradGradGradGradGradGrad
 Berny optimization.
 Initialization pass.
                           ----------------------------
                           !    Initial Parameters    !
                           ! (Angstroms and Degrees)  !
 --------------------------                            --------------------------
 ! Name  Definition              Value          Derivative Info.                !
 --------------------------------------------------------------------------------
 ! R1    R(1,2)                  1.3937         calculate D2E/DX2 analytically  !
 ! R2    R(1,9)                  1.4016         calculate D2E/DX2 analytically  !
 ! R3    R(1,13)                 1.404          calculate D2E/DX2 analytically  !
 ! R4    R(2,3)                  1.3769         calculate D2E/DX2 analytically  !
 ! R5    R(2,14)                 1.0096         calculate D2E/DX2 analytically  !
 ! R6    R(3,4)                  1.2022         calculate D2E/DX2 analytically  !
 ! R7    R(3,5)                  1.3411         calculate D2E/DX2 analytically  !
 ! R8    R(5,6)                  1.4374         calculate D2E/DX2 analytically  !
 ! R9    R(6,7)                  1.5131         calculate D2E/DX2 analytically  !
 ! R10   R(6,15)                 1.0926         calculate D2E/DX2 analytically  !
 ! R11   R(6,16)                 1.0926         calculate D2E/DX2 analytically  !
 ! R12   R(7,8)                  1.5263         calculate D2E/DX2 analytically  !
 ! R13   R(7,17)                 1.0933         calculate D2E/DX2 analytically  !
 ! R14   R(7,18)                 1.0933         calculate D2E/DX2 analytically  !
 ! R15   R(8,19)                 1.0926         calculate D2E/DX2 analytically  !
 ! R16   R(8,20)                 1.0906         calculate D2E/DX2 analytically  !
 ! R17   R(8,21)                 1.0927         calculate D2E/DX2 analytically  !
 ! R18   R(9,10)                 1.3862         calculate D2E/DX2 analytically  !
 ! R19   R(9,22)                 1.0789         calculate D2E/DX2 analytically  !
 ! R20   R(10,11)                1.3905         calculate D2E/DX2 analytically  !
 ! R21   R(10,32)                1.084          calculate D2E/DX2 analytically  !
 ! R22   R(11,12)                1.3926         calculate D2E/DX2 analytically  !
 ! R23   R(11,29)                1.7604         calculate D2E/DX2 analytically  !
 ! R24   R(12,13)                1.3807         calculate D2E/DX2 analytically  !
 ! R25   R(12,24)                1.0837         calculate D2E/DX2 analytically  !
 ! R26   R(13,25)                1.085          calculate D2E/DX2 analytically  !
 ! R27   R(23,26)                1.327          calculate D2E/DX2 analytically  !
 ! R28   R(23,27)                1.3208         calculate D2E/DX2 analytically  !
 ! R29   R(23,28)                1.3262         calculate D2E/DX2 analytically  !
 ! R30   R(23,29)                1.8668         calculate D2E/DX2 analytically  !
 ! R31   R(29,30)                1.4468         calculate D2E/DX2 analytically  !
 ! R32   R(29,31)                1.4475         calculate D2E/DX2 analytically  !
 ! A1    A(2,1,9)              123.2052         calculate D2E/DX2 analytically  !
 ! A2    A(2,1,13)             116.8534         calculate D2E/DX2 analytically  !
 ! A3    A(9,1,13)             119.941          calculate D2E/DX2 analytically  !
 ! A4    A(1,2,3)              127.7514         calculate D2E/DX2 analytically  !
 ! A5    A(1,2,14)             117.3021         calculate D2E/DX2 analytically  !
 ! A6    A(3,2,14)             114.9459         calculate D2E/DX2 analytically  !
 ! A7    A(2,3,4)              126.429          calculate D2E/DX2 analytically  !
 ! A8    A(2,3,5)              108.684          calculate D2E/DX2 analytically  !
 ! A9    A(4,3,5)              124.887          calculate D2E/DX2 analytically  !
 ! A10   A(3,5,6)              115.4304         calculate D2E/DX2 analytically  !
 ! A11   A(5,6,7)              107.6855         calculate D2E/DX2 analytically  !
 ! A12   A(5,6,15)             108.7372         calculate D2E/DX2 analytically  !
 ! A13   A(5,6,16)             108.7405         calculate D2E/DX2 analytically  !
 ! A14   A(7,6,15)             111.8265         calculate D2E/DX2 analytically  !
 ! A15   A(7,6,16)             111.8526         calculate D2E/DX2 analytically  !
 ! A16   A(15,6,16)            107.9201         calculate D2E/DX2 analytically  !
 ! A17   A(6,7,8)              110.8816         calculate D2E/DX2 analytically  !
 ! A18   A(6,7,17)             109.0293         calculate D2E/DX2 analytically  !
 ! A19   A(6,7,18)             108.9941         calculate D2E/DX2 analytically  !
 ! A20   A(8,7,17)             110.4103         calculate D2E/DX2 analytically  !
 ! A21   A(8,7,18)             110.4108         calculate D2E/DX2 analytically  !
 ! A22   A(17,7,18)            107.018          calculate D2E/DX2 analytically  !
 ! A23   A(7,8,19)             111.3081         calculate D2E/DX2 analytically  !
 ! A24   A(7,8,20)             111.002          calculate D2E/DX2 analytically  !
 ! A25   A(7,8,21)             111.3051         calculate D2E/DX2 analytically  !
 ! A26   A(19,8,20)            107.6595         calculate D2E/DX2 analytically  !
 ! A27   A(19,8,21)            107.7307         calculate D2E/DX2 analytically  !
 ! A28   A(20,8,21)            107.6586         calculate D2E/DX2 analytically  !
 ! A29   A(1,9,10)             119.3553         calculate D2E/DX2 analytically  !
 ! A30   A(1,9,22)             120.2084         calculate D2E/DX2 analytically  !
 ! A31   A(10,9,22)            120.4355         calculate D2E/DX2 analytically  !
 ! A32   A(9,10,11)            119.8656         calculate D2E/DX2 analytically  !
 ! A33   A(9,10,32)            120.315          calculate D2E/DX2 analytically  !
 ! A34   A(11,10,32)           119.8153         calculate D2E/DX2 analytically  !
 ! A35   A(10,11,12)           121.4618         calculate D2E/DX2 analytically  !
 ! A36   A(10,11,29)           119.4189         calculate D2E/DX2 analytically  !
 ! A37   A(12,11,29)           119.1074         calculate D2E/DX2 analytically  !
 ! A38   A(11,12,13)           118.7201         calculate D2E/DX2 analytically  !
 ! A39   A(11,12,24)           120.1616         calculate D2E/DX2 analytically  !
 ! A40   A(13,12,24)           121.1136         calculate D2E/DX2 analytically  !
 ! A41   A(1,13,12)            120.6561         calculate D2E/DX2 analytically  !
 ! A42   A(1,13,25)            119.6769         calculate D2E/DX2 analytically  !
 ! A43   A(12,13,25)           119.6662         calculate D2E/DX2 analytically  !
 ! A44   A(26,23,27)           109.4142         calculate D2E/DX2 analytically  !
 ! A45   A(26,23,28)           108.9338         calculate D2E/DX2 analytically  !
 ! A46   A(26,23,29)           109.9457         calculate D2E/DX2 analytically  !
 ! A47   A(27,23,28)           109.46           calculate D2E/DX2 analytically  !
 ! A48   A(27,23,29)           109.0962         calculate D2E/DX2 analytically  !
 ! A49   A(28,23,29)           109.9767         calculate D2E/DX2 analytically  !
 ! A50   A(11,29,23)           101.8488         calculate D2E/DX2 analytically  !
 ! A51   A(11,29,30)           109.8888         calculate D2E/DX2 analytically  !
 ! A52   A(11,29,31)           109.6964         calculate D2E/DX2 analytically  !
 ! A53   A(23,29,30)           105.1292         calculate D2E/DX2 analytically  !
 ! A54   A(23,29,31)           105.1142         calculate D2E/DX2 analytically  !
 ! A55   A(30,29,31)           122.8705         calculate D2E/DX2 analytically  !
 ! D1    D(9,1,2,3)             -0.1139         calculate D2E/DX2 analytically  !
 ! D2    D(9,1,2,14)           179.5852         calculate D2E/DX2 analytically  !
 ! D3    D(13,1,2,3)          -179.8683         calculate D2E/DX2 analytically  !
 ! D4    D(13,1,2,14)           -0.1692         calculate D2E/DX2 analytically  !
 ! D5    D(2,1,9,10)          -179.8755         calculate D2E/DX2 analytically  !
 ! D6    D(2,1,9,22)            -0.1999         calculate D2E/DX2 analytically  !
 ! D7    D(13,1,9,10)           -0.1284         calculate D2E/DX2 analytically  !
 ! D8    D(13,1,9,22)          179.5473         calculate D2E/DX2 analytically  !
 ! D9    D(2,1,13,12)          179.9372         calculate D2E/DX2 analytically  !
 ! D10   D(2,1,13,25)            0.2782         calculate D2E/DX2 analytically  !
 ! D11   D(9,1,13,12)            0.1743         calculate D2E/DX2 analytically  !
 ! D12   D(9,1,13,25)         -179.4847         calculate D2E/DX2 analytically  !
 ! D13   D(1,2,3,4)             -0.3251         calculate D2E/DX2 analytically  !
 ! D14   D(1,2,3,5)            179.6835         calculate D2E/DX2 analytically  !
 ! D15   D(14,2,3,4)           179.9697         calculate D2E/DX2 analytically  !
 ! D16   D(14,2,3,5)            -0.0216         calculate D2E/DX2 analytically  !
 ! D17   D(2,3,5,6)            179.9987         calculate D2E/DX2 analytically  !
 ! D18   D(4,3,5,6)              0.0072         calculate D2E/DX2 analytically  !
 ! D19   D(3,5,6,7)            179.7354         calculate D2E/DX2 analytically  !
 ! D20   D(3,5,6,15)            58.3871         calculate D2E/DX2 analytically  !
 ! D21   D(3,5,6,16)           -58.8828         calculate D2E/DX2 analytically  !
 ! D22   D(5,6,7,8)           -179.9848         calculate D2E/DX2 analytically  !
 ! D23   D(5,6,7,17)            58.2518         calculate D2E/DX2 analytically  !
 ! D24   D(5,6,7,18)           -58.2442         calculate D2E/DX2 analytically  !
 ! D25   D(15,6,7,8)           -60.5846         calculate D2E/DX2 analytically  !
 ! D26   D(15,6,7,17)          177.6521         calculate D2E/DX2 analytically  !
 ! D27   D(15,6,7,18)           61.156          calculate D2E/DX2 analytically  !
 ! D28   D(16,6,7,8)            60.5955         calculate D2E/DX2 analytically  !
 ! D29   D(16,6,7,17)          -61.1678         calculate D2E/DX2 analytically  !
 ! D30   D(16,6,7,18)         -177.6639         calculate D2E/DX2 analytically  !
 ! D31   D(6,7,8,19)           -60.1869         calculate D2E/DX2 analytically  !
 ! D32   D(6,7,8,20)           179.9102         calculate D2E/DX2 analytically  !
 ! D33   D(6,7,8,21)            60.0106         calculate D2E/DX2 analytically  !
 ! D34   D(17,7,8,19)           60.764          calculate D2E/DX2 analytically  !
 ! D35   D(17,7,8,20)          -59.1389         calculate D2E/DX2 analytically  !
 ! D36   D(17,7,8,21)         -179.0385         calculate D2E/DX2 analytically  !
 ! D37   D(18,7,8,19)          178.9061         calculate D2E/DX2 analytically  !
 ! D38   D(18,7,8,20)           59.0032         calculate D2E/DX2 analytically  !
 ! D39   D(18,7,8,21)          -60.8964         calculate D2E/DX2 analytically  !
 ! D40   D(1,9,10,11)            0.0021         calculate D2E/DX2 analytically  !
 ! D41   D(1,9,10,32)          179.266          calculate D2E/DX2 analytically  !
 ! D42   D(22,9,10,11)        -179.6729         calculate D2E/DX2 analytically  !
 ! D43   D(22,9,10,32)          -0.4089         calculate D2E/DX2 analytically  !
 ! D44   D(9,10,11,12)           0.0829         calculate D2E/DX2 analytically  !
 ! D45   D(9,10,11,29)        -178.6492         calculate D2E/DX2 analytically  !
 ! D46   D(32,10,11,12)       -179.1847         calculate D2E/DX2 analytically  !
 ! D47   D(32,10,11,29)          2.0831         calculate D2E/DX2 analytically  !
 ! D48   D(10,11,12,13)         -0.0386         calculate D2E/DX2 analytically  !
 ! D49   D(10,11,12,24)        179.1847         calculate D2E/DX2 analytically  !
 ! D50   D(29,11,12,13)        178.6974         calculate D2E/DX2 analytically  !
 ! D51   D(29,11,12,24)         -2.0793         calculate D2E/DX2 analytically  !
 ! D52   D(10,11,29,23)         88.8836         calculate D2E/DX2 analytically  !
 ! D53   D(10,11,29,30)        -22.1855         calculate D2E/DX2 analytically  !
 ! D54   D(10,11,29,31)       -160.1339         calculate D2E/DX2 analytically  !
 ! D55   D(12,11,29,23)        -89.8786         calculate D2E/DX2 analytically  !
 ! D56   D(12,11,29,30)        159.0523         calculate D2E/DX2 analytically  !
 ! D57   D(12,11,29,31)         21.1039         calculate D2E/DX2 analytically  !
 ! D58   D(11,12,13,1)          -0.09           calculate D2E/DX2 analytically  !
 ! D59   D(11,12,13,25)        179.569          calculate D2E/DX2 analytically  !
 ! D60   D(24,12,13,1)        -179.3056         calculate D2E/DX2 analytically  !
 ! D61   D(24,12,13,25)          0.3534         calculate D2E/DX2 analytically  !
 ! D62   D(26,23,29,11)         59.8268         calculate D2E/DX2 analytically  !
 ! D63   D(26,23,29,30)        174.4598         calculate D2E/DX2 analytically  !
 ! D64   D(26,23,29,31)        -54.5904         calculate D2E/DX2 analytically  !
 ! D65   D(27,23,29,11)        179.8158         calculate D2E/DX2 analytically  !
 ! D66   D(27,23,29,30)        -65.5511         calculate D2E/DX2 analytically  !
 ! D67   D(27,23,29,31)         65.3987         calculate D2E/DX2 analytically  !
 ! D68   D(28,23,29,11)        -60.12           calculate D2E/DX2 analytically  !
 ! D69   D(28,23,29,30)         54.513          calculate D2E/DX2 analytically  !
 ! D70   D(28,23,29,31)       -174.5372         calculate D2E/DX2 analytically  !
 --------------------------------------------------------------------------------
 Trust Radius=3.00D-01 FncErr=1.00D-07 GrdErr=1.00D-06
 Number of steps in this run=    167 maximum allowed number of steps=    192.
 GradGradGradGradGradGradGradGradGradGradGradGradGradGradGradGradGradGrad

                          Input orientation:                          
 ---------------------------------------------------------------------
 Center     Atomic      Atomic             Coordinates (Angstroms)
 Number     Number       Type             X           Y           Z
 ---------------------------------------------------------------------
      1          6           0       -6.063581    1.354250    0.327292
      2          7           0       -4.793803    0.794820    0.196329
      3          6           0       -3.587513    1.452951    0.110008
      4          8           0       -3.420904    2.643388    0.127783
      5          8           0       -2.608472    0.542936    0.000752
      6          6           0       -1.277757    1.077003   -0.099712
      7          6           0       -0.320890   -0.090229   -0.207347
      8          6           0        1.121327    0.396999   -0.317940
      9          6           0       -6.290541    2.735765    0.394081
     10          6           0       -7.587863    3.205640    0.527079
     11          6           0       -8.646589    2.306629    0.592704
     12          6           0       -8.437251    0.931299    0.529487
     13          6           0       -7.145396    0.462185    0.397931
     14          1           0       -4.732665   -0.212391    0.163364
     15          1           0       -1.076694    1.686935    0.784233
     16          1           0       -1.225835    1.727607   -0.976006
     17          1           0       -0.588389   -0.691112   -1.080718
     18          1           0       -0.440719   -0.730728    0.670604
     19          1           0        1.262097    1.023448   -1.202033
     20          1           0        1.812857   -0.442827   -0.394039
     21          1           0        1.409661    0.985604    0.556300
     22          1           0       -5.461734    3.424920    0.347555
     23          6           0      -10.775063    3.111429   -1.067219
     24          1           0       -9.276710    0.249124    0.595905
     25          1           0       -6.964038   -0.606659    0.354244
     26          9           0      -10.702841    1.939280   -1.685059
     27          9           0      -12.012750    3.567647   -1.134486
     28          9           0       -9.956325    3.965104   -1.666884
     29         16           0      -10.292380    2.917114    0.725594
     30          8           0      -10.277033    4.261403    1.260365
     31          8           0      -11.158486    1.877202    1.239063
     32          1           0       -7.780152    4.270434    0.592168
 ---------------------------------------------------------------------
                    Distance matrix (angstroms):
                    1          2          3          4          5
     1  C    0.000000
     2  N    1.393718   0.000000
     3  C    2.487542   1.376852   0.000000
     4  O    2.947104   2.303639   1.202171   0.000000
     5  O    3.564076   2.208476   1.341113   2.255678   0.000000
     6  C    4.812828   3.539752   2.349530   2.664281   1.437402
     7  C    5.945658   4.577468   3.626698   4.146693   2.382694
     8  C    7.277057   5.950756   4.844724   5.086924   3.746233
     9  C    1.401626   2.458983   3.005440   2.883447   4.303584
    10  C    2.406449   3.705162   4.387331   4.223638   5.671098
    11  C    2.765755   4.157721   5.153252   5.257123   6.318218
    12  C    2.419521   3.661194   4.895717   5.315671   5.865582
    13  C    1.403956   2.383544   3.704463   4.324635   4.554992
    14  H    2.062176   1.009603   2.021777   3.142842   2.260344
    15  H    5.018816   3.867608   2.610275   2.615539   2.066137
    16  H    5.024119   3.869736   2.613884   2.622086   2.066201
    17  H    6.011964   4.639434   3.874219   4.538998   2.602534
    18  H    6.006794   4.636979   3.871051   4.534404   2.601937
    19  H    7.490916   6.219454   5.042286   5.130606   4.081530
    20  H    8.110985   6.747463   5.745610   6.098301   4.547059
    21  H    7.485832   6.216827   5.038783   5.125059   4.080439
    22  H    2.156457   2.717798   2.730897   2.196379   4.070284
    23  C    5.218276   6.537485   7.469759   7.465303   8.627336
    24  H    3.408468   4.533641   5.835431   6.343666   6.701189
    25  H    2.157941   2.588243   3.962646   4.813303   4.518570
    26  F    5.090634   6.306040   7.354364   7.537159   8.385138
    27  F    6.513719   7.846836   8.775268   8.733121   9.943746
    28  F    5.093796   6.338289   7.073191   6.905034   8.275457
    29  S    4.525918   5.917652   6.890426   6.902861   8.074935
    30  O    5.203398   6.573826   7.345775   7.134930   8.615129
    31  O    5.202198   6.539727   7.666445   7.854436   8.741648
    32  H    3.394246   4.599441   5.074338   4.676107   6.402366
                    6          7          8          9         10
     6  C    0.000000
     7  C    1.513146   0.000000
     8  C    2.503125   1.526307   0.000000
     9  C    5.303143   6.632095   7.804652   0.000000
    10  C    6.688902   8.013179   9.189805   1.386188   0.000000
    11  C    7.502740   8.700705   9.994406   2.403033   1.390477
    12  C    7.188567   8.213511   9.610933   2.807632   2.427776
    13  C    5.920713   6.873529   8.297917   2.428983   2.781906
    14  H    3.697044   4.429007   5.905271   3.342429   4.468488
    15  H    1.092612   2.170894   2.776692   5.332585   6.690883
    16  H    1.092645   2.171242   2.777182   5.342731   6.702183
    17  H    2.136312   1.093340   2.165397   6.814180   8.170821
    18  H    2.135864   1.093341   2.165404   6.805399   8.160715
    19  H    2.769267   2.176127   1.092646   7.907083   9.277586
    20  H    3.456647   2.170728   1.090556   8.740117  10.125874
    21  H    2.767836   2.176093   1.092651   7.898258   9.267408
    22  H    4.818551   6.252397   7.276530   1.078898   2.144933
    23  C    9.760829  10.967211  12.225124   4.731539   3.564955
    24  H    8.071711   8.998171  10.439164   3.891185   3.405572
    25  H    5.947654   6.686814   8.175101   3.409836   3.866866
    26  F    9.596304  10.681172  12.002441   4.942226   4.024960
    27  F   11.068611  12.285733  13.536017   5.980988   4.740408
    28  F    9.279801  10.555453  11.716032   4.381418   3.316605
    29  S    9.237455  10.456821  11.735104   4.019640   2.727099
    30  O    9.642468  10.964290  12.138669   4.355472   2.980600
    31  O   10.003072  11.109292  12.466317   5.014779   3.875695
    32  H    7.277214   8.677280   9.750288   2.147880   1.083973
                   11         12         13         14         15
    11  C    0.000000
    12  C    1.392606   0.000000
    13  C    2.386104   1.380676   0.000000
    14  H    4.674248   3.894359   2.516216   0.000000
    15  H    7.597632   7.403626   6.203094   4.166418   0.000000
    16  H    7.606820   7.409801   6.207270   4.166487   1.767014
    17  H    8.759074   8.174938   6.819885   4.353382   3.061305
    18  H    8.750309   8.168646   6.815430   4.352788   2.502493
    19  H   10.151340   9.853122   8.576762   6.271266   3.139333
    20  H   10.859705  10.382960   9.038615   6.573253   3.778058
    21  H   10.142711   9.847099   8.572517   6.270387   2.593411
    22  H    3.384372   3.886509   3.408087   3.714229   4.737072
    23  C    2.816638   3.573206   4.726484   7.005190   9.975741
    24  H    2.151834   1.083727   2.151067   4.587857   8.327246
    25  H    3.372698   2.136910   1.085001   2.273963   6.332952
    26  F    3.090521   3.324625   4.379049   6.609792   9.941015
    27  F    3.988031   4.743768   5.973553   8.304983  11.261256
    28  F    3.093814   4.041733   4.943200   6.934544   9.489250
    29  S    1.760392   2.724596   4.004691   6.404712   9.297615
    30  O    2.631589   3.874090   4.998500   7.208208   9.565606
    31  O    2.629033   2.967043   4.337588   6.842127  10.093839
    32  H    2.146448   3.403752   3.865670   5.437533   7.186633
                   16         17         18         19         20
    16  H    0.000000
    17  H    2.503498   0.000000
    18  H    3.061232   1.757983   0.000000
    19  H    2.595522   2.525615   3.079527   0.000000
    20  H    3.779301   2.509812   2.508976   1.762428   0.000000
    21  H    3.137573   3.079514   2.526414   1.764920   1.762421
    22  H    4.751372   6.536908   6.525670   7.306039   8.272189
    23  C    9.649407  10.873262  11.161580  12.217654  13.097391
    24  H    8.335071   8.898428   8.890468  10.719077  11.155146
    25  H    6.336035   6.535682   6.532164   8.529276   8.810258
    26  F    9.505851  10.468348  10.862285  12.009655  12.805618
    27  F   10.943875  12.192454  12.475828  13.516623  14.414561
    28  F    9.039092  10.477698  10.865609  11.606999  12.631851
    29  S    9.301216  10.509496  10.505475  11.866241  12.612675
    30  O    9.661557  11.130045  11.046369  12.235166  13.077931
    31  O   10.177744  11.122255  11.045133  12.686951  13.278001
    32  H    7.203070   8.895894   8.881726   9.773656  10.733744
                   21         22         23         24         25
    21  H    0.000000
    22  H    7.294512   0.000000
    23  C   12.474872   5.507388   0.000000
    24  H   10.711792   4.970050   3.633708   0.000000
    25  H    8.526133   4.302394   5.510776   2.477745   0.000000
    26  F   12.354994   5.814451   1.326980   3.176991   4.961775
    27  F   13.772684   6.718082   1.320806   4.636029   6.717935
    28  F   11.958495   4.954908   1.326156   4.403475   5.825784
    29  S   11.861583   4.871953   1.866793   2.857722   4.861352
    30  O   12.157524   4.971924   2.643505   4.188142   5.957770
    31  O   12.618218   5.970192   2.643722   2.570091   4.954378
    32  H    9.759306   2.479877   3.614741   4.290761   4.950624
                   26         27         28         29         30
    26  F    0.000000
    27  F    2.161151   0.000000
    28  F    2.159069   2.161088   0.000000
    29  S    2.633606   2.615867   2.633470   0.000000
    30  O    3.774796   3.037980   2.959634   1.446834   0.000000
    31  O    2.960060   3.036628   3.774791   1.447483   2.542012
    32  H    4.377459   4.624947   3.151551   2.856671   2.584760
                   31         32
    31  O    0.000000
    32  H    4.190366   0.000000
 Stoichiometry    C11H12F3NO4S
 Framework group  C1[X(C11H12F3NO4S)]
 Deg. of freedom    90
 Full point group                 C1      NOp   1
 Largest Abelian subgroup         C1      NOp   1
 Largest concise Abelian subgroup C1      NOp   1
                         Standard orientation:                         
 ---------------------------------------------------------------------
 Center     Atomic      Atomic             Coordinates (Angstroms)
 Number     Number       Type             X           Y           Z
 ---------------------------------------------------------------------
      1          6           0        0.944402    0.542741   -0.138276
      2          7           0        2.308525    0.727244    0.079844
      3          6           0        3.326232   -0.174716   -0.135702
      4          8           0        3.209591   -1.296819   -0.551030
      5          8           0        4.490034    0.403352    0.195942
      6          6           0        5.657615   -0.417523    0.025523
      7          6           0        6.860112    0.401716    0.440803
      8          6           0        8.146958   -0.404596    0.287501
      9          6           0        0.400891   -0.649951   -0.634905
     10          6           0       -0.969016   -0.745557   -0.823929
     11          6           0       -1.787063    0.337155   -0.520681
     12          6           0       -1.262098    1.529315   -0.028221
     13          6           0        0.102331    1.625929    0.159572
     14          1           0        2.603509    1.625395    0.434257
     15          1           0        5.718960   -0.727725   -1.020333
     16          1           0        5.547081   -1.316365    0.636863
     17          1           0        6.732166    0.722027    1.478312
     18          1           0        6.902281    1.307067   -0.170716
     19          1           0        8.128378   -1.303808    0.907943
     20          1           0        9.015149    0.184607    0.584819
     21          1           0        8.298042   -0.718039   -0.748266
     22          1           0        1.044759   -1.482529   -0.872115
     23          6           0       -4.061094   -0.474717    0.929526
     24          1           0       -1.917759    2.364493    0.188691
     25          1           0        0.528514    2.550045    0.535873
     26          9           0       -3.722478    0.377755    1.888435
     27          9           0       -5.371805   -0.637707    0.929722
     28          9           0       -3.471001   -1.639537    1.161201
     29         16           0       -3.528662    0.190772   -0.731365
     30          8           0       -3.823280   -0.866634   -1.673927
     31          8           0       -4.122039    1.508200   -0.817927
     32          1           0       -1.404666   -1.656404   -1.218346
 ---------------------------------------------------------------------
 Rotational constants (GHZ):      1.0384961      0.0959844      0.0953208
 Standard basis: 6-311+G(d) (5D, 7F)
 There are   504 symmetry adapted cartesian basis functions of A   symmetry.
 There are   484 symmetry adapted basis functions of A   symmetry.
   484 basis functions,   794 primitive gaussians,   504 cartesian basis functions
    80 alpha electrons       80 beta electrons
       nuclear repulsion energy      1753.0805263801 Hartrees.
 NAtoms=   32 NActive=   32 NUniq=   32 SFac= 1.00D+00 NAtFMM=   60 NAOKFM=F Big=F
 Integral buffers will be    131072 words long.
 Raffenetti 2 integral format.
 Two-electron integral symmetry is turned on.
 Nuclear repulsion after empirical dispersion term =     1753.0790382603 Hartrees.
 Force inversion solution in PCM.
 ------------------------------------------------------------------------------
 Polarizable Continuum Model (PCM)
 =================================
 Model                : PCM (using non-symmetric T matrix).
 Atomic radii         : SMD-Coulomb.
 Polarization charges : Total charges.
 Charge compensation  : None.
 Solution method      : Matrix inversion.
 Cavity type          : VdW (van der Waals Surface) (Alpha=1.000).
 Cavity algorithm     : GePol (No added spheres)
                        Default sphere list used, NSphG=   32.
                        Lebedev-Laikov grids with approx.  5.0 points / Ang**2.
                        Smoothing algorithm: York/Karplus (Gamma=1.0000).
                        Polarization charges: spherical gaussians, with
                                              point-specific exponents (IZeta= 3).
                        Self-potential: point-specific (ISelfS= 7).
                        Self-field    : sphere-specific E.n sum rule (ISelfD= 2).
 1st derivatives      : Analytical E(r).r(x)/FMM algorithm (CHGder, D1EAlg=3).
                        Cavity 1st derivative terms included.
 2nd derivatives      : Analytical E(r).r(xy)/FMM algorithm (CHGder, D2EAlg=3).
                        Cavity 2nd derivative terms included.
 Solvent              : n-Pentadecane, Eps=   2.033300 Eps(inf)=   2.049192
 ------------------------------------------------------------------------------
 ------------------------------------------------------------------------------
 Atomic radii for non-electrostatic terms: SMD-CDS.
 ------------------------------------------------------------------------------
 Nuclear repulsion after PCM non-electrostatic terms =     1753.0739506803 Hartrees.
 One-electron integrals computed using PRISM.
 NBasis=   484 RedAO= T EigKep=  2.78D-06  NBF=   484
 NBsUse=   482 1.00D-06 EigRej=  9.68D-07 NBFU=   482
 ExpMin= 4.05D-02 ExpMax= 9.34D+04 ExpMxC= 3.17D+03 IAcc=3 IRadAn=         5 AccDes= 0.00D+00
 Harris functional with IExCor= 1009 and IRadAn=       5 diagonalized for initial guess.
 HarFok:  IExCor= 1009 AccDes= 0.00D+00 IRadAn=         5 IDoV= 1 UseB2=F ITyADJ=14
 ICtDFT=  3500011 ScaDFX=  1.000000  1.000000  1.000000  1.000000
 FoFCou: FMM=F IPFlag=           0 FMFlag=      100000 FMFlg1=           0
         NFxFlg=           0 DoJE=T BraDBF=F KetDBF=T FulRan=T
         wScrn=  0.000000 ICntrl=     500 IOpCl=  0 I1Cent=   200000004 NGrid=           0
         NMat0=    1 NMatS0=      1 NMatT0=    0 NMatD0=    1 NMtDS0=    0 NMtDT0=    0
 Petite list used in FoFCou.
 Requested convergence on RMS density matrix=1.00D-08 within 128 cycles.
 Requested convergence on MAX density matrix=1.00D-06.
 Requested convergence on             energy=1.00D-06.
 No special actions if energy rises.
 Inv3:  Mode=1 IEnd=    21756747.
 Iteration    1 A*A^-1 deviation from unit magnitude is 4.11D-15 for   2677.
 Iteration    1 A*A^-1 deviation from orthogonality  is 5.61D-15 for   2663   1840.
 Iteration    1 A^-1*A deviation from unit magnitude is 4.44D-15 for   2677.
 Iteration    1 A^-1*A deviation from orthogonality  is 9.77D-14 for    989    957.
 Error on total polarization charges =  0.01720
 SCF Done:  E(RM062X) =  -1479.62393488     A.U. after   16 cycles
            NFock= 16  Conv=0.32D-08     -V/T= 2.0026
 SMD-CDS (non-electrostatic) energy       (kcal/mol) =      -3.19
 (included in total energy above)
 DoSCS=F DFT=T ScalE2(SS,OS)=  1.000000  1.000000
 Range of M.O.s used for correlation:     1   482
 NBasis=   484 NAE=    80 NBE=    80 NFC=     0 NFV=     0
 NROrb=    482 NOA=    80 NOB=    80 NVA=   402 NVB=   402

 **** Warning!!: The largest alpha MO coefficient is  0.10631262D+03

 Symmetrizing basis deriv contribution to polar:
 IMax=3 JMax=2 DiffMx= 0.00D+00
 G2DrvN: will do    33 centers at a time, making    1 passes.
 Calling FoFCou, ICntrl=  3107 FMM=F I1Cent=   0 AccDes= 0.00D+00.
 NEqPCM:  Using equilibrium solvation (IEInf=0, Eps=   2.0333, EpsInf=   2.0492)
 G2PCM: DoFxE=T DoFxN=T DoGrad=T DoDP/DQ/DG/TGxP=FFFF NFrqRd=   0 IEInf=0 SqF1=F DoCFld=F IF1Alg=4.
 End of G2Drv F.D. properties file   721 does not exist.
 End of G2Drv F.D. properties file   722 does not exist.
 End of G2Drv F.D. properties file   788 does not exist.
          IDoAtm=11111111111111111111111111111111
 NEqPCM:  Using equilibrium solvation (IEInf=0, Eps=   2.0333, EpsInf=   2.0492)
          Differentiating once with respect to nuclear coordinates.
          There are    99 degrees of freedom in the 1st order CPHF.  IDoFFX=6 NUNeed=     0.
     93 vectors produced by pass  0 Test12= 3.25D-14 1.01D-09 XBig12= 4.74D-01 1.72D-01.
 AX will form    93 AO Fock derivatives at one time.
     93 vectors produced by pass  1 Test12= 3.25D-14 1.01D-09 XBig12= 2.47D-02 5.77D-02.
     93 vectors produced by pass  2 Test12= 3.25D-14 1.01D-09 XBig12= 7.46D-04 3.76D-03.
     93 vectors produced by pass  3 Test12= 3.25D-14 1.01D-09 XBig12= 6.84D-06 3.42D-04.
     93 vectors produced by pass  4 Test12= 3.25D-14 1.01D-09 XBig12= 7.79D-08 2.96D-05.
     93 vectors produced by pass  5 Test12= 3.25D-14 1.01D-09 XBig12= 4.76D-10 2.03D-06.
     79 vectors produced by pass  6 Test12= 3.25D-14 1.01D-09 XBig12= 2.10D-12 1.15D-07.
     35 vectors produced by pass  7 Test12= 3.25D-14 1.01D-09 XBig12= 1.21D-14 1.35D-08.
     12 vectors produced by pass  8 Test12= 3.25D-14 1.01D-09 XBig12= 3.35D-15 5.80D-09.
     12 vectors produced by pass  9 Test12= 3.25D-14 1.01D-09 XBig12= 8.12D-15 6.95D-09.
      3 vectors produced by pass 10 Test12= 3.25D-14 1.01D-09 XBig12= 5.00D-15 5.63D-09.
      2 vectors produced by pass 11 Test12= 3.25D-14 1.01D-09 XBig12= 7.36D-15 6.72D-09.
 InvSVY:  IOpt=1 It=  1 EMax= 2.22D-15
 Solved reduced A of dimension   701 with    99 vectors.
 End of Minotr F.D. properties file   721 does not exist.
 End of Minotr F.D. properties file   722 does not exist.
 End of Minotr F.D. properties file   788 does not exist.

 **********************************************************************

            Population analysis using the SCF density.

 **********************************************************************

 Orbital symmetries:
       Occupied  (A) (A) (A) (A) (A) (A) (A) (A) (A) (A) (A) (A)
                 (A) (A) (A) (A) (A) (A) (A) (A) (A) (A) (A) (A)
                 (A) (A) (A) (A) (A) (A) (A) (A) (A) (A) (A) (A)
                 (A) (A) (A) (A) (A) (A) (A) (A) (A) (A) (A) (A)
                 (A) (A) (A) (A) (A) (A) (A) (A) (A) (A) (A) (A)
                 (A) (A) (A) (A) (A) (A) (A) (A) (A) (A) (A) (A)
                 (A) (A) (A) (A) (A) (A) (A) (A)
       Virtual   (A) (A) (A) (A) (A) (A) (A) (A) (A) (A) (A) (A)
                 (A) (A) (A) (A) (A) (A) (A) (A) (A) (A) (A) (A)
                 (A) (A) (A) (A) (A) (A) (A) (A) (A) (A) (A) (A)
                 (A) (A) (A) (A) (A) (A) (A) (A) (A) (A) (A) (A)
                 (A) (A) (A) (A) (A) (A) (A) (A) (A) (A) (A) (A)
                 (A) (A) (A) (A) (A) (A) (A) (A) (A) (A) (A) (A)
                 (A) (A) (A) (A) (A) (A) (A) (A) (A) (A) (A) (A)
                 (A) (A) (A) (A) (A) (A) (A) (A) (A) (A) (A) (A)
                 (A) (A) (A) (A) (A) (A) (A) (A) (A) (A) (A) (A)
                 (A) (A) (A) (A) (A) (A) (A) (A) (A) (A) (A) (A)
                 (A) (A) (A) (A) (A) (A) (A) (A) (A) (A) (A) (A)
                 (A) (A) (A) (A) (A) (A) (A) (A) (A) (A) (A) (A)
                 (A) (A) (A) (A) (A) (A) (A) (A) (A) (A) (A) (A)
                 (A) (A) (A) (A) (A) (A) (A) (A) (A) (A) (A) (A)
                 (A) (A) (A) (A) (A) (A) (A) (A) (A) (A) (A) (A)
                 (A) (A) (A) (A) (A) (A) (A) (A) (A) (A) (A) (A)
                 (A) (A) (A) (A) (A) (A) (A) (A) (A) (A) (A) (A)
                 (A) (A) (A) (A) (A) (A) (A) (A) (A) (A) (A) (A)
                 (A) (A) (A) (A) (A) (A) (A) (A) (A) (A) (A) (A)
                 (A) (A) (A) (A) (A) (A) (A) (A) (A) (A) (A) (A)
                 (A) (A) (A) (A) (A) (A) (A) (A) (A) (A) (A) (A)
                 (A) (A) (A) (A) (A) (A) (A) (A) (A) (A) (A) (A)
                 (A) (A) (A) (A) (A) (A) (A) (A) (A) (A) (A) (A)
                 (A) (A) (A) (A) (A) (A) (A) (A) (A) (A) (A) (A)
                 (A) (A) (A) (A) (A) (A) (A) (A) (A) (A) (A) (A)
                 (A) (A) (A) (A) (A) (A) (A) (A) (A) (A) (A) (A)
                 (A) (A) (A) (A) (A) (A) (A) (A) (A) (A) (A) (A)
                 (A) (A) (A) (A) (A) (A) (A) (A) (A) (A) (A) (A)
                 (A) (A) (A) (A) (A) (A) (A) (A) (A) (A) (A) (A)
                 (A) (A) (A) (A) (A) (A) (A) (A) (A) (A) (A) (A)
                 (A) (A) (A) (A) (A) (A) (A) (A) (A) (A) (A) (A)
                 (A) (A) (A) (A) (A) (A) (A) (A) (A) (A) (A) (A)
                 (A) (A) (A) (A) (A) (A) (A) (A) (A) (A) (A) (A)
                 (A) (A) (A) (A) (A) (A)
 The electronic state is 1-A.
 Alpha  occ. eigenvalues --  -90.12700 -25.31079 -25.31066 -25.31058 -19.68210
 Alpha  occ. eigenvalues --  -19.64626 -19.64611 -19.62466 -14.81205 -10.83435
 Alpha  occ. eigenvalues --  -10.71983 -10.63097 -10.60122 -10.59562 -10.58522
 Alpha  occ. eigenvalues --  -10.58333 -10.57455 -10.56673 -10.54340 -10.53186
 Alpha  occ. eigenvalues --   -8.47099  -6.39297  -6.39248  -6.39182  -1.50768
 Alpha  occ. eigenvalues --   -1.41369  -1.41242  -1.26771  -1.26414  -1.16591
 Alpha  occ. eigenvalues --   -1.16137  -1.08809  -0.99752  -0.91515  -0.89628
 Alpha  occ. eigenvalues --   -0.88253  -0.86599  -0.81579  -0.78605  -0.74975
 Alpha  occ. eigenvalues --   -0.74058  -0.72898  -0.72776  -0.69922  -0.68299
 Alpha  occ. eigenvalues --   -0.67578  -0.65707  -0.63546  -0.61546  -0.60596
 Alpha  occ. eigenvalues --   -0.60107  -0.60077  -0.57575  -0.56858  -0.56691
 Alpha  occ. eigenvalues --   -0.56538  -0.55966  -0.54498  -0.54458  -0.54408
 Alpha  occ. eigenvalues --   -0.54098  -0.52497  -0.51584  -0.49757  -0.49599
 Alpha  occ. eigenvalues --   -0.47091  -0.46375  -0.44350  -0.43881  -0.43267
 Alpha  occ. eigenvalues --   -0.43216  -0.41738  -0.41294  -0.41078  -0.40773
 Alpha  occ. eigenvalues --   -0.38870  -0.38652  -0.37746  -0.34184  -0.30725
 Alpha virt. eigenvalues --   -0.03320  -0.00846   0.00035   0.01713   0.02032
 Alpha virt. eigenvalues --    0.02659   0.02937   0.03370   0.03679   0.04124
 Alpha virt. eigenvalues --    0.04532   0.04838   0.05611   0.06148   0.06663
 Alpha virt. eigenvalues --    0.06915   0.06920   0.07320   0.07535   0.08104
 Alpha virt. eigenvalues --    0.08385   0.08733   0.09112   0.09375   0.09794
 Alpha virt. eigenvalues --    0.10165   0.10525   0.10847   0.10949   0.11680
 Alpha virt. eigenvalues --    0.12034   0.12755   0.13464   0.13879   0.14339
 Alpha virt. eigenvalues --    0.14615   0.14908   0.15131   0.15338   0.16106
 Alpha virt. eigenvalues --    0.17107   0.17563   0.18567   0.18649   0.19004
 Alpha virt. eigenvalues --    0.19346   0.19867   0.20222   0.20488   0.20880
 Alpha virt. eigenvalues --    0.21083   0.21334   0.21521   0.21802   0.22245
 Alpha virt. eigenvalues --    0.22919   0.23144   0.23537   0.23960   0.24131
 Alpha virt. eigenvalues --    0.24239   0.24793   0.24962   0.25293   0.25878
 Alpha virt. eigenvalues --    0.25963   0.26095   0.26550   0.26905   0.27572
 Alpha virt. eigenvalues --    0.27851   0.28356   0.28955   0.29661   0.29982
 Alpha virt. eigenvalues --    0.30136   0.30333   0.30640   0.31451   0.31590
 Alpha virt. eigenvalues --    0.31970   0.32025   0.32673   0.33077   0.33540
 Alpha virt. eigenvalues --    0.34104   0.34395   0.35017   0.35391   0.36337
 Alpha virt. eigenvalues --    0.36561   0.36791   0.37491   0.37951   0.38321
 Alpha virt. eigenvalues --    0.38962   0.39907   0.40509   0.40928   0.41616
 Alpha virt. eigenvalues --    0.42116   0.42742   0.43208   0.43461   0.43967
 Alpha virt. eigenvalues --    0.44997   0.45850   0.46112   0.47212   0.47893
 Alpha virt. eigenvalues --    0.48008   0.48573   0.49826   0.50243   0.51036
 Alpha virt. eigenvalues --    0.53225   0.53406   0.54212   0.54747   0.55947
 Alpha virt. eigenvalues --    0.56144   0.57573   0.58009   0.58400   0.59656
 Alpha virt. eigenvalues --    0.60741   0.61366   0.62008   0.62396   0.63207
 Alpha virt. eigenvalues --    0.64513   0.65352   0.66500   0.67548   0.67923
 Alpha virt. eigenvalues --    0.69284   0.69900   0.70177   0.70729   0.71336
 Alpha virt. eigenvalues --    0.71370   0.72489   0.72872   0.73417   0.74139
 Alpha virt. eigenvalues --    0.75630   0.75710   0.76014   0.77038   0.77745
 Alpha virt. eigenvalues --    0.78265   0.79232   0.80797   0.81372   0.81569
 Alpha virt. eigenvalues --    0.83298   0.84738   0.86969   0.87368   0.88206
 Alpha virt. eigenvalues --    0.90424   0.91118   0.91735   0.92282   0.93426
 Alpha virt. eigenvalues --    0.93853   0.96386   0.99009   0.99549   0.99835
 Alpha virt. eigenvalues --    1.01692   1.03380   1.03922   1.04820   1.05231
 Alpha virt. eigenvalues --    1.06485   1.08582   1.10458   1.11058   1.12263
 Alpha virt. eigenvalues --    1.12945   1.13842   1.15533   1.16397   1.17765
 Alpha virt. eigenvalues --    1.19109   1.20091   1.21418   1.21907   1.22471
 Alpha virt. eigenvalues --    1.23433   1.23968   1.24552   1.25659   1.26060
 Alpha virt. eigenvalues --    1.26861   1.27942   1.30102   1.30715   1.31217
 Alpha virt. eigenvalues --    1.32648   1.34463   1.36264   1.37879   1.39555
 Alpha virt. eigenvalues --    1.43500   1.43870   1.44631   1.46367   1.47283
 Alpha virt. eigenvalues --    1.47861   1.49536   1.50372   1.51631   1.51716
 Alpha virt. eigenvalues --    1.53086   1.53869   1.53986   1.56264   1.57423
 Alpha virt. eigenvalues --    1.57980   1.58344   1.60885   1.62534   1.62918
 Alpha virt. eigenvalues --    1.65010   1.65907   1.68521   1.71594   1.71811
 Alpha virt. eigenvalues --    1.73497   1.75390   1.76941   1.77709   1.78311
 Alpha virt. eigenvalues --    1.78842   1.80486   1.81601   1.83739   1.84012
 Alpha virt. eigenvalues --    1.85591   1.85673   1.86558   1.87457   1.89158
 Alpha virt. eigenvalues --    1.91017   1.91101   1.93079   1.95008   1.96884
 Alpha virt. eigenvalues --    1.98630   1.99642   2.00820   2.02016   2.04306
 Alpha virt. eigenvalues --    2.05738   2.08559   2.09732   2.09930   2.13232
 Alpha virt. eigenvalues --    2.17065   2.17325   2.20982   2.23273   2.27969
 Alpha virt. eigenvalues --    2.34464   2.34837   2.36576   2.37423   2.42349
 Alpha virt. eigenvalues --    2.45611   2.48793   2.50364   2.52050   2.54714
 Alpha virt. eigenvalues --    2.56127   2.59806   2.60568   2.63016   2.64981
 Alpha virt. eigenvalues --    2.70066   2.72001   2.73227   2.74539   2.78476
 Alpha virt. eigenvalues --    2.81315   2.82289   2.86194   2.87561   2.87713
 Alpha virt. eigenvalues --    2.90492   2.91325   2.91836   2.93060   2.93513
 Alpha virt. eigenvalues --    2.94448   2.96965   2.97317   3.00900   3.00973
 Alpha virt. eigenvalues --    3.02857   3.03964   3.04593   3.06861   3.09791
 Alpha virt. eigenvalues --    3.10062   3.11829   3.11937   3.18005   3.18040
 Alpha virt. eigenvalues --    3.18963   3.21022   3.24758   3.25940   3.28974
 Alpha virt. eigenvalues --    3.29146   3.29720   3.33557   3.36300   3.38103
 Alpha virt. eigenvalues --    3.41072   3.41480   3.44261   3.46558   3.54793
 Alpha virt. eigenvalues --    3.56749   3.64443   3.69510   3.70559   3.71572
 Alpha virt. eigenvalues --    3.75539   3.77427   3.81287   3.81354   3.81990
 Alpha virt. eigenvalues --    3.83203   3.84369   3.84535   3.88733   3.89821
 Alpha virt. eigenvalues --    3.95821   3.95840   3.96808   4.00511   4.05400
 Alpha virt. eigenvalues --    4.08776   4.10378   4.18276   4.19216   4.27972
 Alpha virt. eigenvalues --    4.28032   4.43942   4.55528   4.79324   4.98311
 Alpha virt. eigenvalues --    4.98558   5.07067   5.09734   5.15507   5.16430
 Alpha virt. eigenvalues --    5.17431   5.21308   5.21849   5.28436   5.36140
 Alpha virt. eigenvalues --    5.42507   5.50059   5.79667   5.95367   6.41455
 Alpha virt. eigenvalues --    6.44117   6.47915   6.49073   6.49852   6.51890
 Alpha virt. eigenvalues --    6.54088   6.88236   6.89200   8.32515  17.57647
 Alpha virt. eigenvalues --   17.61081  17.79025  23.47052  23.54969  23.57187
 Alpha virt. eigenvalues --   23.71853  23.81382  23.89821  23.92300  23.97298
 Alpha virt. eigenvalues --   24.07445  24.12664  24.20381  35.64672  49.97496
 Alpha virt. eigenvalues --   50.01245  50.01786  50.13361  66.86438  66.86796
 Alpha virt. eigenvalues --   66.91564 189.58567
          Condensed to atoms (all electrons):
               1          2          3          4          5          6
     1  C   18.333012  -0.053598  -0.111010  -0.191579  -0.327710  -0.475881
     2  N   -0.053598   7.579719   0.223532  -0.000748  -0.208683  -0.291560
     3  C   -0.111010   0.223532   9.083873   0.481115   0.287529  -0.618586
     4  O   -0.191579  -0.000748   0.481115   8.074043  -0.194997  -0.207991
     5  O   -0.327710  -0.208683   0.287529  -0.194997   8.324273   0.351624
     6  C   -0.475881  -0.291560  -0.618586  -0.207991   0.351624   8.486457
     7  C   -0.029839   0.033019   0.154319   0.030921  -0.161090  -0.999969
     8  C   -0.016512  -0.005153  -0.279260   0.001264   0.033915   0.355186
     9  C    4.238445  -0.142219   1.180473   0.346961   0.032854  -0.371206
    10  C   -0.567973   0.116479  -0.471849   0.043601   0.011281  -0.228016
    11  C   -7.887020   0.067026  -1.730495  -0.007880   0.013390  -0.149701
    12  C   -2.615512   0.015934  -0.544914  -0.017028  -0.005006   0.027813
    13  C   -2.525657  -0.086171  -1.762814  -0.047407  -0.037207  -0.120882
    14  H   -0.063922   0.263693  -0.012940   0.000197   0.022642  -0.009669
    15  H    0.006262   0.004613   0.031706  -0.001137  -0.043546   0.363462
    16  H    0.004757   0.005096   0.035982  -0.001413  -0.043585   0.359183
    17  H    0.000228  -0.000920   0.005693  -0.000285   0.000779  -0.062594
    18  H   -0.000308  -0.000756   0.006456  -0.000310   0.000884  -0.063868
    19  H   -0.000118  -0.000039  -0.001338  -0.000076  -0.000392  -0.047848
    20  H    0.000154   0.000035   0.009102   0.000029  -0.000670   0.090872
    21  H   -0.000104  -0.000042  -0.001279  -0.000078  -0.000392  -0.048385
    22  H    0.105813  -0.028685   0.072512   0.002439   0.002116   0.009001
    23  C    0.445089  -0.003516   0.013781   0.000235  -0.000106   0.000202
    24  H    0.017584  -0.002386   0.002623  -0.000013  -0.000009   0.000023
    25  H    0.045923  -0.017416  -0.005155   0.000107  -0.000764  -0.000311
    26  F   -0.016838   0.000058  -0.000296  -0.000000   0.000000  -0.000001
    27  F   -0.001908   0.000013   0.000011  -0.000000   0.000000   0.000000
    28  F   -0.044049   0.000093  -0.001298  -0.000004   0.000000  -0.000009
    29  S   -1.696672   0.008922  -0.113025  -0.001476   0.001125  -0.003848
    30  O   -0.204872  -0.000228  -0.013641  -0.000048   0.000000  -0.000132
    31  O    0.222197   0.000054   0.008072   0.000006   0.000003   0.000055
    32  H    0.005361  -0.001000   0.008769  -0.000063   0.000010   0.000142
               7          8          9         10         11         12
     1  C   -0.029839  -0.016512   4.238445  -0.567973  -7.887020  -2.615512
     2  N    0.033019  -0.005153  -0.142219   0.116479   0.067026   0.015934
     3  C    0.154319  -0.279260   1.180473  -0.471849  -1.730495  -0.544914
     4  O    0.030921   0.001264   0.346961   0.043601  -0.007880  -0.017028
     5  O   -0.161090   0.033915   0.032854   0.011281   0.013390  -0.005006
     6  C   -0.999969   0.355186  -0.371206  -0.228016  -0.149701   0.027813
     7  C    6.549043  -0.161934  -0.007356   0.000915  -0.003830  -0.003133
     8  C   -0.161934   6.110702  -0.015676  -0.003476  -0.001218   0.000468
     9  C   -0.007356  -0.015676  24.425121   8.172166 -14.930972  -7.690856
    10  C    0.000915  -0.003476   8.172166  26.009989  -5.837388 -11.656610
    11  C   -0.003830  -0.001218 -14.930972  -5.837388  44.167376  -1.562253
    12  C   -0.003133   0.000468  -7.690856 -11.656610  -1.562253  23.836155
    13  C    0.012784  -0.001202  -8.555809  -7.527351  -3.625421   3.834144
    14  H   -0.001867  -0.000582   0.045763   0.010963   0.023326  -0.000564
    15  H   -0.024922  -0.013446  -0.001152   0.000332   0.000088  -0.000010
    16  H   -0.021674  -0.014382  -0.002406   0.000037  -0.000090   0.000129
    17  H    0.441872  -0.044241   0.000216   0.000031   0.000009  -0.000003
    18  H    0.443463  -0.045017   0.000192   0.000034   0.000004   0.000019
    19  H    0.013252   0.380734  -0.000013  -0.000001  -0.000001   0.000001
    20  H   -0.134391   0.386456   0.000056   0.000002   0.000000  -0.000001
    21  H    0.013682   0.380699  -0.000003  -0.000000  -0.000000   0.000000
    22  H   -0.000335   0.000053   0.276678  -0.151936   0.016886   0.007162
    23  C    0.000026  -0.000000   0.439183   1.397623  -1.407666   0.256615
    24  H    0.000001  -0.000000  -0.014966  -0.035397   0.026463   0.385673
    25  H   -0.000019   0.000006  -0.012018   0.000257   0.070620  -0.011744
    26  F   -0.000000   0.000000   0.014359   0.040719   0.147729  -0.149598
    27  F   -0.000000   0.000000  -0.004923  -0.022901   0.086722  -0.013244
    28  F   -0.000000  -0.000000  -0.108026  -0.252094   0.200294   0.094529
    29  S   -0.000310  -0.000012  -0.727703  -2.751032  -2.919672   2.421681
    30  O    0.000001  -0.000000  -1.037177  -2.635564   0.782844   1.838972
    31  O   -0.000001   0.000000   0.637343   2.184306   0.486242  -2.248967
    32  H   -0.000000   0.000000  -0.044890   0.426140  -0.038554  -0.042818
              13         14         15         16         17         18
     1  C   -2.525657  -0.063922   0.006262   0.004757   0.000228  -0.000308
     2  N   -0.086171   0.263693   0.004613   0.005096  -0.000920  -0.000756
     3  C   -1.762814  -0.012940   0.031706   0.035982   0.005693   0.006456
     4  O   -0.047407   0.000197  -0.001137  -0.001413  -0.000285  -0.000310
     5  O   -0.037207   0.022642  -0.043546  -0.043585   0.000779   0.000884
     6  C   -0.120882  -0.009669   0.363462   0.359183  -0.062594  -0.063868
     7  C    0.012784  -0.001867  -0.024922  -0.021674   0.441872   0.443463
     8  C   -0.001202  -0.000582  -0.013446  -0.014382  -0.044241  -0.045017
     9  C   -8.555809   0.045763  -0.001152  -0.002406   0.000216   0.000192
    10  C   -7.527351   0.010963   0.000332   0.000037   0.000031   0.000034
    11  C   -3.625421   0.023326   0.000088  -0.000090   0.000009   0.000004
    12  C    3.834144  -0.000564  -0.000010   0.000129  -0.000003   0.000019
    13  C   25.598801  -0.009556   0.000207   0.000751  -0.000010   0.000093
    14  H   -0.009556   0.294588   0.000010  -0.000007   0.000011   0.000004
    15  H    0.000207   0.000010   0.440881  -0.040158   0.005247  -0.007664
    16  H    0.000751  -0.000007  -0.040158   0.441365  -0.007713   0.005241
    17  H   -0.000010   0.000011   0.005247  -0.007713   0.440377  -0.036840
    18  H    0.000093   0.000004  -0.007664   0.005241  -0.036840   0.439876
    19  H    0.000008  -0.000000  -0.000448   0.003486  -0.007901   0.005945
    20  H   -0.000014  -0.000000  -0.000176  -0.000173  -0.003144  -0.003172
    21  H    0.000006  -0.000000   0.003494  -0.000459   0.005957  -0.007871
    22  H    0.013136  -0.000184  -0.000023  -0.000022  -0.000000  -0.000000
    23  C    0.091472  -0.000076  -0.000000  -0.000000  -0.000000  -0.000000
    24  H   -0.081279  -0.000004  -0.000000  -0.000000  -0.000000  -0.000000
    25  H    0.251540   0.005666  -0.000000  -0.000000  -0.000000  -0.000000
    26  F   -0.037563   0.000000   0.000000  -0.000000   0.000000   0.000000
    27  F   -0.001492  -0.000000  -0.000000   0.000000   0.000000   0.000000
    28  F    0.033187   0.000000   0.000000   0.000000   0.000000   0.000000
    29  S    1.414213   0.001528  -0.000001  -0.000001   0.000000   0.000000
    30  O    0.623215   0.000004   0.000000   0.000000   0.000000   0.000000
    31  O   -0.916952   0.000003  -0.000000  -0.000000   0.000000   0.000000
    32  H   -0.017993   0.000007  -0.000000   0.000000  -0.000000   0.000000
              19         20         21         22         23         24
     1  C   -0.000118   0.000154  -0.000104   0.105813   0.445089   0.017584
     2  N   -0.000039   0.000035  -0.000042  -0.028685  -0.003516  -0.002386
     3  C   -0.001338   0.009102  -0.001279   0.072512   0.013781   0.002623
     4  O   -0.000076   0.000029  -0.000078   0.002439   0.000235  -0.000013
     5  O   -0.000392  -0.000670  -0.000392   0.002116  -0.000106  -0.000009
     6  C   -0.047848   0.090872  -0.048385   0.009001   0.000202   0.000023
     7  C    0.013252  -0.134391   0.013682  -0.000335   0.000026   0.000001
     8  C    0.380734   0.386456   0.380699   0.000053  -0.000000  -0.000000
     9  C   -0.000013   0.000056  -0.000003   0.276678   0.439183  -0.014966
    10  C   -0.000001   0.000002  -0.000000  -0.151936   1.397623  -0.035397
    11  C   -0.000001   0.000000  -0.000000   0.016886  -1.407666   0.026463
    12  C    0.000001  -0.000001   0.000000   0.007162   0.256615   0.385673
    13  C    0.000008  -0.000014   0.000006   0.013136   0.091472  -0.081279
    14  H   -0.000000  -0.000000  -0.000000  -0.000184  -0.000076  -0.000004
    15  H   -0.000448  -0.000176   0.003494  -0.000023  -0.000000  -0.000000
    16  H    0.003486  -0.000173  -0.000459  -0.000022  -0.000000  -0.000000
    17  H   -0.007901  -0.003144   0.005957  -0.000000  -0.000000  -0.000000
    18  H    0.005945  -0.003172  -0.007871  -0.000000  -0.000000  -0.000000
    19  H    0.451607  -0.024582  -0.037222  -0.000000   0.000000   0.000000
    20  H   -0.024582   0.424954  -0.024572   0.000000  -0.000000  -0.000000
    21  H   -0.037222  -0.024572   0.451594  -0.000000   0.000000   0.000000
    22  H   -0.000000   0.000000  -0.000000   0.355762  -0.000696   0.000069
    23  C    0.000000  -0.000000   0.000000  -0.000696   7.293582  -0.001706
    24  H    0.000000  -0.000000   0.000000   0.000069  -0.001706   0.371454
    25  H   -0.000000   0.000000  -0.000000  -0.000097  -0.000681  -0.003447
    26  F   -0.000000  -0.000000   0.000000  -0.000001   0.132648  -0.002907
    27  F    0.000000  -0.000000  -0.000000  -0.000001   0.265309  -0.000164
    28  F    0.000000  -0.000000  -0.000000   0.000030   0.102108   0.000254
    29  S   -0.000000   0.000000  -0.000000   0.005645  -2.857147   0.031914
    30  O   -0.000000   0.000000  -0.000000   0.000550  -0.139694   0.002266
    31  O   -0.000000   0.000000  -0.000000  -0.000051  -0.032236  -0.010152
    32  H    0.000000   0.000000  -0.000000  -0.002149  -0.002704  -0.000109
              25         26         27         28         29         30
     1  C    0.045923  -0.016838  -0.001908  -0.044049  -1.696672  -0.204872
     2  N   -0.017416   0.000058   0.000013   0.000093   0.008922  -0.000228
     3  C   -0.005155  -0.000296   0.000011  -0.001298  -0.113025  -0.013641
     4  O    0.000107  -0.000000  -0.000000  -0.000004  -0.001476  -0.000048
     5  O   -0.000764   0.000000   0.000000   0.000000   0.001125   0.000000
     6  C   -0.000311  -0.000001   0.000000  -0.000009  -0.003848  -0.000132
     7  C   -0.000019  -0.000000  -0.000000  -0.000000  -0.000310   0.000001
     8  C    0.000006   0.000000   0.000000  -0.000000  -0.000012  -0.000000
     9  C   -0.012018   0.014359  -0.004923  -0.108026  -0.727703  -1.037177
    10  C    0.000257   0.040719  -0.022901  -0.252094  -2.751032  -2.635564
    11  C    0.070620   0.147729   0.086722   0.200294  -2.919672   0.782844
    12  C   -0.011744  -0.149598  -0.013244   0.094529   2.421681   1.838972
    13  C    0.251540  -0.037563  -0.001492   0.033187   1.414213   0.623215
    14  H    0.005666   0.000000  -0.000000   0.000000   0.001528   0.000004
    15  H   -0.000000   0.000000  -0.000000   0.000000  -0.000001   0.000000
    16  H   -0.000000  -0.000000   0.000000   0.000000  -0.000001   0.000000
    17  H   -0.000000   0.000000   0.000000   0.000000   0.000000   0.000000
    18  H   -0.000000   0.000000   0.000000   0.000000   0.000000   0.000000
    19  H   -0.000000  -0.000000   0.000000   0.000000  -0.000000  -0.000000
    20  H    0.000000  -0.000000  -0.000000  -0.000000   0.000000   0.000000
    21  H   -0.000000   0.000000  -0.000000  -0.000000  -0.000000  -0.000000
    22  H   -0.000097  -0.000001  -0.000001   0.000030   0.005645   0.000550
    23  C   -0.000681   0.132648   0.265309   0.102108  -2.857147  -0.139694
    24  H   -0.003447  -0.002907  -0.000164   0.000254   0.031914   0.002266
    25  H    0.403596   0.000034  -0.000001  -0.000001   0.007073  -0.000109
    26  F    0.000034   8.933465  -0.041268  -0.036975   0.047237  -0.010642
    27  F   -0.000001  -0.041268   8.952117  -0.041424  -0.103993  -0.004092
    28  F   -0.000001  -0.036975  -0.041424   8.937240   0.142646   0.022803
    29  S    0.007073   0.047237  -0.103993   0.142646  22.852941   0.203665
    30  O   -0.000109  -0.010642  -0.004092   0.022803   0.203665   9.454056
    31  O    0.000815   0.016571  -0.003496  -0.010778  -0.757287  -0.792604
    32  H    0.000057   0.000187  -0.000150  -0.002682   0.032428  -0.003713
              31         32
     1  C    0.222197   0.005361
     2  N    0.000054  -0.001000
     3  C    0.008072   0.008769
     4  O    0.000006  -0.000063
     5  O    0.000003   0.000010
     6  C    0.000055   0.000142
     7  C   -0.000001  -0.000000
     8  C    0.000000   0.000000
     9  C    0.637343  -0.044890
    10  C    2.184306   0.426140
    11  C    0.486242  -0.038554
    12  C   -2.248967  -0.042818
    13  C   -0.916952  -0.017993
    14  H    0.000003   0.000007
    15  H   -0.000000  -0.000000
    16  H   -0.000000   0.000000
    17  H    0.000000  -0.000000
    18  H    0.000000   0.000000
    19  H   -0.000000   0.000000
    20  H    0.000000   0.000000
    21  H   -0.000000  -0.000000
    22  H   -0.000051  -0.002149
    23  C   -0.032236  -0.002704
    24  H   -0.010152  -0.000109
    25  H    0.000815   0.000057
    26  F    0.016571   0.000187
    27  F   -0.003496  -0.000150
    28  F   -0.010778  -0.002682
    29  S   -0.757287   0.032428
    30  O   -0.792604  -0.003713
    31  O    9.309118   0.000516
    32  H    0.000516   0.367016
 Mulliken charges:
               1
     1  C   -0.593743
     2  N   -0.475166
     3  C    0.062353
     4  O   -0.308385
     5  O   -0.058273
     6  C   -0.343565
     7  C   -0.142629
     8  C   -1.047375
     9  C   -0.142442
    10  C   -0.273285
    11  C    0.013141
    12  C   -0.157034
    13  C   -0.518777
    14  H    0.430964
    15  H    0.276380
    16  H    0.276057
    17  H    0.263229
    18  H    0.263593
    19  H    0.264948
    20  H    0.279235
    21  H    0.264974
    22  H    0.316329
    23  C    0.008356
    24  H    0.314215
    25  H    0.266069
    26  F   -0.036916
    27  F   -0.065117
    28  F   -0.035847
    29  S    0.761159
    30  O   -0.085861
    31  O   -0.092778
    32  H    0.316191
 Sum of Mulliken charges =  -0.00000
 Mulliken charges with hydrogens summed into heavy atoms:
               1
     1  C   -0.593743
     2  N   -0.044202
     3  C    0.062353
     4  O   -0.308385
     5  O   -0.058273
     6  C    0.208872
     7  C    0.384193
     8  C   -0.238219
     9  C    0.173887
    10  C    0.042906
    11  C    0.013141
    12  C    0.157181
    13  C   -0.252708
    23  C    0.008356
    26  F   -0.036916
    27  F   -0.065117
    28  F   -0.035847
    29  S    0.761159
    30  O   -0.085861
    31  O   -0.092778
 APT charges:
               1
     1  C   -0.923747
     2  N   -1.348630
     3  C    0.812773
     4  O   -0.298940
     5  O    0.769201
     6  C   -1.234691
     7  C   -0.207529
     8  C   -2.993571
     9  C   -1.162496
    10  C   -0.545203
    11  C    0.349489
    12  C   -0.180001
    13  C   -0.590790
    14  H    0.820639
    15  H    0.489667
    16  H    0.406669
    17  H    0.413694
    18  H    0.494597
    19  H    0.470896
    20  H    1.255315
    21  H    0.543714
    22  H    0.598376
    23  C   -0.022717
    24  H    0.776241
    25  H    0.654058
    26  F   -0.082828
    27  F    0.388477
    28  F   -0.145601
    29  S   -0.385901
    30  O    0.038948
    31  O    0.160971
    32  H    0.678918
 Sum of APT charges =  -0.00000
 APT charges with hydrogens summed into heavy atoms:
               1
     1  C   -0.923747
     2  N   -0.527990
     3  C    0.812773
     4  O   -0.298940
     5  O    0.769201
     6  C   -0.338355
     7  C    0.700762
     8  C   -0.723646
     9  C   -0.564120
    10  C    0.133714
    11  C    0.349489
    12  C    0.596241
    13  C    0.063268
    23  C   -0.022717
    26  F   -0.082828
    27  F    0.388477
    28  F   -0.145601
    29  S   -0.385901
    30  O    0.038948
    31  O    0.160971
 Electronic spatial extent (au):  <R**2>=          10801.9310
 Charge=             -0.0000 electrons
 Dipole moment (field-independent basis, Debye):
    X=              8.4127    Y=              2.2844    Z=              2.6945  Tot=              9.1243
 Quadrupole moment (field-independent basis, Debye-Ang):
   XX=           -123.2409   YY=           -121.5062   ZZ=           -127.8902
   XY=              7.2875   XZ=             -5.7000   YZ=              1.3334
 Traceless Quadrupole moment (field-independent basis, Debye-Ang):
   XX=              0.9715   YY=              2.7063   ZZ=             -3.6778
   XY=              7.2875   XZ=             -5.7000   YZ=              1.3334
 Octapole moment (field-independent basis, Debye-Ang**2):
  XXX=            228.6612  YYY=              2.5880  ZZZ=             27.2085  XYY=             -9.7240
  XXY=            -10.6065  XXZ=             55.9353  XZZ=             -2.4556  YZZ=             -4.2026
  YYZ=             16.8908  XYZ=             -2.6707
 Hexadecapole moment (field-independent basis, Debye-Ang**3):
 XXXX=         -11505.9487 YYYY=           -699.3276 ZZZZ=           -597.8865 XXXY=            113.7928
 XXXZ=           -189.0003 YYYX=             84.6686 YYYZ=             14.3970 ZZZX=           -110.0316
 ZZZY=            -17.1717 XXYY=          -2265.4518 XXZZ=          -2193.8683 YYZZ=           -225.1843
 XXYZ=            -23.5371 YYXZ=            -31.0830 ZZXY=              5.7281
 N-N= 1.753073950680D+03 E-N=-6.991894767950D+03  KE= 1.475852540570D+03
  Exact polarizability:   0.000   0.000   0.000   0.000   0.000   0.000
 Approx polarizability: 240.174  -3.911 211.457  10.111  23.984 154.792
 D2PCM: PCM CHGder 2nd derivatives, FixD1E=F FixD2E=F DoIter=F DoCFld=F I1PDM=0
 Calling FoFJK, ICntrl=    100147 FMM=F ISym2X=0 I1Cent= 0 IOpClX= 0 NMat=1 NMatS=1 NMatT=0.
 ***** Axes restored to original set *****
 -------------------------------------------------------------------
 Center     Atomic                   Forces (Hartrees/Bohr)
 Number     Number              X              Y              Z
 -------------------------------------------------------------------
      1        6           0.001760865   -0.000730460   -0.000236260
      2        7          -0.000024661    0.002364123    0.000088515
      3        6          -0.000238615   -0.004505813   -0.000086599
      4        8           0.000311624    0.002433332    0.000058341
      5        8          -0.002205444    0.001600826    0.000225443
      6        6           0.001231321    0.000293547   -0.000077265
      7        6           0.000215772    0.000235840   -0.000021938
      8        6          -0.000990199    0.000032487    0.000073217
      9        6          -0.000631596    0.000252207    0.000046664
     10        6           0.000188718    0.000808855    0.000028967
     11        6          -0.000620386    0.000395911    0.000317878
     12        6           0.000085960   -0.000402276   -0.000005552
     13        6          -0.000891601   -0.000836613    0.000059077
     14        1          -0.000688510   -0.001284665   -0.000049564
     15        1           0.000240402   -0.000274731    0.000203481
     16        1           0.000189262   -0.000257712   -0.000263245
     17        1           0.000127022    0.000048631   -0.000240255
     18        1           0.000161942    0.000039286    0.000209182
     19        1           0.000051131    0.000103596   -0.000198637
     20        1           0.000174065   -0.000307413   -0.000019123
     21        1           0.000079836    0.000090468    0.000196407
     22        1          -0.000471016    0.000302867    0.000064325
     23        6           0.001019125   -0.000402106    0.000053282
     24        1           0.000473090   -0.000582188   -0.000232749
     25        1           0.000140846    0.000152996    0.000049492
     26        9          -0.000333157    0.000469915    0.000228092
     27        9          -0.000849431    0.000314591   -0.000281847
     28        9          -0.000529538   -0.000074741    0.000216900
     29       16           0.005563008   -0.002069037   -0.002074153
     30        8          -0.001715179    0.001808046    0.000923504
     31        8          -0.002453433   -0.000210018    0.000919944
     32        1           0.000628774    0.000190248   -0.000175525
 -------------------------------------------------------------------
 Cartesian Forces:  Max     0.005563008 RMS     0.001070120
 FormGI is forming the generalized inverse of G from B-inverse, IUseBI=4.
 GSVD:  received Info=                   1 from GESDD.

 GradGradGradGradGradGradGradGradGradGradGradGradGradGradGradGradGradGrad
 Berny optimization.
 Internal  Forces:  Max     0.002453517 RMS     0.000562102
 Search for a local minimum.
 Step number   1 out of a maximum of  167
 All quantities printed in internal units (Hartrees-Bohrs-Radians)
 Mixed Optimization -- En-DIIS/RFO-DIIS
 Second derivative matrix not updated -- analytic derivatives used.
 ITU=  0
     Eigenvalues ---    0.00178   0.00182   0.00229   0.00301   0.00315
     Eigenvalues ---    0.00360   0.00565   0.00923   0.01059   0.01552
     Eigenvalues ---    0.01666   0.01831   0.02024   0.02277   0.02393
     Eigenvalues ---    0.02733   0.02861   0.02908   0.03580   0.03916
     Eigenvalues ---    0.04587   0.04601   0.04852   0.06234   0.06809
     Eigenvalues ---    0.08205   0.08356   0.09246   0.09936   0.10105
     Eigenvalues ---    0.10295   0.10506   0.11340   0.11604   0.12053
     Eigenvalues ---    0.12415   0.12747   0.13517   0.13570   0.13850
     Eigenvalues ---    0.14338   0.15536   0.16359   0.16850   0.16931
     Eigenvalues ---    0.17209   0.18150   0.18680   0.19042   0.19511
     Eigenvalues ---    0.20465   0.21858   0.22642   0.22718   0.24734
     Eigenvalues ---    0.25301   0.25629   0.28684   0.29823   0.30580
     Eigenvalues ---    0.32221   0.33803   0.34070   0.34101   0.34272
     Eigenvalues ---    0.34535   0.34643   0.34737   0.35351   0.36101
     Eigenvalues ---    0.36595   0.36833   0.36935   0.37287   0.37653
     Eigenvalues ---    0.39453   0.40419   0.40756   0.43320   0.44795
     Eigenvalues ---    0.47610   0.47849   0.48684   0.52781   0.53699
     Eigenvalues ---    0.57327   0.60077   0.64868   0.65664   0.91001
 RFO step:  Lambda=-2.17532320D-04 EMin= 1.77623733D-03
 Linear search not attempted -- first point.
 Iteration  1 RMS(Cart)=  0.01367563 RMS(Int)=  0.00005118
 Iteration  2 RMS(Cart)=  0.00010521 RMS(Int)=  0.00000919
 Iteration  3 RMS(Cart)=  0.00000001 RMS(Int)=  0.00000919
 Variable       Old X    -DE/DX   Delta X   Delta X   Delta X     New X
                                 (Linear)    (Quad)   (Total)
    R1        2.63374  -0.00150   0.00000  -0.00444  -0.00444   2.62931
    R2        2.64869   0.00071   0.00000   0.00122   0.00122   2.64990
    R3        2.65309   0.00035   0.00000   0.00195   0.00195   2.65504
    R4        2.60187  -0.00082   0.00000  -0.00159  -0.00159   2.60028
    R5        1.90787   0.00124   0.00000   0.00278   0.00278   1.91066
    R6        2.27177   0.00245   0.00000   0.00355   0.00355   2.27533
    R7        2.53434  -0.00161   0.00000  -0.00627  -0.00627   2.52807
    R8        2.71630   0.00137   0.00000   0.00409   0.00409   2.72039
    R9        2.85943  -0.00029   0.00000  -0.00087  -0.00087   2.85856
   R10        2.06474   0.00006   0.00000  -0.00015  -0.00015   2.06459
   R11        2.06480   0.00007   0.00000  -0.00005  -0.00005   2.06475
   R12        2.88430  -0.00068   0.00000  -0.00189  -0.00189   2.88241
   R13        2.06611   0.00013   0.00000   0.00028   0.00028   2.06640
   R14        2.06612   0.00013   0.00000   0.00028   0.00028   2.06640
   R15        2.06480   0.00022   0.00000   0.00064   0.00064   2.06544
   R16        2.06085   0.00035   0.00000   0.00107   0.00107   2.06192
   R17        2.06481   0.00023   0.00000   0.00067   0.00067   2.06548
   R18        2.61952  -0.00066   0.00000  -0.00107  -0.00107   2.61845
   R19        2.03882  -0.00017   0.00000  -0.00029  -0.00029   2.03853
   R20        2.62762   0.00066   0.00000   0.00145   0.00145   2.62907
   R21        2.04841   0.00007   0.00000   0.00003   0.00003   2.04845
   R22        2.63164   0.00111   0.00000   0.00237   0.00237   2.63402
   R23        3.32666  -0.00072   0.00000  -0.00674  -0.00674   3.31992
   R24        2.60910  -0.00063   0.00000  -0.00162  -0.00162   2.60748
   R25        2.04795  -0.00002   0.00000  -0.00009  -0.00009   2.04786
   R26        2.05035  -0.00013   0.00000  -0.00037  -0.00037   2.04998
   R27        2.50763  -0.00053   0.00000  -0.00113  -0.00113   2.50650
   R28        2.49596   0.00092   0.00000   0.00252   0.00252   2.49848
   R29        2.50607  -0.00047   0.00000  -0.00099  -0.00099   2.50508
   R30        3.52773   0.00002   0.00000  -0.00065  -0.00065   3.52708
   R31        2.73412   0.00201   0.00000   0.00347   0.00347   2.73759
   R32        2.73535   0.00194   0.00000   0.00336   0.00336   2.73870
    A1        2.15034   0.00085   0.00000   0.00335   0.00335   2.15369
    A2        2.03948  -0.00093   0.00000  -0.00226  -0.00226   2.03722
    A3        2.09336   0.00008   0.00000  -0.00109  -0.00109   2.09228
    A4        2.22968   0.00068   0.00000   0.00188   0.00187   2.23156
    A5        2.04731  -0.00107   0.00000  -0.00608  -0.00609   2.04122
    A6        2.00618   0.00039   0.00000   0.00417   0.00416   2.01035
    A7        2.20660  -0.00003   0.00000  -0.00284  -0.00284   2.20377
    A8        1.89689  -0.00001   0.00000   0.00204   0.00204   1.89893
    A9        2.17969   0.00004   0.00000   0.00080   0.00080   2.18049
   A10        2.01464   0.00172   0.00000   0.00602   0.00602   2.02066
   A11        1.87947   0.00011   0.00000   0.00014   0.00014   1.87961
   A12        1.89782   0.00013   0.00000  -0.00022  -0.00022   1.89760
   A13        1.89788   0.00011   0.00000  -0.00040  -0.00040   1.89748
   A14        1.95174  -0.00035   0.00000  -0.00203  -0.00203   1.94971
   A15        1.95220  -0.00031   0.00000  -0.00195  -0.00195   1.95025
   A16        1.88356   0.00033   0.00000   0.00446   0.00446   1.88802
   A17        1.93525  -0.00018   0.00000  -0.00207  -0.00207   1.93318
   A18        1.90292   0.00011   0.00000   0.00118   0.00118   1.90410
   A19        1.90231   0.00010   0.00000   0.00094   0.00093   1.90324
   A20        1.92702  -0.00005   0.00000  -0.00120  -0.00120   1.92583
   A21        1.92703  -0.00005   0.00000  -0.00124  -0.00124   1.92579
   A22        1.86782   0.00008   0.00000   0.00261   0.00261   1.87042
   A23        1.94269   0.00004   0.00000   0.00071   0.00071   1.94340
   A24        1.93735  -0.00011   0.00000  -0.00082  -0.00082   1.93653
   A25        1.94264   0.00003   0.00000   0.00070   0.00070   1.94334
   A26        1.87901   0.00002   0.00000  -0.00043  -0.00043   1.87858
   A27        1.88026   0.00001   0.00000   0.00033   0.00033   1.88059
   A28        1.87900   0.00002   0.00000  -0.00054  -0.00054   1.87846
   A29        2.08314   0.00030   0.00000   0.00190   0.00190   2.08504
   A30        2.09803   0.00040   0.00000   0.00287   0.00287   2.10090
   A31        2.10200  -0.00070   0.00000  -0.00477  -0.00477   2.09723
   A32        2.09205  -0.00039   0.00000  -0.00156  -0.00156   2.09049
   A33        2.09989  -0.00049   0.00000  -0.00433  -0.00433   2.09556
   A34        2.09117   0.00088   0.00000   0.00591   0.00591   2.09708
   A35        2.11991   0.00014   0.00000   0.00052   0.00052   2.12042
   A36        2.08425  -0.00024   0.00000  -0.00102  -0.00102   2.08323
   A37        2.07882   0.00010   0.00000   0.00040   0.00040   2.07921
   A38        2.07206  -0.00002   0.00000   0.00001   0.00001   2.07206
   A39        2.09722   0.00079   0.00000   0.00553   0.00553   2.10274
   A40        2.11383  -0.00077   0.00000  -0.00551  -0.00551   2.10832
   A41        2.10585  -0.00010   0.00000   0.00023   0.00023   2.10607
   A42        2.08876  -0.00011   0.00000  -0.00129  -0.00129   2.08747
   A43        2.08857   0.00021   0.00000   0.00106   0.00106   2.08962
   A44        1.90964  -0.00031   0.00000  -0.00163  -0.00163   1.90801
   A45        1.90125   0.00008   0.00000   0.00131   0.00130   1.90256
   A46        1.91891   0.00014   0.00000   0.00224   0.00223   1.92115
   A47        1.91044  -0.00032   0.00000  -0.00164  -0.00164   1.90880
   A48        1.90409   0.00028   0.00000  -0.00230  -0.00230   1.90179
   A49        1.91946   0.00012   0.00000   0.00200   0.00199   1.92145
   A50        1.77760   0.00076   0.00000   0.00733   0.00732   1.78492
   A51        1.91792   0.00088   0.00000   0.00678   0.00679   1.92471
   A52        1.91456   0.00088   0.00000   0.00700   0.00701   1.92157
[...]
 3565,-0.00002988,-0.00003303,-0.00006813,0.00000061,-0.00000441,0.0000
 5662,0.00000174,-0.00090424,0.00097608,0.00055563,0.00121710,0.0015182
 4,-0.00057793,-0.00309641,0.00111272,-0.00626121,-0.00001476,-0.002021
 28,-0.00051133,-0.00144510,-0.00018734,0.00058165,-0.00000346,-0.00020
 086,0.00001332,-0.00005244,-0.00002566,0.00000172,-0.00005423,-0.00002
 511,0.00000317,0.00000780,0.00000519,-0.00000189,0.00000721,0.00000714
 ,-0.00000047,0.00000468,-0.00001201,0.00000398,-0.00003636,0.00000980,
 0.00000283,0.00000292,-0.00001214,-0.00000542,-0.00003835,0.00009594,0
 .00011028,-0.28730669,0.07829645,-0.03283044,0.00000399,-0.00010539,-0
 .00018646,-0.00017834,0.00011424,0.00011985,-0.01797788,0.03996466,0.0
 1371755,0.40112477,-0.00086189,0.00034096,0.00007976,0.00120418,-0.000
 06745,-0.00006333,-0.00098004,-0.00041427,0.00007158,0.00023851,0.0002
 8495,-0.00001110,0.00049433,-0.00013030,-0.00004870,-0.00019956,-0.000
 05809,0.00001399,0.00001352,0.00002354,-0.00000130,0.00000038,-0.00002
 031,-0.00000013,0.00041543,-0.00032720,-0.00023760,-0.00062316,-0.0006
 4875,0.00007909,0.00107412,-0.00064084,0.00231337,0.00011067,0.0005934
 5,0.00033904,0.00047944,0.00015007,-0.00018553,-0.00001022,0.00006653,
 -0.00001178,0.00002046,0.00000929,0.00000105,0.00002149,0.00000871,-0.
 00000377,-0.00000340,-0.00000150,0.00000307,-0.00000340,-0.00000162,-0
 .00000188,-0.00000080,0.00000433,-0.00000325,0.00001243,-0.00000275,-0
 .00000111,-0.00000011,0.00000434,0.00000339,0.00002871,-0.00004412,-0.
 00002961,0.07828931,-0.09937852,0.01186516,-0.00001235,0.00010656,-0.0
 0004688,0.00005267,-0.00003617,-0.00005443,0.05428437,-0.04026905,-0.0
 1214524,-0.11563139,0.12202525,0.00178062,-0.00070703,-0.00028876,-0.0
 0249464,0.00026877,0.00017863,0.00183452,0.00077001,-0.00020056,-0.000
 41955,-0.00051067,0.00005325,-0.00089686,0.00027260,0.00011410,0.00033
 705,0.00009526,-0.00003626,-0.00002453,-0.00004832,-0.00000363,-0.0000
 0302,0.00003754,-0.00000037,-0.00089923,0.00083343,0.00078094,0.000960
 28,0.00149147,-0.00053280,-0.00277015,0.00106189,-0.00533515,-0.000237
 39,-0.00170205,-0.00056109,-0.00134059,-0.00012377,0.00077945,-0.00002
 246,-0.00014586,-0.00003431,-0.00003507,-0.00001402,0.00000473,-0.0000
 4184,-0.00001873,0.00000485,0.00000416,0.00000786,0.00000121,0.0000052
 1,0.00000109,0.00000236,0.00000032,-0.00000906,0.00000415,-0.00002231,
 0.00000397,0.00000069,0.00000282,-0.00000470,-0.00000138,-0.00009347,0
 .00008742,0.00005355,-0.03820425,0.01382056,-0.08102645,-0.00000322,-0
 .00001921,-0.00040893,-0.00017609,0.00010420,0.00006642,0.02652864,-0.
 02150019,0.00840255,0.00519569,-0.00169744,0.06567707,0.00023288,0.000
 38965,0.00014919,0.00009496,0.00002348,-0.00003000,0.00012161,-0.00028
 238,0.00006405,-0.00007946,0.00016410,-0.00004886,-0.00014036,0.000102
 53,-0.00000624,0.00006758,0.00000224,0.00001221,0.00000033,-0.00000840
 ,0.00000140,-0.00000180,0.00000747,0.00000216,0.00080265,-0.00019878,-
 0.00057794,-0.00029327,-0.00033225,-0.00024809,0.00066770,0.00058647,0
 .00073333,0.00059408,-0.00045370,-0.00011141,-0.00032832,0.00009699,-0
 .00014002,0.00000009,-0.00002448,0.00003340,-0.00000391,-0.00000527,0.
 00000003,0.00000131,-0.00000260,-0.00000612,0.00000091,-0.00000227,0.0
 0000129,-0.00000080,0.00000522,-0.00000506,0.00000406,-0.00000085,-0.0
 0000316,-0.00000714,0.00000434,0.00000104,0.00000104,-0.00000421,-0.00
 000040,0.00010430,-0.00003836,0.00003680,-0.14184972,-0.08215392,0.067
 78201,-0.00009602,0.00015923,0.00006977,0.00002751,-0.00001635,0.00000
 666,0.00329340,-0.02870902,-0.00120466,-0.07366155,-0.02754701,0.03296
 665,0.21128706,-0.00054142,0.00013477,0.00008648,0.00084044,0.00005532
 ,-0.00010146,-0.00063889,-0.00050368,0.00008706,0.00015061,0.00033425,
 -0.00005158,0.00027199,-0.00001151,-0.00003386,-0.00010900,-0.00004970
 ,0.00002382,0.00001166,0.00001082,0.00000039,-0.00000203,-0.00000992,0
 .00000274,0.00057895,0.00011791,-0.00023742,0.00006529,-0.00120295,-0.
 00000523,0.00141619,0.00091748,0.00055000,-0.00000645,0.00033968,-0.00
 010335,0.00029156,0.00022712,0.00002770,-0.00002133,0.00002076,0.00001
 838,0.00001282,0.00000272,0.00000131,0.00001655,0.00000566,-0.00000919
 ,-0.00000224,-0.00000284,0.00000437,-0.00000370,0.00000368,-0.00000677
 ,0.00000287,0.00000317,-0.00000629,0.00000416,0.00000121,0.00000003,0.
 00000102,-0.00000005,0.00000301,0.00010673,-0.00007745,0.00001447,-0.0
 8471271,-0.16846659,0.08330355,-0.00016291,0.00027997,-0.00012284,0.00
 004475,-0.00002743,0.00000475,-0.03442641,-0.07341025,0.01002493,-0.01
 284048,0.01517540,-0.00025473,0.14281053,0.23375983,0.00101138,-0.0003
 0436,-0.00019140,-0.00154383,0.00009528,0.00021735,0.00114984,0.000609
 30,-0.00019673,-0.00028723,-0.00040298,0.00010191,-0.00054713,0.000131
 84,0.00008838,0.00020062,0.00007384,-0.00004689,-0.00001896,-0.0000288
 8,-0.00000549,-0.00000040,0.00002236,-0.00000300,-0.00076665,0.0000559
 7,0.00027367,-0.00050896,0.00163343,-0.00025119,-0.00272078,-0.0015661
 6,-0.00088784,0.00006160,-0.00076909,-0.00002237,-0.00079665,-0.000120
 48,0.00023130,-0.00000516,-0.00006871,-0.00006231,-0.00002103,-0.00000
 587,0.00000546,-0.00002920,-0.00001509,0.00000947,0.00000226,0.0000095
 5,0.00000043,0.00000475,-0.00000496,0.00000735,-0.00000352,-0.00000770
 ,0.00000662,-0.00001148,0.00000018,-0.00000081,0.00000202,0.00000037,-
 0.00000019,-0.00014319,0.00010704,-0.00001927,0.07086617,0.08471678,-0
 .14754893,0.00021948,-0.00027079,-0.00019209,-0.00012534,0.00008103,-0
 .00003198,-0.00819912,-0.00916280,0.01993373,0.01743135,0.00066124,0.0
 0889773,-0.10082337,-0.10193293,0.13705083,-0.01426367,0.00396140,0.00
 165844,0.01879795,-0.00212568,-0.00205201,-0.01376845,-0.00582969,0.00
 084881,0.00291579,0.00387649,-0.00015330,0.00663907,-0.00205188,-0.000
 60990,-0.00248822,-0.00066989,0.00020862,0.00017051,0.00035537,-0.0000
 0274,0.00002325,-0.00027542,-0.00000880,0.00594851,-0.01005831,0.00094
 447,-0.03726012,-0.00130366,0.00268868,-0.14728911,0.02716434,-0.00246
 351,-0.01311684,0.02697975,0.00160828,0.01372292,-0.00016052,0.0005919
 4,0.00021150,0.00115992,0.00003082,0.00027942,0.00011405,-0.00002500,0
 .00028964,0.00012251,-0.00002227,-0.00003094,-0.00003534,0.00000008,-0
 .00003318,-0.00003000,0.00000291,-0.00001407,0.00005215,-0.00001642,0.
 00016728,-0.00003207,-0.00001331,-0.00001369,0.00004906,0.00001851,0.0
 0012660,-0.00001352,0.00002498,-0.04531703,0.00946857,-0.03551683,0.00
 033076,-0.00295549,-0.00112027,0.00120654,-0.00083295,-0.00015835,0.00
 412567,0.00244878,0.00606809,-0.02930863,0.01143923,-0.02585590,-0.003
 66240,-0.01673874,0.02759354,0.59709779,0.00358630,-0.00612893,-0.0006
 1710,-0.00708759,0.00050012,0.00080400,0.00524373,0.00271568,-0.000236
 91,-0.00119322,-0.00175757,0.00003399,-0.00248349,0.00060800,0.0002020
 7,0.00095299,0.00031654,-0.00008548,-0.00007493,-0.00012270,0.00000060
 ,0.,0.00010022,0.00000458,-0.00897461,0.00000262,-0.00022065,-0.002003
 90,0.01823519,0.00039925,0.02636617,-0.08538689,0.00099972,0.02811011,
 -0.00666792,-0.00185051,-0.00195213,-0.00724679,-0.00043700,-0.0000492
 3,-0.00036062,-0.00002827,-0.00011027,-0.00003980,-0.00000794,-0.00011
 053,-0.00004496,0.00002425,0.00001447,0.00000821,-0.00001659,0.0000170
 1,0.00000666,0.00001465,-0.00000095,-0.00001845,0.00001822,-0.00005479
 ,0.00000558,0.00000397,-0.00000346,-0.00001670,-0.00001846,-0.00102154
 ,0.00083973,0.00020098,0.00952996,-0.02428298,0.01446849,0.00197206,-0
 .00399708,-0.00034482,0.00094807,0.00007452,-0.00013903,-0.00691469,-0
 .01992884,-0.03663624,0.01102841,-0.00241352,0.00927394,-0.00687753,-0
 .01290521,0.02400584,0.17597843,1.01622019,0.00210525,-0.00085469,-0.0
 0090781,-0.00300315,0.00031963,-0.00106455,0.00205591,0.00098035,-0.00
 007579,-0.00044568,-0.00061548,-0.00020711,-0.00098577,0.00028913,0.00
 019430,0.00036744,0.00008992,0.00006349,-0.00002409,-0.00005000,0.0000
 1880,-0.00000507,0.00004132,0.00000619,-0.00039700,0.00058384,0.007009
 15,0.00378440,0.00170326,-0.00413167,0.00523981,-0.00184936,-0.0626327
 7,0.00132254,-0.00354552,-0.00423930,-0.00079272,-0.00016316,0.0070326
 5,-0.00000387,-0.00016338,0.00019632,-0.00004105,-0.00003154,-0.000017
 24,-0.00004560,-0.00000195,-0.00001212,0.00000516,-0.00000947,-0.00001
 121,0.00000336,0.00001973,-0.00000919,0.00000842,0.00000163,-0.0000042
 4,-0.00002386,0.00000457,0.00000625,-0.00000589,-0.00001606,-0.0000099
 5,-0.00000303,0.00005068,0.00108620,-0.04485877,0.01782499,-0.16167606
 ,-0.00065884,0.00097003,-0.00248594,-0.00007806,0.00007670,0.00106263,
 -0.00027780,0.00199095,-0.00119040,0.01215082,-0.00445021,0.00790453,-
 0.00157595,-0.00146727,-0.00060867,-0.08181816,0.03693733,0.52699017,0
 .00225802,-0.00012186,-0.00022885,-0.00288417,0.00032687,0.00037581,0.
 00245685,0.00074114,-0.00014815,-0.00064549,-0.00052835,0.00005732,-0.
 00129717,0.00042474,0.00012779,0.00049847,0.00012978,-0.00004971,-0.00
 003261,-0.00006697,-0.00000079,-0.00000485,0.00005446,0.00000167,0.000
 16080,0.00165035,-0.00070063,-0.00017143,-0.00020820,0.00084121,0.0057
 1666,0.02467188,0.01078727,-0.00448024,-0.00381338,0.00224838,-0.00162
 411,0.00208875,-0.00088808,-0.00001745,-0.00019579,-0.00002675,-0.0000
 5002,-0.00002391,0.00000701,-0.00005214,-0.00002721,0.00000440,0.00000
 582,0.00000860,0.00000085,0.00000748,0.00000543,-0.00000006,0.00000314
 ,-0.00001205,0.00000347,-0.00003471,0.00000824,0.00000261,0.00000415,-
 0.00001034,-0.00000315,0.00005313,0.00000424,0.00001141,0.00438735,-0.
 00610891,0.00285979,0.00012204,0.00042229,0.00040425,-0.00067130,0.000
 19552,-0.00014759,-0.00024045,-0.00199216,-0.00417028,0.00333869,-0.00
 137385,0.00126902,0.00189123,0.00308666,-0.00355997,-0.08066074,0.0039
 3885,-0.00073793,0.05978238,-0.00328128,0.00072794,0.00025301,0.003986
 82,0.00002007,-0.00041495,-0.00305642,-0.00155600,0.00010235,0.0007443
 1,0.00104928,0.00000900,0.00147002,-0.00033631,-0.00010789,-0.00057694
 ,-0.00018561,0.00003578,0.00004447,0.00007169,-0.00000397,-0.00000033,
 -0.00005941,-0.00000304,0.00179859,0.00069314,0.00055288,-0.00249631,-
 0.00388421,0.00021445,-0.00660737,-0.01481155,-0.00807500,0.00569478,0
 .00257320,-0.00189088,0.00175537,-0.00119009,0.00055277,-0.00009060,0.
 00020731,0.00000116,0.00006773,0.00002552,0.00000572,0.00006390,0.0000
 2496,-0.00001237,-0.00000959,-0.00000175,0.00001183,-0.00001081,-0.000
 00623,-0.00000711,-0.00000111,0.00000993,-0.00000946,0.00003402,-0.000
 00430,-0.00000342,0.00000264,0.00001224,0.00001209,0.00031195,-0.00025
 090,-0.00002095,0.00454990,-0.01812828,0.01268879,-0.00046949,0.000782
 59,-0.00029649,0.00078252,-0.00022353,0.00009777,-0.00070384,-0.001214
 51,-0.00692991,-0.00647781,0.00513454,-0.00267046,0.00301821,0.0075559
 4,-0.00568851,-0.00720777,-0.52397329,-0.17890977,-0.00032608,0.556532
 88,-0.00016083,0.00047953,0.00015231,0.00039718,0.00004836,0.00008908,
 -0.00040063,-0.00016829,-0.00007484,0.00013357,0.00011112,0.00005771,0
 .00022418,-0.00004862,-0.00000270,-0.00008854,-0.00002772,-0.00001824,
 0.00000686,0.00000958,-0.00000698,0.00000030,-0.00000998,-0.00000353,0
 .00046897,-0.00000968,-0.00000244,-0.00088086,-0.00042337,0.00022863,-
 0.00362340,-0.00613910,0.00838857,0.00326101,-0.00019743,0.00128446,-0
 .00076948,-0.00090089,-0.00074635,-0.00003002,0.00001374,-0.00007437,0
 .00001223,0.00000888,0.00000690,0.00000677,-0.00000009,0.00000313,-0.0
 0000204,0.00000576,0.00000627,-0.00000055,-0.00000706,0.00000203,-0.00
 000265,-0.00000181,0.00000124,0.00000506,-0.00000070,-0.00000217,0.000
 00330,0.00000550,0.00000474,0.00003711,-0.00004743,-0.00011036,0.00876
 622,-0.02811721,0.01103798,0.00013859,0.00003816,0.00012790,0.00024792
 ,-0.00005538,-0.00026098,-0.00274448,-0.00696298,-0.01423190,-0.004157
 62,0.00346797,-0.00207266,-0.00018950,0.00239104,-0.00257040,-0.004252
 89,-0.18668037,-0.15854336,-0.00324794,0.20772907,0.14036821,0.0031079
 1,-0.00239782,-0.00036065,-0.00445275,0.00059277,0.00056697,0.00369350
 ,0.00098395,-0.00017832,-0.00104964,-0.00068077,0.00008155,-0.00196559
 ,0.00069297,0.00015826,0.00075490,0.00020106,-0.00006903,-0.00004853,-
 0.00010591,0.00000102,-0.00000754,0.00008375,0.00000380,-0.00337246,-0
 .00059842,-0.00106057,-0.00258497,0.00839450,0.00275186,-0.01204961,-0
 .02758648,0.01316797,-0.00034459,-0.00262960,0.00070667,-0.00150415,-0
 .00015694,-0.00087376,-0.00005705,-0.00029881,0.00000083,-0.00007788,-
 0.00003622,0.00000956,-0.00007773,-0.00003953,0.00000340,0.00000897,0.
 00001045,0.00000096,0.00000899,0.00001094,-0.00000294,0.00000588,-0.00
 001608,0.00000344,-0.00005223,0.00001189,0.00000463,0.00000502,-0.0000
 1635,-0.00000519,-0.00056092,0.00060907,-0.00020469,-0.00450899,-0.005
 61700,-0.00617342,-0.00111602,-0.00002194,0.00070880,-0.00035197,0.000
 25279,0.00003988,0.00117756,0.00227075,0.00106229,0.00802402,-0.000950
 11,0.00265618,0.00070737,0.00032405,0.00138907,-0.26375102,-0.22434720
 ,0.10985608,0.01238542,0.00544583,0.00673041,0.26762334,0.00103888,-0.
 00032100,-0.00001663,-0.00070862,0.00048698,0.00002970,0.00052673,-0.0
 0014453,-0.00005423,-0.00015407,0.00007518,-0.00001166,-0.00027538,0.0
 0019658,0.00001521,0.00009994,0.00000248,0.00001589,-0.00000144,-0.000
 02120,0.00000355,-0.00000458,0.00001293,0.00000027,0.00003880,0.000406
 00,0.00027762,-0.00142989,0.00061919,-0.00012027,0.00421730,0.00258534
 ,-0.00084952,-0.00021758,-0.00384709,-0.00075826,-0.00024293,0.0022423
 9,0.00005110,-0.00007339,-0.00008576,0.00003178,-0.00001007,-0.0000069
 9,0.00000633,-0.00001011,-0.00000315,-0.00000846,0.00000022,0.00000048
 ,0.00000564,-0.00000189,0.00000578,-0.00000888,0.00000420,-0.00000050,
 -0.00000568,-0.00000989,0.00000337,0.00000160,0.00000291,-0.00000392,0
 .00000292,-0.00008932,0.00009275,0.00000666,-0.01656743,-0.00957481,-0
 .01190186,0.00014595,0.00235819,0.00033754,-0.00033534,0.00008306,0.00
 000834,0.00224369,0.00809127,0.00685190,0.00413689,0.00052392,0.001272
 33,-0.00092923,-0.00239768,0.00814883,-0.21315812,-0.34164705,0.130597
 53,-0.02470426,-0.01039508,0.01540511,0.24570628,0.35016096,-0.0003641
 1,-0.00017550,-0.00008028,0.00026226,-0.00005077,0.00011605,-0.0002779
 4,0.00005044,0.00003236,0.00015288,-0.00003519,0.00006899,0.00019323,-
 0.00009638,-0.00000544,-0.00007382,-0.00001525,-0.00004051,0.00000412,
 0.00001203,-0.00000901,0.00000255,-0.00001041,-0.00000092,-0.00000167,
 0.00115744,-0.00078900,0.00249596,-0.00187553,0.00134765,0.00124553,0.
 00687984,0.00866058,-0.00023184,0.00075003,0.00017215,0.00027607,-0.00
 027552,-0.00003820,-0.00000118,0.00002030,-0.00006221,0.00000734,0.000
 00989,0.00000396,0.00000438,-0.00000066,0.00000643,-0.00000105,0.00000
 442,0.00000282,0.00000113,-0.00000807,0.00000537,-0.00000326,-0.000001
 97,0.00000341,0.00000559,-0.00000164,-0.00000236,0.00000189,0.00000545
 ,0.00000231,0.00011605,-0.00015024,-0.00027577,0.02441118,0.01549236,0
 .01112707,0.00021957,-0.00021590,-0.00050019,0.00008774,-0.00003896,-0
 .00011474,-0.00165706,-0.00168615,-0.00252928,-0.00511443,-0.00006392,
 -0.00200729,0.00237013,0.00730349,-0.01385530,0.11253109,0.13887090,-0
 .15116690,-0.00525452,-0.01645035,0.01763518,-0.13148944,-0.14928559,0
 .13216562,-0.00491567,0.00150036,0.00133490,0.00013715,0.00147589,0.00
 001517,0.00050798,0.00045867,-0.00000275,-0.00006288,-0.00033062,-0.00
 000432,-0.00019975,-0.00006672,0.00000934,0.00006332,0.00003303,-0.000
 00289,-0.00001063,-0.00001039,0.00000047,0.00000055,0.00000725,0.00000
 033,-0.00015989,0.02843060,0.00146800,-0.06733033,0.04851749,0.0043747
 1,0.00874650,-0.02244633,-0.00138571,-0.00420684,-0.00306184,0.0009961
 5,-0.00112245,0.00003358,-0.00008151,-0.00037533,0.00007796,0.00001176
 ,-0.00001171,-0.00000304,-0.00000315,-0.00001080,-0.00000324,0.0000043
 6,0.00000139,-0.00000069,-0.00000211,0.00000167,-0.00000044,0.00000156
 ,-0.00000088,-0.00000011,0.00000195,-0.00000279,-0.00000170,0.00000023
 ,-0.00000145,-0.00000032,-0.00000208,0.00099508,-0.00038245,-0.0005875
 2,-0.00068551,-0.00038797,-0.00027154,0.00051125,-0.00123199,-0.000039
 99,0.00008705,0.00003874,-0.00006202,0.00006430,0.00033636,0.00033183,
 0.00010223,0.00001804,-0.00000058,0.00022469,0.00016949,0.00017987,-0.
 00107513,-0.00442649,-0.00111690,-0.00020476,0.00154467,0.00011178,0.0
 0043076,0.00076172,0.00008162,0.06850291,0.00068432,0.00113750,-0.0004
 1735,0.00001506,-0.00022200,0.00000011,-0.00011168,-0.00011110,0.00000
 268,-0.00000220,0.00006595,-0.00000104,0.00004440,0.00000200,-0.000002
 84,-0.00001014,-0.00000612,-0.00000076,0.00000165,0.00000278,0.0000000
 7,0.00000016,-0.00000148,-0.00000008,-0.00007153,-0.00348432,-0.000362
 47,0.04806180,-0.34092738,-0.01638771,0.00330110,-0.01417384,-0.000913
 51,-0.00329627,-0.00017049,-0.00001791,0.00010735,0.00068971,0.0000712
 7,0.00004907,0.00003340,0.00001074,0.00000290,0.00000128,-0.00000065,0
 .00000278,0.00000144,0.00000036,-0.00000029,-0.00000032,-0.00000005,-0
 .00000015,-0.00000058,0.00000016,0.00000005,0.00000015,0.00000037,0.00
 000059,0.00000005,-0.00000006,0.00000011,0.00000028,-0.00000027,0.0000
 4872,0.00068010,0.00026613,-0.00049296,-0.00026383,-0.00010556,0.00032
 454,-0.00053590,-0.00006378,0.00005110,-0.00005014,0.00003251,0.000031
 14,0.00012812,0.00007770,0.00011909,0.00000261,0.00002392,0.00021615,0
 .00011958,-0.00000361,0.00030901,-0.00269398,-0.00035375,0.00175551,0.
 00079985,0.00008428,-0.00009185,0.00050193,-0.00011860,-0.05104951,0.3
 5847476,0.00127144,-0.00018030,0.00801488,-0.00004612,-0.00011697,-0.0
 0019639,-0.00004560,-0.00004800,0.00014323,0.00000226,0.00003429,0.000
 02799,0.00001569,0.00000785,-0.00004673,-0.00000329,-0.00000404,0.0000
 2527,0.00000159,0.00000105,-0.00000032,0.00000015,-0.00000066,0.000001
 60,0.00061448,-0.00295426,0.00484830,0.00405701,-0.01699588,-0.0403044
 6,-0.00015950,0.00151016,0.00272474,0.00098111,-0.00006723,0.00594695,
 -0.00015982,0.00004346,-0.00116073,0.00000561,0.00000023,-0.00028446,-
 0.00000075,0.00000049,-0.00000182,0.00000186,0.00000014,-0.00000248,-0
 .00000033,-0.00000224,-0.00000107,-0.00000015,0.00000266,-0.00000143,0
 .00000108,0.00000123,-0.00000150,0.00000033,0.00000010,0.00000018,-0.0
 0000109,-0.00000113,-0.00000090,-0.00051993,0.00020687,-0.00467697,-0.
 00130738,-0.00066167,0.00119729,0.00000932,0.00009191,0.00055560,-0.00
 007439,0.00001525,-0.00071092,0.00013573,0.00005739,-0.00018470,-0.000
 10596,0.00015851,-0.00041659,0.00074070,0.00048541,-0.00032937,-0.0007
 2961,0.00105659,-0.00257641,0.00016212,-0.00077212,-0.00067308,0.00051
 440,-0.00004883,0.00012743,-0.00536095,0.01817973,0.02795685\\0.000000
 19,0.00000146,0.00000118,0.00000015,0.00000063,0.00000222,-0.00000067,
 -0.00000063,0.00000007,0.00000049,0.00000030,-0.00000443,0.00000009,-0
 .00000131,0.00000290,-0.00000015,-0.00000154,0.00000093,-0.00000062,-0
 .00000262,0.00000457,-0.00000047,-0.00000315,0.00000239,0.00000044,0.0
 0000171,-0.00000401,0.00000089,0.00000267,-0.00000518,0.00000057,0.000
 00305,-0.00000149,-0.00000003,0.00000297,0.00000344,-0.00000074,0.0000
 0186,0.00000443,-0.00000039,0.00000026,0.00000666,0.00000048,0.0000013
 4,-0.00000165,-0.00000040,-0.00000496,-0.00000186,-0.00000108,-0.00000
 545,0.00000676,-0.00000054,0.00000092,0.00000689,-0.00000049,-0.000006
 46,0.00000012,-0.00000071,-0.00000378,0.00000523,-0.00000005,-0.000000
 17,0.00000015,0.00000058,0.00000116,-0.00000664,0.00000017,-0.00000242
 ,-0.00000438,-0.00000031,0.00000336,0.00000589,-0.00000066,0.00000161,
 0.00000818,-0.00000042,-0.00000485,0.00000038,0.00000019,-0.00000173,-
 0.00000524,0.00000057,-0.00000402,-0.00000764,0.00000042,0.00000379,-0
 .00000504,0.00000154,0.00000756,-0.00000717,-0.00000013,0.00000542,0.0
 0000136,0.00000107,0.00000303,-0.00000901\\\@


 THOSE WHO ARE UNABLE TO LEARN FROM PAST MEETINGS
 ARE CONDEMNED TO REPEAT THEM.
 Job cpu time:       0 days  5 hours 48 minutes 44.8 seconds.
 File lengths (MBytes):  RWF=    906 Int=      0 D2E=      0 Chk=     31 Scr=      1
 Normal termination of Gaussian 09 at Tue Nov 19 13:50:38 2019.
pbs_rusage has been removed.
Please contact help@nci.org.au if you require this functionality.
