 Entering Gaussian System, Link 0=/apps/gaussian/g09e01/g09/g09
 AtFile(1): /home/507/hio507/Basis/6-31pGd.gbs
 Initial command:
 /apps/gaussian/g09e01/g09/l1.exe "/jobfs/local/4046928.r-man2/Gau-6969.inp" -scrdir="/jobfs/local/4046928.r-man2/"
 Entering Link 1 = /apps/gaussian/g09e01/g09/l1.exe PID=      7014.
  
 Copyright (c) 1988,1990,1992,1993,1995,1998,2003,2009,2015,
            Gaussian, Inc.  All Rights Reserved.
  
 This is part of the Gaussian(R) 09 program.  It is based on
 the Gaussian(R) 03 system (copyright 2003, Gaussian, Inc.),
 the Gaussian(R) 98 system (copyright 1998, Gaussian, Inc.),
 the Gaussian(R) 94 system (copyright 1995, Gaussian, Inc.),
 the Gaussian 92(TM) system (copyright 1992, Gaussian, Inc.),
 the Gaussian 90(TM) system (copyright 1990, Gaussian, Inc.),
 the Gaussian 88(TM) system (copyright 1988, Gaussian, Inc.),
 the Gaussian 86(TM) system (copyright 1986, Carnegie Mellon
 University), and the Gaussian 82(TM) system (copyright 1983,
 Carnegie Mellon University). Gaussian is a federally registered
 trademark of Gaussian, Inc.
  
 This software contains proprietary and confidential information,
 including trade secrets, belonging to Gaussian, Inc.
  
 This software is provided under written license and may be
 used, copied, transmitted, or stored only in accord with that
 written license.
  
 The following legend is applicable only to US Government
 contracts under FAR:
  
                    RESTRICTED RIGHTS LEGEND
  
 Use, reproduction and disclosure by the US Government is
 subject to restrictions as set forth in subparagraphs (a)
 and (c) of the Commercial Computer Software - Restricted
 Rights clause in FAR 52.227-19.
  
 Gaussian, Inc.
 340 Quinnipiac St., Bldg. 40, Wallingford CT 06492
  
  
 ---------------------------------------------------------------
 Warning -- This program may not be used in any manner that
 competes with the business of Gaussian, Inc. or will provide
 assistance to any competitor of Gaussian, Inc.  The licensee
 of this program is prohibited from giving any competitor of
 Gaussian, Inc. access to this program.  By using this program,
 the user acknowledges that Gaussian, Inc. is engaged in the
 business of creating and licensing software in the field of
 computational chemistry and represents and warrants to the
 licensee that it is not a competitor of Gaussian, Inc. and that
 it will not use this program in any manner prohibited above.
 ---------------------------------------------------------------
  

 Cite this work as:
 Gaussian 09, Revision E.01,
 M. J. Frisch, G. W. Trucks, H. B. Schlegel, G. E. Scuseria, 
 M. A. Robb, J. R. Cheeseman, G. Scalmani, V. Barone, B. Mennucci, 
 G. A. Petersson, H. Nakatsuji, M. Caricato, X. Li, H. P. Hratchian, 
 A. F. Izmaylov, J. Bloino, G. Zheng, J. L. Sonnenberg, M. Hada, 
 M. Ehara, K. Toyota, R. Fukuda, J. Hasegawa, M. Ishida, T. Nakajima, 
 Y. Honda, O. Kitao, H. Nakai, T. Vreven, J. A. Montgomery, Jr., 
 J. E. Peralta, F. Ogliaro, M. Bearpark, J. J. Heyd, E. Brothers, 
 K. N. Kudin, V. N. Staroverov, T. Keith, R. Kobayashi, J. Normand, 
 K. Raghavachari, A. Rendell, J. C. Burant, S. S. Iyengar, J. Tomasi, 
 M. Cossi, N. Rega, J. M. Millam, M. Klene, J. E. Knox, J. B. Cross, 
 V. Bakken, C. Adamo, J. Jaramillo, R. Gomperts, R. E. Stratmann, 
 O. Yazyev, A. J. Austin, R. Cammi, C. Pomelli, J. W. Ochterski, 
 R. L. Martin, K. Morokuma, V. G. Zakrzewski, G. A. Voth, 
 P. Salvador, J. J. Dannenberg, S. Dapprich, A. D. Daniels, 
 O. Farkas, J. B. Foresman, J. V. Ortiz, J. Cioslowski, 
 and D. J. Fox, Gaussian, Inc., Wallingford CT, 2013.
 
 ******************************************
 Gaussian 09:  ES64L-G09RevE.01 30-Nov-2015
                 9-Dec-2019 
 ******************************************
 %chk=CP21CA.MP2_6-31pGd.chk
 %mem=1114112000
 %nproc=4
 Will use up to    4 processors via shared memory.
 -------------------------------------------------------------
 # MP2/Gen 6D SCF=Tight INT(grid=ultrafine) maxdisk=3489660928
 -------------------------------------------------------------
 1/38=1/1;
 2/12=2,17=6,18=5,40=1/2;
 3/5=7,8=2,11=9,16=1,25=1,30=1,75=-5/1,2,3;
 4//1;
 5/5=2,32=2,38=5/2;
 8/10=1/1;
 9/16=-3/6;
 6/7=2,8=2,9=2,10=2/1;
 99/5=1,9=1/99;
 ------------------
 CP21CA.MP2_6-31pGd
 ------------------
 Symbolic Z-matrix:
 Charge =  0 Multiplicity = 1
 C                    -6.06358   1.35425   0.32729 
 N                    -4.7938    0.79482   0.19633 
 C                    -3.58751   1.45295   0.11001 
 O                    -3.4209    2.64339   0.12778 
 O                    -2.60847   0.54294   0.00075 
 C                    -1.27776   1.077    -0.09971 
 C                    -0.32089  -0.09023  -0.20735 
 C                     1.12133   0.397    -0.31794 
 C                    -6.29054   2.73576   0.39408 
 C                    -7.58786   3.20564   0.52708 
 C                    -8.64659   2.30663   0.5927 
 C                    -8.43725   0.9313    0.52949 
 C                    -7.1454    0.46218   0.39793 
 H                    -4.73266  -0.21239   0.16336 
 H                    -1.07669   1.68694   0.78423 
 H                    -1.22583   1.72761  -0.97601 
 H                    -0.58839  -0.69111  -1.08072 
 H                    -0.44072  -0.73073   0.6706 
 H                     1.2621    1.02345  -1.20203 
 H                     1.81286  -0.44283  -0.39404 
 H                     1.40966   0.9856    0.5563 
 H                    -5.46173   3.42492   0.34755 
 C                    -10.77506   3.11143  -1.06722 
 H                    -9.27671   0.24912   0.59591 
 H                    -6.96404  -0.60666   0.35424 
 F                    -10.70284   1.93928  -1.68506 
 F                    -12.01275   3.56765  -1.13449 
 F                    -9.95633   3.9651   -1.66688 
 S                    -10.29238   2.91711   0.72559 
 O                    -10.27703   4.2614    1.26037 
 O                    -11.15849   1.8772    1.23906 
 H                    -7.78015   4.27043   0.59217 
 
                          Input orientation:                          
 ---------------------------------------------------------------------
 Center     Atomic      Atomic             Coordinates (Angstroms)
 Number     Number       Type             X           Y           Z
 ---------------------------------------------------------------------
      1          6           0       -6.063581    1.354250    0.327292
      2          7           0       -4.793803    0.794820    0.196329
      3          6           0       -3.587513    1.452951    0.110008
      4          8           0       -3.420904    2.643388    0.127783
      5          8           0       -2.608472    0.542936    0.000752
      6          6           0       -1.277757    1.077003   -0.099712
      7          6           0       -0.320890   -0.090229   -0.207347
      8          6           0        1.121327    0.396999   -0.317940
      9          6           0       -6.290541    2.735765    0.394081
     10          6           0       -7.587863    3.205640    0.527079
     11          6           0       -8.646589    2.306629    0.592704
     12          6           0       -8.437251    0.931299    0.529487
     13          6           0       -7.145396    0.462185    0.397931
     14          1           0       -4.732665   -0.212391    0.163364
     15          1           0       -1.076694    1.686935    0.784233
     16          1           0       -1.225835    1.727607   -0.976006
     17          1           0       -0.588389   -0.691112   -1.080718
     18          1           0       -0.440719   -0.730728    0.670604
     19          1           0        1.262097    1.023448   -1.202033
     20          1           0        1.812857   -0.442827   -0.394039
     21          1           0        1.409661    0.985604    0.556300
     22          1           0       -5.461734    3.424920    0.347555
     23          6           0      -10.775063    3.111429   -1.067219
     24          1           0       -9.276710    0.249124    0.595905
     25          1           0       -6.964038   -0.606659    0.354244
     26          9           0      -10.702841    1.939280   -1.685059
     27          9           0      -12.012750    3.567647   -1.134486
     28          9           0       -9.956325    3.965104   -1.666884
     29         16           0      -10.292380    2.917114    0.725594
     30          8           0      -10.277033    4.261403    1.260365
     31          8           0      -11.158486    1.877202    1.239063
     32          1           0       -7.780152    4.270434    0.592168
 ---------------------------------------------------------------------
                    Distance matrix (angstroms):
                    1          2          3          4          5
     1  C    0.000000
     2  N    1.393718   0.000000
     3  C    2.487542   1.376852   0.000000
     4  O    2.947104   2.303639   1.202171   0.000000
     5  O    3.564076   2.208476   1.341113   2.255678   0.000000
     6  C    4.812828   3.539752   2.349530   2.664281   1.437402
     7  C    5.945658   4.577468   3.626698   4.146693   2.382694
     8  C    7.277057   5.950756   4.844724   5.086924   3.746233
     9  C    1.401626   2.458983   3.005440   2.883447   4.303584
    10  C    2.406449   3.705162   4.387331   4.223638   5.671098
    11  C    2.765755   4.157721   5.153252   5.257123   6.318218
    12  C    2.419521   3.661194   4.895717   5.315671   5.865582
    13  C    1.403956   2.383544   3.704463   4.324635   4.554992
    14  H    2.062176   1.009603   2.021777   3.142842   2.260344
    15  H    5.018816   3.867608   2.610275   2.615539   2.066137
    16  H    5.024119   3.869736   2.613884   2.622086   2.066201
    17  H    6.011964   4.639434   3.874219   4.538998   2.602534
    18  H    6.006794   4.636979   3.871051   4.534404   2.601937
    19  H    7.490916   6.219454   5.042286   5.130606   4.081530
    20  H    8.110985   6.747463   5.745610   6.098301   4.547059
    21  H    7.485832   6.216827   5.038783   5.125059   4.080439
    22  H    2.156457   2.717798   2.730897   2.196379   4.070284
    23  C    5.218276   6.537485   7.469759   7.465303   8.627336
    24  H    3.408468   4.533641   5.835431   6.343666   6.701189
    25  H    2.157941   2.588243   3.962646   4.813303   4.518570
    26  F    5.090634   6.306040   7.354364   7.537159   8.385138
    27  F    6.513719   7.846836   8.775268   8.733121   9.943746
    28  F    5.093796   6.338289   7.073191   6.905034   8.275457
    29  S    4.525918   5.917652   6.890426   6.902861   8.074935
    30  O    5.203398   6.573826   7.345775   7.134930   8.615129
    31  O    5.202198   6.539727   7.666445   7.854436   8.741648
    32  H    3.394246   4.599441   5.074338   4.676107   6.402366
                    6          7          8          9         10
     6  C    0.000000
     7  C    1.513146   0.000000
     8  C    2.503125   1.526307   0.000000
     9  C    5.303143   6.632095   7.804652   0.000000
    10  C    6.688902   8.013179   9.189805   1.386188   0.000000
    11  C    7.502740   8.700705   9.994406   2.403033   1.390477
    12  C    7.188567   8.213511   9.610933   2.807632   2.427776
    13  C    5.920713   6.873529   8.297917   2.428983   2.781906
    14  H    3.697044   4.429007   5.905271   3.342429   4.468488
    15  H    1.092612   2.170894   2.776692   5.332585   6.690883
    16  H    1.092645   2.171242   2.777182   5.342731   6.702183
    17  H    2.136312   1.093340   2.165397   6.814180   8.170821
    18  H    2.135864   1.093341   2.165404   6.805399   8.160715
    19  H    2.769267   2.176127   1.092646   7.907083   9.277586
    20  H    3.456647   2.170728   1.090556   8.740117  10.125874
    21  H    2.767836   2.176093   1.092651   7.898258   9.267408
    22  H    4.818551   6.252397   7.276530   1.078898   2.144933
    23  C    9.760829  10.967211  12.225124   4.731539   3.564955
    24  H    8.071711   8.998171  10.439164   3.891185   3.405572
    25  H    5.947654   6.686814   8.175101   3.409836   3.866866
    26  F    9.596304  10.681172  12.002441   4.942226   4.024960
    27  F   11.068611  12.285733  13.536017   5.980988   4.740408
    28  F    9.279801  10.555453  11.716032   4.381418   3.316605
    29  S    9.237455  10.456821  11.735104   4.019640   2.727099
    30  O    9.642468  10.964290  12.138669   4.355472   2.980600
    31  O   10.003072  11.109292  12.466317   5.014779   3.875695
    32  H    7.277214   8.677280   9.750288   2.147880   1.083973
                   11         12         13         14         15
    11  C    0.000000
    12  C    1.392606   0.000000
    13  C    2.386104   1.380676   0.000000
    14  H    4.674248   3.894359   2.516216   0.000000
    15  H    7.597632   7.403626   6.203094   4.166418   0.000000
    16  H    7.606820   7.409801   6.207270   4.166487   1.767014
    17  H    8.759074   8.174938   6.819885   4.353382   3.061305
    18  H    8.750309   8.168646   6.815430   4.352788   2.502493
    19  H   10.151340   9.853122   8.576762   6.271266   3.139333
    20  H   10.859705  10.382960   9.038615   6.573253   3.778058
    21  H   10.142711   9.847099   8.572517   6.270387   2.593411
    22  H    3.384372   3.886509   3.408087   3.714229   4.737072
    23  C    2.816638   3.573206   4.726484   7.005190   9.975741
    24  H    2.151834   1.083727   2.151067   4.587857   8.327246
    25  H    3.372698   2.136910   1.085001   2.273963   6.332952
    26  F    3.090521   3.324625   4.379049   6.609792   9.941015
    27  F    3.988031   4.743768   5.973553   8.304983  11.261256
    28  F    3.093814   4.041733   4.943200   6.934544   9.489250
    29  S    1.760392   2.724596   4.004691   6.404712   9.297615
    30  O    2.631589   3.874090   4.998500   7.208208   9.565606
    31  O    2.629033   2.967043   4.337588   6.842127  10.093839
    32  H    2.146448   3.403752   3.865670   5.437533   7.186633
                   16         17         18         19         20
    16  H    0.000000
    17  H    2.503498   0.000000
    18  H    3.061232   1.757983   0.000000
    19  H    2.595522   2.525615   3.079527   0.000000
    20  H    3.779301   2.509812   2.508976   1.762428   0.000000
    21  H    3.137573   3.079514   2.526414   1.764920   1.762421
    22  H    4.751372   6.536908   6.525670   7.306039   8.272189
    23  C    9.649407  10.873262  11.161580  12.217654  13.097391
    24  H    8.335071   8.898428   8.890468  10.719077  11.155146
    25  H    6.336035   6.535682   6.532164   8.529276   8.810258
    26  F    9.505851  10.468348  10.862285  12.009655  12.805618
    27  F   10.943875  12.192454  12.475828  13.516623  14.414561
    28  F    9.039092  10.477698  10.865609  11.606999  12.631851
    29  S    9.301216  10.509496  10.505475  11.866241  12.612675
    30  O    9.661557  11.130045  11.046369  12.235166  13.077931
    31  O   10.177744  11.122255  11.045133  12.686951  13.278001
    32  H    7.203070   8.895894   8.881726   9.773656  10.733744
                   21         22         23         24         25
    21  H    0.000000
    22  H    7.294512   0.000000
    23  C   12.474872   5.507388   0.000000
    24  H   10.711792   4.970050   3.633708   0.000000
    25  H    8.526133   4.302394   5.510776   2.477745   0.000000
    26  F   12.354994   5.814451   1.326980   3.176991   4.961775
    27  F   13.772684   6.718082   1.320806   4.636029   6.717935
    28  F   11.958495   4.954908   1.326156   4.403475   5.825784
    29  S   11.861583   4.871953   1.866793   2.857722   4.861352
    30  O   12.157524   4.971924   2.643505   4.188142   5.957770
    31  O   12.618218   5.970192   2.643722   2.570091   4.954378
    32  H    9.759306   2.479877   3.614741   4.290761   4.950624
                   26         27         28         29         30
    26  F    0.000000
    27  F    2.161151   0.000000
    28  F    2.159069   2.161088   0.000000
    29  S    2.633606   2.615867   2.633470   0.000000
    30  O    3.774796   3.037980   2.959634   1.446834   0.000000
    31  O    2.960060   3.036628   3.774791   1.447483   2.542012
    32  H    4.377459   4.624947   3.151551   2.856671   2.584760
                   31         32
    31  O    0.000000
    32  H    4.190366   0.000000
 Stoichiometry    C11H12F3NO4S
 Framework group  C1[X(C11H12F3NO4S)]
 Deg. of freedom    90
 Full point group                 C1      NOp   1
 Largest Abelian subgroup         C1      NOp   1
 Largest concise Abelian subgroup C1      NOp   1
                         Standard orientation:                         
 ---------------------------------------------------------------------
 Center     Atomic      Atomic             Coordinates (Angstroms)
 Number     Number       Type             X           Y           Z
 ---------------------------------------------------------------------
      1          6           0        0.944402    0.542741   -0.138276
      2          7           0        2.308525    0.727244    0.079844
      3          6           0        3.326232   -0.174716   -0.135702
      4          8           0        3.209591   -1.296819   -0.551030
      5          8           0        4.490034    0.403352    0.195942
      6          6           0        5.657615   -0.417523    0.025523
      7          6           0        6.860112    0.401716    0.440803
      8          6           0        8.146958   -0.404596    0.287501
      9          6           0        0.400891   -0.649951   -0.634905
     10          6           0       -0.969016   -0.745557   -0.823929
     11          6           0       -1.787063    0.337155   -0.520681
     12          6           0       -1.262098    1.529315   -0.028221
     13          6           0        0.102331    1.625929    0.159572
     14          1           0        2.603509    1.625395    0.434257
     15          1           0        5.718960   -0.727725   -1.020333
     16          1           0        5.547081   -1.316365    0.636863
     17          1           0        6.732166    0.722027    1.478312
     18          1           0        6.902281    1.307067   -0.170716
     19          1           0        8.128378   -1.303808    0.907943
     20          1           0        9.015149    0.184607    0.584819
     21          1           0        8.298042   -0.718039   -0.748266
     22          1           0        1.044759   -1.482529   -0.872115
     23          6           0       -4.061094   -0.474717    0.929526
     24          1           0       -1.917759    2.364493    0.188691
     25          1           0        0.528514    2.550045    0.535873
     26          9           0       -3.722478    0.377755    1.888435
     27          9           0       -5.371805   -0.637707    0.929722
     28          9           0       -3.471001   -1.639537    1.161201
     29         16           0       -3.528662    0.190772   -0.731365
     30          8           0       -3.823280   -0.866634   -1.673927
     31          8           0       -4.122039    1.508200   -0.817927
     32          1           0       -1.404666   -1.656404   -1.218346
 ---------------------------------------------------------------------
 Rotational constants (GHZ):      1.0384961      0.0959844      0.0953208
 General basis read from cards:  (6D, 7F)
 There are   408 symmetry adapted cartesian basis functions of A   symmetry.
 There are   408 symmetry adapted basis functions of A   symmetry.
   408 basis functions,   712 primitive gaussians,   408 cartesian basis functions
    80 alpha electrons       80 beta electrons
       nuclear repulsion energy      1753.0805263801 Hartrees.
 NAtoms=   32 NActive=   32 NUniq=   32 SFac= 1.00D+00 NAtFMM=   60 NAOKFM=F Big=F
 Integral buffers will be    131072 words long.
 Raffenetti 1 integral format.
 Two-electron integral symmetry is turned on.
 One-electron integrals computed using PRISM.
 NBasis=   408 RedAO= T EigKep=  1.36D-06  NBF=   408
 NBsUse=   407 1.00D-06 EigRej=  6.99D-07 NBFU=   407
 ExpMin= 4.05D-02 ExpMax= 2.19D+04 ExpMxC= 3.30D+03 IAcc=3 IRadAn=         5 AccDes= 0.00D+00
 Harris functional with IExCor=  205 and IRadAn=       5 diagonalized for initial guess.
 HarFok:  IExCor=  205 AccDes= 0.00D+00 IRadAn=         5 IDoV= 1 UseB2=F ITyADJ=14
 ICtDFT=  3500011 ScaDFX=  1.000000  1.000000  1.000000  1.000000
 FoFCou: FMM=F IPFlag=           0 FMFlag=      100000 FMFlg1=           0
         NFxFlg=           0 DoJE=T BraDBF=F KetDBF=T FulRan=T
         wScrn=  0.000000 ICntrl=     500 IOpCl=  0 I1Cent=   200000004 NGrid=           0
         NMat0=    1 NMatS0=      1 NMatT0=    0 NMatD0=    1 NMtDS0=    0 NMtDT0=    0
 Petite list used in FoFCou.
 Requested convergence on RMS density matrix=1.00D-08 within 128 cycles.
 Requested convergence on MAX density matrix=1.00D-06.
 Requested convergence on             energy=1.00D-06.
 No special actions if energy rises.
 Initial convergence to 1.0D-05 achieved.  Increase integral accuracy.
 SCF Done:  E(RHF) =  -1473.24461740     A.U. after   18 cycles
            NFock= 18  Conv=0.47D-08     -V/T= 2.0022
 ExpMin= 4.05D-02 ExpMax= 2.19D+04 ExpMxC= 3.30D+03 IAcc=3 IRadAn=         5 AccDes= 0.00D+00
 HarFok:  IExCor=  205 AccDes= 0.00D+00 IRadAn=         5 IDoV=-2 UseB2=F ITyADJ=14
 ICtDFT= 12500011 ScaDFX=  1.000000  1.000000  1.000000  1.000000
 Range of M.O.s used for correlation:    25   407
 NBasis=   408 NAE=    80 NBE=    80 NFC=    24 NFV=     0
 NROrb=    383 NOA=    56 NOB=    56 NVA=   327 NVB=   327

 **** Warning!!: The largest alpha MO coefficient is  0.18561330D+03

 Fully direct method using O(OVN) memory.
 JobTyp=1 Pass  1:  I=   1 to  56 NPSUse=  4 ParTrn=T ParDer=T DoDerP=F.
 Spin components of T(2) and E(2):
     alpha-alpha T2 =       0.1307044162D+00 E2=     -0.4095138174D+00
     alpha-beta  T2 =       0.6625547777D+00 E2=     -0.2150229372D+01
     beta-beta   T2 =       0.1307044162D+00 E2=     -0.4095138174D+00
 ANorm=    0.1387070153D+01
 E2 =    -0.2969257007D+01 EUMP2 =    -0.14762138744087D+04

 **********************************************************************

            Population analysis using the SCF density.

 **********************************************************************

 Orbital symmetries:
       Occupied  (A) (A) (A) (A) (A) (A) (A) (A) (A) (A) (A) (A)
                 (A) (A) (A) (A) (A) (A) (A) (A) (A) (A) (A) (A)
                 (A) (A) (A) (A) (A) (A) (A) (A) (A) (A) (A) (A)
                 (A) (A) (A) (A) (A) (A) (A) (A) (A) (A) (A) (A)
                 (A) (A) (A) (A) (A) (A) (A) (A) (A) (A) (A) (A)
                 (A) (A) (A) (A) (A) (A) (A) (A) (A) (A) (A) (A)
                 (A) (A) (A) (A) (A) (A) (A) (A)
       Virtual   (A) (A) (A) (A) (A) (A) (A) (A) (A) (A) (A) (A)
                 (A) (A) (A) (A) (A) (A) (A) (A) (A) (A) (A) (A)
                 (A) (A) (A) (A) (A) (A) (A) (A) (A) (A) (A) (A)
                 (A) (A) (A) (A) (A) (A) (A) (A) (A) (A) (A) (A)
                 (A) (A) (A) (A) (A) (A) (A) (A) (A) (A) (A) (A)
                 (A) (A) (A) (A) (A) (A) (A) (A) (A) (A) (A) (A)
                 (A) (A) (A) (A) (A) (A) (A) (A) (A) (A) (A) (A)
                 (A) (A) (A) (A) (A) (A) (A) (A) (A) (A) (A) (A)
                 (A) (A) (A) (A) (A) (A) (A) (A) (A) (A) (A) (A)
                 (A) (A) (A) (A) (A) (A) (A) (A) (A) (A) (A) (A)
                 (A) (A) (A) (A) (A) (A) (A) (A) (A) (A) (A) (A)
                 (A) (A) (A) (A) (A) (A) (A) (A) (A) (A) (A) (A)
                 (A) (A) (A) (A) (A) (A) (A) (A) (A) (A) (A) (A)
                 (A) (A) (A) (A) (A) (A) (A) (A) (A) (A) (A) (A)
                 (A) (A) (A) (A) (A) (A) (A) (A) (A) (A) (A) (A)
                 (A) (A) (A) (A) (A) (A) (A) (A) (A) (A) (A) (A)
                 (A) (A) (A) (A) (A) (A) (A) (A) (A) (A) (A) (A)
                 (A) (A) (A) (A) (A) (A) (A) (A) (A) (A) (A) (A)
                 (A) (A) (A) (A) (A) (A) (A) (A) (A) (A) (A) (A)
                 (A) (A) (A) (A) (A) (A) (A) (A) (A) (A) (A) (A)
                 (A) (A) (A) (A) (A) (A) (A) (A) (A) (A) (A) (A)
                 (A) (A) (A) (A) (A) (A) (A) (A) (A) (A) (A) (A)
                 (A) (A) (A) (A) (A) (A) (A) (A) (A) (A) (A) (A)
                 (A) (A) (A) (A) (A) (A) (A) (A) (A) (A) (A) (A)
                 (A) (A) (A) (A) (A) (A) (A) (A) (A) (A) (A) (A)
                 (A) (A) (A) (A) (A) (A) (A) (A) (A) (A) (A) (A)
                 (A) (A) (A) (A) (A) (A) (A) (A) (A) (A) (A) (A)
                 (A) (A) (A)
 The electronic state is 1-A.
 Alpha  occ. eigenvalues --  -92.22350 -26.38650 -26.38621 -26.38396 -20.63828
 Alpha  occ. eigenvalues --  -20.58743 -20.58713 -20.57523 -15.64489 -11.55381
 Alpha  occ. eigenvalues --  -11.44340 -11.34025 -11.30789 -11.29343 -11.29222
 Alpha  occ. eigenvalues --  -11.28992 -11.27452 -11.26350 -11.24660 -11.23701
 Alpha  occ. eigenvalues --   -9.19820  -6.88403  -6.88347  -6.88300  -1.77181
 Alpha  occ. eigenvalues --   -1.67408  -1.67372  -1.50222  -1.48434  -1.39443
 Alpha  occ. eigenvalues --   -1.37274  -1.30028  -1.19551  -1.09713  -1.07569
 Alpha  occ. eigenvalues --   -1.06393  -1.03032  -0.97401  -0.93652  -0.89528
 Alpha  occ. eigenvalues --   -0.88265  -0.85909  -0.85893  -0.84154  -0.82368
 Alpha  occ. eigenvalues --   -0.80620  -0.78015  -0.75618  -0.74287  -0.74008
 Alpha  occ. eigenvalues --   -0.72233  -0.71700  -0.69761  -0.69540  -0.68885
 Alpha  occ. eigenvalues --   -0.67822  -0.67451  -0.67132  -0.65584  -0.64907
 Alpha  occ. eigenvalues --   -0.64760  -0.63378  -0.62431  -0.60026  -0.59339
 Alpha  occ. eigenvalues --   -0.56845  -0.55483  -0.54399  -0.53423  -0.52556
 Alpha  occ. eigenvalues --   -0.52089  -0.50941  -0.50797  -0.49838  -0.48666
 Alpha  occ. eigenvalues --   -0.48420  -0.48291  -0.46505  -0.37829  -0.35219
 Alpha virt. eigenvalues --    0.04854   0.06161   0.07282   0.07552   0.08185
 Alpha virt. eigenvalues --    0.08519   0.08786   0.08855   0.09575   0.09914
 Alpha virt. eigenvalues --    0.10299   0.10471   0.11539   0.12009   0.12431
 Alpha virt. eigenvalues --    0.12589   0.13219   0.13499   0.14054   0.14212
 Alpha virt. eigenvalues --    0.14960   0.15181   0.15754   0.16593   0.17099
 Alpha virt. eigenvalues --    0.17700   0.18268   0.18751   0.19938   0.20168
 Alpha virt. eigenvalues --    0.20394   0.21268   0.21778   0.22050   0.22582
 Alpha virt. eigenvalues --    0.22944   0.23582   0.24135   0.24528   0.25011
 Alpha virt. eigenvalues --    0.25767   0.25979   0.26457   0.26936   0.27478
 Alpha virt. eigenvalues --    0.27943   0.28780   0.29574   0.29836   0.30647
 Alpha virt. eigenvalues --    0.30745   0.31690   0.31924   0.32413   0.32722
 Alpha virt. eigenvalues --    0.33226   0.33496   0.33846   0.34883   0.35562
 Alpha virt. eigenvalues --    0.36051   0.36243   0.36604   0.37005   0.38051
 Alpha virt. eigenvalues --    0.38296   0.38586   0.39041   0.39482   0.39892
 Alpha virt. eigenvalues --    0.40558   0.40912   0.41214   0.41440   0.41855
 Alpha virt. eigenvalues --    0.42278   0.42385   0.42459   0.43441   0.43843
 Alpha virt. eigenvalues --    0.44204   0.44409   0.44669   0.44949   0.45765
 Alpha virt. eigenvalues --    0.46390   0.46778   0.47061   0.47781   0.47974
 Alpha virt. eigenvalues --    0.48136   0.48468   0.49585   0.50050   0.50822
 Alpha virt. eigenvalues --    0.51659   0.52315   0.52992   0.53165   0.53714
 Alpha virt. eigenvalues --    0.54291   0.56743   0.57852   0.58390   0.59344
 Alpha virt. eigenvalues --    0.60369   0.61394   0.61657   0.62163   0.63318
 Alpha virt. eigenvalues --    0.65652   0.67979   0.73833   0.75239   0.76584
 Alpha virt. eigenvalues --    0.78328   0.80183   0.83160   0.83846   0.84065
 Alpha virt. eigenvalues --    0.88202   0.88796   0.89609   0.90650   0.91064
 Alpha virt. eigenvalues --    0.91317   0.91849   0.92379   0.93391   0.94291
 Alpha virt. eigenvalues --    0.96010   0.97913   0.98722   1.00665   1.01563
 Alpha virt. eigenvalues --    1.01746   1.03424   1.03652   1.04893   1.07560
 Alpha virt. eigenvalues --    1.07893   1.08561   1.09270   1.10756   1.12274
 Alpha virt. eigenvalues --    1.13931   1.16409   1.16744   1.17212   1.17725
 Alpha virt. eigenvalues --    1.19432   1.19927   1.20828   1.21858   1.25085
 Alpha virt. eigenvalues --    1.25215   1.25560   1.27759   1.29020   1.29678
 Alpha virt. eigenvalues --    1.30897   1.31626   1.33091   1.34169   1.35267
 Alpha virt. eigenvalues --    1.36461   1.37998   1.38666   1.39502   1.43853
 Alpha virt. eigenvalues --    1.44724   1.45596   1.46231   1.47084   1.48884
 Alpha virt. eigenvalues --    1.50359   1.51186   1.51988   1.52869   1.55359
 Alpha virt. eigenvalues --    1.55810   1.56852   1.57339   1.58674   1.59562
 Alpha virt. eigenvalues --    1.60254   1.61777   1.62291   1.63656   1.65970
 Alpha virt. eigenvalues --    1.66295   1.67077   1.67747   1.67972   1.69525
 Alpha virt. eigenvalues --    1.70503   1.71570   1.74224   1.74436   1.76355
 Alpha virt. eigenvalues --    1.77554   1.77772   1.79937   1.80402   1.84292
 Alpha virt. eigenvalues --    1.88928   1.89645   1.89920   1.91344   1.91853
 Alpha virt. eigenvalues --    1.93158   1.95152   1.95347   1.97174   1.97304
 Alpha virt. eigenvalues --    1.97929   1.99345   2.02799   2.03190   2.04704
 Alpha virt. eigenvalues --    2.05686   2.07625   2.07996   2.09245   2.09713
 Alpha virt. eigenvalues --    2.10547   2.11534   2.12349   2.12956   2.14161
 Alpha virt. eigenvalues --    2.15093   2.15613   2.16829   2.19189   2.19705
 Alpha virt. eigenvalues --    2.20863   2.22607   2.23115   2.24359   2.25944
 Alpha virt. eigenvalues --    2.26908   2.27398   2.28678   2.29753   2.31198
 Alpha virt. eigenvalues --    2.32386   2.33142   2.34260   2.34971   2.35300
 Alpha virt. eigenvalues --    2.36473   2.36927   2.38508   2.40211   2.42025
 Alpha virt. eigenvalues --    2.43168   2.45021   2.45422   2.46074   2.48563
 Alpha virt. eigenvalues --    2.49588   2.51154   2.52536   2.53750   2.54958
 Alpha virt. eigenvalues --    2.56821   2.58407   2.59731   2.60383   2.63329
 Alpha virt. eigenvalues --    2.64677   2.65382   2.67200   2.68799   2.70558
 Alpha virt. eigenvalues --    2.71788   2.73146   2.73234   2.80442   2.83967
 Alpha virt. eigenvalues --    2.89022   2.95719   2.96141   3.00438   3.00956
 Alpha virt. eigenvalues --    3.02285   3.05186   3.08043   3.09122   3.11034
 Alpha virt. eigenvalues --    3.12283   3.15424   3.16126   3.17326   3.21918
 Alpha virt. eigenvalues --    3.25182   3.26978   3.30585   3.34669   3.42012
 Alpha virt. eigenvalues --    3.50355   3.55917   3.57913   3.60246   3.61528
 Alpha virt. eigenvalues --    3.70875   3.79449   4.36000   4.59602   4.65767
 Alpha virt. eigenvalues --    4.66030   4.71810   4.74908   4.78160   4.78731
 Alpha virt. eigenvalues --    4.83427   4.84537   4.85590   4.87779   4.93428
 Alpha virt. eigenvalues --    4.97023   5.02561   5.09467   5.17406   6.19958
 Alpha virt. eigenvalues --    6.23613   6.84637
          Condensed to atoms (all electrons):
               1          2          3          4          5          6
     1  C   20.825819  -0.117495  -0.501991  -0.435566  -0.166341  -0.475189
     2  N   -0.117495   7.605004   0.408558  -0.011302  -0.076648  -0.126885
     3  C   -0.501991   0.408558   6.410960   0.581010   0.314976  -0.431009
     4  O   -0.435566  -0.011302   0.581010   8.238080  -0.151483  -0.139265
     5  O   -0.166341  -0.076648   0.314976  -0.151483   8.522065   0.163314
     6  C   -0.475189  -0.126885  -0.431009  -0.139265   0.163314   6.646378
     7  C    0.006607   0.020822   0.002753   0.020253  -0.127962  -0.151752
     8  C   -0.008041   0.002209  -0.070622   0.001098   0.021821  -0.038108
     9  C    0.477183  -0.340225   0.356599   0.415047   0.063505   0.101414
    10  C   -4.386556   0.109900   1.006573   0.170623   0.022340   0.107719
    11  C   -8.500973   0.003803  -0.971488   0.006383   0.009479  -0.064064
    12  C    2.367556   0.111063   0.111239   0.004710   0.006295   0.004097
    13  C   -2.507731   0.059907  -2.022643  -0.106128  -0.053856  -0.308210
    14  H   -0.010696   0.269892  -0.030216   0.003887   0.003791  -0.012053
    15  H    0.004348   0.004183   0.033093  -0.004667  -0.036168   0.379112
    16  H    0.004324   0.004661   0.039898  -0.004759  -0.036415   0.372612
    17  H    0.000016  -0.000457   0.000486  -0.000291  -0.001440  -0.048454
    18  H    0.000006  -0.000370   0.002398  -0.000298  -0.001389  -0.050009
    19  H    0.000004  -0.000050  -0.001768  -0.000065  -0.000786  -0.024327
    20  H    0.000053   0.000025   0.004481   0.000015  -0.000155   0.066159
    21  H    0.000015  -0.000052  -0.001617  -0.000066  -0.000790  -0.024882
    22  H    0.023205  -0.008771   0.090447  -0.007551   0.000724   0.010867
    23  C    0.319911  -0.002422   0.010904   0.000050  -0.000093   0.000105
    24  H    0.018550  -0.000143   0.002893  -0.000004  -0.000002   0.000032
    25  H    0.124259  -0.009587  -0.017206   0.000121  -0.000255  -0.001098
    26  F   -0.051347   0.000062  -0.001431  -0.000000   0.000000  -0.000010
    27  F   -0.005491   0.000005  -0.000028  -0.000000   0.000000  -0.000000
    28  F   -0.041617   0.000066  -0.001623   0.000004   0.000000  -0.000012
    29  S   -1.078314   0.015106  -0.077932  -0.000105   0.001137  -0.001366
    30  O   -0.030921   0.000145  -0.001797  -0.000010   0.000001  -0.000009
    31  O   -0.058115  -0.000016  -0.002660   0.000004   0.000001  -0.000026
    32  H   -0.023221  -0.000143  -0.001378  -0.000012   0.000001  -0.000069
               7          8          9         10         11         12
     1  C    0.006607  -0.008041   0.477183  -4.386556  -8.500973   2.367556
     2  N    0.020822   0.002209  -0.340225   0.109900   0.003803   0.111063
     3  C    0.002753  -0.070622   0.356599   1.006573  -0.971488   0.111239
     4  O    0.020253   0.001098   0.415047   0.170623   0.006383   0.004710
     5  O   -0.127962   0.021821   0.063505   0.022340   0.009479   0.006295
     6  C   -0.151752  -0.038108   0.101414   0.107719  -0.064064   0.004097
     7  C    5.746338   0.203596  -0.051047  -0.013820  -0.004097   0.000855
     8  C    0.203596   5.450003   0.000426   0.000509  -0.000430  -0.000404
     9  C   -0.051047   0.000426  21.180790  -0.288824  -5.962432  -8.823860
    10  C   -0.013820   0.000509  -0.288824  20.733580  -0.908765  -2.290715
    11  C   -0.004097  -0.000430  -5.962432  -0.908765  26.142702  -5.499018
    12  C    0.000855  -0.000404  -8.823860  -2.290715  -5.499018  27.536450
    13  C    0.030615  -0.003631  -1.157843  -7.673728   2.570698  -8.175549
    14  H   -0.000632  -0.000256   0.014002   0.007938   0.003690   0.022706
    15  H   -0.038556  -0.005576  -0.002973  -0.000261  -0.000048   0.000021
    16  H   -0.037679  -0.006596  -0.003544  -0.000373  -0.000125   0.000075
    17  H    0.413834  -0.031564  -0.000248   0.000002  -0.000001   0.000006
    18  H    0.414401  -0.032576  -0.000303  -0.000005  -0.000003   0.000012
    19  H   -0.025810   0.406691  -0.000064  -0.000003  -0.000000   0.000000
    20  H   -0.102584   0.394766   0.000036   0.000001   0.000000  -0.000000
    21  H   -0.025479   0.406742  -0.000055  -0.000002  -0.000000   0.000000
    22  H   -0.000092   0.000039   0.272341  -0.024024  -0.011723   0.018520
    23  C    0.000019  -0.000000   0.245044   0.862932  -0.681719   0.165418
    24  H    0.000000   0.000000  -0.008036  -0.023331   0.030959   0.301791
    25  H   -0.000015  -0.000003   0.004637   0.009489   0.023849   0.052907
    26  F   -0.000000  -0.000000  -0.000952  -0.068285   0.079000  -0.108175
    27  F   -0.000000   0.000000  -0.006740  -0.043072   0.041309  -0.015690
    28  F   -0.000000  -0.000000   0.011109  -0.063184   0.064384  -0.091279
    29  S   -0.000234  -0.000009  -0.703276  -1.817499   0.141391   1.060435
    30  O   -0.000000  -0.000000  -0.022953  -0.302961  -0.177254   0.163092
    31  O   -0.000000  -0.000000   0.179512   0.415967   0.026442  -0.730352
    32  H    0.000001  -0.000000   0.007395   0.385545  -0.008508  -0.063264
              13         14         15         16         17         18
     1  C   -2.507731  -0.010696   0.004348   0.004324   0.000016   0.000006
     2  N    0.059907   0.269892   0.004183   0.004661  -0.000457  -0.000370
     3  C   -2.022643  -0.030216   0.033093   0.039898   0.000486   0.002398
     4  O   -0.106128   0.003887  -0.004667  -0.004759  -0.000291  -0.000298
     5  O   -0.053856   0.003791  -0.036168  -0.036415  -0.001440  -0.001389
     6  C   -0.308210  -0.012053   0.379112   0.372612  -0.048454  -0.050009
     7  C    0.030615  -0.000632  -0.038556  -0.037679   0.413834   0.414401
     8  C   -0.003631  -0.000256  -0.005576  -0.006596  -0.031564  -0.032576
     9  C   -1.157843   0.014002  -0.002973  -0.003544  -0.000248  -0.000303
    10  C   -7.673728   0.007938  -0.000261  -0.000373   0.000002  -0.000005
    11  C    2.570698   0.003690  -0.000048  -0.000125  -0.000001  -0.000003
    12  C   -8.175549   0.022706   0.000021   0.000075   0.000006   0.000012
    13  C   26.140322  -0.016876   0.000773   0.001075   0.000217   0.000282
    14  H   -0.016876   0.239098  -0.000001  -0.000002  -0.000004  -0.000005
    15  H    0.000773  -0.000001   0.487729  -0.035310   0.003133  -0.003612
    16  H    0.001075  -0.000002  -0.035310   0.488386  -0.003624   0.003137
    17  H    0.000217  -0.000004   0.003133  -0.003624   0.495126  -0.029112
    18  H    0.000282  -0.000005  -0.003612   0.003137  -0.029112   0.494845
    19  H    0.000016  -0.000000   0.000168   0.001386  -0.003216   0.003304
    20  H   -0.000012  -0.000000  -0.000114  -0.000114  -0.002568  -0.002586
    21  H    0.000013  -0.000000   0.001392   0.000163   0.003308  -0.003199
    22  H   -0.040427  -0.000100  -0.000003  -0.000003  -0.000000  -0.000000
    23  C    0.062637  -0.000023  -0.000000   0.000000  -0.000000   0.000000
    24  H   -0.009549  -0.000006   0.000000  -0.000000  -0.000000  -0.000000
    25  H    0.129985   0.004204  -0.000000  -0.000000  -0.000000  -0.000000
    26  F    0.072071   0.000000   0.000000  -0.000000   0.000000  -0.000000
    27  F   -0.002311  -0.000000   0.000000  -0.000000   0.000000  -0.000000
    28  F    0.036610  -0.000000   0.000000  -0.000000   0.000000  -0.000000
    29  S   -0.157920   0.000569  -0.000002  -0.000003  -0.000000  -0.000000
    30  O    0.158838   0.000000  -0.000000  -0.000000  -0.000000  -0.000000
    31  O    0.057782   0.000001  -0.000000  -0.000000  -0.000000  -0.000000
    32  H   -0.001541   0.000001   0.000000   0.000000   0.000000   0.000000
              19         20         21         22         23         24
     1  C    0.000004   0.000053   0.000015   0.023205   0.319911   0.018550
     2  N   -0.000050   0.000025  -0.000052  -0.008771  -0.002422  -0.000143
     3  C   -0.001768   0.004481  -0.001617   0.090447   0.010904   0.002893
     4  O   -0.000065   0.000015  -0.000066  -0.007551   0.000050  -0.000004
     5  O   -0.000786  -0.000155  -0.000790   0.000724  -0.000093  -0.000002
     6  C   -0.024327   0.066159  -0.024882   0.010867   0.000105   0.000032
     7  C   -0.025810  -0.102584  -0.025479  -0.000092   0.000019   0.000000
     8  C    0.406691   0.394766   0.406742   0.000039  -0.000000   0.000000
     9  C   -0.000064   0.000036  -0.000055   0.272341   0.245044  -0.008036
    10  C   -0.000003   0.000001  -0.000002  -0.024024   0.862932  -0.023331
    11  C   -0.000000   0.000000  -0.000000  -0.011723  -0.681719   0.030959
    12  C    0.000000  -0.000000   0.000000   0.018520   0.165418   0.301791
    13  C    0.000016  -0.000012   0.000013  -0.040427   0.062637  -0.009549
    14  H   -0.000000  -0.000000  -0.000000  -0.000100  -0.000023  -0.000006
    15  H    0.000168  -0.000114   0.001392  -0.000003  -0.000000   0.000000
    16  H    0.001386  -0.000114   0.000163  -0.000003   0.000000  -0.000000
    17  H   -0.003216  -0.002568   0.003308  -0.000000  -0.000000  -0.000000
    18  H    0.003304  -0.002586  -0.003199  -0.000000   0.000000  -0.000000
    19  H    0.503589  -0.024616  -0.031363  -0.000000   0.000000   0.000000
    20  H   -0.024616   0.486453  -0.024606   0.000000  -0.000000  -0.000000
    21  H   -0.031363  -0.024606   0.503495  -0.000000   0.000000   0.000000
    22  H   -0.000000   0.000000  -0.000000   0.357841  -0.000181   0.000007
    23  C    0.000000  -0.000000   0.000000  -0.000181   5.694435   0.000938
    24  H    0.000000  -0.000000   0.000000   0.000007   0.000938   0.375804
    25  H   -0.000000   0.000000  -0.000000  -0.000077  -0.000641  -0.001020
    26  F   -0.000000   0.000000   0.000000   0.000001   0.061520   0.000140
    27  F   -0.000000  -0.000000   0.000000  -0.000000   0.097058   0.000002
    28  F    0.000000  -0.000000  -0.000000  -0.000021   0.054998   0.000028
    29  S   -0.000000   0.000000  -0.000000   0.000994  -1.724455   0.011496
    30  O   -0.000000   0.000000  -0.000000  -0.000041  -0.144101   0.000294
    31  O   -0.000000   0.000000  -0.000000   0.000013  -0.144697   0.001696
    32  H    0.000000  -0.000000  -0.000000  -0.000569  -0.000725  -0.000075
              25         26         27         28         29         30
     1  C    0.124259  -0.051347  -0.005491  -0.041617  -1.078314  -0.030921
     2  N   -0.009587   0.000062   0.000005   0.000066   0.015106   0.000145
     3  C   -0.017206  -0.001431  -0.000028  -0.001623  -0.077932  -0.001797
     4  O    0.000121  -0.000000  -0.000000   0.000004  -0.000105  -0.000010
     5  O   -0.000255   0.000000   0.000000   0.000000   0.001137   0.000001
     6  C   -0.001098  -0.000010  -0.000000  -0.000012  -0.001366  -0.000009
     7  C   -0.000015  -0.000000  -0.000000  -0.000000  -0.000234  -0.000000
     8  C   -0.000003  -0.000000   0.000000  -0.000000  -0.000009  -0.000000
     9  C    0.004637  -0.000952  -0.006740   0.011109  -0.703276  -0.022953
    10  C    0.009489  -0.068285  -0.043072  -0.063184  -1.817499  -0.302961
    11  C    0.023849   0.079000   0.041309   0.064384   0.141391  -0.177254
    12  C    0.052907  -0.108175  -0.015690  -0.091279   1.060435   0.163092
    13  C    0.129985   0.072071  -0.002311   0.036610  -0.157920   0.158838
    14  H    0.004204   0.000000  -0.000000  -0.000000   0.000569   0.000000
    15  H   -0.000000   0.000000   0.000000   0.000000  -0.000002  -0.000000
    16  H   -0.000000  -0.000000  -0.000000  -0.000000  -0.000003  -0.000000
    17  H   -0.000000   0.000000   0.000000   0.000000  -0.000000  -0.000000
    18  H   -0.000000  -0.000000  -0.000000  -0.000000  -0.000000  -0.000000
    19  H   -0.000000  -0.000000  -0.000000   0.000000  -0.000000  -0.000000
    20  H    0.000000   0.000000  -0.000000  -0.000000   0.000000   0.000000
    21  H   -0.000000   0.000000   0.000000  -0.000000  -0.000000  -0.000000
    22  H   -0.000077   0.000001  -0.000000  -0.000021   0.000994  -0.000041
    23  C   -0.000641   0.061520   0.097058   0.054998  -1.724455  -0.144101
    24  H   -0.001020   0.000140   0.000002   0.000028   0.011496   0.000294
    25  H    0.430516  -0.000023  -0.000000   0.000001   0.008279   0.000029
    26  F   -0.000023   9.281605  -0.012005  -0.009033   0.091773   0.012272
    27  F   -0.000000  -0.012005   9.252779  -0.013376   0.066855   0.003611
    28  F    0.000001  -0.009033  -0.013376   9.279431   0.103601   0.015255
    29  S    0.008279   0.091773   0.066855   0.103601  17.631695   0.494245
    30  O    0.000029   0.012272   0.003611   0.015255   0.494245   8.551871
    31  O    0.000003   0.015339   0.004811   0.012761   0.405496  -0.097787
    32  H    0.000009   0.000024   0.000004   0.000294   0.029588   0.003526
              31         32
     1  C   -0.058115  -0.023221
     2  N   -0.000016  -0.000143
     3  C   -0.002660  -0.001378
     4  O    0.000004  -0.000012
     5  O    0.000001   0.000001
     6  C   -0.000026  -0.000069
     7  C   -0.000000   0.000001
     8  C   -0.000000  -0.000000
     9  C    0.179512   0.007395
    10  C    0.415967   0.385545
    11  C    0.026442  -0.008508
    12  C   -0.730352  -0.063264
    13  C    0.057782  -0.001541
    14  H    0.000001   0.000001
    15  H   -0.000000   0.000000
    16  H   -0.000000   0.000000
    17  H   -0.000000   0.000000
    18  H   -0.000000   0.000000
    19  H   -0.000000   0.000000
    20  H    0.000000  -0.000000
    21  H   -0.000000  -0.000000
    22  H    0.000013  -0.000569
    23  C   -0.144697  -0.000725
    24  H    0.001696  -0.000075
    25  H    0.000003   0.000009
    26  F    0.015339   0.000024
    27  F    0.004811   0.000004
    28  F    0.012761   0.000294
    29  S    0.405496   0.029588
    30  O   -0.097787   0.003526
    31  O    8.548168   0.000289
    32  H    0.000289   0.374526
 Mulliken charges:
               1
     1  C    0.227749
     2  N   -0.920844
     3  C    0.758138
     4  O   -0.579714
     5  O   -0.475668
     6  C    0.044987
     7  C   -0.280335
     8  C   -0.690083
     9  C    0.044335
    10  C    0.072290
    11  C   -0.353442
    12  C   -0.128942
    13  C   -1.083886
    14  H    0.501092
    15  H    0.213339
    16  H    0.212829
    17  H    0.204853
    18  H    0.205079
    19  H    0.196911
    20  H    0.205365
    21  H    0.196983
    22  H    0.318586
    23  C    1.123089
    24  H    0.297538
    25  H    0.241637
    26  F   -0.362545
    27  F   -0.367719
    28  F   -0.358399
    29  S    1.498453
    30  O   -0.625344
    31  O   -0.634633
    32  H    0.298302
 Sum of Mulliken charges =  -0.00000
 Mulliken charges with hydrogens summed into heavy atoms:
               1
     1  C    0.227749
     2  N   -0.419753
     3  C    0.758138
     4  O   -0.579714
     5  O   -0.475668
     6  C    0.471155
     7  C    0.129597
     8  C   -0.090824
     9  C    0.362921
    10  C    0.370591
    11  C   -0.353442
    12  C    0.168595
    13  C   -0.842249
    23  C    1.123089
    26  F   -0.362545
    27  F   -0.367719
    28  F   -0.358399
    29  S    1.498453
    30  O   -0.625344
    31  O   -0.634633
 Electronic spatial extent (au):  <R**2>=          10804.5221
 Charge=             -0.0000 electrons
 Dipole moment (field-independent basis, Debye):
    X=              7.9356    Y=              2.0617    Z=              2.6265  Tot=              8.6094
 Quadrupole moment (field-independent basis, Debye-Ang):
   XX=           -124.5107   YY=           -122.9701   ZZ=           -128.6414
   XY=              7.0490   XZ=             -5.9458   YZ=              1.0994
 Traceless Quadrupole moment (field-independent basis, Debye-Ang):
   XX=              0.8634   YY=              2.4040   ZZ=             -3.2673
   XY=              7.0490   XZ=             -5.9458   YZ=              1.0994
 Octapole moment (field-independent basis, Debye-Ang**2):
  XXX=            215.0213  YYY=             -0.0696  ZZZ=             27.8508  XYY=            -11.7747
  XXY=            -12.4458  XXZ=             55.9911  XZZ=             -2.7721  YZZ=             -4.3632
  YYZ=             16.9740  XYZ=             -3.3526
 Hexadecapole moment (field-independent basis, Debye-Ang**3):
 XXXX=         -11606.2537 YYYY=           -701.2896 ZZZZ=           -595.6291 XXXY=            108.6824
 XXXZ=           -202.3710 YYYX=             84.8905 YYYZ=             14.8697 ZZZX=           -112.7817
 ZZZY=            -18.2459 XXYY=          -2274.9071 XXZZ=          -2202.6156 YYZZ=           -225.2153
 XXYZ=            -24.4238 YYXZ=            -33.3040 ZZXY=              5.7730
 N-N= 1.753080526380D+03 E-N=-6.983310552103D+03  KE= 1.470060783355D+03
 1\1\GINC-R3719\SP\RMP2-FC\Gen\C11H12F3N1O4S1\ROOT\09-Dec-2019\0\\# MP2
 /Gen 6D SCF=Tight INT(grid=ultrafine) maxdisk=3489660928\\CP21CA.MP2_6
 -31pGd\\0,1\C,0,-6.0635807212,1.3542496482,0.3272924859\N,0,-4.7938026
 145,0.7948202192,0.1963291461\C,0,-3.5875129536,1.4529506957,0.1100083
 698\O,0,-3.4209036541,2.6433882887,0.1277832085\O,0,-2.6084719663,0.54
 2935799,0.000751672\C,0,-1.2777566449,1.0770033745,-0.0997123396\C,0,-
 0.320890383,-0.0902293711,-0.207346622\C,0,1.1213272101,0.3969987839,-
 0.3179395529\C,0,-6.2905409748,2.7357647924,0.3940812289\C,0,-7.587863
 2977,3.2056399824,0.5270793799\C,0,-8.6465887735,2.3066293632,0.592704
 0637\C,0,-8.4372514966,0.9312987539,0.5294873348\C,0,-7.1453956881,0.4
 621849053,0.3979313898\H,0,-4.7326646931,-0.2123906061,0.1633643071\H,
 0,-1.076694219,1.6869352244,0.7842326607\H,0,-1.2258345129,1.727607067
 9,-0.976006201\H,0,-0.5883893103,-0.6911117196,-1.0807177899\H,0,-0.44
 07187989,-0.7307282757,0.6706039631\H,0,1.2620973218,1.0234478249,-1.2
 020332148\H,0,1.8128573624,-0.4428268606,-0.3940394764\H,0,1.409660810
 5,0.9856037852,0.5562996529\H,0,-5.4617342307,3.4249202312,0.347554745
 4\C,0,-10.7750630882,3.1114294259,-1.0672188869\H,0,-9.2767097459,0.24
 91244509,0.5959053562\H,0,-6.9640375505,-0.6066589381,0.3542437\F,0,-1
 0.7028406676,1.9392798465,-1.685058544\F,0,-12.0127500047,3.5676472414
 ,-1.1344862324\F,0,-9.9563254832,3.9651037789,-1.6668835506\S,0,-10.29
 23804446,2.9171140092,0.7255936529\O,0,-10.2770332287,4.2614028654,1.2
 603651205\O,0,-11.1584857299,1.8772018272,1.2390629126\H,0,-7.78015182
 83,4.2704335856,0.5921680595\\Version=ES64L-G09RevE.01\State=1-A\HF=-1
 473.2446174\MP2=-1476.2138744\RMSD=4.713e-09\PG=C01 [X(C11H12F3N1O4S1)
 ]\\@


 IF THERE IS ONE WAY BETTER THAN ANOTHER IT IS THE WAY OF NATURE.

                          -- ARISTOTLE
 Job cpu time:       0 days  0 hours 18 minutes 54.4 seconds.
 File lengths (MBytes):  RWF=     91 Int=      0 D2E=      0 Chk=     11 Scr=      1
 Normal termination of Gaussian 09 at Mon Dec  9 11:23:50 2019.
pbs_rusage has been removed.
Please contact help@nci.org.au if you require this functionality.
