 Entering Gaussian System, Link 0=/apps/gaussian/g09e01/g09/g09
 Initial command:
 /apps/gaussian/g09e01/g09/l1.exe "/jobfs/local/4111352.r-man2/Gau-43207.inp" -scrdir="/jobfs/local/4111352.r-man2/"
 Entering Link 1 = /apps/gaussian/g09e01/g09/l1.exe PID=     43208.
  
 Copyright (c) 1988,1990,1992,1993,1995,1998,2003,2009,2015,
            Gaussian, Inc.  All Rights Reserved.
  
 This is part of the Gaussian(R) 09 program.  It is based on
 the Gaussian(R) 03 system (copyright 2003, Gaussian, Inc.),
 the Gaussian(R) 98 system (copyright 1998, Gaussian, Inc.),
 the Gaussian(R) 94 system (copyright 1995, Gaussian, Inc.),
 the Gaussian 92(TM) system (copyright 1992, Gaussian, Inc.),
 the Gaussian 90(TM) system (copyright 1990, Gaussian, Inc.),
 the Gaussian 88(TM) system (copyright 1988, Gaussian, Inc.),
 the Gaussian 86(TM) system (copyright 1986, Carnegie Mellon
 University), and the Gaussian 82(TM) system (copyright 1983,
 Carnegie Mellon University). Gaussian is a federally registered
 trademark of Gaussian, Inc.
  
 This software contains proprietary and confidential information,
 including trade secrets, belonging to Gaussian, Inc.
  
 This software is provided under written license and may be
 used, copied, transmitted, or stored only in accord with that
 written license.
  
 The following legend is applicable only to US Government
 contracts under FAR:
  
                    RESTRICTED RIGHTS LEGEND
  
 Use, reproduction and disclosure by the US Government is
 subject to restrictions as set forth in subparagraphs (a)
 and (c) of the Commercial Computer Software - Restricted
 Rights clause in FAR 52.227-19.
  
 Gaussian, Inc.
 340 Quinnipiac St., Bldg. 40, Wallingford CT 06492
  
  
 ---------------------------------------------------------------
 Warning -- This program may not be used in any manner that
 competes with the business of Gaussian, Inc. or will provide
 assistance to any competitor of Gaussian, Inc.  The licensee
 of this program is prohibited from giving any competitor of
 Gaussian, Inc. access to this program.  By using this program,
 the user acknowledges that Gaussian, Inc. is engaged in the
 business of creating and licensing software in the field of
 computational chemistry and represents and warrants to the
 licensee that it is not a competitor of Gaussian, Inc. and that
 it will not use this program in any manner prohibited above.
 ---------------------------------------------------------------
  

 Cite this work as:
 Gaussian 09, Revision E.01,
 M. J. Frisch, G. W. Trucks, H. B. Schlegel, G. E. Scuseria, 
 M. A. Robb, J. R. Cheeseman, G. Scalmani, V. Barone, B. Mennucci, 
 G. A. Petersson, H. Nakatsuji, M. Caricato, X. Li, H. P. Hratchian, 
 A. F. Izmaylov, J. Bloino, G. Zheng, J. L. Sonnenberg, M. Hada, 
 M. Ehara, K. Toyota, R. Fukuda, J. Hasegawa, M. Ishida, T. Nakajima, 
 Y. Honda, O. Kitao, H. Nakai, T. Vreven, J. A. Montgomery, Jr., 
 J. E. Peralta, F. Ogliaro, M. Bearpark, J. J. Heyd, E. Brothers, 
 K. N. Kudin, V. N. Staroverov, T. Keith, R. Kobayashi, J. Normand, 
 K. Raghavachari, A. Rendell, J. C. Burant, S. S. Iyengar, J. Tomasi, 
 M. Cossi, N. Rega, J. M. Millam, M. Klene, J. E. Knox, J. B. Cross, 
 V. Bakken, C. Adamo, J. Jaramillo, R. Gomperts, R. E. Stratmann, 
 O. Yazyev, A. J. Austin, R. Cammi, C. Pomelli, J. W. Ochterski, 
 R. L. Martin, K. Morokuma, V. G. Zakrzewski, G. A. Voth, 
 P. Salvador, J. J. Dannenberg, S. Dapprich, A. D. Daniels, 
 O. Farkas, J. B. Foresman, J. V. Ortiz, J. Cioslowski, 
 and D. J. Fox, Gaussian, Inc., Wallingford CT, 2013.
 
 ******************************************
 Gaussian 09:  ES64L-G09RevE.01 30-Nov-2015
                12-Dec-2019 
 ******************************************
 %chk=CP21CA.M062X_6-311pGd_opt_water_GD3.chk
 %mem=196608000
 %nproc=4
 Will use up to    4 processors via shared memory.
 ----------------------------------------------------------------------
 # M062X/6-311+G* SCF=Tight INT(grid=ultrafine) OPT=CalcFC IOP(2/17=4) 
 EmpiricalDispersion=GD3 SCRF=(SMD,Solvent=h2o) maxdisk=2684354560
 ----------------------------------------------------------------------
 1/10=4,14=-1,18=20,19=15,26=4,38=1/1,3;
 2/9=110,12=2,17=4,18=5,40=1/2;
 3/5=4,6=6,7=11,11=2,16=1,25=1,30=1,70=32201,71=2,72=1,74=-55,75=-5,124=31,140=1/1,2,3;
 4//1;
 5/5=2,32=2,38=5,53=1/2;
 8/6=4,10=90,11=11/1;
 11/6=1,8=1,9=11,15=111,16=1/1,2,10;
 10/6=1,13=1/2;
 6/7=2,8=2,9=2,10=2,28=1/1;
 7/10=1,18=20,25=1/1,2,3,16;
 1/10=4,14=-1,18=20,19=15,26=4/3(2);
 2/9=110,17=4/2;
 99//99;
 2/9=110,17=4/2;
 3/5=4,6=6,7=11,11=2,16=1,25=1,30=1,70=32205,71=1,72=1,74=-55,75=-5,124=31/1,2,3;
 4/5=5,16=3,69=1/1;
 5/5=2,32=2,38=5,53=1/2;
 7//1,2,3,16;
 1/14=-1,18=20,19=15,26=4/3(-5);
 2/9=110,17=4/2;
 6/7=2,8=2,9=2,10=2,19=2,28=1/1;
 99/9=1/99;
 -----------------------------------
 CP21CA.M062X_6-311pGd_opt_water_GD3
 -----------------------------------
 Symbolic Z-matrix:
 Charge =  0 Multiplicity = 1
 C                    -6.09635   1.22727   0.14418 
 N                    -4.83593   0.54338   0.02843 
 C                    -3.57992   1.08209   0.06095 
 O                    -3.3992    2.28005   0.20709 
 O                    -2.38963   0.15867  -0.08316 
 C                    -1.08651   0.74667   0.47964 
 C                     0.07828  -0.23429   0.30041 
 C                     1.04869  -0.16028   1.47549 
 C                    -6.34224   2.54178  -0.32272 
 C                    -7.60333   3.12867  -0.16822 
 C                    -8.64113   2.42697   0.45282 
 C                    -8.4136    1.13041   0.91571 
 C                    -7.15837   0.53864   0.76243 
 H                    -4.88302  -0.48115  -0.08882 
 H                    -1.22034   0.96261   1.56288 
 H                    -0.85092   1.69559  -0.05123 
 H                     0.62862   0.00678  -0.63526 
 H                    -0.31453  -1.27184   0.22574 
 H                     1.47413   0.86222   1.56167 
 H                     1.88001  -0.87924   1.3171 
 H                     0.52895  -0.42092   2.42208 
 H                    -5.59864   3.14481  -0.81061 
 C                    -11.77482   2.60815  -0.18398 
 H                    -9.21039   0.57612   1.39558 
 H                    -7.01365  -0.46888   1.13223 
 F                    -12.05425   1.30628   0.18502 
 F                    -12.83287   3.42099   0.17621 
 F                    -11.5926   2.67524  -1.55174 
 S                    -10.26541   3.16491   0.65708 
 O                    -10.13287   4.67949   0.43262 
 O                    -10.5573   3.18276   2.16533 
 H                    -7.76683   4.13361  -0.53551 
 

 GradGradGradGradGradGradGradGradGradGradGradGradGradGradGradGradGradGrad
 Berny optimization.
 Initialization pass.
                           ----------------------------
                           !    Initial Parameters    !
                           ! (Angstroms and Degrees)  !
 --------------------------                            --------------------------
 ! Name  Definition              Value          Derivative Info.                !
 --------------------------------------------------------------------------------
 ! R1    R(1,2)                  1.4387         calculate D2E/DX2 analytically  !
 ! R2    R(1,9)                  1.4165         calculate D2E/DX2 analytically  !
 ! R3    R(1,13)                 1.4087         calculate D2E/DX2 analytically  !
 ! R4    R(2,3)                  1.3671         calculate D2E/DX2 analytically  !
 ! R5    R(2,14)                 1.0323         calculate D2E/DX2 analytically  !
 ! R6    R(3,4)                  1.2203         calculate D2E/DX2 analytically  !
 ! R7    R(3,5)                  1.5134         calculate D2E/DX2 analytically  !
 ! R8    R(5,6)                  1.5364         calculate D2E/DX2 analytically  !
 ! R9    R(6,7)                  1.5333         calculate D2E/DX2 analytically  !
 ! R10   R(6,15)                 1.1126         calculate D2E/DX2 analytically  !
 ! R11   R(6,16)                 1.1126         calculate D2E/DX2 analytically  !
 ! R12   R(7,8)                  1.5258         calculate D2E/DX2 analytically  !
 ! R13   R(7,17)                 1.112          calculate D2E/DX2 analytically  !
 ! R14   R(7,18)                 1.1119         calculate D2E/DX2 analytically  !
 ! R15   R(8,19)                 1.1108         calculate D2E/DX2 analytically  !
 ! R16   R(8,20)                 1.1104         calculate D2E/DX2 analytically  !
 ! R17   R(8,21)                 1.1109         calculate D2E/DX2 analytically  !
 ! R18   R(9,10)                 1.3995         calculate D2E/DX2 analytically  !
 ! R19   R(9,22)                 1.0745         calculate D2E/DX2 analytically  !
 ! R20   R(10,11)                1.3982         calculate D2E/DX2 analytically  !
 ! R21   R(10,32)                1.0824         calculate D2E/DX2 analytically  !
 ! R22   R(11,12)                1.3954         calculate D2E/DX2 analytically  !
 ! R23   R(11,29)                1.7957         calculate D2E/DX2 analytically  !
 ! R24   R(12,13)                1.3962         calculate D2E/DX2 analytically  !
 ! R25   R(12,24)                1.0828         calculate D2E/DX2 analytically  !
 ! R26   R(13,25)                1.083          calculate D2E/DX2 analytically  !
 ! R27   R(23,26)                1.3817         calculate D2E/DX2 analytically  !
 ! R28   R(23,27)                1.382          calculate D2E/DX2 analytically  !
 ! R29   R(23,28)                1.3815         calculate D2E/DX2 analytically  !
 ! R30   R(23,29)                1.8154         calculate D2E/DX2 analytically  !
 ! R31   R(29,30)                1.5368         calculate D2E/DX2 analytically  !
 ! R32   R(29,31)                1.5363         calculate D2E/DX2 analytically  !
 ! A1    A(2,1,9)              124.5212         calculate D2E/DX2 analytically  !
 ! A2    A(2,1,13)             117.6093         calculate D2E/DX2 analytically  !
 ! A3    A(9,1,13)             117.8694         calculate D2E/DX2 analytically  !
 ! A4    A(1,2,3)              128.0029         calculate D2E/DX2 analytically  !
 ! A5    A(1,2,14)             116.1653         calculate D2E/DX2 analytically  !
 ! A6    A(3,2,14)             115.831          calculate D2E/DX2 analytically  !
 ! A7    A(2,3,4)              121.72           calculate D2E/DX2 analytically  !
 ! A8    A(2,3,5)              118.68           calculate D2E/DX2 analytically  !
 ! A9    A(4,3,5)              119.5994         calculate D2E/DX2 analytically  !
 ! A10   A(3,5,6)              113.4961         calculate D2E/DX2 analytically  !
 ! A11   A(5,6,7)              110.8937         calculate D2E/DX2 analytically  !
 ! A12   A(5,6,15)             109.2012         calculate D2E/DX2 analytically  !
 ! A13   A(5,6,16)             109.3436         calculate D2E/DX2 analytically  !
 ! A14   A(7,6,15)             109.2284         calculate D2E/DX2 analytically  !
 ! A15   A(7,6,16)             109.2096         calculate D2E/DX2 analytically  !
 ! A16   A(15,6,16)            108.9349         calculate D2E/DX2 analytically  !
 ! A17   A(6,7,8)              111.2284         calculate D2E/DX2 analytically  !
 ! A18   A(6,7,17)             109.6106         calculate D2E/DX2 analytically  !
 ! A19   A(6,7,18)             109.6608         calculate D2E/DX2 analytically  !
 ! A20   A(8,7,17)             108.8297         calculate D2E/DX2 analytically  !
 ! A21   A(8,7,18)             108.7636         calculate D2E/DX2 analytically  !
 ! A22   A(17,7,18)            108.701          calculate D2E/DX2 analytically  !
 ! A23   A(7,8,19)             110.3643         calculate D2E/DX2 analytically  !
 ! A24   A(7,8,20)             109.5655         calculate D2E/DX2 analytically  !
 ! A25   A(7,8,21)             110.3223         calculate D2E/DX2 analytically  !
 ! A26   A(19,8,20)            108.6819         calculate D2E/DX2 analytically  !
 ! A27   A(19,8,21)            109.2108         calculate D2E/DX2 analytically  !
 ! A28   A(20,8,21)            108.6562         calculate D2E/DX2 analytically  !
 ! A29   A(1,9,10)             120.6105         calculate D2E/DX2 analytically  !
 ! A30   A(1,9,22)             123.3902         calculate D2E/DX2 analytically  !
 ! A31   A(10,9,22)            115.999          calculate D2E/DX2 analytically  !
 ! A32   A(9,10,11)            120.4897         calculate D2E/DX2 analytically  !
 ! A33   A(9,10,32)            119.2094         calculate D2E/DX2 analytically  !
 ! A34   A(11,10,32)           120.3008         calculate D2E/DX2 analytically  !
 ! A35   A(10,11,12)           119.5125         calculate D2E/DX2 analytically  !
 ! A36   A(10,11,29)           121.0409         calculate D2E/DX2 analytically  !
 ! A37   A(12,11,29)           119.4458         calculate D2E/DX2 analytically  !
 ! A38   A(11,12,13)           120.2658         calculate D2E/DX2 analytically  !
 ! A39   A(11,12,24)           120.1781         calculate D2E/DX2 analytically  !
 ! A40   A(13,12,24)           119.556          calculate D2E/DX2 analytically  !
 ! A41   A(1,13,12)            121.2516         calculate D2E/DX2 analytically  !
 ! A42   A(1,13,25)            120.2598         calculate D2E/DX2 analytically  !
 ! A43   A(12,13,25)           118.4886         calculate D2E/DX2 analytically  !
 ! A44   A(26,23,27)           109.2533         calculate D2E/DX2 analytically  !
 ! A45   A(26,23,28)           109.6847         calculate D2E/DX2 analytically  !
 ! A46   A(26,23,29)           109.4745         calculate D2E/DX2 analytically  !
 ! A47   A(27,23,28)           109.2969         calculate D2E/DX2 analytically  !
 ! A48   A(27,23,29)           109.5982         calculate D2E/DX2 analytically  !
 ! A49   A(28,23,29)           109.5195         calculate D2E/DX2 analytically  !
 ! A50   A(11,29,23)           124.9836         calculate D2E/DX2 analytically  !
 ! A51   A(11,29,30)           108.0816         calculate D2E/DX2 analytically  !
 ! A52   A(11,29,31)           106.756          calculate D2E/DX2 analytically  !
 ! A53   A(23,29,30)           107.8354         calculate D2E/DX2 analytically  !
 ! A54   A(23,29,31)           107.4827         calculate D2E/DX2 analytically  !
 ! A55   A(30,29,31)            98.5294         calculate D2E/DX2 analytically  !
 ! D1    D(9,1,2,3)             32.5433         calculate D2E/DX2 analytically  !
 ! D2    D(9,1,2,14)          -147.805          calculate D2E/DX2 analytically  !
 ! D3    D(13,1,2,3)          -147.5984         calculate D2E/DX2 analytically  !
 ! D4    D(13,1,2,14)           32.0533         calculate D2E/DX2 analytically  !
 ! D5    D(2,1,9,10)           179.9299         calculate D2E/DX2 analytically  !
 ! D6    D(2,1,9,22)             0.1403         calculate D2E/DX2 analytically  !
 ! D7    D(13,1,9,10)            0.0719         calculate D2E/DX2 analytically  !
 ! D8    D(13,1,9,22)         -179.7177         calculate D2E/DX2 analytically  !
 ! D9    D(2,1,13,12)          179.9471         calculate D2E/DX2 analytically  !
 ! D10   D(2,1,13,25)            0.0349         calculate D2E/DX2 analytically  !
 ! D11   D(9,1,13,12)           -0.185          calculate D2E/DX2 analytically  !
 ! D12   D(9,1,13,25)          179.9029         calculate D2E/DX2 analytically  !
 ! D13   D(1,2,3,4)              0.3114         calculate D2E/DX2 analytically  !
 ! D14   D(1,2,3,5)           -179.9502         calculate D2E/DX2 analytically  !
 ! D15   D(14,2,3,4)          -179.3413         calculate D2E/DX2 analytically  !
 ! D16   D(14,2,3,5)             0.3971         calculate D2E/DX2 analytically  !
 ! D17   D(2,3,5,6)           -158.2791         calculate D2E/DX2 analytically  !
 ! D18   D(4,3,5,6)             21.465          calculate D2E/DX2 analytically  !
 ! D19   D(3,5,6,7)           -179.88           calculate D2E/DX2 analytically  !
 ! D20   D(3,5,6,15)            59.7073         calculate D2E/DX2 analytically  !
 ! D21   D(3,5,6,16)           -59.3984         calculate D2E/DX2 analytically  !
 ! D22   D(5,6,7,8)           -144.7274         calculate D2E/DX2 analytically  !
 ! D23   D(5,6,7,17)            94.8767         calculate D2E/DX2 analytically  !
 ! D24   D(5,6,7,18)           -24.3811         calculate D2E/DX2 analytically  !
 ! D25   D(15,6,7,8)           -24.3309         calculate D2E/DX2 analytically  !
 ! D26   D(15,6,7,17)         -144.7268         calculate D2E/DX2 analytically  !
 ! D27   D(15,6,7,18)           96.0154         calculate D2E/DX2 analytically  !
 ! D28   D(16,6,7,8)            94.7115         calculate D2E/DX2 analytically  !
 ! D29   D(16,6,7,17)          -25.6843         calculate D2E/DX2 analytically  !
 ! D30   D(16,6,7,18)         -144.9422         calculate D2E/DX2 analytically  !
 ! D31   D(6,7,8,19)           -60.2968         calculate D2E/DX2 analytically  !
 ! D32   D(6,7,8,20)          -179.9355         calculate D2E/DX2 analytically  !
 ! D33   D(6,7,8,21)            60.4836         calculate D2E/DX2 analytically  !
 ! D34   D(17,7,8,19)           60.5589         calculate D2E/DX2 analytically  !
 ! D35   D(17,7,8,20)          -59.0797         calculate D2E/DX2 analytically  !
 ! D36   D(17,7,8,21)         -178.6606         calculate D2E/DX2 analytically  !
 ! D37   D(18,7,8,19)          178.8284         calculate D2E/DX2 analytically  !
 ! D38   D(18,7,8,20)           59.1898         calculate D2E/DX2 analytically  !
 ! D39   D(18,7,8,21)          -60.3911         calculate D2E/DX2 analytically  !
 ! D40   D(1,9,10,11)            0.1371         calculate D2E/DX2 analytically  !
 ! D41   D(1,9,10,32)         -179.8586         calculate D2E/DX2 analytically  !
 ! D42   D(22,9,10,11)         179.9417         calculate D2E/DX2 analytically  !
 ! D43   D(22,9,10,32)          -0.0541         calculate D2E/DX2 analytically  !
 ! D44   D(9,10,11,12)          -0.2354         calculate D2E/DX2 analytically  !
 ! D45   D(9,10,11,29)        -179.9265         calculate D2E/DX2 analytically  !
 ! D46   D(32,10,11,12)        179.7603         calculate D2E/DX2 analytically  !
 ! D47   D(32,10,11,29)          0.0692         calculate D2E/DX2 analytically  !
 ! D48   D(10,11,12,13)          0.1231         calculate D2E/DX2 analytically  !
 ! D49   D(10,11,12,24)       -179.8173         calculate D2E/DX2 analytically  !
 ! D50   D(29,11,12,13)        179.8192         calculate D2E/DX2 analytically  !
 ! D51   D(29,11,12,24)         -0.1213         calculate D2E/DX2 analytically  !
 ! D52   D(10,11,29,23)        112.5851         calculate D2E/DX2 analytically  !
 ! D53   D(10,11,29,30)        -15.857          calculate D2E/DX2 analytically  !
 ! D54   D(10,11,29,31)       -121.0008         calculate D2E/DX2 analytically  !
 ! D55   D(12,11,29,23)        -67.1062         calculate D2E/DX2 analytically  !
 ! D56   D(12,11,29,30)        164.4516         calculate D2E/DX2 analytically  !
 ! D57   D(12,11,29,31)         59.3079         calculate D2E/DX2 analytically  !
 ! D58   D(11,12,13,1)           0.0895         calculate D2E/DX2 analytically  !
 ! D59   D(11,12,13,25)       -179.9969         calculate D2E/DX2 analytically  !
 ! D60   D(24,12,13,1)        -179.9697         calculate D2E/DX2 analytically  !
 ! D61   D(24,12,13,25)         -0.0561         calculate D2E/DX2 analytically  !
 ! D62   D(26,23,29,11)         61.7982         calculate D2E/DX2 analytically  !
 ! D63   D(26,23,29,30)       -169.6594         calculate D2E/DX2 analytically  !
 ! D64   D(26,23,29,31)        -64.3109         calculate D2E/DX2 analytically  !
 ! D65   D(27,23,29,11)       -178.3891         calculate D2E/DX2 analytically  !
 ! D66   D(27,23,29,30)        -49.8466         calculate D2E/DX2 analytically  !
 ! D67   D(27,23,29,31)         55.5019         calculate D2E/DX2 analytically  !
 ! D68   D(28,23,29,11)        -58.4952         calculate D2E/DX2 analytically  !
 ! D69   D(28,23,29,30)         70.0472         calculate D2E/DX2 analytically  !
 ! D70   D(28,23,29,31)        175.3957         calculate D2E/DX2 analytically  !
 --------------------------------------------------------------------------------
 Trust Radius=3.00D-01 FncErr=1.00D-07 GrdErr=1.00D-06
 Number of steps in this run=    167 maximum allowed number of steps=    192.
 GradGradGradGradGradGradGradGradGradGradGradGradGradGradGradGradGradGrad

                          Input orientation:                          
 ---------------------------------------------------------------------
 Center     Atomic      Atomic             Coordinates (Angstroms)
 Number     Number       Type             X           Y           Z
 ---------------------------------------------------------------------
      1          6           0       -6.096350    1.227270    0.144180
      2          7           0       -4.835930    0.543380    0.028430
      3          6           0       -3.579920    1.082090    0.060950
      4          8           0       -3.399200    2.280050    0.207090
      5          8           0       -2.389630    0.158670   -0.083160
      6          6           0       -1.086510    0.746670    0.479640
      7          6           0        0.078280   -0.234290    0.300410
      8          6           0        1.048690   -0.160280    1.475490
      9          6           0       -6.342240    2.541780   -0.322720
     10          6           0       -7.603330    3.128670   -0.168220
     11          6           0       -8.641130    2.426970    0.452820
     12          6           0       -8.413600    1.130410    0.915710
     13          6           0       -7.158370    0.538640    0.762430
     14          1           0       -4.883020   -0.481150   -0.088820
     15          1           0       -1.220340    0.962610    1.562880
     16          1           0       -0.850920    1.695590   -0.051230
     17          1           0        0.628620    0.006780   -0.635260
     18          1           0       -0.314530   -1.271840    0.225740
     19          1           0        1.474130    0.862220    1.561670
     20          1           0        1.880010   -0.879240    1.317100
     21          1           0        0.528950   -0.420920    2.422080
     22          1           0       -5.598640    3.144810   -0.810610
     23          6           0      -11.774820    2.608150   -0.183980
     24          1           0       -9.210390    0.576120    1.395580
     25          1           0       -7.013650   -0.468880    1.132230
     26          9           0      -12.054250    1.306280    0.185020
     27          9           0      -12.832870    3.420990    0.176210
     28          9           0      -11.592600    2.675240   -1.551740
     29         16           0      -10.265410    3.164910    0.657080
     30          8           0      -10.132870    4.679490    0.432620
     31          8           0      -10.557300    3.182760    2.165330
     32          1           0       -7.766830    4.133610   -0.535510
 ---------------------------------------------------------------------
                    Distance matrix (angstroms):
                    1          2          3          4          5
     1  C    0.000000
     2  N    1.438667   0.000000
     3  C    2.521988   1.367051   0.000000
     4  O    2.896018   2.261003   1.220297   0.000000
     5  O    3.864371   2.478878   1.513361   2.367220   0.000000
     6  C    5.044007   3.781940   2.550471   2.788202   1.536428
     7  C    6.347174   4.982791   3.895205   4.292258   2.528265
     8  C    7.399275   6.100645   4.996843   5.229510   3.788557
     9  C    1.416472   2.527030   3.147747   3.001780   4.621659
    10  C    2.446202   3.792215   4.519827   4.305313   6.000900
    11  C    2.830273   4.267032   5.251487   5.249743   6.671860
    12  C    2.444236   3.732505   4.908911   5.193074   6.183060
    13  C    1.408663   2.435674   3.686830   4.179984   4.858012
    14  H    2.108354   1.032292   2.040642   3.148573   2.574179
    15  H    5.085099   3.950036   2.799587   2.884657   2.173248
    16  H    5.269919   4.149004   2.799358   2.627176   2.175034
    17  H    6.879124   5.530798   4.399183   4.701132   3.072087
    18  H    6.299337   4.876168   4.028761   4.704409   2.539255
    19  H    7.710688   6.501488   5.276734   5.253044   4.257827
    20  H    8.332793   6.984867   5.935955   6.251663   4.611704
    21  H    7.197219   5.953266   4.971598   5.256594   3.889764
    22  H    2.199159   2.837808   3.014906   2.573142   4.443418
    23  C    5.853165   7.242692   8.339379   8.391162   9.700098
    24  H    3.418661   4.583238   5.808566   6.171371   6.991688
    25  H    2.166704   2.643011   3.917097   4.634301   4.822090
    26  F    5.958564   7.260212   8.478203   8.709685   9.736211
    27  F    7.084782   8.500208   9.544675   9.502464  10.944006
    28  F    5.931402   7.259088   8.327181   8.389366   9.653212
    29  S    4.625860   6.061920   7.027751   6.937601   8.462467
    30  O    5.319259   6.732633   7.484690   7.151957   8.981181
    31  O    5.273430   6.653326   7.584528   7.475827   8.995091
    32  H    3.420423   4.668828   5.215147   4.802430   6.702167
                    6          7          8          9         10
     6  C    0.000000
     7  C    1.533343   0.000000
     8  C    2.524550   1.525774   0.000000
     9  C    5.611497   7.022673   8.072207   0.000000
    10  C    6.968686   8.398586   9.400874   1.399521   0.000000
    11  C    7.739277   9.117765  10.081286   2.428897   1.398250
    12  C    7.350079   8.622820   9.566304   2.795748   2.413397
    13  C    6.082001   7.292461   8.267574   2.419956   2.787894
    14  H    4.030407   4.982664   6.142899   3.364838   4.520751
    15  H    1.112632   2.170902   2.533183   5.681824   6.959245
    16  H    1.112553   2.170599   3.063274   5.562764   6.903799
    17  H    2.175341   1.111965   2.158618   7.424069   8.816424
    18  H    2.175960   1.111929   2.157732   7.153866   8.523280
    19  H    2.782268   2.177500   1.110825   8.213859   9.514704
    20  H    3.484991   2.166991   1.110443   9.055263  10.402079
    21  H    2.783173   2.177020   1.110899   7.970243   9.243550
    22  H    5.270212   6.699261   7.767681   1.074534   2.105162
    23  C   10.869474  12.198774  13.223481   5.434757   4.203869
    24  H    8.177130   9.388054  10.285786   3.878487   3.397591
    25  H    6.085592   7.144398   8.075543   3.410534   3.870563
    26  F   10.985959  12.230493  13.247760   5.866116   4.822507
    27  F   12.050769  13.419176  14.394837   6.568883   5.249016
    28  F   10.873077  12.169851  13.304379   5.393939   4.246646
    29  S    9.493765  10.893746  11.820979   4.091401   2.787311
    30  O    9.864376  11.332709  12.228583   4.416924   3.027313
    31  O    9.923303  11.325622  12.097553   4.936393   3.764880
    32  H    7.558344   9.017930  10.009746   2.146779   1.082376
                   11         12         13         14         15
    11  C    0.000000
    12  C    1.395387   0.000000
    13  C    2.420790   1.396169   0.000000
    14  H    4.782669   4.008890   2.634733   0.000000
    15  H    7.644914   7.224263   6.006719   4.269400   0.000000
    16  H    7.840686   7.645164   6.464093   4.582296   1.810824
    17  H    9.642069   9.242824   7.929289   5.560112   3.027224
    18  H    9.114002   8.475954   7.099579   4.647068   2.757028
    19  H   10.295459   9.912436   8.675456   6.703888   2.696340
    20  H   11.062206  10.495628   9.165716   6.919080   3.614552
    21  H    9.801981   9.200270   7.922757   5.966378   2.390062
    22  H    3.371690   3.868073   3.420429   3.765724   5.437367
    23  C    3.202866   3.832862   5.146861   7.553128  10.823880
    24  H    2.153718   1.082768   2.147806   4.695465   8.001141
    25  H    3.390610   2.136462   1.082955   2.455748   5.983065
    26  F    3.602367   3.717414   4.989220   7.395704  10.926583
    27  F    4.316859   5.032252   6.391521   8.859856  11.950621
    28  F    3.576461   4.310551   5.439011   7.557870  10.964385
    29  S    1.795707   2.763201   4.069655   6.543718   9.353282
    30  O    2.701767   3.973064   5.109116   7.380043   9.722442
    31  O    2.678734   3.220115   4.529042   7.120596   9.616176
    32  H    2.157271   3.397582   3.870230   5.460028   7.570668
                   16         17         18         19         20
    16  H    0.000000
    17  H    2.319959   0.000000
    18  H    3.028212   1.807131   0.000000
    19  H    2.949883   2.504629   3.088402   0.000000
    20  H    3.995004   2.482482   2.482178   1.804781   0.000000
    21  H    3.535664   3.088720   2.501886   1.811110   1.804550
    22  H    5.021727   6.975439   6.964383   7.801410   8.755018
    23  C   10.962754  12.681329  12.106215  13.477026  14.172844
    24  H    8.557290  10.062533   9.160775  10.689640  11.185759
    25  H    6.638128   7.858407   6.807693   8.602247   8.905041
    26  F   11.212581  12.775631  12.019542  13.605492  14.149972
    27  F   12.107678  13.911399  13.369141  14.599899  15.370831
    28  F   10.890130  12.542680  12.080304  13.554328  14.225885
    29  S    9.554749  11.415946  10.903707  11.997394  12.818034
    30  O    9.761781  11.780673  11.483071  12.270646  13.266163
    31  O   10.066709  11.960558  11.336658  12.268032  13.111294
    32  H    7.349033   9.355440   9.237704  10.024744  11.028252
                   21         22         23         24         25
    21  H    0.000000
    22  H    7.791795   0.000000
    23  C   12.936366   6.231041   0.000000
    24  H    9.843909   4.950776   3.633243   0.000000
    25  H    7.652243   4.340004   5.819730   2.446844   0.000000
    26  F   12.896689   6.785748   1.381705   3.175867   5.427343
    27  F   14.083410   7.306447   1.381997   4.764715   7.064587
    28  F   13.126669   6.057832   1.381475   4.332196   6.168952
    29  S   11.510500   4.892163   1.815401   2.891415   4.899402
    30  O   11.985263   4.945716   2.714156   4.314615   6.060091
    31  O   11.660076   5.783249   2.707728   3.033357   5.192227
    32  H    9.915193   2.398844   4.302858   4.297524   4.952934
                   26         27         28         29         30
    26  F    0.000000
    27  F    2.253514   0.000000
    28  F    2.259094   2.253935   0.000000
    29  S    2.622460   2.624626   2.622994   0.000000
    30  O    3.889930   2.989911   3.175770   1.536848   0.000000
    31  O    3.111859   3.031760   3.891790   1.536339   2.328653
    32  H    5.186032   5.165185   4.218540   2.933181   2.614078
                   31         32
    31  O    0.000000
    32  H    3.998171   0.000000
 Stoichiometry    C11H12F3NO4S
 Framework group  C1[X(C11H12F3NO4S)]
 Deg. of freedom    90
 Full point group                 C1      NOp   1
 Largest Abelian subgroup         C1      NOp   1
 Largest concise Abelian subgroup C1      NOp   1
                         Standard orientation:                         
 ---------------------------------------------------------------------
 Center     Atomic      Atomic             Coordinates (Angstroms)
 Number     Number       Type             X           Y           Z
 ---------------------------------------------------------------------
      1          6           0        1.079188   -0.415508   -0.197276
      2          7           0        2.464203   -0.779203   -0.335917
      3          6           0        3.551864    0.048039   -0.374531
      4          8           0        3.439932    1.259740   -0.283009
      5          8           0        4.926325   -0.566109   -0.529263
      6          6           0        6.063019    0.345673   -0.042240
      7          6           0        7.425736   -0.332085   -0.228757
      8          6           0        8.382590    0.030444    0.903051
      9          6           0        0.507552    0.776691   -0.705496
     10          6           0       -0.853399    1.048069   -0.524317
     11          6           0       -1.670940    0.146889    0.164598
     12          6           0       -1.121586   -1.032543    0.668835
     13          6           0        0.234905   -1.310009    0.489299
     14          1           0        2.664348   -1.789139   -0.410733
     15          1           0        5.912092    0.574460    1.036104
     16          1           0        6.045266    1.296869   -0.619031
     17          1           0        7.873598   -0.010215   -1.194306
     18          1           0        7.295091   -1.436164   -0.246825
     19          1           0        8.548864    1.128375    0.931909
     20          1           0        9.358873   -0.472996    0.740251
     21          1           0        7.969471   -0.302473    1.879060
     22          1           0        1.067707    1.517507   -1.245904
     23          6           0       -4.771667   -0.465429   -0.353970
     24          1           0       -1.745399   -1.739362    1.201425
     25          1           0        0.630974   -2.233785    0.892487
     26          9           0       -4.715256   -1.777037    0.076855
     27          9           0       -5.984767    0.083854    0.015613
     28          9           0       -4.650898   -0.421835   -1.729465
     29         16           0       -3.419316    0.479257    0.403921
     30          8           0       -3.665696    1.968431    0.114856
     31          8           0       -3.663007    0.498201    1.920691
     32          1           0       -1.266976    1.964925   -0.924151
 ---------------------------------------------------------------------
 Rotational constants (GHZ):      1.1646559      0.0840852      0.0828667
 Standard basis: 6-311+G(d) (5D, 7F)
 There are   504 symmetry adapted cartesian basis functions of A   symmetry.
 There are   484 symmetry adapted basis functions of A   symmetry.
   484 basis functions,   794 primitive gaussians,   504 cartesian basis functions
    80 alpha electrons       80 beta electrons
       nuclear repulsion energy      1685.0115671000 Hartrees.
 NAtoms=   32 NActive=   32 NUniq=   32 SFac= 1.00D+00 NAtFMM=   60 NAOKFM=F Big=F
 Integral buffers will be    131072 words long.
 Raffenetti 2 integral format.
 Two-electron integral symmetry is turned on.
 Nuclear repulsion after empirical dispersion term =     1685.0101352300 Hartrees.
 Force inversion solution in PCM.
 ------------------------------------------------------------------------------
 Polarizable Continuum Model (PCM)
 =================================
 Model                : PCM (using non-symmetric T matrix).
 Atomic radii         : SMD-Coulomb.
 Polarization charges : Total charges.
 Charge compensation  : None.
 Solution method      : Matrix inversion.
 Cavity type          : VdW (van der Waals Surface) (Alpha=1.000).
 Cavity algorithm     : GePol (No added spheres)
                        Default sphere list used, NSphG=   32.
                        Lebedev-Laikov grids with approx.  5.0 points / Ang**2.
                        Smoothing algorithm: York/Karplus (Gamma=1.0000).
                        Polarization charges: spherical gaussians, with
                                              point-specific exponents (IZeta= 3).
                        Self-potential: point-specific (ISelfS= 7).
                        Self-field    : sphere-specific E.n sum rule (ISelfD= 2).
 1st derivatives      : Analytical E(r).r(x)/FMM algorithm (CHGder, D1EAlg=3).
                        Cavity 1st derivative terms included.
 2nd derivatives      : Analytical E(r).r(xy)/FMM algorithm (CHGder, D2EAlg=3).
                        Cavity 2nd derivative terms included.
 Solvent              : Water, Eps=  78.355300 Eps(inf)=   1.777849
 ------------------------------------------------------------------------------
 ------------------------------------------------------------------------------
 Atomic radii for non-electrostatic terms: SMD-CDS.
 ------------------------------------------------------------------------------
 Nuclear repulsion after PCM non-electrostatic terms =     1685.0238617881 Hartrees.
 One-electron integrals computed using PRISM.
 NBasis=   484 RedAO= T EigKep=  1.68D-06  NBF=   484
 NBsUse=   483 1.00D-06 EigRej=  9.56D-07 NBFU=   483
 ExpMin= 4.05D-02 ExpMax= 9.34D+04 ExpMxC= 3.17D+03 IAcc=3 IRadAn=         5 AccDes= 0.00D+00
 Harris functional with IExCor= 1009 and IRadAn=       5 diagonalized for initial guess.
 HarFok:  IExCor= 1009 AccDes= 0.00D+00 IRadAn=         5 IDoV= 1 UseB2=F ITyADJ=14
 ICtDFT=  3500011 ScaDFX=  1.000000  1.000000  1.000000  1.000000
 FoFCou: FMM=F IPFlag=           0 FMFlag=      100000 FMFlg1=           0
         NFxFlg=           0 DoJE=T BraDBF=F KetDBF=T FulRan=T
         wScrn=  0.000000 ICntrl=     500 IOpCl=  0 I1Cent=   200000004 NGrid=           0
         NMat0=    1 NMatS0=      1 NMatT0=    0 NMatD0=    1 NMtDS0=    0 NMtDT0=    0
 Petite list used in FoFCou.
 Requested convergence on RMS density matrix=1.00D-08 within 128 cycles.
 Requested convergence on MAX density matrix=1.00D-06.
 Requested convergence on             energy=1.00D-06.
 No special actions if energy rises.
 Inv3:  Mode=1 IEnd=    18376875.
 Iteration    1 A*A^-1 deviation from unit magnitude is 7.55D-15 for   2459.
 Iteration    1 A*A^-1 deviation from orthogonality  is 3.69D-15 for   2457   1786.
 Iteration    1 A^-1*A deviation from unit magnitude is 7.55D-15 for   2459.
 Iteration    1 A^-1*A deviation from orthogonality  is 1.75D-07 for   1652   1627.
 Iteration    2 A*A^-1 deviation from unit magnitude is 7.33D-15 for    611.
 Iteration    2 A*A^-1 deviation from orthogonality  is 2.55D-15 for   2475   1560.
 Iteration    2 A^-1*A deviation from unit magnitude is 9.99D-16 for    478.
 Iteration    2 A^-1*A deviation from orthogonality  is 6.65D-16 for   2461    588.
 Error on total polarization charges =  0.05611
 SCF Done:  E(RM062X) =  -1479.52135413     A.U. after   17 cycles
            NFock= 17  Conv=0.24D-08     -V/T= 2.0037
 SMD-CDS (non-electrostatic) energy       (kcal/mol) =       8.61
 (included in total energy above)
 DoSCS=F DFT=T ScalE2(SS,OS)=  1.000000  1.000000
 Range of M.O.s used for correlation:     1   483
 NBasis=   484 NAE=    80 NBE=    80 NFC=     0 NFV=     0
 NROrb=    483 NOA=    80 NOB=    80 NVA=   403 NVB=   403

 **** Warning!!: The largest alpha MO coefficient is  0.11927463D+03

 Symmetrizing basis deriv contribution to polar:
 IMax=3 JMax=2 DiffMx= 0.00D+00
 G2DrvN: will do    33 centers at a time, making    1 passes.
 Calling FoFCou, ICntrl=  3107 FMM=F I1Cent=   0 AccDes= 0.00D+00.
 NEqPCM:  Using equilibrium solvation (IEInf=0, Eps=  78.3553, EpsInf=   1.7778)
 G2PCM: DoFxE=T DoFxN=T DoGrad=T DoDP/DQ/DG/TGxP=FFFF NFrqRd=   0 IEInf=0 SqF1=F DoCFld=F IF1Alg=4.
 End of G2Drv F.D. properties file   721 does not exist.
 End of G2Drv F.D. properties file   722 does not exist.
 End of G2Drv F.D. properties file   788 does not exist.
          IDoAtm=11111111111111111111111111111111
 NEqPCM:  Using equilibrium solvation (IEInf=0, Eps=  78.3553, EpsInf=   1.7778)
          Differentiating once with respect to nuclear coordinates.
          There are    99 degrees of freedom in the 1st order CPHF.  IDoFFX=6 NUNeed=     0.
     93 vectors produced by pass  0 Test12= 3.26D-14 1.01D-09 XBig12= 4.01D-01 1.13D-01.
 AX will form    93 AO Fock derivatives at one time.
     93 vectors produced by pass  1 Test12= 3.26D-14 1.01D-09 XBig12= 2.61D-02 3.57D-02.
     93 vectors produced by pass  2 Test12= 3.26D-14 1.01D-09 XBig12= 1.13D-03 5.15D-03.
     93 vectors produced by pass  3 Test12= 3.26D-14 1.01D-09 XBig12= 1.61D-05 6.04D-04.
     93 vectors produced by pass  4 Test12= 3.26D-14 1.01D-09 XBig12= 1.73D-07 5.35D-05.
     93 vectors produced by pass  5 Test12= 3.26D-14 1.01D-09 XBig12= 1.12D-09 3.30D-06.
     80 vectors produced by pass  6 Test12= 3.26D-14 1.01D-09 XBig12= 5.32D-12 1.59D-07.
     39 vectors produced by pass  7 Test12= 3.26D-14 1.01D-09 XBig12= 2.23D-14 1.04D-08.
      7 vectors produced by pass  8 Test12= 3.26D-14 1.01D-09 XBig12= 9.26D-16 3.33D-09.
      6 vectors produced by pass  9 Test12= 3.26D-14 1.01D-09 XBig12= 9.70D-16 2.48D-09.
      6 vectors produced by pass 10 Test12= 3.26D-14 1.01D-09 XBig12= 8.13D-16 2.62D-09.
      6 vectors produced by pass 11 Test12= 3.26D-14 1.01D-09 XBig12= 1.34D-15 2.54D-09.
      6 vectors produced by pass 12 Test12= 3.26D-14 1.01D-09 XBig12= 6.97D-15 5.92D-09.
      6 vectors produced by pass 13 Test12= 3.26D-14 1.01D-09 XBig12= 6.00D-15 5.43D-09.
      3 vectors produced by pass 14 Test12= 3.26D-14 1.01D-09 XBig12= 9.95D-16 2.13D-09.
      3 vectors produced by pass 15 Test12= 3.26D-14 1.01D-09 XBig12= 9.08D-15 6.89D-09.
      3 vectors produced by pass 16 Test12= 3.26D-14 1.01D-09 XBig12= 4.22D-15 4.19D-09.
      3 vectors produced by pass 17 Test12= 3.26D-14 1.01D-09 XBig12= 2.58D-15 4.16D-09.
      3 vectors produced by pass 18 Test12= 3.26D-14 1.01D-09 XBig12= 3.49D-15 4.93D-09.
      3 vectors produced by pass 19 Test12= 3.26D-14 1.01D-09 XBig12= 6.75D-15 5.66D-09.
      3 vectors produced by pass 20 Test12= 3.26D-14 1.01D-09 XBig12= 3.51D-15 3.75D-09.
      3 vectors produced by pass 21 Test12= 3.26D-14 1.01D-09 XBig12= 5.88D-15 6.07D-09.
      3 vectors produced by pass 22 Test12= 3.26D-14 1.01D-09 XBig12= 2.82D-15 4.12D-09.
      3 vectors produced by pass 23 Test12= 3.26D-14 1.01D-09 XBig12= 4.76D-15 5.05D-09.
      3 vectors produced by pass 24 Test12= 3.26D-14 1.01D-09 XBig12= 2.54D-15 3.16D-09.
      1 vectors produced by pass 25 Test12= 3.26D-14 1.01D-09 XBig12= 2.77D-15 3.40D-09.
 InvSVY:  IOpt=1 It=  1 EMax= 1.33D-15
 Solved reduced A of dimension   748 with    99 vectors.
 End of Minotr F.D. properties file   721 does not exist.
 End of Minotr F.D. properties file   722 does not exist.
 End of Minotr F.D. properties file   788 does not exist.

 **********************************************************************

            Population analysis using the SCF density.

 **********************************************************************

 Orbital symmetries:
       Occupied  (A) (A) (A) (A) (A) (A) (A) (A) (A) (A) (A) (A)
                 (A) (A) (A) (A) (A) (A) (A) (A) (A) (A) (A) (A)
                 (A) (A) (A) (A) (A) (A) (A) (A) (A) (A) (A) (A)
                 (A) (A) (A) (A) (A) (A) (A) (A) (A) (A) (A) (A)
                 (A) (A) (A) (A) (A) (A) (A) (A) (A) (A) (A) (A)
                 (A) (A) (A) (A) (A) (A) (A) (A) (A) (A) (A) (A)
                 (A) (A) (A) (A) (A) (A) (A) (A)
       Virtual   (A) (A) (A) (A) (A) (A) (A) (A) (A) (A) (A) (A)
                 (A) (A) (A) (A) (A) (A) (A) (A) (A) (A) (A) (A)
                 (A) (A) (A) (A) (A) (A) (A) (A) (A) (A) (A) (A)
                 (A) (A) (A) (A) (A) (A) (A) (A) (A) (A) (A) (A)
                 (A) (A) (A) (A) (A) (A) (A) (A) (A) (A) (A) (A)
                 (A) (A) (A) (A) (A) (A) (A) (A) (A) (A) (A) (A)
                 (A) (A) (A) (A) (A) (A) (A) (A) (A) (A) (A) (A)
                 (A) (A) (A) (A) (A) (A) (A) (A) (A) (A) (A) (A)
                 (A) (A) (A) (A) (A) (A) (A) (A) (A) (A) (A) (A)
                 (A) (A) (A) (A) (A) (A) (A) (A) (A) (A) (A) (A)
                 (A) (A) (A) (A) (A) (A) (A) (A) (A) (A) (A) (A)
                 (A) (A) (A) (A) (A) (A) (A) (A) (A) (A) (A) (A)
                 (A) (A) (A) (A) (A) (A) (A) (A) (A) (A) (A) (A)
                 (A) (A) (A) (A) (A) (A) (A) (A) (A) (A) (A) (A)
                 (A) (A) (A) (A) (A) (A) (A) (A) (A) (A) (A) (A)
                 (A) (A) (A) (A) (A) (A) (A) (A) (A) (A) (A) (A)
                 (A) (A) (A) (A) (A) (A) (A) (A) (A) (A) (A) (A)
                 (A) (A) (A) (A) (A) (A) (A) (A) (A) (A) (A) (A)
                 (A) (A) (A) (A) (A) (A) (A) (A) (A) (A) (A) (A)
                 (A) (A) (A) (A) (A) (A) (A) (A) (A) (A) (A) (A)
                 (A) (A) (A) (A) (A) (A) (A) (A) (A) (A) (A) (A)
                 (A) (A) (A) (A) (A) (A) (A) (A) (A) (A) (A) (A)
                 (A) (A) (A) (A) (A) (A) (A) (A) (A) (A) (A) (A)
                 (A) (A) (A) (A) (A) (A) (A) (A) (A) (A) (A) (A)
                 (A) (A) (A) (A) (A) (A) (A) (A) (A) (A) (A) (A)
                 (A) (A) (A) (A) (A) (A) (A) (A) (A) (A) (A) (A)
                 (A) (A) (A) (A) (A) (A) (A) (A) (A) (A) (A) (A)
                 (A) (A) (A) (A) (A) (A) (A) (A) (A) (A) (A) (A)
                 (A) (A) (A) (A) (A) (A) (A) (A) (A) (A) (A) (A)
                 (A) (A) (A) (A) (A) (A) (A) (A) (A) (A) (A) (A)
                 (A) (A) (A) (A) (A) (A) (A) (A) (A) (A) (A) (A)
                 (A) (A) (A) (A) (A) (A) (A) (A) (A) (A) (A) (A)
                 (A) (A) (A) (A) (A) (A) (A) (A) (A) (A) (A) (A)
                 (A) (A) (A) (A) (A) (A) (A)
 The electronic state is 1-A.
 Alpha  occ. eigenvalues --  -90.15450 -25.33568 -25.33254 -25.33227 -19.67161
 Alpha  occ. eigenvalues --  -19.64765 -19.64599 -19.63099 -14.81912 -10.88651
 Alpha  occ. eigenvalues --  -10.73196 -10.64134 -10.62842 -10.59906 -10.59308
 Alpha  occ. eigenvalues --  -10.59247 -10.57930 -10.57844 -10.53783 -10.52588
 Alpha  occ. eigenvalues --   -8.49852  -6.42004  -6.41956  -6.41897  -1.49491
 Alpha  occ. eigenvalues --   -1.41703  -1.41681  -1.23986  -1.21790  -1.12182
 Alpha  occ. eigenvalues --   -1.10979  -1.07237  -1.00062  -0.93056  -0.89305
 Alpha  occ. eigenvalues --   -0.88131  -0.87900  -0.81344  -0.77533  -0.75259
 Alpha  occ. eigenvalues --   -0.73714  -0.73145  -0.73021  -0.69922  -0.67831
 Alpha  occ. eigenvalues --   -0.66430  -0.64414  -0.62200  -0.61624  -0.61159
 Alpha  occ. eigenvalues --   -0.60048  -0.58460  -0.58064  -0.57572  -0.56956
 Alpha  occ. eigenvalues --   -0.56348  -0.55595  -0.55289  -0.54297  -0.53963
 Alpha  occ. eigenvalues --   -0.53045  -0.51781  -0.50135  -0.49644  -0.48509
 Alpha  occ. eigenvalues --   -0.46915  -0.44920  -0.44318  -0.43810  -0.42300
 Alpha  occ. eigenvalues --   -0.41638  -0.41349  -0.40364  -0.39735  -0.39584
 Alpha  occ. eigenvalues --   -0.37952  -0.37840  -0.37243  -0.34028  -0.32079
 Alpha virt. eigenvalues --   -0.07179  -0.02703  -0.00873  -0.00188   0.01139
 Alpha virt. eigenvalues --    0.01944   0.02490   0.02980   0.03145   0.03635
 Alpha virt. eigenvalues --    0.04089   0.04512   0.04918   0.05405   0.05731
 Alpha virt. eigenvalues --    0.05931   0.06616   0.07015   0.07330   0.07574
 Alpha virt. eigenvalues --    0.07717   0.07835   0.08385   0.08930   0.08953
 Alpha virt. eigenvalues --    0.09655   0.09905   0.10096   0.11114   0.11406
 Alpha virt. eigenvalues --    0.11975   0.12529   0.12939   0.13234   0.13426
 Alpha virt. eigenvalues --    0.13601   0.13851   0.14677   0.15065   0.15331
 Alpha virt. eigenvalues --    0.15366   0.15919   0.16234   0.17075   0.17212
 Alpha virt. eigenvalues --    0.17685   0.18395   0.18816   0.19480   0.19777
 Alpha virt. eigenvalues --    0.20058   0.20528   0.20899   0.21271   0.21764
 Alpha virt. eigenvalues --    0.21939   0.22140   0.22545   0.22917   0.23295
 Alpha virt. eigenvalues --    0.23711   0.23854   0.23960   0.24591   0.24797
 Alpha virt. eigenvalues --    0.25322   0.25576   0.25854   0.26489   0.26971
 Alpha virt. eigenvalues --    0.27552   0.27774   0.27831   0.28278   0.28455
 Alpha virt. eigenvalues --    0.29110   0.29157   0.29779   0.29923   0.30591
 Alpha virt. eigenvalues --    0.30945   0.31101   0.31594   0.31866   0.32457
 Alpha virt. eigenvalues --    0.32481   0.32683   0.33118   0.33583   0.34423
 Alpha virt. eigenvalues --    0.34720   0.35237   0.35709   0.36050   0.36400
 Alpha virt. eigenvalues --    0.37175   0.37535   0.37866   0.38145   0.39265
 Alpha virt. eigenvalues --    0.39688   0.39947   0.40208   0.40419   0.42147
 Alpha virt. eigenvalues --    0.42215   0.43586   0.43746   0.44301   0.44995
 Alpha virt. eigenvalues --    0.45515   0.46160   0.48168   0.48581   0.49484
 Alpha virt. eigenvalues --    0.49688   0.50224   0.51385   0.51974   0.52779
 Alpha virt. eigenvalues --    0.53741   0.54620   0.55755   0.56757   0.57410
 Alpha virt. eigenvalues --    0.58342   0.59218   0.60281   0.60657   0.61505
 Alpha virt. eigenvalues --    0.62879   0.63845   0.64647   0.65308   0.66268
 Alpha virt. eigenvalues --    0.66862   0.67886   0.68438   0.68518   0.69519
 Alpha virt. eigenvalues --    0.69979   0.70224   0.71639   0.72459   0.73180
 Alpha virt. eigenvalues --    0.73417   0.73696   0.73908   0.74818   0.75954
 Alpha virt. eigenvalues --    0.76448   0.76882   0.77580   0.77912   0.78649
 Alpha virt. eigenvalues --    0.79338   0.81209   0.82516   0.84107   0.84656
 Alpha virt. eigenvalues --    0.85916   0.87980   0.88929   0.89685   0.90132
 Alpha virt. eigenvalues --    0.90915   0.92187   0.92867   0.93369   0.94817
 Alpha virt. eigenvalues --    0.95685   0.98289   0.99418   1.00792   1.00894
 Alpha virt. eigenvalues --    1.02247   1.04391   1.05409   1.06292   1.08462
 Alpha virt. eigenvalues --    1.10802   1.12073   1.13729   1.14856   1.15418
 Alpha virt. eigenvalues --    1.16121   1.16759   1.18258   1.19967   1.20581
 Alpha virt. eigenvalues --    1.21286   1.21812   1.22628   1.23306   1.24200
 Alpha virt. eigenvalues --    1.25356   1.26384   1.27842   1.29076   1.30537
 Alpha virt. eigenvalues --    1.31039   1.32382   1.33912   1.35695   1.36480
 Alpha virt. eigenvalues --    1.38977   1.40439   1.41719   1.43921   1.44204
 Alpha virt. eigenvalues --    1.44661   1.45990   1.48379   1.49444   1.49914
 Alpha virt. eigenvalues --    1.50898   1.52246   1.52862   1.54023   1.54323
 Alpha virt. eigenvalues --    1.55170   1.55853   1.56664   1.59707   1.61163
 Alpha virt. eigenvalues --    1.61187   1.62880   1.65168   1.66648   1.68471
 Alpha virt. eigenvalues --    1.69200   1.70908   1.72045   1.73242   1.74463
 Alpha virt. eigenvalues --    1.75994   1.76976   1.77542   1.78323   1.79862
 Alpha virt. eigenvalues --    1.80183   1.80864   1.82455   1.83096   1.84113
 Alpha virt. eigenvalues --    1.85922   1.87287   1.89010   1.91196   1.93053
 Alpha virt. eigenvalues --    1.94048   1.95084   1.96254   1.97877   1.98180
 Alpha virt. eigenvalues --    1.99981   2.00828   2.03179   2.07354   2.08038
 Alpha virt. eigenvalues --    2.10379   2.13349   2.16895   2.17669   2.21829
 Alpha virt. eigenvalues --    2.26595   2.29079   2.31018   2.31909   2.33948
 Alpha virt. eigenvalues --    2.41665   2.44845   2.50702   2.51406   2.52635
 Alpha virt. eigenvalues --    2.55205   2.55898   2.57443   2.60865   2.62910
 Alpha virt. eigenvalues --    2.64353   2.65516   2.70745   2.70984   2.71675
 Alpha virt. eigenvalues --    2.77705   2.79721   2.80730   2.82066   2.83416
 Alpha virt. eigenvalues --    2.85375   2.86419   2.87599   2.89301   2.89424
 Alpha virt. eigenvalues --    2.90261   2.91102   2.92255   2.93761   2.94422
 Alpha virt. eigenvalues --    2.96248   2.96481   2.97702   2.99046   3.00936
 Alpha virt. eigenvalues --    3.02426   3.04319   3.07560   3.08285   3.10363
 Alpha virt. eigenvalues --    3.11818   3.13134   3.17907   3.19234   3.20598
 Alpha virt. eigenvalues --    3.20876   3.25269   3.26969   3.29654   3.31727
 Alpha virt. eigenvalues --    3.34999   3.35609   3.37192   3.39362   3.43228
 Alpha virt. eigenvalues --    3.45279   3.46167   3.55490   3.61907   3.66387
 Alpha virt. eigenvalues --    3.68571   3.70310   3.76029   3.76417   3.79965
 Alpha virt. eigenvalues --    3.80643   3.80966   3.82012   3.82461   3.83444
 Alpha virt. eigenvalues --    3.85338   3.87027   3.90547   3.90867   3.99959
 Alpha virt. eigenvalues --    4.02035   4.03690   4.05153   4.08492   4.09032
 Alpha virt. eigenvalues --    4.15562   4.15909   4.34526   4.49547   4.76825
 Alpha virt. eigenvalues --    4.88418   4.89118   4.97153   5.14237   5.15495
 Alpha virt. eigenvalues --    5.16665   5.17980   5.20940   5.21452   5.23649
 Alpha virt. eigenvalues --    5.28713   5.31165   5.35653   5.59071   5.84978
 Alpha virt. eigenvalues --    6.40031   6.41024   6.43527   6.45235   6.46322
 Alpha virt. eigenvalues --    6.47734   6.49411   6.76004   6.77167   8.21072
 Alpha virt. eigenvalues --   17.50657  17.57566  17.64252  23.40317  23.41356
 Alpha virt. eigenvalues --   23.52517  23.68988  23.79666  23.82755  23.86828
 Alpha virt. eigenvalues --   23.90404  24.02365  24.06997  24.15092  35.60064
 Alpha virt. eigenvalues --   49.97629  49.98508  49.99762  50.07544  66.83136
 Alpha virt. eigenvalues --   66.83948  66.88525 189.46386
          Condensed to atoms (all electrons):
               1          2          3          4          5          6
     1  C   14.651362   0.204939  -0.957744  -0.147343  -0.097702  -0.275203
     2  N    0.204939   7.284189   0.252373  -0.099276  -0.114627  -0.159842
     3  C   -0.957744   0.252373   6.815052   0.560482   0.359925  -0.320568
     4  O   -0.147343  -0.099276   0.560482   8.169235  -0.130836  -0.109372
     5  O   -0.097702  -0.114627   0.359925  -0.130836   8.272245   0.114804
     6  C   -0.275203  -0.159842  -0.320568  -0.109372   0.114804   7.158991
     7  C    0.028237   0.016968   0.038301   0.035924  -0.069321  -0.755762
     8  C   -0.005317  -0.005063  -0.038621  -0.005204   0.000267   0.154677
     9  C   -0.591369  -0.020789   0.507543   0.179965  -0.008686  -0.073778
    10  C   -3.293076   0.041925  -0.371871   0.031641  -0.013725  -0.047774
    11  C   -5.217244  -0.006529  -0.501304  -0.028513  -0.007526  -0.021655
    12  C    6.191629  -0.054632   0.122220   0.011520   0.006193   0.010878
    13  C   -4.221370  -0.180451  -0.633666  -0.069249  -0.036857  -0.000415
    14  H    0.008170   0.244022   0.039052   0.001642   0.020465   0.009894
    15  H   -0.002426   0.003527  -0.019904   0.000153  -0.045101   0.424675
    16  H    0.006942   0.001025   0.036953   0.002871  -0.027136   0.330336
    17  H   -0.000601   0.000300  -0.019498  -0.000040  -0.000015  -0.043781
    18  H    0.001493  -0.001357   0.030740  -0.000434   0.001404  -0.081749
    19  H    0.000093  -0.000070   0.004550  -0.000097   0.000580  -0.032264
    20  H    0.000028   0.000024   0.001671   0.000025  -0.000661   0.073809
    21  H   -0.000010   0.000155  -0.005039  -0.000017  -0.000656  -0.042960
    22  H    0.058496  -0.010365   0.011147  -0.002863   0.000087   0.000320
    23  C    0.007576  -0.001245  -0.000528   0.000013  -0.000006   0.000010
    24  H   -0.063095  -0.001135  -0.000234  -0.000003  -0.000003  -0.000004
    25  H    0.081668  -0.006294   0.009399  -0.000059   0.000101   0.000191
    26  F    0.004170   0.000008   0.000053  -0.000000   0.000000   0.000000
    27  F    0.000798  -0.000000   0.000002   0.000000  -0.000000  -0.000000
    28  F    0.000144  -0.000027  -0.000134   0.000000   0.000000  -0.000000
    29  S   -0.202419   0.000394  -0.020687  -0.002457   0.000045  -0.000344
    30  O    0.057525  -0.000160  -0.001384   0.000010   0.000000  -0.000011
    31  O   -0.029246   0.000546   0.001241  -0.000006   0.000000   0.000002
    32  H   -0.009335  -0.000461   0.002633  -0.000055   0.000001   0.000026
               7          8          9         10         11         12
     1  C    0.028237  -0.005317  -0.591369  -3.293076  -5.217244   6.191629
     2  N    0.016968  -0.005063  -0.020789   0.041925  -0.006529  -0.054632
     3  C    0.038301  -0.038621   0.507543  -0.371871  -0.501304   0.122220
     4  O    0.035924  -0.005204   0.179965   0.031641  -0.028513   0.011520
     5  O   -0.069321   0.000267  -0.008686  -0.013725  -0.007526   0.006193
     6  C   -0.755762   0.154677  -0.073778  -0.047774  -0.021655   0.010878
     7  C    6.578745  -0.149838   0.003755   0.000372  -0.000504  -0.000041
     8  C   -0.149838   5.891585  -0.000853  -0.000699  -0.000162   0.000504
     9  C    0.003755  -0.000853  20.385850  -1.746386  -4.878123  -8.572826
    10  C    0.000372  -0.000699  -1.746386  15.684559   1.723691  -5.155647
    11  C   -0.000504  -0.000162  -4.878123   1.723691  33.327876 -17.216135
    12  C   -0.000041   0.000504  -8.572826  -5.155647 -17.216135  41.274906
    13  C   -0.006530  -0.001932  -0.321782  -1.557208   6.258926 -12.740368
    14  H    0.000291   0.000275   0.039631   0.001164  -0.003961   0.032694
    15  H   -0.059883   0.009354   0.000366   0.000158  -0.000125  -0.000034
    16  H   -0.015765  -0.014033  -0.002942  -0.000442  -0.000000   0.000155
    17  H    0.434586  -0.037741   0.000052   0.000012  -0.000002   0.000005
    18  H    0.423960  -0.045489  -0.000261  -0.000020   0.000006   0.000007
    19  H   -0.011561   0.381919  -0.000018  -0.000002   0.000000  -0.000000
    20  H   -0.127628   0.398628   0.000008   0.000000   0.000000  -0.000000
    21  H    0.013665   0.379060   0.000007   0.000002  -0.000001   0.000003
    22  H   -0.000112   0.000021   0.276246  -0.070578   0.049540   0.039017
    23  C    0.000002  -0.000000   0.368508   0.764691  -0.828424  -0.755074
    24  H   -0.000000  -0.000000   0.016907   0.010441   0.183201   0.167263
    25  H    0.000007   0.000003  -0.022973  -0.011660  -0.039074   0.074649
    26  F   -0.000000   0.000000  -0.012972  -0.044871  -0.078761   0.068248
    27  F    0.000000  -0.000000  -0.000861  -0.005369   0.165059  -0.029967
    28  F    0.000000   0.000000  -0.005391  -0.029667  -0.105723   0.060065
    29  S   -0.000042   0.000003   0.299787  -0.576212  -5.002363   2.956985
    30  O   -0.000000   0.000000   0.048236  -0.165426  -0.897369   0.665366
    31  O   -0.000000   0.000000   0.128918   0.310033  -0.675904  -0.372100
    32  H   -0.000001   0.000000   0.011596   0.400620  -0.018226  -0.093330
              13         14         15         16         17         18
     1  C   -4.221370   0.008170  -0.002426   0.006942  -0.000601   0.001493
     2  N   -0.180451   0.244022   0.003527   0.001025   0.000300  -0.001357
     3  C   -0.633666   0.039052  -0.019904   0.036953  -0.019498   0.030740
     4  O   -0.069249   0.001642   0.000153   0.002871  -0.000040  -0.000434
     5  O   -0.036857   0.020465  -0.045101  -0.027136  -0.000015   0.001404
     6  C   -0.000415   0.009894   0.424675   0.330336  -0.043781  -0.081749
     7  C   -0.006530   0.000291  -0.059883  -0.015765   0.434586   0.423960
     8  C   -0.001932   0.000275   0.009354  -0.014033  -0.037741  -0.045489
     9  C   -0.321782   0.039631   0.000366  -0.002942   0.000052  -0.000261
    10  C   -1.557208   0.001164   0.000158  -0.000442   0.000012  -0.000020
    11  C    6.258926  -0.003961  -0.000125  -0.000000  -0.000002   0.000006
    12  C  -12.740368   0.032694  -0.000034   0.000155   0.000005   0.000007
    13  C   20.551826  -0.121822  -0.001545   0.000309  -0.000075   0.000251
    14  H   -0.121822   0.254394  -0.000098   0.000064  -0.000011   0.000065
    15  H   -0.001545  -0.000098   0.429818  -0.034098   0.004324  -0.000315
    16  H    0.000309   0.000064  -0.034098   0.429285  -0.010556   0.004570
    17  H   -0.000075  -0.000011   0.004324  -0.010556   0.428117  -0.029397
    18  H    0.000251   0.000065  -0.000315   0.004570  -0.029397   0.426921
    19  H    0.000014   0.000000  -0.001453   0.001213  -0.007200   0.005485
    20  H   -0.000001  -0.000000   0.000622  -0.000427  -0.002100  -0.004456
    21  H   -0.000020  -0.000002   0.000890   0.000241   0.004867  -0.007168
    22  H   -0.029491  -0.000013   0.000006   0.000003   0.000000   0.000000
    23  C    0.123911  -0.000055  -0.000000  -0.000000  -0.000000  -0.000000
    24  H   -0.024619  -0.000001  -0.000000  -0.000000   0.000000  -0.000000
    25  H    0.237250   0.002398   0.000001   0.000000  -0.000000   0.000000
    26  F    0.019824   0.000000   0.000000  -0.000000  -0.000000  -0.000000
    27  F    0.003278  -0.000000  -0.000000   0.000000  -0.000000   0.000000
    28  F   -0.026078   0.000000   0.000000  -0.000000  -0.000000   0.000000
    29  S   -0.765284   0.000637  -0.000004   0.000000  -0.000000   0.000000
    30  O   -0.110092   0.000001  -0.000000   0.000000   0.000000   0.000000
    31  O   -0.019145   0.000004   0.000000   0.000000   0.000000   0.000000
    32  H    0.011160   0.000000  -0.000000  -0.000000  -0.000000  -0.000000
              19         20         21         22         23         24
     1  C    0.000093   0.000028  -0.000010   0.058496   0.007576  -0.063095
     2  N   -0.000070   0.000024   0.000155  -0.010365  -0.001245  -0.001135
     3  C    0.004550   0.001671  -0.005039   0.011147  -0.000528  -0.000234
     4  O   -0.000097   0.000025  -0.000017  -0.002863   0.000013  -0.000003
     5  O    0.000580  -0.000661  -0.000656   0.000087  -0.000006  -0.000003
     6  C   -0.032264   0.073809  -0.042960   0.000320   0.000010  -0.000004
     7  C   -0.011561  -0.127628   0.013665  -0.000112   0.000002  -0.000000
     8  C    0.381919   0.398628   0.379060   0.000021  -0.000000  -0.000000
     9  C   -0.000018   0.000008   0.000007   0.276246   0.368508   0.016907
    10  C   -0.000002   0.000000   0.000002  -0.070578   0.764691   0.010441
    11  C    0.000000   0.000000  -0.000001   0.049540  -0.828424   0.183201
    12  C   -0.000000  -0.000000   0.000003   0.039017  -0.755074   0.167263
    13  C    0.000014  -0.000001  -0.000020  -0.029491   0.123911  -0.024619
    14  H    0.000000  -0.000000  -0.000002  -0.000013  -0.000055  -0.000001
    15  H   -0.001453   0.000622   0.000890   0.000006  -0.000000  -0.000000
    16  H    0.001213  -0.000427   0.000241   0.000003  -0.000000  -0.000000
    17  H   -0.007200  -0.002100   0.004867   0.000000  -0.000000   0.000000
    18  H    0.005485  -0.004456  -0.007168   0.000000  -0.000000  -0.000000
    19  H    0.442709  -0.024632  -0.031410  -0.000000  -0.000000   0.000000
    20  H   -0.024632   0.429798  -0.022712   0.000000   0.000000  -0.000000
    21  H   -0.031410  -0.022712   0.441376  -0.000000  -0.000000   0.000000
    22  H   -0.000000   0.000000  -0.000000   0.349747  -0.000191   0.000038
    23  C   -0.000000   0.000000  -0.000000  -0.000191   8.126205  -0.001662
    24  H    0.000000  -0.000000   0.000000   0.000038  -0.001662   0.345271
    25  H   -0.000000  -0.000000  -0.000000  -0.000026  -0.000604  -0.003091
    26  F    0.000000   0.000000  -0.000000  -0.000000   0.129282  -0.002044
    27  F    0.000000   0.000000  -0.000000  -0.000000   0.299051  -0.000092
    28  F    0.000000   0.000000  -0.000000   0.000011   0.157265   0.000202
    29  S    0.000000  -0.000000  -0.000000   0.004830  -2.452436   0.021124
    30  O   -0.000000   0.000000  -0.000000   0.000496  -0.022830  -0.000424
    31  O   -0.000000  -0.000000  -0.000000   0.000097  -0.087661  -0.000330
    32  H   -0.000000  -0.000000   0.000000  -0.003341  -0.002645   0.000022
              25         26         27         28         29         30
     1  C    0.081668   0.004170   0.000798   0.000144  -0.202419   0.057525
     2  N   -0.006294   0.000008  -0.000000  -0.000027   0.000394  -0.000160
     3  C    0.009399   0.000053   0.000002  -0.000134  -0.020687  -0.001384
     4  O   -0.000059  -0.000000   0.000000   0.000000  -0.002457   0.000010
     5  O    0.000101   0.000000  -0.000000   0.000000   0.000045   0.000000
     6  C    0.000191   0.000000  -0.000000  -0.000000  -0.000344  -0.000011
     7  C    0.000007  -0.000000   0.000000   0.000000  -0.000042  -0.000000
     8  C    0.000003   0.000000  -0.000000   0.000000   0.000003   0.000000
     9  C   -0.022973  -0.012972  -0.000861  -0.005391   0.299787   0.048236
    10  C   -0.011660  -0.044871  -0.005369  -0.029667  -0.576212  -0.165426
    11  C   -0.039074  -0.078761   0.165059  -0.105723  -5.002363  -0.897369
    12  C    0.074649   0.068248  -0.029967   0.060065   2.956985   0.665366
    13  C    0.237250   0.019824   0.003278  -0.026078  -0.765284  -0.110092
    14  H    0.002398   0.000000  -0.000000   0.000000   0.000637   0.000001
    15  H    0.000001   0.000000  -0.000000   0.000000  -0.000004  -0.000000
    16  H    0.000000  -0.000000   0.000000  -0.000000   0.000000   0.000000
    17  H   -0.000000  -0.000000  -0.000000  -0.000000  -0.000000   0.000000
    18  H    0.000000  -0.000000   0.000000   0.000000   0.000000   0.000000
    19  H   -0.000000   0.000000   0.000000   0.000000   0.000000  -0.000000
    20  H   -0.000000   0.000000   0.000000   0.000000  -0.000000   0.000000
    21  H   -0.000000  -0.000000  -0.000000  -0.000000  -0.000000  -0.000000
    22  H   -0.000026  -0.000000  -0.000000   0.000011   0.004830   0.000496
    23  C   -0.000604   0.129282   0.299051   0.157265  -2.452436  -0.022830
    24  H   -0.003091  -0.002044  -0.000092   0.000202   0.021124  -0.000424
    25  H    0.351062   0.000024  -0.000001   0.000005   0.006691   0.000016
    26  F    0.000024   8.960222  -0.045205  -0.043515   0.052621   0.001745
    27  F   -0.000001  -0.045205   8.898861  -0.046856  -0.173451  -0.012081
    28  F    0.000005  -0.043515  -0.046856   8.930941   0.111868   0.014320
    29  S    0.006691   0.052621  -0.173451   0.111868  20.216575   0.330440
    30  O    0.000016   0.001745  -0.012081   0.014320   0.330440   8.609470
    31  O    0.000098   0.013213  -0.019859   0.009871   0.653565  -0.198477
    32  H    0.000028   0.000033   0.000001  -0.000388   0.021046  -0.003355
              31         32
     1  C   -0.029246  -0.009335
     2  N    0.000546  -0.000461
     3  C    0.001241   0.002633
     4  O   -0.000006  -0.000055
     5  O    0.000000   0.000001
     6  C    0.000002   0.000026
     7  C   -0.000000  -0.000001
     8  C    0.000000   0.000000
     9  C    0.128918   0.011596
    10  C    0.310033   0.400620
    11  C   -0.675904  -0.018226
    12  C   -0.372100  -0.093330
    13  C   -0.019145   0.011160
    14  H    0.000004   0.000000
    15  H    0.000000  -0.000000
    16  H    0.000000  -0.000000
    17  H    0.000000  -0.000000
    18  H    0.000000  -0.000000
    19  H   -0.000000  -0.000000
    20  H   -0.000000  -0.000000
    21  H   -0.000000   0.000000
    22  H    0.000097  -0.003341
    23  C   -0.087661  -0.002645
    24  H   -0.000330   0.000022
    25  H    0.000098   0.000028
    26  F    0.013213   0.000033
    27  F   -0.019859   0.000001
    28  F    0.009871  -0.000388
    29  S    0.653565   0.021046
    30  O   -0.198477  -0.003355
    31  O    8.551149   0.000391
    32  H    0.000391   0.341308
 Mulliken charges:
               1
     1  C   -0.189769
     2  N   -0.388072
     3  C    0.097846
     4  O   -0.397656
     5  O   -0.223257
     6  C   -0.313130
     7  C   -0.377824
     8  C   -0.911344
     9  C   -0.007364
    10  C    0.121324
    11  C   -0.180671
    12  C   -0.692153
    13  C   -0.338750
    14  H    0.471097
    15  H    0.291093
    16  H    0.291433
    17  H    0.278753
    18  H    0.275745
    19  H    0.272141
    20  H    0.278004
    21  H    0.269729
    22  H    0.326878
    23  C    0.176845
    24  H    0.352267
    25  H    0.320191
    26  F   -0.022076
    27  F   -0.033308
    28  F   -0.026914
    29  S    0.519089
    30  O   -0.316016
    31  O   -0.266402
    32  H    0.342271
 Sum of Mulliken charges =  -0.00000
 Mulliken charges with hydrogens summed into heavy atoms:
               1
     1  C   -0.189769
     2  N    0.083025
     3  C    0.097846
     4  O   -0.397656
     5  O   -0.223257
     6  C    0.269395
     7  C    0.176674
     8  C   -0.091469
     9  C    0.319514
    10  C    0.463596
    11  C   -0.180671
    12  C   -0.339886
    13  C   -0.018559
    23  C    0.176845
    26  F   -0.022076
    27  F   -0.033308
    28  F   -0.026914
    29  S    0.519089
    30  O   -0.316016
    31  O   -0.266402
 APT charges:
               1
     1  C   -0.784933
     2  N   -1.355038
     3  C    0.567544
     4  O   -0.380762
     5  O    0.400092
     6  C   -0.715187
     7  C   -0.719563
     8  C   -2.717539
     9  C   -0.719811
    10  C   -0.181184
    11  C    0.014184
    12  C   -1.166395
    13  C   -0.146733
    14  H    0.850813
    15  H    0.408895
    16  H    0.547945
    17  H    0.872731
    18  H    0.408214
    19  H    0.557045
    20  H    1.361011
    21  H    0.088944
    22  H    0.658127
    23  C   -0.143213
    24  H    0.771064
    25  H    0.689504
    26  F   -0.025013
    27  F    0.476241
    28  F   -0.054633
    29  S   -0.044104
    30  O   -0.098657
    31  O   -0.123823
    32  H    0.704232
 Sum of APT charges =  -0.00000
 APT charges with hydrogens summed into heavy atoms:
               1
     1  C   -0.784933
     2  N   -0.504225
     3  C    0.567544
     4  O   -0.380762
     5  O    0.400092
     6  C    0.241653
     7  C    0.561382
     8  C   -0.710539
     9  C   -0.061684
    10  C    0.523048
    11  C    0.014184
    12  C   -0.395331
    13  C    0.542771
    23  C   -0.143213
    26  F   -0.025013
    27  F    0.476241
    28  F   -0.054633
    29  S   -0.044104
    30  O   -0.098657
    31  O   -0.123823
 Electronic spatial extent (au):  <R**2>=          12174.0788
 Charge=             -0.0000 electrons
 Dipole moment (field-independent basis, Debye):
    X=              7.9610    Y=             -8.1001    Z=             -3.3582  Tot=             11.8434
 Quadrupole moment (field-independent basis, Debye-Ang):
   XX=           -128.5200   YY=           -124.5468   ZZ=           -131.5497
   XY=             12.1443   XZ=             17.5840   YZ=             -7.4452
 Traceless Quadrupole moment (field-independent basis, Debye-Ang):
   XX=             -0.3145   YY=              3.6587   ZZ=             -3.3442
   XY=             12.1443   XZ=             17.5840   YZ=             -7.4452
 Octapole moment (field-independent basis, Debye-Ang**2):
  XXX=            216.8052  YYY=            -45.4938  ZZZ=            -26.3390  XYY=             -0.7741
  XXY=            -73.9679  XXZ=            -40.6180  XZZ=              2.8522  YZZ=             -5.8163
  YYZ=             -4.5294  XYZ=              6.5118
 Hexadecapole moment (field-independent basis, Debye-Ang**3):
 XXXX=         -12729.1602 YYYY=           -713.1835 ZZZZ=           -553.4697 XXXY=            393.2667
 XXXZ=            306.8910 YYYX=             72.0375 YYYZ=            -16.9608 ZZZX=             87.2984
 ZZZY=            -11.1702 XXYY=          -2597.9161 XXZZ=          -2568.7512 YYZZ=           -197.3095
 XXYZ=            -59.8474 YYXZ=             12.0492 ZZXY=             40.4012
 N-N= 1.685023861788D+03 E-N=-6.854039460053D+03  KE= 1.474015440114D+03
  Exact polarizability:   0.000   0.000   0.000   0.000   0.000   0.000
 Approx polarizability: 263.362  -9.320 215.145 -15.017 -16.213 170.910
 D2PCM: PCM CHGder 2nd derivatives, FixD1E=F FixD2E=F DoIter=F DoCFld=F I1PDM=0
 Calling FoFJK, ICntrl=    100147 FMM=F ISym2X=0 I1Cent= 0 IOpClX= 0 NMat=1 NMatS=1 NMatT=0.
 ***** Axes restored to original set *****
 -------------------------------------------------------------------
 Center     Atomic                   Forces (Hartrees/Bohr)
 Number     Number              X              Y              Z
 -------------------------------------------------------------------
      1        6           0.004366852    0.007742534    0.001179589
      2        7           0.007257623   -0.027764761   -0.008479269
      3        6           0.045441812    0.013518924    0.000955799
      4        8           0.003354590   -0.021955579   -0.001385321
      5        8          -0.040014179    0.043713093    0.019783546
      6        6          -0.017089636    0.006820255   -0.004379772
      7        6          -0.007977812   -0.009621667   -0.012427671
      8        6           0.004310074    0.001074955    0.005130432
      9        6          -0.006925326   -0.007296828    0.009737922
     10        6          -0.003727770    0.001002835   -0.003970839
     11        6           0.002957309   -0.021415321   -0.018536457
     12        6          -0.000244578   -0.005138909   -0.001699071
     13        6          -0.001527899    0.005620507   -0.001609982
     14        1          -0.001390498    0.013500902    0.004985522
     15        1          -0.006391893   -0.003146514   -0.014123240
     16        1          -0.009385963   -0.011577102    0.006723718
     17        1          -0.008773173   -0.005830871    0.008466204
     18        1           0.003674691    0.010999447   -0.001070183
     19        1          -0.003454332   -0.010994643    0.001536409
     20        1          -0.007927802    0.008932853    0.003177229
     21        1           0.007135094    0.003522060   -0.008938635
     22        1           0.007143008   -0.001319248   -0.001252030
     23        6          -0.054809356   -0.030822978   -0.040262741
     24        1           0.000223898   -0.002464563    0.000540769
     25        1           0.001389169   -0.000064392    0.000306538
     26        9           0.010170328    0.051284513   -0.015347418
     27        9           0.050543707   -0.034420071   -0.013460642
     28        9          -0.008470325   -0.002945743    0.053502059
     29       16           0.040049831    0.133057920    0.122680235
     30        8          -0.004718875   -0.056955757   -0.040642066
     31        8          -0.005351172   -0.047297471   -0.049603669
     32        1           0.000162604    0.000241622   -0.001516965
 -------------------------------------------------------------------
 Cartesian Forces:  Max     0.133057920 RMS     0.027078802
 FormGI is forming the generalized inverse of G from B-inverse, IUseBI=4.

 GradGradGradGradGradGradGradGradGradGradGradGradGradGradGradGradGradGrad
 Berny optimization.
 Internal  Forces:  Max     0.088587742 RMS     0.016760794
 Search for a local minimum.
 Step number   1 out of a maximum of  167
 All quantities printed in internal units (Hartrees-Bohrs-Radians)
 Mixed Optimization -- RFO/linear search
 Second derivative matrix not updated -- analytic derivatives used.
 ITU=  0
     Eigenvalues ---   -0.00078   0.00116   0.00184   0.00203   0.00251
     Eigenvalues ---    0.00300   0.00335   0.00507   0.00879   0.01239
     Eigenvalues ---    0.01559   0.01749   0.01925   0.02049   0.02254
     Eigenvalues ---    0.02472   0.02571   0.02748   0.02855   0.03568
     Eigenvalues ---    0.03769   0.04192   0.04483   0.04559   0.05553
     Eigenvalues ---    0.06486   0.06543   0.06785   0.06812   0.07402
     Eigenvalues ---    0.07951   0.09606   0.10412   0.10459   0.11016
     Eigenvalues ---    0.11545   0.11733   0.12046   0.12471   0.12534
     Eigenvalues ---    0.12730   0.13468   0.13995   0.14185   0.14555
     Eigenvalues ---    0.16070   0.16216   0.17403   0.17523   0.17796
     Eigenvalues ---    0.17816   0.18245   0.18462   0.18723   0.19847
     Eigenvalues ---    0.20271   0.21512   0.22379   0.23505   0.25299
     Eigenvalues ---    0.25745   0.26998   0.27220   0.29113   0.29933
     Eigenvalues ---    0.30203   0.30375   0.30616   0.30872   0.30994
     Eigenvalues ---    0.31089   0.31487   0.31568   0.31990   0.32681
     Eigenvalues ---    0.33315   0.36906   0.37126   0.37274   0.38903
     Eigenvalues ---    0.39372   0.40076   0.40275   0.40851   0.41401
     Eigenvalues ---    0.44729   0.45270   0.45450   0.49299   0.77921
 RFO step:  Lambda=-1.32408698D-01 EMin=-7.77872232D-04
 Linear search not attempted -- first point.
 Maximum step size (   0.300) exceeded in Quadratic search.
    -- Step size scaled by   0.502
 Iteration  1 RMS(Cart)=  0.12205367 RMS(Int)=  0.00354594
 Iteration  2 RMS(Cart)=  0.00672358 RMS(Int)=  0.00040207
 Iteration  3 RMS(Cart)=  0.00002834 RMS(Int)=  0.00040174
 Iteration  4 RMS(Cart)=  0.00000002 RMS(Int)=  0.00040174
 Variable       Old X    -DE/DX   Delta X   Delta X   Delta X     New X
                                 (Linear)    (Quad)   (Total)
    R1        2.71869  -0.03266   0.00000  -0.03023  -0.03023   2.68845
    R2        2.67674  -0.01794   0.00000  -0.01560  -0.01560   2.66115
    R3        2.66199  -0.01051   0.00000  -0.00708  -0.00707   2.65492
    R4        2.58335  -0.02401   0.00000  -0.01150  -0.01150   2.57185
    R5        1.95075  -0.01390   0.00000  -0.01400  -0.01400   1.93675
    R6        2.30603  -0.02123   0.00000  -0.00390  -0.00390   2.30213
    R7        2.85984  -0.08859   0.00000  -0.17342  -0.17342   2.68642
    R8        2.90343  -0.04852   0.00000  -0.07241  -0.07241   2.83101
    R9        2.89760  -0.00816   0.00000  -0.01619  -0.01619   2.88141
   R10        2.10257  -0.01359   0.00000  -0.01430  -0.01430   2.08827
   R11        2.10242  -0.01507   0.00000  -0.01558  -0.01558   2.08684
   R12        2.88329   0.00086   0.00000   0.00119   0.00119   2.88448
   R13        2.10131  -0.01274   0.00000  -0.01324  -0.01324   2.08807
   R14        2.10124  -0.01148   0.00000  -0.01366  -0.01366   2.08758
   R15        2.09916  -0.01133   0.00000  -0.01230  -0.01230   2.08686
   R16        2.09843  -0.01217   0.00000  -0.01369  -0.01369   2.08475
   R17        2.09929  -0.01178   0.00000  -0.01323  -0.01323   2.08607
   R18        2.64471  -0.01543   0.00000  -0.01090  -0.01091   2.63380
   R19        2.03057   0.00477   0.00000   0.00449   0.00449   2.03506
   R20        2.64231  -0.00816   0.00000  -0.00569  -0.00570   2.63661
   R21        2.04539   0.00072   0.00000   0.00051   0.00051   2.04590
   R22        2.63690  -0.00266   0.00000  -0.00021  -0.00021   2.63669
   R23        3.39339  -0.01798   0.00000  -0.03528  -0.03528   3.35811
   R24        2.63838  -0.01628   0.00000  -0.01229  -0.01229   2.62609
   R25        2.04614   0.00133   0.00000   0.00114   0.00114   2.04728
   R26        2.04649   0.00035   0.00000   0.00033   0.00033   2.04682
   R27        2.61104  -0.05448   0.00000  -0.05336  -0.05336   2.55769
   R28        2.61160  -0.06245   0.00000  -0.06032  -0.06032   2.55128
   R29        2.61061  -0.05423   0.00000  -0.05296  -0.05296   2.55764
   R30        3.43061   0.01452   0.00000   0.02598   0.02598   3.45660
   R31        2.90422  -0.05059   0.00000  -0.06945  -0.06945   2.83477
   R32        2.90326  -0.04823   0.00000  -0.06627  -0.06627   2.83699
    A1        2.17330  -0.01245   0.00000  -0.01738  -0.01739   2.15591
    A2        2.05267  -0.00306   0.00000   0.00021   0.00020   2.05287
    A3        2.05721   0.01551   0.00000   0.01717   0.01718   2.07439
    A4        2.23407  -0.01511   0.00000  -0.01802  -0.01802   2.21606
    A5        2.02747   0.00548   0.00000   0.00875   0.00875   2.03622
    A6        2.02163   0.00962   0.00000   0.00928   0.00928   2.03091
    A7        2.12442   0.02965   0.00000   0.02753   0.02753   2.15195
    A8        2.07136  -0.04423   0.00000  -0.06449  -0.06449   2.00687
    A9        2.08740   0.01458   0.00000   0.03696   0.03696   2.12436
   A10        1.98088  -0.01681   0.00000   0.00831   0.00831   1.98919
   A11        1.93546  -0.01406   0.00000  -0.01437  -0.01435   1.92111
   A12        1.90592  -0.00062   0.00000  -0.00150  -0.00146   1.90446
   A13        1.90840  -0.00036   0.00000   0.00058   0.00060   1.90901
   A14        1.90640   0.00899   0.00000   0.01060   0.01057   1.91697
   A15        1.90607   0.00898   0.00000   0.00668   0.00665   1.91271
   A16        1.90127  -0.00279   0.00000  -0.00182  -0.00189   1.89939
   A17        1.94130  -0.00376   0.00000  -0.01502  -0.01502   1.92628
   A18        1.91307   0.00067   0.00000   0.00236   0.00234   1.91541
   A19        1.91394   0.00047   0.00000   0.00263   0.00266   1.91660
   A20        1.89944   0.00221   0.00000   0.00224   0.00222   1.90165
   A21        1.89828   0.00257   0.00000   0.00776   0.00775   1.90604
   A22        1.89719  -0.00211   0.00000   0.00035   0.00033   1.89752
   A23        1.92622   0.00271   0.00000   0.00463   0.00462   1.93084
   A24        1.91228   0.00213   0.00000   0.00435   0.00434   1.91662
   A25        1.92549   0.00196   0.00000   0.00339   0.00339   1.92887
   A26        1.89686  -0.00240   0.00000  -0.00459  -0.00460   1.89225
   A27        1.90609  -0.00276   0.00000  -0.00456  -0.00457   1.90152
   A28        1.89641  -0.00179   0.00000  -0.00349  -0.00350   1.89290
   A29        2.10505  -0.00417   0.00000  -0.00488  -0.00488   2.10017
[...]
 -0.00004038,0.00001004,-0.00000382,0.00002479,-0.00000452,-0.00126427,
 0.00135905,0.00036912,0.00177963,0.00165174,-0.00126522,-0.00417947,-0
 .00048786,-0.00616807,0.00006177,-0.00261189,0.00008884,-0.00178206,0.
 00010892,0.00068461,-0.00005048,-0.00018245,0.00006422,-0.00004146,-0.
 00000731,0.00000322,-0.00004239,-0.00000493,0.00000505,0.00000072,0.00
 000444,0.00000069,0.00000050,0.00000408,-0.00000257,-0.00000022,-0.000
 00128,0.00000111,-0.00001171,-0.00000107,0.00000126,-0.00000081,-0.000
 00172,-0.00000059,-0.00011263,0.00011845,0.00009169,-0.27191438,0.0688
 2747,-0.05017187,0.00003292,-0.00015288,-0.00020437,-0.00019904,0.0001
 3329,0.00008982,-0.01634756,0.04208460,0.00099882,0.38756565,-0.000285
 52,0.00017287,0.00001747,0.00042128,-0.00006993,-0.00001624,-0.0002872
 3,-0.00015268,0.00004577,0.00006059,0.00010163,-0.00002389,0.00011371,
 -0.00003969,-0.00000435,-0.00003003,-0.00000853,0.00000719,0.00000396,
 0.00000554,-0.00000080,0.00000040,-0.00000346,0.00000011,0.00019467,-0
 .00017420,-0.00001283,-0.00041618,-0.00023690,0.00007511,0.00040847,-0
 .00023587,0.00079348,0.00010391,0.00027496,0.00004344,0.00017258,-0.00
 001418,-0.00005276,0.00000487,0.00002433,-0.00001148,0.00000592,0.0000
 0122,-0.00000019,0.00000598,0.00000054,-0.00000090,-0.00000016,-0.0000
 0034,0.00000013,-0.00000014,-0.00000057,0.00000028,0.00000005,0.000000
 11,-0.00000024,0.00000160,0.00000017,-0.00000022,0.00000024,0.00000035
 ,0.00000022,0.00001254,-0.00001669,-0.00001386,0.06714059,-0.08933942,
 0.01507419,-0.00001170,0.00004944,-0.00004504,0.00002993,-0.00001841,-
 0.00001068,0.05833399,-0.05051529,0.00418005,-0.11575227,0.12108229,0.
 00210520,-0.00105481,-0.00007618,-0.00292272,0.00049710,0.00004757,0.0
 0193118,0.00100147,-0.00042491,-0.00039475,-0.00067282,0.00017488,-0.0
 0074236,0.00027097,0.00003102,0.00018896,0.00005478,-0.00002739,-0.000
 02429,-0.00003710,0.00000896,-0.00000340,0.00002248,-0.00000416,-0.001
 17151,0.00138177,0.00052077,0.00162167,0.00144227,-0.00129720,-0.00383
 112,-0.00027745,-0.00575699,-0.00009396,-0.00231311,-0.00020143,-0.001
 66247,0.00010905,0.00081398,-0.00004834,-0.00016702,0.00005431,-0.0000
 3718,-0.00000644,0.00000319,-0.00003918,-0.00000459,0.00000482,0.00000
 063,0.00000452,0.00000082,0.00000051,0.00000347,-0.00000197,-0.0000005
 7,-0.00000120,0.00000118,-0.00001041,-0.00000118,0.00000106,-0.0000005
 7,-0.00000123,-0.00000045,-0.00010294,0.00010499,0.00008313,-0.0547165
 7,0.01725884,-0.08438096,-0.00000170,-0.00011761,-0.00028018,-0.000176
 78,0.00011901,0.00007898,0.00828795,-0.00510299,0.01279315,0.03510034,
 -0.01742140,0.06958947,-0.00002943,0.00065870,-0.00002917,0.00034731,-
 0.00008154,0.00000254,-0.00021759,-0.00012870,0.00007246,0.00003484,0.
 00008297,-0.00002367,0.00008278,-0.00002834,-0.00000618,-0.00002110,-0
 .00000649,-0.00000042,0.00000262,0.00000393,-0.00000026,0.00000037,-0.
 00000182,0.00000042,0.00058876,-0.00056513,-0.00025496,-0.00030138,-0.
 00000456,0.00009417,0.00083481,0.00077844,0.00058746,0.00047636,-0.000
 28207,0.00000917,-0.00028255,-0.00004429,-0.00014919,0.00000772,0.0000
 1944,0.00000419,0.00000394,0.00000051,-0.00000030,0.00000545,-0.000000
 09,-0.00000116,-0.00000004,-0.00000080,-0.00000002,0.00000008,-0.00000
 003,-0.00000023,0.00000040,0.00000006,-0.00000028,0.00000080,0.0000004
 1,-0.00000008,-0.00000011,-0.00000017,0.00000003,0.00002724,-0.0000295
 4,-0.00001414,-0.14135235,-0.05745203,0.09151917,-0.00001523,0.0000901
 2,0.00006344,0.00003473,-0.00002462,0.00000214,0.00042489,-0.03044895,
 0.00919339,-0.07616491,-0.01304824,0.03979622,0.21637779,-0.00014275,0
 .00014868,-0.00008696,0.00023751,-0.00003239,-0.00001973,-0.00016315,-
 0.00009018,0.00004890,0.00003873,0.00005995,-0.00001918,0.00006423,-0.
 00001949,-0.00000062,-0.00001722,-0.00000569,0.00000174,0.00000237,0.0
 0000261,-0.00000061,0.00000025,-0.00000182,0.00000046,0.00021934,-0.00
 007026,-0.00001807,-0.00009836,-0.00032793,0.00007410,0.00042728,0.000
 35155,0.00037241,0.00009195,0.00008872,-0.00023491,0.00002421,-0.00000
 866,0.00007827,0.00000236,0.00001280,-0.00000213,0.00000354,0.00000058
 ,-0.00000005,0.00000376,0.00000013,-0.00000078,-0.00000011,-0.00000012
 ,0.00000023,-0.00000037,-0.00000016,-0.00000024,0.00000019,-0.00000003
 ,-0.00000032,0.00000075,0.00000024,-0.00000016,0.00000015,0.00000003,0
 .00000024,0.00002063,-0.00002453,-0.00000768,-0.05811928,-0.11086667,0
 .07091674,-0.00003280,0.00007309,-0.00008725,0.00002950,-0.00000990,0.
 00001707,-0.03774998,-0.06436363,0.03646647,-0.00465939,0.01398549,-0.
 00282745,0.10462581,0.15910883,0.00102468,-0.00057474,0.00005160,-0.00
 148644,0.00025729,0.00006064,0.00101792,0.00051794,-0.00023230,-0.0002
 4185,-0.00034533,0.00009711,-0.00040267,0.00014583,0.00001543,0.000102
 14,0.00003285,-0.00001734,-0.00001408,-0.00002009,0.00000464,-0.000001
 83,0.00001210,-0.00000254,-0.00075405,0.00029906,0.00015443,-0.0003003
 4,0.00146652,-0.00117242,-0.00331855,-0.00204922,-0.00138168,0.0000017
 4,-0.00089263,0.00030660,-0.00070851,0.00005136,0.00012133,-0.00002673
 ,-0.00008586,0.00002578,-0.00002011,-0.00000302,0.00000211,-0.00002079
 ,-0.00000329,0.00000353,0.00000018,0.00000294,0.00000024,0.00000045,0.
 00000117,-0.00000024,-0.00000078,-0.00000074,0.00000101,-0.00000545,-0
 .00000094,0.00000053,-0.00000017,-0.00000027,-0.00000022,-0.00011068,0
 .00011151,0.00004696,0.09377228,0.07197988,-0.19272518,0.00008105,-0.0
 0019079,0.00000567,-0.00012693,0.00006488,-0.00001853,0.00392392,0.018
 68258,0.00982365,0.02164283,-0.00143379,0.00727114,-0.14290381,-0.1079
 8099,0.20488624,-0.01713502,0.00598687,0.00065587,0.02243260,-0.003971
 88,-0.00146047,-0.01485400,-0.00790420,0.00289266,0.00287133,0.0052690
 6,-0.00137703,0.00565985,-0.00202806,-0.00009582,-0.00142262,-0.000401
 74,0.00026024,0.00018189,0.00027966,-0.00007033,0.00002530,-0.00017135
 ,0.00002767,0.00792968,-0.01169514,0.00403622,-0.04350113,-0.00060749,
 0.00319683,-0.14227124,0.02667245,-0.01347257,-0.01443609,0.03011184,-
 0.00629921,0.01699619,0.00003955,0.00037884,0.00038313,0.00128763,-0.0
 0043800,0.00029419,0.00004353,-0.00002778,0.00028525,0.00003748,-0.000
 04255,-0.00000398,-0.00003434,-0.00000636,-0.00000380,-0.00002663,0.00
 001767,0.00000361,0.00000844,-0.00000769,0.00007939,0.00000844,-0.0000
 0886,0.00000504,0.00001031,0.00000361,0.00025415,0.00007485,-0.0000203
 2,-0.04856253,-0.00192143,-0.03552191,-0.00091909,-0.00218827,-0.00041
 026,0.00125795,-0.00083309,0.00001904,0.00463008,0.00276886,0.00297341
 ,-0.02609591,0.00349272,-0.02730343,-0.00143861,-0.00624145,0.02879063
 ,0.58383111,0.00544002,-0.00772580,0.00085302,-0.00990251,0.00183216,0
 .00028759,0.00661718,0.00343627,-0.00130564,-0.00138153,-0.00224056,0.
 00057010,-0.00257374,0.00095069,0.00006704,0.00065382,0.00019473,-0.00
 011178,-0.00008453,-0.00012655,0.00003245,-0.00001072,0.00007856,-0.00
 001301,-0.00953170,0.00360590,0.00142956,0.00340922,0.01578416,-0.0060
 8418,0.02845879,-0.08071697,0.00814508,0.02794960,-0.01298090,0.000110
 43,-0.00393158,-0.00526032,0.00325269,-0.00022255,-0.00054555,0.000199
 29,-0.00012940,-0.00002408,0.00000942,-0.00013028,-0.00001753,0.000018
 53,0.00000229,0.00001393,0.00000117,0.00000158,0.00001212,-0.00000669,
 -0.00000196,-0.00000345,0.00000491,-0.00003539,-0.00000430,0.00000399,
 -0.00000350,-0.00000519,-0.00000321,-0.00085697,0.00083725,0.00029655,
 -0.00601186,-0.03346133,-0.02904079,0.00057478,-0.00275143,-0.00004143
 ,0.00060981,0.00026511,0.00008573,-0.00698182,-0.02288666,-0.02621883,
 0.01457530,0.00117277,0.01225327,-0.00595295,-0.00241998,0.02389932,0.
 13026455,0.90246315,0.00166104,0.00040726,-0.00137306,-0.00189452,-0.0
 0001983,-0.00100877,0.00115456,0.00063707,-0.00036632,-0.00020587,-0.0
 0045552,0.00006636,-0.00045314,0.00019725,0.00017697,0.00011517,0.0000
 3594,0.00000467,-0.00001566,-0.00002143,0.00000662,-0.00000195,0.00001
 261,-0.00000226,0.00162753,0.00247135,0.00676563,0.00377294,-0.0037250
 3,-0.00406523,-0.00534568,0.00465595,-0.06087832,-0.00578702,-0.002643
 68,-0.00375255,-0.00069647,0.00331283,0.00671509,-0.00000370,-0.000086
 82,0.00006221,-0.00001518,-0.00001232,-0.00000435,-0.00003268,0.000001
 82,-0.00000394,-0.00000088,0.00000190,0.00000010,0.00000029,0.00000386
 ,-0.00000362,0.00000129,-0.00000014,-0.00000037,-0.00000652,-0.0000002
 2,0.00000100,-0.00000137,-0.00000203,-0.00000065,0.00018589,0.00013714
 ,0.00097781,-0.04946636,-0.02326986,-0.16619625,-0.00061391,0.00050132
 ,-0.00332660,-0.00033632,0.00033623,0.00099792,0.00269491,0.01057053,0
 .00914573,0.00843872,-0.00258454,0.00641967,-0.00085920,-0.00059203,-0
 .00506599,-0.11979769,-0.08999924,0.53312281,0.00240555,-0.00023230,-0
 .00022730,-0.00305286,0.00055240,0.00025078,0.00216447,0.00109980,-0.0
 0035093,-0.00050704,-0.00072907,0.00019793,-0.00086823,0.00030621,0.00
 001766,0.00021663,0.00006325,-0.00004907,-0.00002906,-0.00004166,0.000
 00998,-0.00000399,0.00002628,-0.00000328,-0.00020719,0.00133947,-0.001
 20524,0.00026402,0.00064467,0.00071200,0.00584542,0.02630683,0.0028920
 0,-0.00472925,-0.00325146,0.00316516,-0.00179047,0.00184511,-0.0013264
 2,-0.00005417,-0.00019551,0.00005683,-0.00004361,-0.00000729,0.0000044
 4,-0.00004146,-0.00000689,0.00000742,0.00000015,0.00000565,0.00000105,
 0.00000084,0.00000404,-0.00000269,-0.00000059,-0.00000150,0.00000120,-
 0.00001247,-0.00000111,0.00000140,-0.00000060,-0.00000170,-0.00000047,
 -0.00004253,0.00002140,0.00002600,0.00598004,-0.00585163,0.00445821,0.
 00035297,0.00025569,0.00026704,-0.00071321,0.00012223,-0.00015115,-0.0
 0074036,-0.00310729,-0.00340602,0.00184695,-0.00038465,0.00127170,0.00
 114654,0.00160065,-0.00389463,-0.07410851,-0.00410661,-0.00366291,0.05
 871685,-0.00386419,0.00150261,0.00015711,0.00481212,-0.00067561,-0.000
 37839,-0.00325172,-0.00170916,0.00058200,0.00074933,0.00112502,-0.0002
 9539,0.00128923,-0.00044390,-0.00001891,-0.00032820,-0.00009899,0.0000
 6545,0.00004355,0.00006415,-0.00001561,0.00000495,-0.00003983,0.000006
 05,0.00216799,-0.00031124,0.00044351,-0.00367724,-0.00298525,0.0009626
 1,-0.00827443,-0.01981540,-0.00064837,0.00700756,0.00330763,-0.0024592
 4,0.00205668,-0.00210785,0.00077381,0.00002224,0.00028768,-0.00009130,
 0.00006728,0.00001033,-0.00000535,0.00006339,0.00000922,-0.00001019,-0
 .00000151,-0.00000653,-0.00000028,-0.00000134,-0.00000608,0.00000321,0
 .00000097,0.00000176,-0.00000259,0.00001814,0.00000217,-0.00000220,0.0
 0000188,0.00000284,0.00000174,0.00029019,-0.00020555,0.00004439,0.0083
 3428,-0.01638457,0.02586578,-0.00024925,0.00050405,-0.00041322,0.00102
 196,-0.00022951,0.00009436,-0.00236491,-0.00996290,-0.01122626,-0.0072
 5264,0.00398792,-0.00492370,0.00260704,0.00449925,-0.00867079,-0.01302
 077,-0.54879579,-0.04257436,0.00860153,0.60376092,0.00077973,0.0001694
 5,0.00006465,-0.00074325,0.00011646,0.00010843,0.00045966,0.00025138,-
 0.00006881,-0.00007429,-0.00017881,0.00002977,-0.00015512,0.00005629,-
 0.00001228,0.00004087,0.00000863,-0.00001198,-0.00000459,-0.00000859,-
 0.00000025,-0.00000027,0.00000498,-0.00000005,-0.00001808,-0.00012395,
 -0.00017461,0.00006910,0.00045516,-0.00014491,-0.00163117,0.00230684,0
 .00922477,0.00115783,-0.00041243,0.00206283,-0.00119655,-0.00056769,-0
 .00070302,-0.00000566,-0.00005083,-0.00000588,-0.00000884,0.00000090,0
 .00000174,-0.00000822,-0.00000168,0.00000186,0.00000026,0.00000140,0.0
 0000040,0.00000058,-0.00000013,0.00000004,-0.00000059,-0.00000029,0.00
 000061,-0.00000222,-0.00000044,0.00000022,0.00000014,0.00000014,0.0000
 0003,-0.00002586,-0.00001459,-0.00006060,0.00710889,-0.01960364,0.0162
 6710,0.00015681,-0.00001716,0.00034599,0.00000577,-0.00005983,-0.00028
 740,-0.00292575,-0.00959803,-0.00991200,-0.00248882,0.00184499,-0.0022
 6742,-0.00052472,0.00066374,-0.00227371,-0.00345232,-0.04652481,-0.081
 86738,-0.00250723,0.04797517,0.05669083,0.00375458,-0.00283566,0.00025
 360,-0.00539418,0.00107322,0.00043065,0.00380193,0.00180938,-0.0006210
 3,-0.00098238,-0.00116691,0.00033961,-0.00153370,0.00057142,-0.0000008
 4,0.00039075,0.00011545,-0.00008354,-0.00005065,-0.00007626,0.00001865
 ,-0.00000673,0.00004769,-0.00000707,-0.00417896,-0.00054016,-0.0009848
 7,-0.00140581,0.01012206,0.00037037,-0.01400593,-0.02269542,0.02137486
 ,0.00023970,-0.00321620,0.00137839,-0.00226919,-0.00032619,-0.00075478
 ,-0.00011652,-0.00032252,0.00010725,-0.00007885,-0.00001172,0.00000900
 ,-0.00007311,-0.00001281,0.00001195,0.00000101,0.00000933,0.00000187,0
 .00000062,0.00000740,-0.00000503,-0.00000074,-0.00000249,0.00000223,-0
 .00002214,-0.00000199,0.00000255,-0.00000134,-0.00000312,-0.00000111,-
 0.00068167,0.00058686,-0.00039792,-0.00370249,-0.00693827,-0.00763954,
 -0.00076612,-0.00004669,0.00062350,-0.00042168,0.00025209,-0.00003873,
 0.00084308,0.00278113,0.00104497,0.00669470,-0.00027579,0.00297140,-0.
 00066476,-0.00022145,0.00384744,-0.26099368,-0.16420651,0.16945225,0.0
 0831099,0.00267177,0.00618630,0.27279456,0.00107478,-0.00036201,0.0000
 0208,-0.00095023,0.00032895,0.00002790,0.00065855,0.00028556,-0.000110
 49,-0.00013903,-0.00020543,0.00005750,-0.00022965,0.00009497,-0.000002
 91,0.00006203,0.00001303,-0.00000943,-0.00000655,-0.00001250,0.0000024
 4,-0.00000093,0.00000680,-0.00000092,-0.00021344,0.00058004,-0.0001652
 7,-0.00015831,0.00027945,0.00013764,0.00401141,0.00432969,0.00017981,0
 .00004280,-0.00248481,0.00022608,-0.00034737,0.00134865,-0.00034220,-0
 .00002980,-0.00006069,0.00001763,-0.00001337,-0.00000041,0.00000215,-0
 .00001283,-0.00000134,0.00000084,0.00000041,0.00000135,0.00000072,0.00
 000017,0.00000096,-0.00000130,0.00000008,-0.00000037,-0.00000012,-0.00
 000355,-0.00000019,0.00000037,0.00000008,-0.00000047,0.00000024,-0.000
 06970,0.00002216,-0.00008095,-0.00809783,-0.00337941,-0.00740877,0.000
 93768,0.00145009,-0.00039669,-0.00020030,0.00002760,-0.00005967,0.0016
 0906,0.00671570,0.00328640,0.00214209,-0.00004793,0.00048325,-0.000892
 59,-0.00014048,0.00473798,-0.15548345,-0.20822353,0.14316550,-0.026803
 53,-0.01589767,0.02354116,0.18280591,0.21492892,-0.00097730,0.00007294
 ,0.00024933,0.00100222,-0.00019739,0.00000919,-0.00073263,-0.00029947,
 0.00016260,0.00024146,0.00020482,-0.00003240,0.00031053,-0.00012787,-0
 .00001441,-0.00008110,-0.00002798,-0.00000043,0.00001076,0.00001637,-0
 .00000485,0.00000164,-0.00001006,0.00000303,0.00035381,0.00075956,-0.0
 0121286,0.00242167,-0.00214543,0.00202362,-0.00003622,0.00824869,0.005
 01346,-0.00032699,0.00168679,0.00001904,0.00061198,-0.00068233,-0.0001
 7507,0.00002064,0.00005816,-0.00001317,0.00001482,0.00000488,-0.000000
 92,0.00001535,0.00000224,-0.00000019,-0.00000023,-0.00000108,-0.000000
 47,0.00000064,-0.00000267,0.00000230,-0.00000028,0.00000040,-0.0000000
 5,0.00000466,0.00000019,-0.00000059,0.00000070,0.00000118,0.00000034,0
 .00020182,-0.00027475,-0.00016886,0.03085832,0.02088765,0.01274061,-0.
 00030989,-0.00034102,0.00003979,0.00018980,-0.00007931,-0.00005334,-0.
 00269676,-0.00597032,-0.00426336,-0.00680705,-0.00047099,-0.00284402,0
 .00316345,0.00317567,-0.01988752,0.16753152,0.14757254,-0.23327093,0.0
 0351965,-0.00462690,0.01287161,-0.19844225,-0.16728524,0.22850487,-0.0
 0468409,0.00168982,0.00088003,0.00017540,0.00153157,-0.00038710,0.0005
 2250,0.00021467,-0.00005331,-0.00011035,-0.00016943,0.00005135,-0.0002
 3744,0.00002232,0.00001170,0.00005674,0.00002333,-0.00001160,-0.000009
 74,-0.00001184,0.00000267,-0.00000106,0.00000773,-0.00000123,0.0004449
 3,0.02772992,-0.00641928,-0.06366304,0.03846367,-0.00684098,0.00782862
 ,-0.02267001,0.00500359,-0.00437919,-0.00218365,0.00165084,-0.00087953
 ,0.00011807,-0.00011597,-0.00036932,0.00004174,-0.00000684,-0.00001017
 ,-0.00000351,0.00000087,-0.00000985,-0.00000359,0.00000234,0.00000013,
 0.00000124,0.00000019,0.00000002,0.00000088,-0.00000054,-0.00000008,-0
 .00000025,0.00000044,-0.00000329,-0.00000056,0.00000042,-0.00000018,-0
 .00000046,-0.00000036,0.00126310,-0.00066639,-0.00048737,-0.00035002,-
 0.00013600,-0.00009130,0.00047483,-0.00112790,0.00027999,0.00013564,0.
 00002512,-0.00007355,0.00004414,0.00015908,0.00009810,0.00007931,-0.00
 001609,0.00000848,0.00009065,0.00005312,0.00013316,-0.00137452,-0.0025
 0084,0.00009245,-0.00030583,0.00045413,-0.00019239,0.00051871,0.000307
 40,-0.00006475,0.06475298,0.00104062,0.00152575,0.00145520,0.00011685,
 -0.00031824,0.00002203,-0.00026690,-0.00012514,0.00008312,0.00004394,0
 .00009926,-0.00001126,0.00011163,-0.00002942,-0.00001423,-0.00002866,-
 0.00001179,0.00000561,0.00000421,0.00000574,-0.00000149,0.00000018,-0.
 00000360,0.00000069,0.00001994,-0.00469096,0.00246498,0.03844615,-0.33
 140251,0.06794419,0.00236056,-0.01127500,0.00322391,-0.00262892,0.0005
 6015,0.00149284,0.00015767,0.00049281,-0.00043487,0.00006213,0.0000257
 9,-0.00008179,0.00000567,0.00000184,-0.00000042,0.00000532,0.00000101,
 -0.00000102,-0.00000024,-0.00000066,-0.00000019,-0.00000011,-0.0000005
 8,0.00000031,0.00000011,0.00000028,-0.00000036,0.00000172,0.00000009,-
 0.00000019,0.00000014,0.00000039,0.00000021,-0.00023943,0.00043422,-0.
 00124892,-0.00045341,-0.00008953,0.00010190,0.00028736,-0.00034485,0.0
 0022230,0.00002062,-0.00008618,-0.00013778,0.00003681,0.00006259,0.000
 01811,-0.00002274,0.00001444,-0.00007715,0.00012553,0.00004997,-0.0000
 1074,0.00017306,-0.00245691,-0.00046150,0.00192702,0.00061029,-0.00023
 379,0.00004645,0.00040331,-0.00014927,-0.04135329,0.34654744,0.0011369
 6,0.00164818,0.00757789,-0.00012902,-0.00008326,-0.00016734,0.00004770
 ,0.00004696,0.00009956,-0.00002062,0.00000763,0.00006643,-0.00002251,0
 .00000487,-0.00003572,0.00000794,0.00000411,0.00001028,0.00000011,-0.0
 0000123,-0.00000063,0.00000002,0.00000048,-0.00000058,0.00076890,-0.00
 034527,0.00551270,-0.00734252,0.06748473,-0.05467318,-0.00071740,0.005
 85208,0.00141310,0.00181456,0.00122850,0.00537670,-0.00034647,-0.00044
 791,-0.00115405,-0.00001423,-0.00008367,-0.00028647,-0.00000085,0.0000
 0138,-0.00000009,-0.00000167,-0.00000150,0.00000081,-0.00000004,0.0000
 0004,-0.00000010,-0.00000003,0.00000036,-0.00000044,0.00000010,0.00000
 002,-0.00000012,-0.00000028,0.00000002,-0.00000003,-0.00000014,-0.0000
 0023,-0.00000014,-0.00053780,-0.00125516,-0.00455494,-0.00060573,0.000
 24002,0.00068204,-0.00006450,0.00036960,0.00057745,-0.00009028,-0.0001
 4045,-0.00061965,0.00008136,-0.00008390,-0.00006274,-0.00025820,0.0000
 2178,-0.00033484,0.00025951,0.00006312,-0.00010096,-0.00097160,0.00025
 695,-0.00327603,-0.00007312,-0.00061213,0.00011938,0.00054986,-0.00000
 571,0.00030366,0.00652995,-0.07417041,0.04352803\\0.00000106,-0.000003
 18,-0.00000256,0.00000317,-0.00000206,-0.00000671,0.00000102,-0.000000
 88,0.00000011,-0.00000219,0.00000160,0.00001312,-0.00000016,-0.0000039
 3,-0.00000279,0.00000130,0.00000005,-0.00000374,-0.00000054,0.00000078
 ,-0.00000757,-0.00000008,0.00000215,-0.00000595,-0.00000003,-0.0000016
 6,0.00000779,-0.00000600,0.00000182,0.00001577,0.00000630,-0.00000621,
 -0.00000128,0.00000047,-0.00000570,-0.00000724,-0.00000457,-0.00000818
 ,-0.00000812,0.00000138,-0.00000479,-0.00001526,-0.00000367,-0.0000040
 7,0.00000815,0.00000278,0.00001044,0.00000512,0.00000272,0.00000588,-0
 .00001652,-0.00000032,-0.00000794,-0.00001292,0.00000194,0.00001118,-0
 .00000027,0.00000036,0.00000182,-0.00001086,-0.00000120,-0.00000404,0.
 00000320,-0.00000198,0.00000244,0.00001657,0.00000734,0.00001638,-0.00
 000441,0.00000023,-0.00001006,-0.00001453,-0.00000121,-0.00000765,-0.0
 0001964,-0.00000044,0.00001768,-0.00000630,0.00000254,0.00001141,0.000
 00902,0.00000235,0.00001767,0.00001088,-0.00000791,-0.00001801,0.00002
 574,-0.00000116,-0.00001287,0.00001118,-0.00000294,-0.00000156,-0.0000
 0166,-0.00000056,0.00000150,0.00002169\\\@


 HEAVEN'S NET CASTS WIDE.
 THOUGH ITS MESHES ARE COARSE, NOTHING SLIPS THROUGH.

                                          -- LAO-TSU
 Job cpu time:       0 days  5 hours 42 minutes 37.4 seconds.
 File lengths (MBytes):  RWF=    884 Int=      0 D2E=      0 Chk=     31 Scr=      1
 Normal termination of Gaussian 09 at Thu Dec 12 20:25:21 2019.
pbs_rusage has been removed.
Please contact help@nci.org.au if you require this functionality.
