Process 0 of 1 is on r4229 - thread support 0
initial socket setup ...start
initial socket setup ...done 
now start server 0 ... 
r4229 10.9.72
Q-Chem Developer Version! Running on 10.9.72.*
                  Welcome to Q-Chem
     A Quantum Leap Into The Future Of Chemistry


 Q-Chem 5.0, Q-Chem, Inc., Pleasanton, CA (2017)

 Yihan Shao,  Zhengting Gan,  E. Epifanovsky,  A. T. B. Gilbert,  M. Wormit,  
 J. Kussmann,  A. W. Lange,  A. Behn,  Jia Deng,  Xintian Feng,  D. Ghosh,  
 M. Goldey,  P. R. Horn,  L. D. Jacobson,  I. Kaliman,  T. Kus,  A. Landau,  
 Jie Liu,  E. I. Proynov,  R. M. Richard,  R. P. Steele,  E. J. Sundstrom,  
 H. L. Woodcock III,  P. M. Zimmerman,  D. Zuev,  B. Albrecht,  E. Alguire,  
 S. A. Baeppler,  Z. Benda,  Y. A. Bernard,  E. J. Berquist,  K. B. Bravaya,  
 D. Casanova,  Chun-Min Chang,  Yunqing Chen,  A. Chien,  K. D. Closser,  
 M. P. Coons,  S. Dasgupta,  M. Diedenhofen,  Hainam Do,  R. G. Edgar,  
 Po-Tung Fang,  S. Fatehi,  Qingguo Feng,  Qinghui Ge,  A. Ghysels,  
 J. Gomes,  J. Gonthier,  A. Gunina,  M. W. D. Hanson-Heine,  
 P. H. P. Harbach,  A. W. Hauser,  J. E. Herr,  E. G. Hohenstein,  
 Z. C. Holden,  Kerwin Hui,  T.-C. Jagau,  Hyunjun Ji,  B. Kaduk,  
 K. Khistyaev,  Jaehoon Kim,  P. Klunzinger,  K. Koh,  D. Kosenkov,  
 T. Kowalczyk,  C. M. Krauter,  A. Kunitsa,  Ka Un Lao,  A. Laurent,  
 K. V. Lawler,  Joonho Lee,  D. Lefrancois,  S. Lehtola,  D. S. Levine,  
 Yi-Pei Li,  You-Sheng Lin,  Fenglai Liu,  E. Livshits,  A. Luenser,  
 P. Manohar,  E. Mansoor,  S. F. Manzer,  Shan-Ping Mao,  Yuezhi Mao,  
 N. Mardirossian,  A. V. Marenich,  L. A. Martinez-Martinez,  S. A. Maurer,  
 N. J. Mayhall,  S. C. McKenzie,  J.-M. Mewes,  A. F. Morrison,  K. Nanda,  
 T. S. Nguyen-Beck,  R. Olivares-Amaya,  J. A. Parkhill,  T. M. Perrine,  
 F. Plasser,  S. Prager,  A. Prociuk,  D. R. Rehn,  F. Rob,  M. Schneider,  
 N. Sergueev,  S. M. Sharada,  S. Sharma,  D. W. Small,  T. Stauch,  
 T. Stein,  Yu-Chuan Su,  A. J. W. Thom,  T. Tsuchimochi,  L. Vogt,  
 O. Vydrov,  M. A. Watson,  J. Wenzel,  M. de Wergifosse,  T. A. Wesolowski,  
 A. White,  J. Witte,  A. Yamada,  Jun Yang,  K. Yao,  S. Yeganeh,  
 S. R. Yost,  Zhi-Qiang You,  A. Zech,  Igor Ying Zhang,  Xing Zhang,  
 Yan Zhao,  Ying Zhu,  B. R. Brooks,  G. K. L. Chan,  C. J. Cramer,  
 M. S. Gordon,  W. J. Hehre,  A. Klamt,  M. W. Schmidt,  C. D. Sherrill,  
 D. G. Truhlar,  A. Aspuru-Guzik,  R. Baer,  A. T. Bell,  N. A. Besley,  
 Jeng-Da Chai,  A. Dreuw,  B. D. Dunietz,  T. R. Furlani,  Chao-Ping Hsu,  
 Yousung Jung,  Jing Kong,  D. S. Lambrecht,  WanZhen Liang,  C. Ochsenfeld,  
 V. A. Rassolov,  L. V. Slipchenko,  J. E. Subotnik,  T. Van Voorhis,  
 J. M. Herbert,  A. I. Krylov,  P. M. W. Gill,  M. Head-Gordon

 Contributors to earlier versions of Q-Chem not listed above: 
 R. D. Adamson,  B. Austin,  J. Baker,  G. J. O. Beran,  K. Brandhorst,  
 S. T. Brown,  E. F. C. Byrd,  A. K. Chakraborty,  C.-L. Cheng,  
 Siu Hung Chien,  D. M. Chipman,  D. L. Crittenden,  H. Dachsel,  
 R. A. DiStasio Jr.,  R. J. Doerksen,  A. D. Dutoi,  L. Fusti-Molnar,  
 W. A. Goddard III,  A. Golubeva-Zadorozhnaya,  S. R. Gwaltney,  G. Hawkins,  
 A. Heyden,  S. Hirata,  G. Kedziora,  F. J. Keil,  C. Kelley,  Jihan Kim,  
 R. A. King,  R. Z. Khaliullin,  P. P. Korambath,  W. Kurlancheek,  
 A. M. Lee,  M. S. Lee,  S. V. Levchenko,  Ching Yeh Lin,  D. Liotard,  
 R. C. Lochan,  I. Lotan,  P. E. Maslen,  N. Nair,  D. P. O'Neill,  
 D. Neuhauser,  E. Neuscamman,  C. M. Oana,  R. Olson,  B. Peters,  
 R. Peverati,  P. A. Pieniazek,  Y. M. Rhee,  J. Ritchie,  M. A. Rohrdanz,  
 E. Rosta,  N. J. Russ,  H. F. Schaefer III,  N. E. Schultz,  N. Shenvi,  
 A. C. Simmonett,  A. Sodt,  D. Stuck,  K. S. Thanthiriwatte,  V. Vanovschi,  
 Tao Wang,  A. Warshel,  C. F. Williams,  Q. Wu,  X. Xu,  W. Zhang

 Please cite Q-Chem as follows:
 Y. Shao et al., Mol. Phys. 113, 184-215 (2015)
 DOI: 10.1080/00268976.2014.952696

 Q-Chem 5.0.0 for Intel X86 EM64T Linux

 Parts of Q-Chem use Armadillo 5.200.1 (Boston Tea Smuggler).
 http://arma.sourceforge.net/

 Q-Chem begins on Mon Dec  9 11:57:29 2019  

Host: r4229
0

     Scratch files written to /jobfs/local/4046931.r-man2/CP21CA.CCSD-T_6-31pGd.mo//
 Parallel job on  1  processors
Core orbitals will be frozen

Checking the input file for inconsistencies... 	...done.

--------------------------------------------------------------
User input:
--------------------------------------------------------------
$molecule
  0 1
    C     -6.0635807212    1.3542496482    0.3272924859
    N     -4.7938026145    0.7948202192    0.1963291461
    C     -3.5875129536    1.4529506957    0.1100083698
    O     -3.4209036541    2.6433882887    0.1277832085
    O     -2.6084719663    0.5429357990    0.0007516720
    C     -1.2777566449    1.0770033745   -0.0997123396
    C     -0.3208903830   -0.0902293711   -0.2073466220
    C      1.1213272101    0.3969987839   -0.3179395529
    C     -6.2905409748    2.7357647924    0.3940812289
    C     -7.5878632977    3.2056399824    0.5270793799
    C     -8.6465887735    2.3066293632    0.5927040637
    C     -8.4372514966    0.9312987539    0.5294873348
    C     -7.1453956881    0.4621849053    0.3979313898
    H     -4.7326646931   -0.2123906061    0.1633643071
    H     -1.0766942190    1.6869352244    0.7842326607
    H     -1.2258345129    1.7276070679   -0.9760062010
    H     -0.5883893103   -0.6911117196   -1.0807177899
    H     -0.4407187989   -0.7307282757    0.6706039631
    H      1.2620973218    1.0234478249   -1.2020332148
    H      1.8128573624   -0.4428268606   -0.3940394764
    H      1.4096608105    0.9856037852    0.5562996529
    H     -5.4617342307    3.4249202312    0.3475547454
    C    -10.7750630882    3.1114294259   -1.0672188869
    H     -9.2767097459    0.2491244509    0.5959053562
    H     -6.9640375505   -0.6066589381    0.3542437000
    F    -10.7028406676    1.9392798465   -1.6850585440
    F    -12.0127500047    3.5676472414   -1.1344862324
    F     -9.9563254832    3.9651037789   -1.6668835506
    S    -10.2923804446    2.9171140092    0.7255936529
    O    -10.2770332287    4.2614028654    1.2603651205
    O    -11.1584857299    1.8772018272    1.2390629126
    H     -7.7801518283    4.2704335856    0.5921680595

$end

$rem

    JOBTYPE               sp
    METHOD                CCSD(T)
    BASIS                 6-31+G*
    CC_BACKEND            XM

    MEM_TOTAL             60000
$end
--------------------------------------------------------------
 ----------------------------------------------------------------
             Standard Nuclear Orientation (Angstroms)
    I     Atom           X                Y                Z
 ----------------------------------------------------------------
    1      C       0.9444017983    -0.5427405691     0.1382764821
    2      N       2.3085245163    -0.7272444183    -0.0798442705
    3      C       3.3262319157     0.1747164231     0.1357016324
    4      O       3.2095907638     1.2968185005     0.5510304611
    5      O       4.4900335328    -0.4033524040    -0.1959421828
    6      C       5.6576145950     0.4175227859    -0.0255225674
    7      C       6.8601121865    -0.4017157709    -0.4408034290
    8      C       8.1469584630     0.4045960103    -0.2875010178
    9      C       0.4008911526     0.6499506553     0.6349047211
   10      C      -0.9690159758     0.7455571749     0.8239292295
   11      C      -1.7870634305    -0.3371547905     0.5206810020
   12      C      -1.2620979027    -1.5293154651     0.0282209977
   13      C       0.1023309341    -1.6259285280    -0.1595716136
   14      H       2.6035091101    -1.6253946177    -0.4342571388
   15      H       5.7189599812     0.7277246941     1.0203327017
   16      H       5.5470811575     1.3163647900    -0.6368632384
   17      H       6.7321661747    -0.7220266363    -1.4783116156
   18      H       6.9022810412    -1.3070667423     0.1707162618
   19      H       8.1283775757     1.3038080899    -0.9079432913
   20      H       9.0151486198    -0.1846070528    -0.5848188026
   21      H       8.2980424814     0.7180387020     0.7482661375
   22      H       1.0447587260     1.4825289177     0.8721146204
   23      C      -4.0610939004     0.4747169429    -0.9295258665
   24      H      -1.9177588625    -2.3644929225    -0.1886905192
   25      H       0.5285144190    -2.5500451141    -0.5358729856
   26      F      -3.7224782270    -0.3777551957    -1.8884352653
   27      F      -5.3718046454     0.6377071231    -0.9297218779
   28      F      -3.4710009569     1.6395369780    -1.1612012420
   29      S      -3.5286620201    -0.1907719104     0.7313650683
   30      O      -3.8232799402     0.8666335054     1.6739268203
   31      O      -4.1220391811    -1.5082000612     0.8179272098
   32      H      -1.4046656725     1.6564036993     1.2183462466
 ----------------------------------------------------------------
 Molecular Point Group                 C1    NOp =  1
 Largest Abelian Subgroup              C1    NOp =  1
 Nuclear Repulsion Energy =  1753.0805337014 hartrees
 There are       80 alpha and       80 beta electrons
 Requested basis set is 6-31+G(d)
 There are 125 shells and 408 basis functions
 Total memory of 50485MB is distributed as follows: 
   QALLOC including MEM_STATIC uses 30062MB
   MEM_STATIC is set to 62MB
   CCMAN JOB total memory use is  50423MB
 Warning: actual memory use might exceed 50485MB

 Total QAlloc Memory Limit  30062 MB
 Mega-Array Size        61 MB
 MEM_STATIC part        62 MB
 A cutoff of  1.0D-14 yielded   5583 shell pairs
 There are     64253 function pairs
 
 -------------------------------------------------------
 OpenMP Integral Computing Module                       
 Release: version 1.0, May 2013, Q-Chem Inc. Pittsburgh 
 -------------------------------------------------------
 Integral Job Info:
 Integral job number is                      11
 Integral operator is                         1
 short-range coefficients                     0
 long-range coefficients              100000000
 Omega coefficients                           0
 if combine SR and LR in K                    0
 Integral screening is                        0
 Integral computing path is                   2
 max size of driver memory is            800000
 size of driver memory is                593474
 size of scratch memory is             15166112
 max col of scratch BK array               1296
 max len of scratch array in speh3          155
 max len of scratch index in speh4           18
 max int batch size is                      520
 min int batch size is                       52
 fixed nKL is                                52
 max L of basis functions is                  2
 order of int derivative is                   0
 number of shells is                        125
 number of basis is                         408
 number of cartesian basis is               408
 number of contracted shell pairs          5583
 number of primitive shell pairs          17936
 maxK2 (contraction) of shell pair           36
 max number of K2 of shell pair               1
 max number of CS2 of shell pair            818
 max number of PS2 of shell pair           4530
 mem total for path MDJ                  162648
 -------------------------------------------------------
 Smallest overlap matrix eigenvalue = 6.99E-07
 Linear dependence detected in AO basis
 Number of orthogonalized atomic orbitals = 407
 Maximum deviation from orthogonality = 2.728E-10

 Scale SEOQF with 1.000000e-02/1.000000e-01/1.000000e-01

 Standard Electronic Orientation quadrupole field applied
 Nucleus-field energy     =     0.0000000074 hartrees
 Guess from superposition of atomic densities
 Warning:  Energy on first SCF cycle will be non-variational
 A restricted Hartree-Fock SCF calculation will be
 performed using Pulay DIIS extrapolation
 SCF converges when DIIS error is below 1.0E-08
 -------------------------------------------------------
 OpenMP Integral computing Module                
 Release: version 1.0, May 2013, Q-Chem Inc. Pittsburgh 
 -------------------------------------------------------
 ---------------------------------------
  Cycle       Energy         DIIS Error
 ---------------------------------------
    1   -1480.3523673918      3.89E-02
    2   -1472.7108507907      5.24E-03
    3   -1473.0173274984      3.81E-03
    4   -1473.2370342832      5.37E-04
    5   -1473.2436331432      1.92E-04
    6   -1473.2444823639      5.48E-05
    7   -1473.2445799447      2.09E-05
    8   -1473.2446086786      9.58E-06
    9   -1473.2446150971      4.50E-06
   10   -1473.2446169855      1.79E-06
   11   -1473.2446173300      7.94E-07
   12   -1473.2446173767      3.19E-07
   13   -1473.2446173849      1.13E-07
   14   -1473.2446173857      4.07E-08
   15   -1473.2446173858      1.29E-08
   16   -1473.2446173858      4.66E-09 Convergence criterion met
 ---------------------------------------
 SCF time:  CPU 313.16 s  wall 79.33 s
 SCF   energy in the final basis set = -1473.2446173858
 Total energy in the final basis set = -1473.2446173858


 ------------------------------------------------------------------------------

   CCMAN2: suite of methods based on coupled cluster
           and equation of motion theories.

   Components:
   * libvmm-1.3-trunk
     by Evgeny Epifanovsky, Ilya Kaliman.
   * libtensor-2.5-release
     by Evgeny Epifanovsky, Michael Wormit, Dmitry Zuev, Sam Manzer, 
        Ilya Kaliman.
   * libcc-2.5-trunk
     by Evgeny Epifanovsky, Arik Landau, Tomasz Kus, Kirill Khistyaev, 
        Dmitry Zuev, Prashant Manohar, Xintian Feng, Anna Krylov, 
        Matthew Goldey, Alec White, Thomas Jagau, Kaushik Nanda, 
        Anastasia Gunina, Alexander Kunitsa, Joonho Lee.

   CCMAN original authors:
   Anna I. Krylov, C. David Sherrill, Steven R. Gwaltney,
   Edward F. C. Byrd (2000)
   Sergey V. Levchenko, Lyudmila V. Slipchenko, Tao Wang,
   Ana-Maria C. Cristian (2003)
   Piotr A. Pieniazek, C. Melania Oana, Evgeny Epifanovsky (2007)
   Prashant Manohar (2009)

 ------------------------------------------------------------------------------


================================================================================
This program uses libxm tensor contraction code.
See https://github.com/ilyak/libxm for more info.
libxm is (c) Ilya Kaliman 2014-2016.
================================================================================

 Calculation will run on 4 cores using libxm for tensor contractions

 
 Alpha MOs, Restricted
 -- Occupied --                  
-92.223 -26.386 -26.386 -26.384 -20.638 -20.587 -20.587 -20.575
  1 A     2 A     3 A     4 A     5 A     6 A     7 A     8 A                  
-15.645 -11.554 -11.443 -11.340 -11.308 -11.293 -11.292 -11.290
  9 A    10 A    11 A    12 A    13 A    14 A    15 A    16 A                  
-11.275 -11.264 -11.247 -11.237  -9.198  -6.884  -6.883  -6.883
 17 A    18 A    19 A    20 A    21 A    22 A    23 A    24 A                  
 -1.772  -1.674  -1.674  -1.502  -1.484  -1.394  -1.373  -1.300
 25 A    26 A    27 A    28 A    29 A    30 A    31 A    32 A                  
 -1.196  -1.097  -1.076  -1.064  -1.030  -0.974  -0.937  -0.895
 33 A    34 A    35 A    36 A    37 A    38 A    39 A    40 A                  
 -0.883  -0.859  -0.859  -0.842  -0.824  -0.806  -0.780  -0.756
 41 A    42 A    43 A    44 A    45 A    46 A    47 A    48 A                  
 -0.743  -0.740  -0.722  -0.717  -0.698  -0.695  -0.689  -0.678
 49 A    50 A    51 A    52 A    53 A    54 A    55 A    56 A                  
 -0.675  -0.671  -0.656  -0.649  -0.648  -0.634  -0.624  -0.600
 57 A    58 A    59 A    60 A    61 A    62 A    63 A    64 A                  
 -0.593  -0.568  -0.555  -0.544  -0.534  -0.526  -0.521  -0.509
 65 A    66 A    67 A    68 A    69 A    70 A    71 A    72 A                  
 -0.508  -0.498  -0.487  -0.484  -0.483  -0.465  -0.378  -0.352
 73 A    74 A    75 A    76 A    77 A    78 A    79 A    80 A                  
 -- Virtual --                   
  0.049   0.062   0.073   0.076   0.082   0.085   0.088   0.089
 81 A    82 A    83 A    84 A    85 A    86 A    87 A    88 A                  
  0.096   0.099   0.103   0.105   0.115   0.120   0.124   0.126
 89 A    90 A    91 A    92 A    93 A    94 A    95 A    96 A                  
  0.132   0.135   0.141   0.142   0.150   0.152   0.158   0.166
 97 A    98 A    99 A   100 A   101 A   102 A   103 A   104 A                  
  0.171   0.177   0.183   0.188   0.199   0.202   0.204   0.213
105 A   106 A   107 A   108 A   109 A   110 A   111 A   112 A                  
  0.218   0.220   0.226   0.229   0.236   0.241   0.245   0.250
113 A   114 A   115 A   116 A   117 A   118 A   119 A   120 A                  
  0.258   0.260   0.265   0.269   0.275   0.279   0.288   0.296
121 A   122 A   123 A   124 A   125 A   126 A   127 A   128 A                  
  0.298   0.306   0.307   0.317   0.319   0.324   0.327   0.332
129 A   130 A   131 A   132 A   133 A   134 A   135 A   136 A                  
  0.335   0.338   0.349   0.356   0.361   0.362   0.366   0.370
137 A   138 A   139 A   140 A   141 A   142 A   143 A   144 A                  
  0.381   0.383   0.386   0.390   0.395   0.399   0.406   0.409
145 A   146 A   147 A   148 A   149 A   150 A   151 A   152 A                  
  0.412   0.414   0.419   0.423   0.424   0.425   0.434   0.438
153 A   154 A   155 A   156 A   157 A   158 A   159 A   160 A                  
  0.442   0.444   0.447   0.449   0.458   0.464   0.468   0.471
161 A   162 A   163 A   164 A   165 A   166 A   167 A   168 A                  
  0.478   0.480   0.481   0.485   0.496   0.500   0.508   0.517
169 A   170 A   171 A   172 A   173 A   174 A   175 A   176 A                  
  0.523   0.530   0.532   0.537   0.543   0.567   0.579   0.584
177 A   178 A   179 A   180 A   181 A   182 A   183 A   184 A                  
  0.593   0.604   0.614   0.617   0.622   0.633   0.657   0.680
185 A   186 A   187 A   188 A   189 A   190 A   191 A   192 A                  
  0.738   0.752   0.766   0.783   0.802   0.832   0.838   0.841
193 A   194 A   195 A   196 A   197 A   198 A   199 A   200 A                  
  0.882   0.888   0.896   0.907   0.911   0.913   0.918   0.924
201 A   202 A   203 A   204 A   205 A   206 A   207 A   208 A                  
  0.934   0.943   0.960   0.979   0.987   1.007   1.016   1.017
209 A   210 A   211 A   212 A   213 A   214 A   215 A   216 A                  
  1.034   1.037   1.049   1.076   1.079   1.086   1.093   1.108
217 A   218 A   219 A   220 A   221 A   222 A   223 A   224 A                  
  1.123   1.139   1.164   1.167   1.172   1.177   1.194   1.199
225 A   226 A   227 A   228 A   229 A   230 A   231 A   232 A                  
  1.208   1.219   1.251   1.252   1.256   1.278   1.290   1.297
233 A   234 A   235 A   236 A   237 A   238 A   239 A   240 A                  
  1.309   1.316   1.331   1.342   1.353   1.365   1.380   1.387
241 A   242 A   243 A   244 A   245 A   246 A   247 A   248 A                  
  1.395   1.439   1.447   1.456   1.462   1.471   1.489   1.504
249 A   250 A   251 A   252 A   253 A   254 A   255 A   256 A                  
  1.512   1.520   1.529   1.554   1.558   1.569   1.573   1.587
257 A   258 A   259 A   260 A   261 A   262 A   263 A   264 A                  
  1.596   1.603   1.618   1.623   1.637   1.660   1.663   1.671
265 A   266 A   267 A   268 A   269 A   270 A   271 A   272 A                  
  1.677   1.680   1.695   1.705   1.716   1.742   1.744   1.764
273 A   274 A   275 A   276 A   277 A   278 A   279 A   280 A                  
  1.776   1.778   1.799   1.804   1.843   1.889   1.896   1.899
281 A   282 A   283 A   284 A   285 A   286 A   287 A   288 A                  
  1.913   1.919   1.932   1.952   1.953   1.972   1.973   1.979
289 A   290 A   291 A   292 A   293 A   294 A   295 A   296 A                  
  1.993   2.028   2.032   2.047   2.057   2.076   2.080   2.092
297 A   298 A   299 A   300 A   301 A   302 A   303 A   304 A                  
  2.097   2.105   2.115   2.123   2.130   2.142   2.151   2.156
305 A   306 A   307 A   308 A   309 A   310 A   311 A   312 A                  
  2.168   2.192   2.197   2.209   2.226   2.231   2.244   2.259
313 A   314 A   315 A   316 A   317 A   318 A   319 A   320 A                  
  2.269   2.274   2.287   2.298   2.312   2.324   2.331   2.343
321 A   322 A   323 A   324 A   325 A   326 A   327 A   328 A                  
  2.350   2.353   2.365   2.369   2.385   2.402   2.420   2.432
329 A   330 A   331 A   332 A   333 A   334 A   335 A   336 A                  
  2.450   2.454   2.461   2.486   2.496   2.512   2.525   2.537
337 A   338 A   339 A   340 A   341 A   342 A   343 A   344 A                  
  2.550   2.568   2.584   2.597   2.604   2.633   2.647   2.654
345 A   346 A   347 A   348 A   349 A   350 A   351 A   352 A                  
  2.672   2.688   2.706   2.718   2.731   2.732   2.804   2.840
353 A   354 A   355 A   356 A   357 A   358 A   359 A   360 A                  
  2.890   2.957   2.961   3.004   3.010   3.023   3.052   3.080
361 A   362 A   363 A   364 A   365 A   366 A   367 A   368 A                  
  3.091   3.110   3.123   3.154   3.161   3.173   3.219   3.252
369 A   370 A   371 A   372 A   373 A   374 A   375 A   376 A                  
  3.270   3.306   3.347   3.420   3.504   3.559   3.579   3.602
377 A   378 A   379 A   380 A   381 A   382 A   383 A   384 A                  
  3.615   3.709   3.794   4.360   4.596   4.658   4.660   4.718
385 A   386 A   387 A   388 A   389 A   390 A   391 A   392 A                  
  4.749   4.782   4.787   4.834   4.845   4.856   4.878   4.934
393 A   394 A   395 A   396 A   397 A   398 A   399 A   400 A                  
  4.970   5.026   5.095   5.174   6.200   6.236   6.846
401 A   402 A   403 A   404 A   405 A   406 A   407 A                          
 
 Beta MOs, Restricted
 -- Occupied --                  
-92.223 -26.386 -26.386 -26.384 -20.638 -20.587 -20.587 -20.575
  1 A     2 A     3 A     4 A     5 A     6 A     7 A     8 A                  
-15.645 -11.554 -11.443 -11.340 -11.308 -11.293 -11.292 -11.290
  9 A    10 A    11 A    12 A    13 A    14 A    15 A    16 A                  
-11.275 -11.264 -11.247 -11.237  -9.198  -6.884  -6.883  -6.883
 17 A    18 A    19 A    20 A    21 A    22 A    23 A    24 A                  
 -1.772  -1.674  -1.674  -1.502  -1.484  -1.394  -1.373  -1.300
 25 A    26 A    27 A    28 A    29 A    30 A    31 A    32 A                  
 -1.196  -1.097  -1.076  -1.064  -1.030  -0.974  -0.937  -0.895
 33 A    34 A    35 A    36 A    37 A    38 A    39 A    40 A                  
 -0.883  -0.859  -0.859  -0.842  -0.824  -0.806  -0.780  -0.756
 41 A    42 A    43 A    44 A    45 A    46 A    47 A    48 A                  
 -0.743  -0.740  -0.722  -0.717  -0.698  -0.695  -0.689  -0.678
 49 A    50 A    51 A    52 A    53 A    54 A    55 A    56 A                  
 -0.675  -0.671  -0.656  -0.649  -0.648  -0.634  -0.624  -0.600
 57 A    58 A    59 A    60 A    61 A    62 A    63 A    64 A                  
 -0.593  -0.568  -0.555  -0.544  -0.534  -0.526  -0.521  -0.509
 65 A    66 A    67 A    68 A    69 A    70 A    71 A    72 A                  
 -0.508  -0.498  -0.487  -0.484  -0.483  -0.465  -0.378  -0.352
 73 A    74 A    75 A    76 A    77 A    78 A    79 A    80 A                  
 -- Virtual --                   
  0.049   0.062   0.073   0.076   0.082   0.085   0.088   0.089
 81 A    82 A    83 A    84 A    85 A    86 A    87 A    88 A                  
  0.096   0.099   0.103   0.105   0.115   0.120   0.124   0.126
 89 A    90 A    91 A    92 A    93 A    94 A    95 A    96 A                  
  0.132   0.135   0.141   0.142   0.150   0.152   0.158   0.166
 97 A    98 A    99 A   100 A   101 A   102 A   103 A   104 A                  
  0.171   0.177   0.183   0.188   0.199   0.202   0.204   0.213
105 A   106 A   107 A   108 A   109 A   110 A   111 A   112 A                  
  0.218   0.220   0.226   0.229   0.236   0.241   0.245   0.250
113 A   114 A   115 A   116 A   117 A   118 A   119 A   120 A                  
  0.258   0.260   0.265   0.269   0.275   0.279   0.288   0.296
121 A   122 A   123 A   124 A   125 A   126 A   127 A   128 A                  
  0.298   0.306   0.307   0.317   0.319   0.324   0.327   0.332
129 A   130 A   131 A   132 A   133 A   134 A   135 A   136 A                  
  0.335   0.338   0.349   0.356   0.361   0.362   0.366   0.370
137 A   138 A   139 A   140 A   141 A   142 A   143 A   144 A                  
  0.381   0.383   0.386   0.390   0.395   0.399   0.406   0.409
145 A   146 A   147 A   148 A   149 A   150 A   151 A   152 A                  
  0.412   0.414   0.419   0.423   0.424   0.425   0.434   0.438
153 A   154 A   155 A   156 A   157 A   158 A   159 A   160 A                  
  0.442   0.444   0.447   0.449   0.458   0.464   0.468   0.471
161 A   162 A   163 A   164 A   165 A   166 A   167 A   168 A                  
  0.478   0.480   0.481   0.485   0.496   0.500   0.508   0.517
169 A   170 A   171 A   172 A   173 A   174 A   175 A   176 A                  
  0.523   0.530   0.532   0.537   0.543   0.567   0.579   0.584
177 A   178 A   179 A   180 A   181 A   182 A   183 A   184 A                  
  0.593   0.604   0.614   0.617   0.622   0.633   0.657   0.680
185 A   186 A   187 A   188 A   189 A   190 A   191 A   192 A                  
  0.738   0.752   0.766   0.783   0.802   0.832   0.838   0.841
193 A   194 A   195 A   196 A   197 A   198 A   199 A   200 A                  
  0.882   0.888   0.896   0.907   0.911   0.913   0.918   0.924
201 A   202 A   203 A   204 A   205 A   206 A   207 A   208 A                  
  0.934   0.943   0.960   0.979   0.987   1.007   1.016   1.017
209 A   210 A   211 A   212 A   213 A   214 A   215 A   216 A                  
  1.034   1.037   1.049   1.076   1.079   1.086   1.093   1.108
217 A   218 A   219 A   220 A   221 A   222 A   223 A   224 A                  
  1.123   1.139   1.164   1.167   1.172   1.177   1.194   1.199
225 A   226 A   227 A   228 A   229 A   230 A   231 A   232 A                  
  1.208   1.219   1.251   1.252   1.256   1.278   1.290   1.297
233 A   234 A   235 A   236 A   237 A   238 A   239 A   240 A                  
  1.309   1.316   1.331   1.342   1.353   1.365   1.380   1.387
241 A   242 A   243 A   244 A   245 A   246 A   247 A   248 A                  
  1.395   1.439   1.447   1.456   1.462   1.471   1.489   1.504
249 A   250 A   251 A   252 A   253 A   254 A   255 A   256 A                  
  1.512   1.520   1.529   1.554   1.558   1.569   1.573   1.587
257 A   258 A   259 A   260 A   261 A   262 A   263 A   264 A                  
  1.596   1.603   1.618   1.623   1.637   1.660   1.663   1.671
265 A   266 A   267 A   268 A   269 A   270 A   271 A   272 A                  
  1.677   1.680   1.695   1.705   1.716   1.742   1.744   1.764
273 A   274 A   275 A   276 A   277 A   278 A   279 A   280 A                  
  1.776   1.778   1.799   1.804   1.843   1.889   1.896   1.899
281 A   282 A   283 A   284 A   285 A   286 A   287 A   288 A                  
  1.913   1.919   1.932   1.952   1.953   1.972   1.973   1.979
289 A   290 A   291 A   292 A   293 A   294 A   295 A   296 A                  
  1.993   2.028   2.032   2.047   2.057   2.076   2.080   2.092
297 A   298 A   299 A   300 A   301 A   302 A   303 A   304 A                  
  2.097   2.105   2.115   2.123   2.130   2.142   2.151   2.156
305 A   306 A   307 A   308 A   309 A   310 A   311 A   312 A                  
  2.168   2.192   2.197   2.209   2.226   2.231   2.244   2.259
313 A   314 A   315 A   316 A   317 A   318 A   319 A   320 A                  
  2.269   2.274   2.287   2.298   2.312   2.324   2.331   2.343
321 A   322 A   323 A   324 A   325 A   326 A   327 A   328 A                  
  2.350   2.353   2.365   2.369   2.385   2.402   2.420   2.432
329 A   330 A   331 A   332 A   333 A   334 A   335 A   336 A                  
  2.450   2.454   2.461   2.486   2.496   2.512   2.525   2.537
337 A   338 A   339 A   340 A   341 A   342 A   343 A   344 A                  
  2.550   2.568   2.584   2.597   2.604   2.633   2.647   2.654
345 A   346 A   347 A   348 A   349 A   350 A   351 A   352 A                  
  2.672   2.688   2.706   2.718   2.731   2.732   2.804   2.840
353 A   354 A   355 A   356 A   357 A   358 A   359 A   360 A                  
  2.890   2.957   2.961   3.004   3.010   3.023   3.052   3.080
361 A   362 A   363 A   364 A   365 A   366 A   367 A   368 A                  
  3.091   3.110   3.123   3.154   3.161   3.173   3.219   3.252
369 A   370 A   371 A   372 A   373 A   374 A   375 A   376 A                  
  3.270   3.306   3.347   3.420   3.504   3.559   3.579   3.602
377 A   378 A   379 A   380 A   381 A   382 A   383 A   384 A                  
  3.615   3.709   3.794   4.360   4.596   4.658   4.660   4.718
385 A   386 A   387 A   388 A   389 A   390 A   391 A   392 A                  
  4.749   4.782   4.787   4.834   4.845   4.856   4.878   4.934
393 A   394 A   395 A   396 A   397 A   398 A   399 A   400 A                  
  4.970   5.026   5.095   5.174   6.200   6.236   6.846
401 A   402 A   403 A   404 A   405 A   406 A   407 A                          

 Occupation and symmetry of molecular orbitals

 Point group: C1 (1 irreducible representation).

                           A     All 
 -------------------------------------
 All molecular orbitals:
  - Alpha                  407   407 
  - Beta                   407   407 
 -------------------------------------
 Alpha orbitals:
  - Frozen occupied        24    24  
  - Active occupied        56    56  
  - Active virtual         327   327 
  - Frozen virtual         0     0   
 -------------------------------------
 Beta orbitals:
  - Frozen occupied        24    24  
  - Active occupied        56    56  
  - Active virtual         327   327 
  - Frozen virtual         0     0   
 -------------------------------------

 Import integrals:   CPU 0.00 s  wall 0.00 s

 Import integrals:   CPU 2221.69 s  wall 1117.32 s

 MP2 amplitudes:   CPU 38.27 s  wall 117.34 s

           CCSD T amplitudes will be solved using DIIS.

           Start     Size      MaxIter   EConv     TConv     
           3         7         100       1.00e-06  1.00e-04  
 ------------------------------------------------------------------------------
           Energy (a.u.)   Ediff      Tdiff       Comment
 ------------------------------------------------------------------------------
         -1476.21387442                           
     1   -1476.17549867   3.84e-02   1.56e+00     Step took 1:18.12.
     2   -1476.27356116   9.81e-02   2.17e-01     
     3   -1476.26839788   5.16e-03   8.47e-02     
     4   -1476.27854172   1.01e-02   3.24e-02     Switched to DIIS steps.
     5   -1476.28204492   3.50e-03   1.90e-02     
     6   -1476.28231076   2.66e-04   4.14e-03     
     7   -1476.28231384   3.08e-06   2.08e-03     
     8   -1476.28230457   9.27e-06   6.52e-04     
     9   -1476.28230839   3.82e-06   2.89e-04     
    10   -1476.28230925   8.62e-07   8.75e-05     
 ------------------------------------------------------------------------------
         -1476.28230925                           CCSD T converged.


 ------------------------------------------------------------------------------
 == (T) code is based on LIBPT ==
 == Author: Ilya Kaliman, 2016 ==

 Starting (T) calculation...
 (T) calculation completed in 202516 sec
 ------------------------------------------------------------------------------

 SCF energy                 = -1473.24461739
 MP2 energy                 = -1476.21387442
 CCSD correlation energy     =    -3.03769187
 CCSD total energy           = -1476.28230925
 CCSD(T) correlation energy =    -0.11526765
 CCSD(T) total energy       = -1476.39757691

 CCSD  T1^2 = 0.0542  T2^2 = 0.9941  Leading amplitudes:

 Amplitude    Orbitals with energies
  0.0268       75 (A) A                  ->    82 (A) A                   
              -0.4867                          0.0616                     
  0.0268       75 (A) B                  ->    82 (A) B                   
              -0.4867                          0.0616                     
 -0.0242       52 (A) A                  ->    110 (A) A                  
              -0.7170                          0.2017                     
 -0.0242       52 (A) B                  ->    110 (A) B                  
              -0.7170                          0.2017                     

 Amplitude    Orbitals with energies
 -0.0441       80 (A) A      80 (A) B    ->    82 (A) A      82 (A) B     
              -0.3522       -0.3522            0.0616        0.0616       
  0.0441       80 (A) A      80 (A) B    ->    82 (A) B      82 (A) A     
              -0.3522       -0.3522            0.0616        0.0616       
  0.0441       80 (A) B      80 (A) A    ->    82 (A) A      82 (A) B     
              -0.3522       -0.3522            0.0616        0.0616       
 -0.0441       80 (A) B      80 (A) A    ->    82 (A) B      82 (A) A     
              -0.3522       -0.3522            0.0616        0.0616       

 CCSD calculation:   CPU 924551.78 s  wall 254640.93 s

 Total ccman2 time:   CPU 926853.13 s  wall 255903.30 s

 
 --------------------------------------------------------------
 
                    Orbital Energies (a.u.)
 --------------------------------------------------------------
 
 Alpha MOs
 -- Occupied --
-92.223 -26.386 -26.386 -26.384 -20.638 -20.587 -20.587 -20.575
-15.645 -11.554 -11.443 -11.340 -11.308 -11.293 -11.292 -11.290
-11.275 -11.264 -11.247 -11.237  -9.198  -6.884  -6.883  -6.883
 -1.772  -1.674  -1.674  -1.502  -1.484  -1.394  -1.373  -1.300
 -1.196  -1.097  -1.076  -1.064  -1.030  -0.974  -0.937  -0.895
 -0.883  -0.859  -0.859  -0.842  -0.824  -0.806  -0.780  -0.756
 -0.743  -0.740  -0.722  -0.717  -0.698  -0.695  -0.689  -0.678
 -0.675  -0.671  -0.656  -0.649  -0.648  -0.634  -0.624  -0.600
 -0.593  -0.568  -0.555  -0.544  -0.534  -0.526  -0.521  -0.509
 -0.508  -0.498  -0.487  -0.484  -0.483  -0.465  -0.378  -0.352
 -- Virtual --
  0.049   0.062   0.073   0.076   0.082   0.085   0.088   0.089
  0.096   0.099   0.103   0.105   0.115   0.120   0.124   0.126
  0.132   0.135   0.141   0.142   0.150   0.152   0.158   0.166
  0.171   0.177   0.183   0.188   0.199   0.202   0.204   0.213
  0.218   0.220   0.226   0.229   0.236   0.241   0.245   0.250
  0.258   0.260   0.265   0.269   0.275   0.279   0.288   0.296
  0.298   0.306   0.307   0.317   0.319   0.324   0.327   0.332
  0.335   0.338   0.349   0.356   0.361   0.362   0.366   0.370
  0.381   0.383   0.386   0.390   0.395   0.399   0.406   0.409
  0.412   0.414   0.419   0.423   0.424   0.425   0.434   0.438
  0.442   0.444   0.447   0.449   0.458   0.464   0.468   0.471
  0.478   0.480   0.481   0.485   0.496   0.500   0.508   0.517
  0.523   0.530   0.532   0.537   0.543   0.567   0.579   0.584
  0.593   0.604   0.614   0.617   0.622   0.633   0.657   0.680
  0.738   0.752   0.766   0.783   0.802   0.832   0.838   0.841
  0.882   0.888   0.896   0.907   0.911   0.913   0.918   0.924
  0.934   0.943   0.960   0.979   0.987   1.007   1.016   1.017
  1.034   1.037   1.049   1.076   1.079   1.086   1.093   1.108
  1.123   1.139   1.164   1.167   1.172   1.177   1.194   1.199
  1.208   1.219   1.251   1.252   1.256   1.278   1.290   1.297
  1.309   1.316   1.331   1.342   1.353   1.365   1.380   1.387
  1.395   1.439   1.447   1.456   1.462   1.471   1.489   1.504
  1.512   1.520   1.529   1.554   1.558   1.569   1.573   1.587
  1.596   1.603   1.618   1.623   1.637   1.660   1.663   1.671
  1.677   1.680   1.695   1.705   1.716   1.742   1.744   1.764
  1.776   1.778   1.799   1.804   1.843   1.889   1.896   1.899
  1.913   1.919   1.932   1.952   1.953   1.972   1.973   1.979
  1.993   2.028   2.032   2.047   2.057   2.076   2.080   2.092
  2.097   2.105   2.115   2.123   2.130   2.142   2.151   2.156
  2.168   2.192   2.197   2.209   2.226   2.231   2.244   2.259
  2.269   2.274   2.287   2.298   2.312   2.324   2.331   2.343
  2.350   2.353   2.365   2.369   2.385   2.402   2.420   2.432
  2.450   2.454   2.461   2.486   2.496   2.512   2.525   2.537
  2.550   2.568   2.584   2.597   2.604   2.633   2.647   2.654
  2.672   2.688   2.706   2.718   2.731   2.732   2.804   2.840
  2.890   2.957   2.961   3.004   3.010   3.023   3.052   3.080
  3.091   3.110   3.123   3.154   3.161   3.173   3.219   3.252
  3.270   3.306   3.347   3.420   3.504   3.559   3.579   3.602
  3.615   3.709   3.794   4.360   4.596   4.658   4.660   4.718
  4.749   4.782   4.787   4.834   4.845   4.856   4.878   4.934
  4.970   5.026   5.095   5.174   6.200   6.236   6.846
 --------------------------------------------------------------
 
          Ground-State Mulliken Net Atomic Charges

     Atom                 Charge (a.u.)
  ----------------------------------------
      1 C                     0.227750
      2 N                    -0.920845
      3 C                     0.758136
      4 O                    -0.579714
      5 O                    -0.475668
      6 C                     0.044990
      7 C                    -0.280336
      8 C                    -0.690083
      9 C                     0.044333
     10 C                     0.072292
     11 C                    -0.353439
     12 C                    -0.128941
     13 C                    -1.083891
     14 H                     0.501092
     15 H                     0.213339
     16 H                     0.212829
     17 H                     0.204853
     18 H                     0.205079
     19 H                     0.196911
     20 H                     0.205365
     21 H                     0.196983
     22 H                     0.318586
     23 C                     1.123088
     24 H                     0.297538
     25 H                     0.241638
     26 F                    -0.362545
     27 F                    -0.367719
     28 F                    -0.358399
     29 S                     1.498455
     30 O                    -0.625344
     31 O                    -0.634633
     32 H                     0.298302
  ----------------------------------------
  Sum of atomic charges =     0.000000

 -----------------------------------------------------------------
                    Cartesian Multipole Moments
 -----------------------------------------------------------------
    Charge (ESU x 10^10)
                -0.0000
    Dipole Moment (Debye)
         X       7.9356      Y      -2.0617      Z      -2.6265
       Tot       8.6094
    Quadrupole Moments (Debye-Ang)
        XX    -124.5107     XY      -7.0490     YY    -122.9701
        XZ       5.9458     YZ       1.0994     ZZ    -128.6415
    Octopole Moments (Debye-Ang^2)
       XXX     215.0212    XXY      12.4458    XYY     -11.7747
       YYY       0.0696    XXZ     -55.9911    XYZ      -3.3526
       YYZ     -16.9740    XZZ      -2.7721    YZZ       4.3632
       ZZZ     -27.8508
    Hexadecapole Moments (Debye-Ang^3)
      XXXX  -11606.2546   XXXY    -108.6823   XXYY   -2274.9072
      XYYY     -84.8905   YYYY    -701.2896   XXXZ     202.3710
      XXYZ     -24.4238   XYYZ      33.3040   YYYZ      14.8697
      XXZZ   -2202.6157   XYZZ      -5.7730   YYZZ    -225.2153
      XZZZ     112.7817   YZZZ     -18.2459   ZZZZ    -595.6291
 -----------------------------------------------------------------
Archival summary:
1\1\r4229\SP\ProcedureUnspecified\6-31+G*\13411112\hio507\ThuDec1211:03:552019ThuDec1211:03:552019\0\\#,ProcedureUnspecified,6-31+G*,\\0,1\S\O,1,1.44683\O,1,1.44748,2,122.87\C,1,1.76039,2,109.889,3,-131.339,0\C,4,1.39048,1,119.419,2,-22.1855,0\H,5,1.08397,4,119.815,1,2.08312,0\C,5,1.38619,4,119.866,1,-178.649,0\H,7,1.0789,5,120.435,4,-179.673,0\C,4,1.39261,1,119.107,2,159.052,0\H,9,1.08373,4,120.162,1,-2.07929,0\C,9,1.38068,4,118.72,1,178.697,0\H,11,1.085,9,119.666,4,179.569,0\C,7,1.40163,5,119.355,4,0.00208244,0\N,13,1.39372,7,123.205,5,-179.876,0\H,14,1.0096,13,117.302,7,179.585,0\C,14,1.37685,13,127.751,7,-0.113905,0\O,16,1.20217,14,126.429,13,-0.325145,0\O,16,1.34111,14,108.684,13,179.684,0\C,18,1.4374,16,115.43,14,179.999,0\H,19,1.09261,18,108.737,16,58.3871,0\H,19,1.09264,18,108.74,16,-58.8828,0\C,19,1.51315,18,107.686,16,179.735,0\H,22,1.09334,19,109.029,18,58.2518,0\H,22,1.09334,19,108.994,18,-58.2442,0\C,22,1.52631,19,110.882,18,-179.985,0\H,25,1.09056,22,111.002,19,179.91,0\H,25,1.09265,22,111.308,19,-60.1869,0\H,25,1.09265,22,111.305,19,60.0106,0\C,1,1.86679,2,105.129,3,119.756,0\F,29,1.32081,1,109.096,2,-65.5511,0\F,29,1.32616,1,109.977,2,54.513,0\F,29,1.32698,1,109.946,2,174.46,0\\HF=-1473.24462\\@

 Total job time:  255986.04s(wall), 927169.00s(cpu) 
 Thu Dec 12 11:03:55 2019

        *************************************************************
        *                                                           *
        *  Thank you very much for using Q-Chem.  Have a nice day.  *
        *                                                           *
        *************************************************************


0 sent ACK to 0 
now end server 0 ... 
