 Entering Gaussian System, Link 0=/apps/gaussian/g09e01/g09/g09
 Initial command:
 /apps/gaussian/g09e01/g09/l1.exe "/jobfs/local/3588708.r-man2/Gau-41880.inp" -scrdir="/jobfs/local/3588708.r-man2/"
 Entering Link 1 = /apps/gaussian/g09e01/g09/l1.exe PID=     41882.
  
 Copyright (c) 1988,1990,1992,1993,1995,1998,2003,2009,2015,
            Gaussian, Inc.  All Rights Reserved.
  
 This is part of the Gaussian(R) 09 program.  It is based on
 the Gaussian(R) 03 system (copyright 2003, Gaussian, Inc.),
 the Gaussian(R) 98 system (copyright 1998, Gaussian, Inc.),
 the Gaussian(R) 94 system (copyright 1995, Gaussian, Inc.),
 the Gaussian 92(TM) system (copyright 1992, Gaussian, Inc.),
 the Gaussian 90(TM) system (copyright 1990, Gaussian, Inc.),
 the Gaussian 88(TM) system (copyright 1988, Gaussian, Inc.),
 the Gaussian 86(TM) system (copyright 1986, Carnegie Mellon
 University), and the Gaussian 82(TM) system (copyright 1983,
 Carnegie Mellon University). Gaussian is a federally registered
 trademark of Gaussian, Inc.
  
 This software contains proprietary and confidential information,
 including trade secrets, belonging to Gaussian, Inc.
  
 This software is provided under written license and may be
 used, copied, transmitted, or stored only in accord with that
 written license.
  
 The following legend is applicable only to US Government
 contracts under FAR:
  
                    RESTRICTED RIGHTS LEGEND
  
 Use, reproduction and disclosure by the US Government is
 subject to restrictions as set forth in subparagraphs (a)
 and (c) of the Commercial Computer Software - Restricted
 Rights clause in FAR 52.227-19.
  
 Gaussian, Inc.
 340 Quinnipiac St., Bldg. 40, Wallingford CT 06492
  
  
 ---------------------------------------------------------------
 Warning -- This program may not be used in any manner that
 competes with the business of Gaussian, Inc. or will provide
 assistance to any competitor of Gaussian, Inc.  The licensee
 of this program is prohibited from giving any competitor of
 Gaussian, Inc. access to this program.  By using this program,
 the user acknowledges that Gaussian, Inc. is engaged in the
 business of creating and licensing software in the field of
 computational chemistry and represents and warrants to the
 licensee that it is not a competitor of Gaussian, Inc. and that
 it will not use this program in any manner prohibited above.
 ---------------------------------------------------------------
  

 Cite this work as:
 Gaussian 09, Revision E.01,
 M. J. Frisch, G. W. Trucks, H. B. Schlegel, G. E. Scuseria, 
 M. A. Robb, J. R. Cheeseman, G. Scalmani, V. Barone, B. Mennucci, 
 G. A. Petersson, H. Nakatsuji, M. Caricato, X. Li, H. P. Hratchian, 
 A. F. Izmaylov, J. Bloino, G. Zheng, J. L. Sonnenberg, M. Hada, 
 M. Ehara, K. Toyota, R. Fukuda, J. Hasegawa, M. Ishida, T. Nakajima, 
 Y. Honda, O. Kitao, H. Nakai, T. Vreven, J. A. Montgomery, Jr., 
 J. E. Peralta, F. Ogliaro, M. Bearpark, J. J. Heyd, E. Brothers, 
 K. N. Kudin, V. N. Staroverov, T. Keith, R. Kobayashi, J. Normand, 
 K. Raghavachari, A. Rendell, J. C. Burant, S. S. Iyengar, J. Tomasi, 
 M. Cossi, N. Rega, J. M. Millam, M. Klene, J. E. Knox, J. B. Cross, 
 V. Bakken, C. Adamo, J. Jaramillo, R. Gomperts, R. E. Stratmann, 
 O. Yazyev, A. J. Austin, R. Cammi, C. Pomelli, J. W. Ochterski, 
 R. L. Martin, K. Morokuma, V. G. Zakrzewski, G. A. Voth, 
 P. Salvador, J. J. Dannenberg, S. Dapprich, A. D. Daniels, 
 O. Farkas, J. B. Foresman, J. V. Ortiz, J. Cioslowski, 
 and D. J. Fox, Gaussian, Inc., Wallingford CT, 2013.
 
 ******************************************
 Gaussian 09:  ES64L-G09RevE.01 30-Nov-2015
                14-Nov-2019 
 ******************************************
 %chk=CP21CA.M062X_6-311pGd_opt_GD3.chk
 %mem=196608000
 %nproc=4
 Will use up to    4 processors via shared memory.
 ----------------------------------------------------------------------
 # M062X/6-311+G* SCF=Tight INT(grid=ultrafine) OPT IOP(2/17=4) Empiric
 alDispersion=GD3 maxdisk=2684354560
 ----------------------------------------------------------------------
 1/14=-1,18=20,19=15,26=4,38=1/1,3;
 2/9=110,12=2,17=4,18=5,40=1/2;
 3/5=4,6=6,7=11,11=2,16=1,25=1,30=1,71=1,74=-55,75=-5,124=31/1,2,3;
 4//1;
 5/5=2,32=2,38=5/2;
 6/7=2,8=2,9=2,10=2,28=1/1;
 7//1,2,3,16;
 1/14=-1,18=20,19=15,26=4/3(2);
 2/9=110,17=4/2;
 99//99;
 2/9=110,17=4/2;
 3/5=4,6=6,7=11,11=2,16=1,25=1,30=1,71=1,74=-55,75=-5,124=31/1,2,3;
 4/5=5,16=3,69=1/1;
 5/5=2,32=2,38=5/2;
 7//1,2,3,16;
 1/14=-1,18=20,19=15,26=4/3(-5);
 2/9=110,17=4/2;
 6/7=2,8=2,9=2,10=2,19=2,28=1/1;
 99/9=1/99;
 -----------------------------
 CP21CA.M062X_6-311pGd_opt_GD3
 -----------------------------
 Symbolic Z-matrix:
 Charge =  0 Multiplicity = 1
 C                    -6.06358   1.35425   0.32729 
 N                    -4.7938    0.79482   0.19633 
 C                    -3.58751   1.45295   0.11001 
 O                    -3.4209    2.64339   0.12778 
 O                    -2.60847   0.54294   0.00075 
 C                    -1.27776   1.077    -0.09971 
 C                    -0.32089  -0.09023  -0.20735 
 C                     1.12133   0.397    -0.31794 
 C                    -6.29054   2.73576   0.39408 
 C                    -7.58786   3.20564   0.52708 
 C                    -8.64659   2.30663   0.5927 
 C                    -8.43725   0.9313    0.52949 
 C                    -7.1454    0.46218   0.39793 
 H                    -4.73266  -0.21239   0.16336 
 H                    -1.07669   1.68694   0.78423 
 H                    -1.22583   1.72761  -0.97601 
 H                    -0.58839  -0.69111  -1.08072 
 H                    -0.44072  -0.73073   0.6706 
 H                     1.2621    1.02345  -1.20203 
 H                     1.81286  -0.44283  -0.39404 
 H                     1.40966   0.9856    0.5563 
 H                    -5.46173   3.42492   0.34755 
 C                    -10.77506   3.11143  -1.06722 
 H                    -9.27671   0.24912   0.59591 
 H                    -6.96404  -0.60666   0.35424 
 F                    -10.70284   1.93928  -1.68506 
 F                    -12.01275   3.56765  -1.13449 
 F                    -9.95633   3.9651   -1.66688 
 S                    -10.29238   2.91711   0.72559 
 O                    -10.27703   4.2614    1.26037 
 O                    -11.15849   1.8772    1.23906 
 H                    -7.78015   4.27043   0.59217 
 

 GradGradGradGradGradGradGradGradGradGradGradGradGradGradGradGradGradGrad
 Berny optimization.
 Initialization pass.
                           ----------------------------
                           !    Initial Parameters    !
                           ! (Angstroms and Degrees)  !
 --------------------------                            --------------------------
 ! Name  Definition              Value          Derivative Info.                !
 --------------------------------------------------------------------------------
 ! R1    R(1,2)                  1.3937         estimate D2E/DX2                !
 ! R2    R(1,9)                  1.4016         estimate D2E/DX2                !
 ! R3    R(1,13)                 1.404          estimate D2E/DX2                !
 ! R4    R(2,3)                  1.3769         estimate D2E/DX2                !
 ! R5    R(2,14)                 1.0096         estimate D2E/DX2                !
 ! R6    R(3,4)                  1.2022         estimate D2E/DX2                !
 ! R7    R(3,5)                  1.3411         estimate D2E/DX2                !
 ! R8    R(5,6)                  1.4374         estimate D2E/DX2                !
 ! R9    R(6,7)                  1.5131         estimate D2E/DX2                !
 ! R10   R(6,15)                 1.0926         estimate D2E/DX2                !
 ! R11   R(6,16)                 1.0926         estimate D2E/DX2                !
 ! R12   R(7,8)                  1.5263         estimate D2E/DX2                !
 ! R13   R(7,17)                 1.0933         estimate D2E/DX2                !
 ! R14   R(7,18)                 1.0933         estimate D2E/DX2                !
 ! R15   R(8,19)                 1.0926         estimate D2E/DX2                !
 ! R16   R(8,20)                 1.0906         estimate D2E/DX2                !
 ! R17   R(8,21)                 1.0927         estimate D2E/DX2                !
 ! R18   R(9,10)                 1.3862         estimate D2E/DX2                !
 ! R19   R(9,22)                 1.0789         estimate D2E/DX2                !
 ! R20   R(10,11)                1.3905         estimate D2E/DX2                !
 ! R21   R(10,32)                1.084          estimate D2E/DX2                !
 ! R22   R(11,12)                1.3926         estimate D2E/DX2                !
 ! R23   R(11,29)                1.7604         estimate D2E/DX2                !
 ! R24   R(12,13)                1.3807         estimate D2E/DX2                !
 ! R25   R(12,24)                1.0837         estimate D2E/DX2                !
 ! R26   R(13,25)                1.085          estimate D2E/DX2                !
 ! R27   R(23,26)                1.327          estimate D2E/DX2                !
 ! R28   R(23,27)                1.3208         estimate D2E/DX2                !
 ! R29   R(23,28)                1.3262         estimate D2E/DX2                !
 ! R30   R(23,29)                1.8668         estimate D2E/DX2                !
 ! R31   R(29,30)                1.4468         estimate D2E/DX2                !
 ! R32   R(29,31)                1.4475         estimate D2E/DX2                !
 ! A1    A(2,1,9)              123.2052         estimate D2E/DX2                !
 ! A2    A(2,1,13)             116.8534         estimate D2E/DX2                !
 ! A3    A(9,1,13)             119.941          estimate D2E/DX2                !
 ! A4    A(1,2,3)              127.7514         estimate D2E/DX2                !
 ! A5    A(1,2,14)             117.3021         estimate D2E/DX2                !
 ! A6    A(3,2,14)             114.9459         estimate D2E/DX2                !
 ! A7    A(2,3,4)              126.429          estimate D2E/DX2                !
 ! A8    A(2,3,5)              108.684          estimate D2E/DX2                !
 ! A9    A(4,3,5)              124.887          estimate D2E/DX2                !
 ! A10   A(3,5,6)              115.4304         estimate D2E/DX2                !
 ! A11   A(5,6,7)              107.6855         estimate D2E/DX2                !
 ! A12   A(5,6,15)             108.7372         estimate D2E/DX2                !
 ! A13   A(5,6,16)             108.7405         estimate D2E/DX2                !
 ! A14   A(7,6,15)             111.8265         estimate D2E/DX2                !
 ! A15   A(7,6,16)             111.8526         estimate D2E/DX2                !
 ! A16   A(15,6,16)            107.9201         estimate D2E/DX2                !
 ! A17   A(6,7,8)              110.8816         estimate D2E/DX2                !
 ! A18   A(6,7,17)             109.0293         estimate D2E/DX2                !
 ! A19   A(6,7,18)             108.9941         estimate D2E/DX2                !
 ! A20   A(8,7,17)             110.4103         estimate D2E/DX2                !
 ! A21   A(8,7,18)             110.4108         estimate D2E/DX2                !
 ! A22   A(17,7,18)            107.018          estimate D2E/DX2                !
 ! A23   A(7,8,19)             111.3081         estimate D2E/DX2                !
 ! A24   A(7,8,20)             111.002          estimate D2E/DX2                !
 ! A25   A(7,8,21)             111.3051         estimate D2E/DX2                !
 ! A26   A(19,8,20)            107.6595         estimate D2E/DX2                !
 ! A27   A(19,8,21)            107.7307         estimate D2E/DX2                !
 ! A28   A(20,8,21)            107.6586         estimate D2E/DX2                !
 ! A29   A(1,9,10)             119.3553         estimate D2E/DX2                !
 ! A30   A(1,9,22)             120.2084         estimate D2E/DX2                !
 ! A31   A(10,9,22)            120.4355         estimate D2E/DX2                !
 ! A32   A(9,10,11)            119.8656         estimate D2E/DX2                !
 ! A33   A(9,10,32)            120.315          estimate D2E/DX2                !
 ! A34   A(11,10,32)           119.8153         estimate D2E/DX2                !
 ! A35   A(10,11,12)           121.4618         estimate D2E/DX2                !
 ! A36   A(10,11,29)           119.4189         estimate D2E/DX2                !
 ! A37   A(12,11,29)           119.1074         estimate D2E/DX2                !
 ! A38   A(11,12,13)           118.7201         estimate D2E/DX2                !
 ! A39   A(11,12,24)           120.1616         estimate D2E/DX2                !
 ! A40   A(13,12,24)           121.1136         estimate D2E/DX2                !
 ! A41   A(1,13,12)            120.6561         estimate D2E/DX2                !
 ! A42   A(1,13,25)            119.6769         estimate D2E/DX2                !
 ! A43   A(12,13,25)           119.6662         estimate D2E/DX2                !
 ! A44   A(26,23,27)           109.4142         estimate D2E/DX2                !
 ! A45   A(26,23,28)           108.9338         estimate D2E/DX2                !
 ! A46   A(26,23,29)           109.9457         estimate D2E/DX2                !
 ! A47   A(27,23,28)           109.46           estimate D2E/DX2                !
 ! A48   A(27,23,29)           109.0962         estimate D2E/DX2                !
 ! A49   A(28,23,29)           109.9767         estimate D2E/DX2                !
 ! A50   A(11,29,23)           101.8488         estimate D2E/DX2                !
 ! A51   A(11,29,30)           109.8888         estimate D2E/DX2                !
 ! A52   A(11,29,31)           109.6964         estimate D2E/DX2                !
 ! A53   A(23,29,30)           105.1292         estimate D2E/DX2                !
 ! A54   A(23,29,31)           105.1142         estimate D2E/DX2                !
 ! A55   A(30,29,31)           122.8705         estimate D2E/DX2                !
 ! D1    D(9,1,2,3)             -0.1139         estimate D2E/DX2                !
 ! D2    D(9,1,2,14)           179.5852         estimate D2E/DX2                !
 ! D3    D(13,1,2,3)          -179.8683         estimate D2E/DX2                !
 ! D4    D(13,1,2,14)           -0.1692         estimate D2E/DX2                !
 ! D5    D(2,1,9,10)          -179.8755         estimate D2E/DX2                !
 ! D6    D(2,1,9,22)            -0.1999         estimate D2E/DX2                !
 ! D7    D(13,1,9,10)           -0.1284         estimate D2E/DX2                !
 ! D8    D(13,1,9,22)          179.5473         estimate D2E/DX2                !
 ! D9    D(2,1,13,12)          179.9372         estimate D2E/DX2                !
 ! D10   D(2,1,13,25)            0.2782         estimate D2E/DX2                !
 ! D11   D(9,1,13,12)            0.1743         estimate D2E/DX2                !
 ! D12   D(9,1,13,25)         -179.4847         estimate D2E/DX2                !
 ! D13   D(1,2,3,4)             -0.3251         estimate D2E/DX2                !
 ! D14   D(1,2,3,5)            179.6835         estimate D2E/DX2                !
 ! D15   D(14,2,3,4)           179.9697         estimate D2E/DX2                !
 ! D16   D(14,2,3,5)            -0.0216         estimate D2E/DX2                !
 ! D17   D(2,3,5,6)            179.9987         estimate D2E/DX2                !
 ! D18   D(4,3,5,6)              0.0072         estimate D2E/DX2                !
 ! D19   D(3,5,6,7)            179.7354         estimate D2E/DX2                !
 ! D20   D(3,5,6,15)            58.3871         estimate D2E/DX2                !
 ! D21   D(3,5,6,16)           -58.8828         estimate D2E/DX2                !
 ! D22   D(5,6,7,8)           -179.9848         estimate D2E/DX2                !
 ! D23   D(5,6,7,17)            58.2518         estimate D2E/DX2                !
 ! D24   D(5,6,7,18)           -58.2442         estimate D2E/DX2                !
 ! D25   D(15,6,7,8)           -60.5846         estimate D2E/DX2                !
 ! D26   D(15,6,7,17)          177.6521         estimate D2E/DX2                !
 ! D27   D(15,6,7,18)           61.156          estimate D2E/DX2                !
 ! D28   D(16,6,7,8)            60.5955         estimate D2E/DX2                !
 ! D29   D(16,6,7,17)          -61.1678         estimate D2E/DX2                !
 ! D30   D(16,6,7,18)         -177.6639         estimate D2E/DX2                !
 ! D31   D(6,7,8,19)           -60.1869         estimate D2E/DX2                !
 ! D32   D(6,7,8,20)           179.9102         estimate D2E/DX2                !
 ! D33   D(6,7,8,21)            60.0106         estimate D2E/DX2                !
 ! D34   D(17,7,8,19)           60.764          estimate D2E/DX2                !
 ! D35   D(17,7,8,20)          -59.1389         estimate D2E/DX2                !
 ! D36   D(17,7,8,21)         -179.0385         estimate D2E/DX2                !
 ! D37   D(18,7,8,19)          178.9061         estimate D2E/DX2                !
 ! D38   D(18,7,8,20)           59.0032         estimate D2E/DX2                !
 ! D39   D(18,7,8,21)          -60.8964         estimate D2E/DX2                !
 ! D40   D(1,9,10,11)            0.0021         estimate D2E/DX2                !
 ! D41   D(1,9,10,32)          179.266          estimate D2E/DX2                !
 ! D42   D(22,9,10,11)        -179.6729         estimate D2E/DX2                !
 ! D43   D(22,9,10,32)          -0.4089         estimate D2E/DX2                !
 ! D44   D(9,10,11,12)           0.0829         estimate D2E/DX2                !
 ! D45   D(9,10,11,29)        -178.6492         estimate D2E/DX2                !
 ! D46   D(32,10,11,12)       -179.1847         estimate D2E/DX2                !
 ! D47   D(32,10,11,29)          2.0831         estimate D2E/DX2                !
 ! D48   D(10,11,12,13)         -0.0386         estimate D2E/DX2                !
 ! D49   D(10,11,12,24)        179.1847         estimate D2E/DX2                !
 ! D50   D(29,11,12,13)        178.6974         estimate D2E/DX2                !
 ! D51   D(29,11,12,24)         -2.0793         estimate D2E/DX2                !
 ! D52   D(10,11,29,23)         88.8836         estimate D2E/DX2                !
 ! D53   D(10,11,29,30)        -22.1855         estimate D2E/DX2                !
 ! D54   D(10,11,29,31)       -160.1339         estimate D2E/DX2                !
 ! D55   D(12,11,29,23)        -89.8786         estimate D2E/DX2                !
 ! D56   D(12,11,29,30)        159.0523         estimate D2E/DX2                !
 ! D57   D(12,11,29,31)         21.1039         estimate D2E/DX2                !
 ! D58   D(11,12,13,1)          -0.09           estimate D2E/DX2                !
 ! D59   D(11,12,13,25)        179.569          estimate D2E/DX2                !
 ! D60   D(24,12,13,1)        -179.3056         estimate D2E/DX2                !
 ! D61   D(24,12,13,25)          0.3534         estimate D2E/DX2                !
 ! D62   D(26,23,29,11)         59.8268         estimate D2E/DX2                !
 ! D63   D(26,23,29,30)        174.4598         estimate D2E/DX2                !
 ! D64   D(26,23,29,31)        -54.5904         estimate D2E/DX2                !
 ! D65   D(27,23,29,11)        179.8158         estimate D2E/DX2                !
 ! D66   D(27,23,29,30)        -65.5511         estimate D2E/DX2                !
 ! D67   D(27,23,29,31)         65.3987         estimate D2E/DX2                !
 ! D68   D(28,23,29,11)        -60.12           estimate D2E/DX2                !
 ! D69   D(28,23,29,30)         54.513          estimate D2E/DX2                !
 ! D70   D(28,23,29,31)       -174.5372         estimate D2E/DX2                !
 --------------------------------------------------------------------------------
 Trust Radius=3.00D-01 FncErr=1.00D-07 GrdErr=1.00D-06
 Number of steps in this run=    167 maximum allowed number of steps=    192.
 GradGradGradGradGradGradGradGradGradGradGradGradGradGradGradGradGradGrad

                          Input orientation:                          
 ---------------------------------------------------------------------
 Center     Atomic      Atomic             Coordinates (Angstroms)
 Number     Number       Type             X           Y           Z
 ---------------------------------------------------------------------
      1          6           0       -6.063581    1.354250    0.327292
      2          7           0       -4.793803    0.794820    0.196329
      3          6           0       -3.587513    1.452951    0.110008
      4          8           0       -3.420904    2.643388    0.127783
      5          8           0       -2.608472    0.542936    0.000752
      6          6           0       -1.277757    1.077003   -0.099712
      7          6           0       -0.320890   -0.090229   -0.207347
      8          6           0        1.121327    0.396999   -0.317940
      9          6           0       -6.290541    2.735765    0.394081
     10          6           0       -7.587863    3.205640    0.527079
     11          6           0       -8.646589    2.306629    0.592704
     12          6           0       -8.437251    0.931299    0.529487
     13          6           0       -7.145396    0.462185    0.397931
     14          1           0       -4.732665   -0.212391    0.163364
     15          1           0       -1.076694    1.686935    0.784233
     16          1           0       -1.225835    1.727607   -0.976006
     17          1           0       -0.588389   -0.691112   -1.080718
     18          1           0       -0.440719   -0.730728    0.670604
     19          1           0        1.262097    1.023448   -1.202033
     20          1           0        1.812857   -0.442827   -0.394039
     21          1           0        1.409661    0.985604    0.556300
     22          1           0       -5.461734    3.424920    0.347555
     23          6           0      -10.775063    3.111429   -1.067219
     24          1           0       -9.276710    0.249124    0.595905
     25          1           0       -6.964038   -0.606659    0.354244
     26          9           0      -10.702841    1.939280   -1.685059
     27          9           0      -12.012750    3.567647   -1.134486
     28          9           0       -9.956325    3.965104   -1.666884
     29         16           0      -10.292380    2.917114    0.725594
     30          8           0      -10.277033    4.261403    1.260365
     31          8           0      -11.158486    1.877202    1.239063
     32          1           0       -7.780152    4.270434    0.592168
 ---------------------------------------------------------------------
                    Distance matrix (angstroms):
                    1          2          3          4          5
     1  C    0.000000
     2  N    1.393718   0.000000
     3  C    2.487542   1.376852   0.000000
     4  O    2.947104   2.303639   1.202171   0.000000
     5  O    3.564076   2.208476   1.341113   2.255678   0.000000
     6  C    4.812828   3.539752   2.349530   2.664281   1.437402
     7  C    5.945658   4.577468   3.626698   4.146693   2.382694
     8  C    7.277057   5.950756   4.844724   5.086924   3.746233
     9  C    1.401626   2.458983   3.005440   2.883447   4.303584
    10  C    2.406449   3.705162   4.387331   4.223638   5.671098
    11  C    2.765755   4.157721   5.153252   5.257123   6.318218
    12  C    2.419521   3.661194   4.895717   5.315671   5.865582
    13  C    1.403956   2.383544   3.704463   4.324635   4.554992
    14  H    2.062176   1.009603   2.021777   3.142842   2.260344
    15  H    5.018816   3.867608   2.610275   2.615539   2.066137
    16  H    5.024119   3.869736   2.613884   2.622086   2.066201
    17  H    6.011964   4.639434   3.874219   4.538998   2.602534
    18  H    6.006794   4.636979   3.871051   4.534404   2.601937
    19  H    7.490916   6.219454   5.042286   5.130606   4.081530
    20  H    8.110985   6.747463   5.745610   6.098301   4.547059
    21  H    7.485832   6.216827   5.038783   5.125059   4.080439
    22  H    2.156457   2.717798   2.730897   2.196379   4.070284
    23  C    5.218276   6.537485   7.469759   7.465303   8.627336
    24  H    3.408468   4.533641   5.835431   6.343666   6.701189
    25  H    2.157941   2.588243   3.962646   4.813303   4.518570
    26  F    5.090634   6.306040   7.354364   7.537159   8.385138
    27  F    6.513719   7.846836   8.775268   8.733121   9.943746
    28  F    5.093796   6.338289   7.073191   6.905034   8.275457
    29  S    4.525918   5.917652   6.890426   6.902861   8.074935
    30  O    5.203398   6.573826   7.345775   7.134930   8.615129
    31  O    5.202198   6.539727   7.666445   7.854436   8.741648
    32  H    3.394246   4.599441   5.074338   4.676107   6.402366
                    6          7          8          9         10
     6  C    0.000000
     7  C    1.513146   0.000000
     8  C    2.503125   1.526307   0.000000
     9  C    5.303143   6.632095   7.804652   0.000000
    10  C    6.688902   8.013179   9.189805   1.386188   0.000000
    11  C    7.502740   8.700705   9.994406   2.403033   1.390477
    12  C    7.188567   8.213511   9.610933   2.807632   2.427776
    13  C    5.920713   6.873529   8.297917   2.428983   2.781906
    14  H    3.697044   4.429007   5.905271   3.342429   4.468488
    15  H    1.092612   2.170894   2.776692   5.332585   6.690883
    16  H    1.092645   2.171242   2.777182   5.342731   6.702183
    17  H    2.136312   1.093340   2.165397   6.814180   8.170821
    18  H    2.135864   1.093341   2.165404   6.805399   8.160715
    19  H    2.769267   2.176127   1.092646   7.907083   9.277586
    20  H    3.456647   2.170728   1.090556   8.740117  10.125874
    21  H    2.767836   2.176093   1.092651   7.898258   9.267408
    22  H    4.818551   6.252397   7.276530   1.078898   2.144933
    23  C    9.760829  10.967211  12.225124   4.731539   3.564955
    24  H    8.071711   8.998171  10.439164   3.891185   3.405572
    25  H    5.947654   6.686814   8.175101   3.409836   3.866866
    26  F    9.596304  10.681172  12.002441   4.942226   4.024960
    27  F   11.068611  12.285733  13.536017   5.980988   4.740408
    28  F    9.279801  10.555453  11.716032   4.381418   3.316605
    29  S    9.237455  10.456821  11.735104   4.019640   2.727099
    30  O    9.642468  10.964290  12.138669   4.355472   2.980600
    31  O   10.003072  11.109292  12.466317   5.014779   3.875695
    32  H    7.277214   8.677280   9.750288   2.147880   1.083973
                   11         12         13         14         15
    11  C    0.000000
    12  C    1.392606   0.000000
    13  C    2.386104   1.380676   0.000000
    14  H    4.674248   3.894359   2.516216   0.000000
    15  H    7.597632   7.403626   6.203094   4.166418   0.000000
    16  H    7.606820   7.409801   6.207270   4.166487   1.767014
    17  H    8.759074   8.174938   6.819885   4.353382   3.061305
    18  H    8.750309   8.168646   6.815430   4.352788   2.502493
    19  H   10.151340   9.853122   8.576762   6.271266   3.139333
    20  H   10.859705  10.382960   9.038615   6.573253   3.778058
    21  H   10.142711   9.847099   8.572517   6.270387   2.593411
    22  H    3.384372   3.886509   3.408087   3.714229   4.737072
    23  C    2.816638   3.573206   4.726484   7.005190   9.975741
    24  H    2.151834   1.083727   2.151067   4.587857   8.327246
    25  H    3.372698   2.136910   1.085001   2.273963   6.332952
    26  F    3.090521   3.324625   4.379049   6.609792   9.941015
    27  F    3.988031   4.743768   5.973553   8.304983  11.261256
    28  F    3.093814   4.041733   4.943200   6.934544   9.489250
    29  S    1.760392   2.724596   4.004691   6.404712   9.297615
    30  O    2.631589   3.874090   4.998500   7.208208   9.565606
    31  O    2.629033   2.967043   4.337588   6.842127  10.093839
    32  H    2.146448   3.403752   3.865670   5.437533   7.186633
                   16         17         18         19         20
    16  H    0.000000
    17  H    2.503498   0.000000
    18  H    3.061232   1.757983   0.000000
    19  H    2.595522   2.525615   3.079527   0.000000
    20  H    3.779301   2.509812   2.508976   1.762428   0.000000
    21  H    3.137573   3.079514   2.526414   1.764920   1.762421
    22  H    4.751372   6.536908   6.525670   7.306039   8.272189
    23  C    9.649407  10.873262  11.161580  12.217654  13.097391
    24  H    8.335071   8.898428   8.890468  10.719077  11.155146
    25  H    6.336035   6.535682   6.532164   8.529276   8.810258
    26  F    9.505851  10.468348  10.862285  12.009655  12.805618
    27  F   10.943875  12.192454  12.475828  13.516623  14.414561
    28  F    9.039092  10.477698  10.865609  11.606999  12.631851
    29  S    9.301216  10.509496  10.505475  11.866241  12.612675
    30  O    9.661557  11.130045  11.046369  12.235166  13.077931
    31  O   10.177744  11.122255  11.045133  12.686951  13.278001
    32  H    7.203070   8.895894   8.881726   9.773656  10.733744
                   21         22         23         24         25
    21  H    0.000000
    22  H    7.294512   0.000000
    23  C   12.474872   5.507388   0.000000
    24  H   10.711792   4.970050   3.633708   0.000000
    25  H    8.526133   4.302394   5.510776   2.477745   0.000000
    26  F   12.354994   5.814451   1.326980   3.176991   4.961775
    27  F   13.772684   6.718082   1.320806   4.636029   6.717935
    28  F   11.958495   4.954908   1.326156   4.403475   5.825784
    29  S   11.861583   4.871953   1.866793   2.857722   4.861352
    30  O   12.157524   4.971924   2.643505   4.188142   5.957770
    31  O   12.618218   5.970192   2.643722   2.570091   4.954378
    32  H    9.759306   2.479877   3.614741   4.290761   4.950624
                   26         27         28         29         30
    26  F    0.000000
    27  F    2.161151   0.000000
    28  F    2.159069   2.161088   0.000000
    29  S    2.633606   2.615867   2.633470   0.000000
    30  O    3.774796   3.037980   2.959634   1.446834   0.000000
    31  O    2.960060   3.036628   3.774791   1.447483   2.542012
    32  H    4.377459   4.624947   3.151551   2.856671   2.584760
                   31         32
    31  O    0.000000
    32  H    4.190366   0.000000
 Stoichiometry    C11H12F3NO4S
 Framework group  C1[X(C11H12F3NO4S)]
 Deg. of freedom    90
 Full point group                 C1      NOp   1
 Largest Abelian subgroup         C1      NOp   1
 Largest concise Abelian subgroup C1      NOp   1
                         Standard orientation:                         
 ---------------------------------------------------------------------
 Center     Atomic      Atomic             Coordinates (Angstroms)
 Number     Number       Type             X           Y           Z
 ---------------------------------------------------------------------
      1          6           0        0.944402    0.542741   -0.138276
      2          7           0        2.308525    0.727244    0.079844
      3          6           0        3.326232   -0.174716   -0.135702
      4          8           0        3.209591   -1.296819   -0.551030
      5          8           0        4.490034    0.403352    0.195942
      6          6           0        5.657615   -0.417523    0.025523
      7          6           0        6.860112    0.401716    0.440803
      8          6           0        8.146958   -0.404596    0.287501
      9          6           0        0.400891   -0.649951   -0.634905
     10          6           0       -0.969016   -0.745557   -0.823929
     11          6           0       -1.787063    0.337155   -0.520681
     12          6           0       -1.262098    1.529315   -0.028221
     13          6           0        0.102331    1.625929    0.159572
     14          1           0        2.603509    1.625395    0.434257
     15          1           0        5.718960   -0.727725   -1.020333
     16          1           0        5.547081   -1.316365    0.636863
     17          1           0        6.732166    0.722027    1.478312
     18          1           0        6.902281    1.307067   -0.170716
     19          1           0        8.128378   -1.303808    0.907943
     20          1           0        9.015149    0.184607    0.584819
     21          1           0        8.298042   -0.718039   -0.748266
     22          1           0        1.044759   -1.482529   -0.872115
     23          6           0       -4.061094   -0.474717    0.929526
     24          1           0       -1.917759    2.364493    0.188691
     25          1           0        0.528514    2.550045    0.535873
     26          9           0       -3.722478    0.377755    1.888435
     27          9           0       -5.371805   -0.637707    0.929722
     28          9           0       -3.471001   -1.639537    1.161201
     29         16           0       -3.528662    0.190772   -0.731365
     30          8           0       -3.823280   -0.866634   -1.673927
     31          8           0       -4.122039    1.508200   -0.817927
     32          1           0       -1.404666   -1.656404   -1.218346
 ---------------------------------------------------------------------
 Rotational constants (GHZ):      1.0384961      0.0959844      0.0953208
 Standard basis: 6-311+G(d) (5D, 7F)
 There are   504 symmetry adapted cartesian basis functions of A   symmetry.
 There are   484 symmetry adapted basis functions of A   symmetry.
   484 basis functions,   794 primitive gaussians,   504 cartesian basis functions
    80 alpha electrons       80 beta electrons
       nuclear repulsion energy      1753.0805263801 Hartrees.
 NAtoms=   32 NActive=   32 NUniq=   32 SFac= 1.00D+00 NAtFMM=   60 NAOKFM=F Big=F
 Integral buffers will be    131072 words long.
 Raffenetti 2 integral format.
 Two-electron integral symmetry is turned on.
 Nuclear repulsion after empirical dispersion term =     1753.0790382603 Hartrees.
 One-electron integrals computed using PRISM.
 NBasis=   484 RedAO= T EigKep=  2.78D-06  NBF=   484
 NBsUse=   482 1.00D-06 EigRej=  9.68D-07 NBFU=   482
 ExpMin= 4.05D-02 ExpMax= 9.34D+04 ExpMxC= 3.17D+03 IAcc=3 IRadAn=         5 AccDes= 0.00D+00
 Harris functional with IExCor= 1009 and IRadAn=       5 diagonalized for initial guess.
 HarFok:  IExCor= 1009 AccDes= 0.00D+00 IRadAn=         5 IDoV= 1 UseB2=F ITyADJ=14
 ICtDFT=  3500011 ScaDFX=  1.000000  1.000000  1.000000  1.000000
 FoFCou: FMM=F IPFlag=           0 FMFlag=      100000 FMFlg1=           0
         NFxFlg=           0 DoJE=T BraDBF=F KetDBF=T FulRan=T
         wScrn=  0.000000 ICntrl=     500 IOpCl=  0 I1Cent=   200000004 NGrid=           0
         NMat0=    1 NMatS0=      1 NMatT0=    0 NMatD0=    1 NMtDS0=    0 NMtDT0=    0
 Petite list used in FoFCou.
 Requested convergence on RMS density matrix=1.00D-08 within 128 cycles.
 Requested convergence on MAX density matrix=1.00D-06.
 Requested convergence on             energy=1.00D-06.
 No special actions if energy rises.
 SCF Done:  E(RM062X) =  -1479.61064873     A.U. after   16 cycles
            NFock= 16  Conv=0.27D-08     -V/T= 2.0025

 **********************************************************************

            Population analysis using the SCF density.

 **********************************************************************

 Orbital symmetries:
       Occupied  (A) (A) (A) (A) (A) (A) (A) (A) (A) (A) (A) (A)
                 (A) (A) (A) (A) (A) (A) (A) (A) (A) (A) (A) (A)
                 (A) (A) (A) (A) (A) (A) (A) (A) (A) (A) (A) (A)
                 (A) (A) (A) (A) (A) (A) (A) (A) (A) (A) (A) (A)
                 (A) (A) (A) (A) (A) (A) (A) (A) (A) (A) (A) (A)
                 (A) (A) (A) (A) (A) (A) (A) (A) (A) (A) (A) (A)
                 (A) (A) (A) (A) (A) (A) (A) (A)
       Virtual   (A) (A) (A) (A) (A) (A) (A) (A) (A) (A) (A) (A)
                 (A) (A) (A) (A) (A) (A) (A) (A) (A) (A) (A) (A)
                 (A) (A) (A) (A) (A) (A) (A) (A) (A) (A) (A) (A)
                 (A) (A) (A) (A) (A) (A) (A) (A) (A) (A) (A) (A)
                 (A) (A) (A) (A) (A) (A) (A) (A) (A) (A) (A) (A)
                 (A) (A) (A) (A) (A) (A) (A) (A) (A) (A) (A) (A)
                 (A) (A) (A) (A) (A) (A) (A) (A) (A) (A) (A) (A)
                 (A) (A) (A) (A) (A) (A) (A) (A) (A) (A) (A) (A)
                 (A) (A) (A) (A) (A) (A) (A) (A) (A) (A) (A) (A)
                 (A) (A) (A) (A) (A) (A) (A) (A) (A) (A) (A) (A)
                 (A) (A) (A) (A) (A) (A) (A) (A) (A) (A) (A) (A)
                 (A) (A) (A) (A) (A) (A) (A) (A) (A) (A) (A) (A)
                 (A) (A) (A) (A) (A) (A) (A) (A) (A) (A) (A) (A)
                 (A) (A) (A) (A) (A) (A) (A) (A) (A) (A) (A) (A)
                 (A) (A) (A) (A) (A) (A) (A) (A) (A) (A) (A) (A)
                 (A) (A) (A) (A) (A) (A) (A) (A) (A) (A) (A) (A)
                 (A) (A) (A) (A) (A) (A) (A) (A) (A) (A) (A) (A)
                 (A) (A) (A) (A) (A) (A) (A) (A) (A) (A) (A) (A)
                 (A) (A) (A) (A) (A) (A) (A) (A) (A) (A) (A) (A)
                 (A) (A) (A) (A) (A) (A) (A) (A) (A) (A) (A) (A)
                 (A) (A) (A) (A) (A) (A) (A) (A) (A) (A) (A) (A)
                 (A) (A) (A) (A) (A) (A) (A) (A) (A) (A) (A) (A)
                 (A) (A) (A) (A) (A) (A) (A) (A) (A) (A) (A) (A)
                 (A) (A) (A) (A) (A) (A) (A) (A) (A) (A) (A) (A)
                 (A) (A) (A) (A) (A) (A) (A) (A) (A) (A) (A) (A)
                 (A) (A) (A) (A) (A) (A) (A) (A) (A) (A) (A) (A)
                 (A) (A) (A) (A) (A) (A) (A) (A) (A) (A) (A) (A)
                 (A) (A) (A) (A) (A) (A) (A) (A) (A) (A) (A) (A)
                 (A) (A) (A) (A) (A) (A) (A) (A) (A) (A) (A) (A)
                 (A) (A) (A) (A) (A) (A) (A) (A) (A) (A) (A) (A)
                 (A) (A) (A) (A) (A) (A) (A) (A) (A) (A) (A) (A)
                 (A) (A) (A) (A) (A) (A) (A) (A) (A) (A) (A) (A)
                 (A) (A) (A) (A) (A) (A) (A) (A) (A) (A) (A) (A)
                 (A) (A) (A) (A) (A) (A)
 The electronic state is 1-A.
 Alpha  occ. eigenvalues --  -90.12539 -25.30932 -25.30906 -25.30809 -19.69106
 Alpha  occ. eigenvalues --  -19.64357 -19.64340 -19.63136 -14.82161 -10.83252
 Alpha  occ. eigenvalues --  -10.72732 -10.63805 -10.61289 -10.59979 -10.59169
 Alpha  occ. eigenvalues --  -10.58900 -10.58312 -10.57321 -10.55573 -10.54462
 Alpha  occ. eigenvalues --   -8.46935  -6.39127  -6.39082  -6.39026  -1.50590
 Alpha  occ. eigenvalues --   -1.41144  -1.41096  -1.27243  -1.26506  -1.17340
 Alpha  occ. eigenvalues --   -1.15843  -1.09710  -1.00340  -0.92366  -0.90290
 Alpha  occ. eigenvalues --   -0.88930  -0.86725  -0.82340  -0.78975  -0.75620
 Alpha  occ. eigenvalues --   -0.74506  -0.72717  -0.72661  -0.70726  -0.69260
 Alpha  occ. eigenvalues --   -0.68047  -0.66611  -0.64168  -0.61646  -0.61071
 Alpha  occ. eigenvalues --   -0.60425  -0.59985  -0.57948  -0.56948  -0.56496
 Alpha  occ. eigenvalues --   -0.56407  -0.56153  -0.55548  -0.55120  -0.54327
 Alpha  occ. eigenvalues --   -0.54223  -0.53333  -0.52446  -0.50654  -0.50182
 Alpha  occ. eigenvalues --   -0.47942  -0.47418  -0.45213  -0.44923  -0.43236
 Alpha  occ. eigenvalues --   -0.42911  -0.42570  -0.42482  -0.41582  -0.40773
 Alpha  occ. eigenvalues --   -0.39842  -0.38999  -0.37937  -0.34810  -0.31397
 Alpha virt. eigenvalues --   -0.03756  -0.01473  -0.00916   0.00860   0.01659
 Alpha virt. eigenvalues --    0.02051   0.02366   0.02881   0.03413   0.03911
 Alpha virt. eigenvalues --    0.04225   0.04332   0.05302   0.05884   0.06065
 Alpha virt. eigenvalues --    0.06361   0.06489   0.07081   0.07231   0.07650
 Alpha virt. eigenvalues --    0.08058   0.08524   0.08651   0.09248   0.09408
 Alpha virt. eigenvalues --    0.10084   0.10550   0.10654   0.10731   0.11528
 Alpha virt. eigenvalues --    0.11744   0.12349   0.13111   0.13536   0.13827
 Alpha virt. eigenvalues --    0.14159   0.14595   0.14719   0.14811   0.15640
 Alpha virt. eigenvalues --    0.16765   0.17179   0.17966   0.18395   0.18478
 Alpha virt. eigenvalues --    0.18752   0.19151   0.19263   0.19860   0.20306
 Alpha virt. eigenvalues --    0.20674   0.20864   0.21080   0.21484   0.21668
 Alpha virt. eigenvalues --    0.22360   0.22669   0.22992   0.23387   0.23580
 Alpha virt. eigenvalues --    0.23923   0.24336   0.24486   0.25085   0.25213
 Alpha virt. eigenvalues --    0.25714   0.25831   0.26029   0.26575   0.26798
 Alpha virt. eigenvalues --    0.27124   0.27941   0.28384   0.28995   0.29388
 Alpha virt. eigenvalues --    0.29698   0.30123   0.30422   0.31065   0.31343
 Alpha virt. eigenvalues --    0.31617   0.32071   0.32431   0.33238   0.33385
 Alpha virt. eigenvalues --    0.33965   0.34224   0.34856   0.35277   0.36185
 Alpha virt. eigenvalues --    0.36646   0.36797   0.37473   0.37635   0.38233
 Alpha virt. eigenvalues --    0.39025   0.39794   0.40325   0.40809   0.41141
 Alpha virt. eigenvalues --    0.41673   0.42037   0.42779   0.43204   0.43705
 Alpha virt. eigenvalues --    0.44915   0.45297   0.46117   0.46781   0.47310
 Alpha virt. eigenvalues --    0.47772   0.48230   0.49407   0.49754   0.50829
 Alpha virt. eigenvalues --    0.52476   0.53009   0.53952   0.54109   0.55544
 Alpha virt. eigenvalues --    0.55976   0.57030   0.57330   0.58092   0.59165
 Alpha virt. eigenvalues --    0.60027   0.60724   0.61384   0.61527   0.62472
 Alpha virt. eigenvalues --    0.63682   0.64624   0.65881   0.66366   0.66981
 Alpha virt. eigenvalues --    0.68792   0.68881   0.69603   0.70484   0.70590
 Alpha virt. eigenvalues --    0.70840   0.71469   0.72000   0.72405   0.73450
 Alpha virt. eigenvalues --    0.74824   0.75214   0.75260   0.76051   0.76901
 Alpha virt. eigenvalues --    0.77447   0.79074   0.79928   0.80625   0.81232
 Alpha virt. eigenvalues --    0.82892   0.83939   0.86531   0.86754   0.87651
 Alpha virt. eigenvalues --    0.90182   0.90509   0.91017   0.91630   0.92869
 Alpha virt. eigenvalues --    0.93304   0.95666   0.98301   0.99133   0.99559
 Alpha virt. eigenvalues --    1.01300   1.02534   1.03142   1.04262   1.04739
 Alpha virt. eigenvalues --    1.05816   1.08394   1.09750   1.10235   1.11610
 Alpha virt. eigenvalues --    1.12857   1.13017   1.15447   1.15914   1.17145
 Alpha virt. eigenvalues --    1.18883   1.20046   1.20642   1.21627   1.22214
 Alpha virt. eigenvalues --    1.23313   1.23662   1.24144   1.25771   1.26241
 Alpha virt. eigenvalues --    1.26905   1.27544   1.29761   1.30231   1.30706
 Alpha virt. eigenvalues --    1.32672   1.34314   1.35661   1.37138   1.38804
 Alpha virt. eigenvalues --    1.42675   1.43322   1.44754   1.46520   1.47370
 Alpha virt. eigenvalues --    1.48036   1.48421   1.49541   1.51621   1.51929
 Alpha virt. eigenvalues --    1.52640   1.53676   1.54037   1.56061   1.56832
 Alpha virt. eigenvalues --    1.57293   1.57922   1.59678   1.61377   1.62028
 Alpha virt. eigenvalues --    1.64424   1.65246   1.67757   1.71167   1.71485
 Alpha virt. eigenvalues --    1.72704   1.74919   1.76103   1.77081   1.77785
 Alpha virt. eigenvalues --    1.78019   1.79855   1.81012   1.82755   1.83213
 Alpha virt. eigenvalues --    1.84948   1.85186   1.86272   1.86764   1.89114
 Alpha virt. eigenvalues --    1.90333   1.90621   1.92650   1.94529   1.96395
 Alpha virt. eigenvalues --    1.97885   1.99234   2.00719   2.01780   2.03667
 Alpha virt. eigenvalues --    2.05647   2.07450   2.09042   2.09806   2.13008
 Alpha virt. eigenvalues --    2.16048   2.16510   2.20090   2.23179   2.27298
 Alpha virt. eigenvalues --    2.33703   2.34129   2.35910   2.36827   2.41557
 Alpha virt. eigenvalues --    2.44819   2.48015   2.49185   2.50853   2.53461
 Alpha virt. eigenvalues --    2.54904   2.58564   2.59467   2.62136   2.63776
 Alpha virt. eigenvalues --    2.69210   2.71339   2.72493   2.73763   2.77595
 Alpha virt. eigenvalues --    2.80698   2.82411   2.85801   2.87337   2.87862
 Alpha virt. eigenvalues --    2.90349   2.90786   2.91667   2.92889   2.93110
 Alpha virt. eigenvalues --    2.94016   2.96364   2.97572   3.00099   3.00864
 Alpha virt. eigenvalues --    3.02894   3.03143   3.03881   3.05819   3.09792
 Alpha virt. eigenvalues --    3.10001   3.11145   3.11479   3.16867   3.17183
 Alpha virt. eigenvalues --    3.19190   3.19894   3.24146   3.25493   3.27855
 Alpha virt. eigenvalues --    3.28133   3.28589   3.32864   3.35629   3.37252
 Alpha virt. eigenvalues --    3.40336   3.40809   3.43603   3.45885   3.54082
 Alpha virt. eigenvalues --    3.56858   3.64746   3.68857   3.69913   3.70869
 Alpha virt. eigenvalues --    3.74593   3.77616   3.80774   3.81480   3.82101
 Alpha virt. eigenvalues --    3.83342   3.84493   3.84739   3.88900   3.88999
 Alpha virt. eigenvalues --    3.95783   3.96000   3.96120   3.99558   4.04743
 Alpha virt. eigenvalues --    4.08081   4.09370   4.17402   4.19399   4.28148
 Alpha virt. eigenvalues --    4.28247   4.44135   4.54531   4.78694   4.98544
 Alpha virt. eigenvalues --    4.98724   5.06225   5.08864   5.14872   5.16748
 Alpha virt. eigenvalues --    5.17737   5.21619   5.22160   5.28745   5.35491
 Alpha virt. eigenvalues --    5.42815   5.49151   5.78855   5.94644   6.41649
 Alpha virt. eigenvalues --    6.44350   6.48068   6.49277   6.50037   6.52090
 Alpha virt. eigenvalues --    6.54255   6.88392   6.89426   8.32692  17.57811
 Alpha virt. eigenvalues --   17.61244  17.79187  23.46400  23.55148  23.55970
 Alpha virt. eigenvalues --   23.70637  23.80161  23.89138  23.91553  23.96671
 Alpha virt. eigenvalues --   24.06844  24.11983  24.19755  35.63720  49.97767
 Alpha virt. eigenvalues --   50.00439  50.01986  50.12669  66.86672  66.86947
 Alpha virt. eigenvalues --   66.91735 189.58729
          Condensed to atoms (all electrons):
               1          2          3          4          5          6
     1  C   18.777499  -0.050693  -0.116855  -0.188160  -0.335592  -0.485759
     2  N   -0.050693   7.604606   0.199653   0.004750  -0.223268  -0.287094
     3  C   -0.116855   0.199653   9.150383   0.469471   0.292338  -0.616711
     4  O   -0.188160   0.004750   0.469471   8.055391  -0.196344  -0.205886
     5  O   -0.335592  -0.223268   0.292338  -0.196344   8.335839   0.354626
     6  C   -0.485759  -0.287094  -0.616711  -0.205886   0.354626   8.472514
     7  C   -0.027424   0.031701   0.161070   0.030271  -0.163818  -0.990290
     8  C   -0.016509  -0.004507  -0.277628   0.001648   0.033567   0.355961
     9  C    4.431300  -0.144626   1.199082   0.355404   0.036873  -0.368103
    10  C   -0.599623   0.116444  -0.474214   0.041002   0.012584  -0.228529
    11  C   -8.187378   0.070692  -1.741491  -0.009426   0.013743  -0.150560
    12  C   -2.684049   0.010324  -0.550160  -0.016601  -0.005788   0.028794
    13  C   -2.678508  -0.086550  -1.801774  -0.049448  -0.038604  -0.124457
    14  H   -0.068273   0.259382  -0.004924   0.000258   0.024759  -0.011680
    15  H    0.006694   0.004903   0.035438  -0.001652  -0.043991   0.360876
    16  H    0.005057   0.005433   0.039383  -0.001955  -0.044065   0.357427
    17  H    0.000282  -0.000939   0.006886  -0.000293   0.000613  -0.062572
    18  H   -0.000308  -0.000759   0.007411  -0.000319   0.000727  -0.063448
    19  H   -0.000113  -0.000042  -0.000827  -0.000080  -0.000427  -0.047090
    20  H    0.000150   0.000037   0.008772   0.000030  -0.000680   0.089772
    21  H   -0.000097  -0.000045  -0.000747  -0.000082  -0.000428  -0.047704
    22  H    0.108816  -0.029653   0.075057   0.002454   0.002197   0.009128
    23  C    0.458958  -0.003599   0.014073   0.000238  -0.000107   0.000206
    24  H    0.020625  -0.002580   0.002822  -0.000014  -0.000010   0.000025
    25  H    0.049766  -0.019391  -0.004975   0.000133  -0.000843  -0.000420
    26  F   -0.017381   0.000063  -0.000279  -0.000000   0.000000  -0.000001
    27  F   -0.001790   0.000013   0.000007  -0.000000   0.000000   0.000000
    28  F   -0.045546   0.000098  -0.001285  -0.000004   0.000000  -0.000008
    29  S   -1.761805   0.009380  -0.118012  -0.001538   0.001128  -0.004054
    30  O   -0.217167  -0.000203  -0.014200  -0.000052   0.000000  -0.000138
    31  O    0.229710   0.000067   0.008245   0.000006   0.000003   0.000057
    32  H    0.008187  -0.001011   0.009122  -0.000076   0.000009   0.000145
               7          8          9         10         11         12
     1  C   -0.027424  -0.016509   4.431300  -0.599623  -8.187378  -2.684049
     2  N    0.031701  -0.004507  -0.144626   0.116444   0.070692   0.010324
     3  C    0.161070  -0.277628   1.199082  -0.474214  -1.741491  -0.550160
     4  O    0.030271   0.001648   0.355404   0.041002  -0.009426  -0.016601
     5  O   -0.163818   0.033567   0.036873   0.012584   0.013743  -0.005788
     6  C   -0.990290   0.355961  -0.368103  -0.228529  -0.150560   0.028794
     7  C    6.526431  -0.155859  -0.006816   0.001028  -0.003692  -0.003294
     8  C   -0.155859   6.083434  -0.015640  -0.003486  -0.001230   0.000482
     9  C   -0.006816  -0.015640  25.276410   8.464809 -15.557204  -7.987327
    10  C    0.001028  -0.003486   8.464809  26.915686  -6.035438 -12.141525
    11  C   -0.003692  -0.001230 -15.557204  -6.035438  45.570716  -1.626030
    12  C   -0.003294   0.000482  -7.987327 -12.141525  -1.626030  24.602866
    13  C    0.012613  -0.001247  -8.953056  -7.898030  -3.868331   3.910490
    14  H   -0.001421  -0.000658   0.046647   0.010790   0.024138  -0.001204
    15  H   -0.025424  -0.014076  -0.001193   0.000362   0.000095  -0.000015
    16  H   -0.022479  -0.014914  -0.002591   0.000015  -0.000104   0.000142
    17  H    0.440986  -0.045061   0.000242   0.000034   0.000010  -0.000005
    18  H    0.442341  -0.045744   0.000206   0.000036   0.000004   0.000020
    19  H    0.013587   0.379211  -0.000010  -0.000001  -0.000001   0.000001
    20  H   -0.134991   0.389535   0.000055   0.000002   0.000000  -0.000001
    21  H    0.014088   0.379156   0.000002   0.000000  -0.000000   0.000000
    22  H   -0.000336   0.000055   0.269145  -0.153034   0.019619   0.007210
    23  C    0.000026  -0.000000   0.451322   1.434582  -1.435722   0.263499
    24  H    0.000001  -0.000000  -0.014547  -0.035369   0.037340   0.377164
    25  H   -0.000001   0.000006  -0.012587   0.001480   0.077431  -0.006871
    26  F   -0.000000   0.000000   0.014867   0.041622   0.152639  -0.155307
    27  F   -0.000000   0.000000  -0.004618  -0.021217   0.087159  -0.011472
    28  F   -0.000000  -0.000000  -0.111981  -0.260077   0.207583   0.095346
    29  S   -0.000308  -0.000013  -0.767085  -2.862554  -2.956446   2.490506
    30  O    0.000001  -0.000000  -1.097536  -2.767960   0.848767   1.927173
    31  O   -0.000001   0.000000   0.665751   2.282805   0.517850  -2.344483
    32  H    0.000000   0.000000  -0.049397   0.423895  -0.035088  -0.042522
              13         14         15         16         17         18
     1  C   -2.678508  -0.068273   0.006694   0.005057   0.000282  -0.000308
     2  N   -0.086550   0.259382   0.004903   0.005433  -0.000939  -0.000759
     3  C   -1.801774  -0.004924   0.035438   0.039383   0.006886   0.007411
     4  O   -0.049448   0.000258  -0.001652  -0.001955  -0.000293  -0.000319
     5  O   -0.038604   0.024759  -0.043991  -0.044065   0.000613   0.000727
     6  C   -0.124457  -0.011680   0.360876   0.357427  -0.062572  -0.063448
     7  C    0.012613  -0.001421  -0.025424  -0.022479   0.440986   0.442341
     8  C   -0.001247  -0.000658  -0.014076  -0.014914  -0.045061  -0.045744
     9  C   -8.953056   0.046647  -0.001193  -0.002591   0.000242   0.000206
    10  C   -7.898030   0.010790   0.000362   0.000015   0.000034   0.000036
    11  C   -3.868331   0.024138   0.000095  -0.000104   0.000010   0.000004
    12  C    3.910490  -0.001204  -0.000015   0.000142  -0.000005   0.000020
    13  C   26.678408  -0.012308   0.000211   0.000788  -0.000018   0.000096
    14  H   -0.012308   0.322387   0.000019   0.000000   0.000010   0.000003
    15  H    0.000211   0.000019   0.446932  -0.040247   0.005406  -0.007795
    16  H    0.000788   0.000000  -0.040247   0.447489  -0.007842   0.005400
    17  H   -0.000018   0.000010   0.005406  -0.007842   0.444796  -0.036840
    18  H    0.000096   0.000003  -0.007795   0.005400  -0.036840   0.444413
    19  H    0.000008  -0.000000  -0.000523   0.003768  -0.008100   0.006123
    20  H   -0.000014  -0.000000  -0.000193  -0.000190  -0.003203  -0.003232
    21  H    0.000005  -0.000000   0.003778  -0.000536   0.006134  -0.008070
    22  H    0.014409  -0.000220  -0.000026  -0.000026  -0.000000  -0.000000
    23  C    0.094877  -0.000077  -0.000000  -0.000000  -0.000000  -0.000000
    24  H   -0.087435  -0.000008  -0.000000  -0.000000  -0.000000  -0.000000
    25  H    0.233141   0.007240  -0.000000  -0.000000  -0.000000  -0.000000
    26  F   -0.040405   0.000000   0.000000  -0.000000   0.000000  -0.000000
    27  F   -0.001258  -0.000000  -0.000000   0.000000   0.000000   0.000000
    28  F    0.034090   0.000000   0.000000   0.000000   0.000000   0.000000
    29  S    1.481182   0.001672  -0.000001  -0.000001   0.000000   0.000000
    30  O    0.657631   0.000005   0.000000  -0.000000   0.000000   0.000000
    31  O   -0.964135   0.000003  -0.000000  -0.000000   0.000000   0.000000
    32  H   -0.018888   0.000010  -0.000000   0.000000  -0.000000   0.000000
              19         20         21         22         23         24
     1  C   -0.000113   0.000150  -0.000097   0.108816   0.458958   0.020625
     2  N   -0.000042   0.000037  -0.000045  -0.029653  -0.003599  -0.002580
     3  C   -0.000827   0.008772  -0.000747   0.075057   0.014073   0.002822
     4  O   -0.000080   0.000030  -0.000082   0.002454   0.000238  -0.000014
     5  O   -0.000427  -0.000680  -0.000428   0.002197  -0.000107  -0.000010
     6  C   -0.047090   0.089772  -0.047704   0.009128   0.000206   0.000025
     7  C    0.013587  -0.134991   0.014088  -0.000336   0.000026   0.000001
     8  C    0.379211   0.389535   0.379156   0.000055  -0.000000  -0.000000
     9  C   -0.000010   0.000055   0.000002   0.269145   0.451322  -0.014547
    10  C   -0.000001   0.000002   0.000000  -0.153034   1.434582  -0.035369
    11  C   -0.000001   0.000000  -0.000000   0.019619  -1.435722   0.037340
    12  C    0.000001  -0.000001   0.000000   0.007210   0.263499   0.377164
    13  C    0.000008  -0.000014   0.000005   0.014409   0.094877  -0.087435
    14  H   -0.000000  -0.000000  -0.000000  -0.000220  -0.000077  -0.000008
    15  H   -0.000523  -0.000193   0.003778  -0.000026  -0.000000  -0.000000
    16  H    0.003768  -0.000190  -0.000536  -0.000026  -0.000000  -0.000000
    17  H   -0.008100  -0.003203   0.006134  -0.000000  -0.000000  -0.000000
    18  H    0.006123  -0.003232  -0.008070  -0.000000  -0.000000  -0.000000
    19  H    0.456661  -0.024803  -0.037649  -0.000000   0.000000   0.000000
    20  H   -0.024803   0.428348  -0.024799   0.000000  -0.000000  -0.000000
    21  H   -0.037649  -0.024799   0.456681  -0.000000   0.000000   0.000000
    22  H   -0.000000   0.000000  -0.000000   0.359185  -0.000692   0.000071
    23  C    0.000000  -0.000000   0.000000  -0.000692   7.337827  -0.001051
    24  H    0.000000  -0.000000   0.000000   0.000071  -0.001051   0.380346
    25  H   -0.000000   0.000000  -0.000000  -0.000119  -0.000660  -0.003745
    26  F   -0.000000  -0.000000   0.000000  -0.000001   0.124054  -0.002950
    27  F   -0.000000  -0.000000  -0.000000  -0.000001   0.276876  -0.000186
    28  F    0.000000  -0.000000  -0.000000   0.000031   0.093477   0.000267
    29  S   -0.000000   0.000000  -0.000000   0.005626  -2.942342   0.032519
    30  O   -0.000000   0.000000  -0.000000   0.000583  -0.140082   0.002527
    31  O   -0.000000   0.000000  -0.000000  -0.000059  -0.028370  -0.010981
    32  H    0.000000   0.000000  -0.000000  -0.002071  -0.002075  -0.000121
              25         26         27         28         29         30
     1  C    0.049766  -0.017381  -0.001790  -0.045546  -1.761805  -0.217167
     2  N   -0.019391   0.000063   0.000013   0.000098   0.009380  -0.000203
     3  C   -0.004975  -0.000279   0.000007  -0.001285  -0.118012  -0.014200
     4  O    0.000133  -0.000000  -0.000000  -0.000004  -0.001538  -0.000052
     5  O   -0.000843   0.000000   0.000000   0.000000   0.001128   0.000000
     6  C   -0.000420  -0.000001   0.000000  -0.000008  -0.004054  -0.000138
     7  C   -0.000001  -0.000000  -0.000000  -0.000000  -0.000308   0.000001
     8  C    0.000006   0.000000   0.000000  -0.000000  -0.000013  -0.000000
     9  C   -0.012587   0.014867  -0.004618  -0.111981  -0.767085  -1.097536
    10  C    0.001480   0.041622  -0.021217  -0.260077  -2.862554  -2.767960
    11  C    0.077431   0.152639   0.087159   0.207583  -2.956446   0.848767
    12  C   -0.006871  -0.155307  -0.011472   0.095346   2.490506   1.927173
    13  C    0.233141  -0.040405  -0.001258   0.034090   1.481182   0.657631
    14  H    0.007240   0.000000  -0.000000   0.000000   0.001672   0.000005
    15  H   -0.000000   0.000000  -0.000000   0.000000  -0.000001   0.000000
    16  H   -0.000000  -0.000000   0.000000   0.000000  -0.000001  -0.000000
    17  H   -0.000000   0.000000   0.000000   0.000000   0.000000   0.000000
    18  H   -0.000000  -0.000000   0.000000   0.000000   0.000000   0.000000
    19  H   -0.000000  -0.000000  -0.000000   0.000000  -0.000000  -0.000000
    20  H    0.000000  -0.000000  -0.000000  -0.000000   0.000000   0.000000
    21  H   -0.000000   0.000000  -0.000000  -0.000000  -0.000000  -0.000000
    22  H   -0.000119  -0.000001  -0.000001   0.000031   0.005626   0.000583
    23  C   -0.000660   0.124054   0.276876   0.093477  -2.942342  -0.140082
    24  H   -0.003745  -0.002950  -0.000186   0.000267   0.032519   0.002527
    25  H    0.428547   0.000031  -0.000001  -0.000001   0.007592  -0.000112
    26  F    0.000031   8.934951  -0.041782  -0.036929   0.055929  -0.011647
    27  F   -0.000001  -0.041782   8.947623  -0.041976  -0.117849  -0.004184
    28  F   -0.000001  -0.036929  -0.041976   8.938523   0.152913   0.023942
    29  S    0.007592   0.055929  -0.117849   0.152913  23.143887   0.182875
    30  O   -0.000112  -0.011647  -0.004184   0.023942   0.182875   9.503286
    31  O    0.000877   0.017472  -0.003306  -0.011756  -0.816258  -0.822192
    32  H    0.000064   0.000194  -0.000171  -0.002698   0.033028  -0.003938
              31         32
     1  C    0.229710   0.008187
     2  N    0.000067  -0.001011
     3  C    0.008245   0.009122
     4  O    0.000006  -0.000076
     5  O    0.000003   0.000009
     6  C    0.000057   0.000145
     7  C   -0.000001   0.000000
     8  C    0.000000   0.000000
     9  C    0.665751  -0.049397
    10  C    2.282805   0.423895
    11  C    0.517850  -0.035088
    12  C   -2.344483  -0.042522
    13  C   -0.964135  -0.018888
    14  H    0.000003   0.000010
    15  H   -0.000000  -0.000000
    16  H   -0.000000   0.000000
    17  H    0.000000  -0.000000
    18  H    0.000000   0.000000
    19  H   -0.000000   0.000000
    20  H    0.000000   0.000000
    21  H   -0.000000  -0.000000
    22  H   -0.000059  -0.002071
    23  C   -0.028370  -0.002075
    24  H   -0.010981  -0.000121
    25  H    0.000877   0.000064
    26  F    0.017472   0.000194
    27  F   -0.003306  -0.000171
    28  F   -0.011756  -0.002698
    29  S   -0.816258   0.033028
    30  O   -0.822192  -0.003938
    31  O    9.352544   0.000664
    32  H    0.000664   0.375329
 Mulliken charges:
               1
     1  C   -0.614014
     2  N   -0.462586
     3  C    0.044870
     4  O   -0.289125
     5  O   -0.055041
     6  C   -0.335026
     7  C   -0.137989
     8  C   -1.026484
     9  C   -0.117799
    10  C   -0.266120
    11  C   -0.019645
    12  C   -0.137364
    13  C   -0.493485
    14  H    0.403450
    15  H    0.270421
    16  H    0.270047
    17  H    0.259476
    18  H    0.259736
    19  H    0.260308
    20  H    0.275405
    21  H    0.260313
    22  H    0.312650
    23  C    0.004762
    24  H    0.305289
    25  H    0.243420
    26  F   -0.035139
    27  F   -0.061865
    28  F   -0.034009
    29  S    0.750029
    30  O   -0.067380
    31  O   -0.074513
    32  H    0.307408
 Sum of Mulliken charges =  -0.00000
 Mulliken charges with hydrogens summed into heavy atoms:
               1
     1  C   -0.614014
     2  N   -0.059135
     3  C    0.044870
     4  O   -0.289125
     5  O   -0.055041
     6  C    0.205442
     7  C    0.381222
     8  C   -0.230459
     9  C    0.194852
    10  C    0.041288
    11  C   -0.019645
    12  C    0.167925
    13  C   -0.250065
    23  C    0.004762
    26  F   -0.035139
    27  F   -0.061865
    28  F   -0.034009
    29  S    0.750029
    30  O   -0.067380
    31  O   -0.074513
 Electronic spatial extent (au):  <R**2>=          10801.2331
 Charge=             -0.0000 electrons
 Dipole moment (field-independent basis, Debye):
    X=              7.7722    Y=              1.9746    Z=              2.4384  Tot=              8.3816
 Quadrupole moment (field-independent basis, Debye-Ang):
   XX=           -122.1299   YY=           -121.9194   ZZ=           -127.6492
   XY=              6.6239   XZ=             -5.3043   YZ=              1.2017
 Traceless Quadrupole moment (field-independent basis, Debye-Ang):
   XX=              1.7696   YY=              1.9801   ZZ=             -3.7497
   XY=              6.6239   XZ=             -5.3043   YZ=              1.2017
 Octapole moment (field-independent basis, Debye-Ang**2):
  XXX=            212.4167  YYY=              0.5763  ZZZ=             26.2831  XYY=            -10.9951
  XXY=            -11.3938  XXZ=             52.8811  XZZ=             -3.8725  YZZ=             -4.4398
  YYZ=             16.1793  XYZ=             -2.5505
 Hexadecapole moment (field-independent basis, Debye-Ang**3):
 XXXX=         -11488.8451 YYYY=           -703.3774 ZZZZ=           -596.1619 XXXY=            108.0069
 XXXZ=           -180.4483 YYYX=             81.3182 YYYZ=             13.2366 ZZZX=           -107.7053
 ZZZY=            -17.0717 XXYY=          -2262.1398 XXZZ=          -2190.0137 YYZZ=           -225.0447
 XXYZ=            -23.2599 YYXZ=            -30.7152 ZZXY=              5.4567
 N-N= 1.753079038260D+03 E-N=-6.991837271751D+03  KE= 1.475856700417D+03
 Calling FoFJK, ICntrl=      2127 FMM=F ISym2X=0 I1Cent= 0 IOpClX= 0 NMat=1 NMatS=1 NMatT=0.
 ***** Axes restored to original set *****
 -------------------------------------------------------------------
 Center     Atomic                   Forces (Hartrees/Bohr)
 Number     Number              X              Y              Z
 -------------------------------------------------------------------
      1        6          -0.000004967   -0.000000083   -0.000000822
      2        7          -0.000007586   -0.000001547    0.000001528
      3        6           0.000014812   -0.000021019    0.000000730
      4        8           0.000001227    0.000001193    0.000001594
      5        8          -0.000019919    0.000012824    0.000000995
      6        6           0.000012073    0.000002124   -0.000004240
      7        6           0.000000100   -0.000000089    0.000001009
      8        6           0.000000405   -0.000000517   -0.000000997
      9        6          -0.000000040   -0.000004628   -0.000000289
     10        6          -0.000004460    0.000001633    0.000002647
     11        6           0.000008351   -0.000005677   -0.000006872
     12        6          -0.000000113    0.000003835   -0.000000135
     13        6           0.000002017    0.000000863    0.000001178
     14        1          -0.000001135    0.000002478   -0.000002601
     15        1          -0.000000310    0.000000042   -0.000000231
     16        1          -0.000000019   -0.000000572    0.000000587
     17        1          -0.000000463   -0.000000436   -0.000000451
     18        1          -0.000000126   -0.000001161   -0.000001717
     19        1          -0.000000218   -0.000001447    0.000000054
     20        1          -0.000000646   -0.000000622   -0.000000569
     21        1          -0.000000096   -0.000001793   -0.000000553
     22        1           0.000001959    0.000000227    0.000000481
     23        6           0.000016996    0.000000032    0.000010243
     24        1          -0.000000285    0.000000187   -0.000000382
     25        1           0.000000119    0.000000653   -0.000001148
     26        9           0.000001733   -0.000007697   -0.000003800
     27        9          -0.000018892    0.000008620    0.000001171
     28        9           0.000006074    0.000006145   -0.000004671
     29       16          -0.000006785    0.000012715    0.000013299
     30        8           0.000000557   -0.000000703   -0.000006349
     31        8          -0.000000884   -0.000005498   -0.000000236
     32        1           0.000000521   -0.000000083    0.000000551
 -------------------------------------------------------------------
 Cartesian Forces:  Max     0.000021019 RMS     0.000005772

 GradGradGradGradGradGradGradGradGradGradGradGradGradGradGradGradGradGrad
 Berny optimization.
 FormGI is forming the generalized inverse of G from B-inverse, IUseBI=4.
 GSVD:  received Info=                   1 from GESDD.
 Internal  Forces:  Max     0.000020419 RMS     0.000003764
 Search for a local minimum.
 Step number   1 out of a maximum of  167
 All quantities printed in internal units (Hartrees-Bohrs-Radians)
 Mixed Optimization -- En-DIIS/RFO-DIIS
 Second derivative matrix not updated -- first step.
 ITU=  0
     Eigenvalues ---    0.00230   0.00418   0.00592   0.00894   0.01197
     Eigenvalues ---    0.01692   0.01775   0.01884   0.01980   0.01998
     Eigenvalues ---    0.02086   0.02152   0.02161   0.02187   0.02219
     Eigenvalues ---    0.02233   0.02247   0.02277   0.02471   0.03816
     Eigenvalues ---    0.04970   0.05389   0.05501   0.05540   0.05710
     Eigenvalues ---    0.08117   0.08729   0.08844   0.09209   0.09280
     Eigenvalues ---    0.10974   0.11295   0.12016   0.13616   0.15998
     Eigenvalues ---    0.15999   0.16000   0.16000   0.16000   0.16000
     Eigenvalues ---    0.16000   0.16000   0.17474   0.21490   0.21882
     Eigenvalues ---    0.21942   0.22000   0.22000   0.22981   0.23998
     Eigenvalues ---    0.24994   0.25000   0.25000   0.25000   0.25000
     Eigenvalues ---    0.25000   0.25000   0.25000   0.25000   0.29503
     Eigenvalues ---    0.29767   0.31036   0.34429   0.34429   0.34508
     Eigenvalues ---    0.34509   0.34509   0.34512   0.34748   0.35397
     Eigenvalues ---    0.35519   0.35548   0.36128   0.39944   0.41934
     Eigenvalues ---    0.42789   0.45933   0.46039   0.46264   0.46678
     Eigenvalues ---    0.47393   0.48598   0.49682   0.56956   0.60225
     Eigenvalues ---    0.60423   0.61731   0.97072   0.97367   1.03739
 RFO step:  Lambda= 0.00000000D+00 EMin= 2.30000000D-03
 Linear search not attempted -- first point.
 Iteration  1 RMS(Cart)=  0.00019333 RMS(Int)=  0.00000001
 Iteration  2 RMS(Cart)=  0.00000003 RMS(Int)=  0.00000000
 Variable       Old X    -DE/DX   Delta X   Delta X   Delta X     New X
                                 (Linear)    (Quad)   (Total)
    R1        2.63374   0.00000   0.00000   0.00000   0.00000   2.63375
    R2        2.64869  -0.00000   0.00000  -0.00001  -0.00001   2.64868
    R3        2.65309  -0.00000   0.00000  -0.00001  -0.00001   2.65309
    R4        2.60187   0.00001   0.00000   0.00001   0.00001   2.60189
    R5        1.90787  -0.00000   0.00000  -0.00001  -0.00001   1.90787
    R6        2.27177   0.00000   0.00000   0.00000   0.00000   2.27178
    R7        2.53434  -0.00002   0.00000  -0.00003  -0.00003   2.53431
    R8        2.71630   0.00001   0.00000   0.00003   0.00003   2.71633
    R9        2.85943  -0.00000   0.00000  -0.00000  -0.00000   2.85943
   R10        2.06474   0.00000   0.00000   0.00000   0.00000   2.06474
   R11        2.06480  -0.00000   0.00000  -0.00000  -0.00000   2.06480
   R12        2.88430   0.00000   0.00000   0.00000   0.00000   2.88430
   R13        2.06611  -0.00000   0.00000  -0.00000  -0.00000   2.06611
   R14        2.06612  -0.00000   0.00000  -0.00000  -0.00000   2.06611
   R15        2.06480  -0.00000   0.00000  -0.00000  -0.00000   2.06480
   R16        2.06085  -0.00000   0.00000  -0.00000  -0.00000   2.06085
   R17        2.06481  -0.00000   0.00000  -0.00000  -0.00000   2.06481
   R18        2.61952  -0.00000   0.00000  -0.00000  -0.00000   2.61951
   R19        2.03882   0.00000   0.00000   0.00000   0.00000   2.03883
   R20        2.62762  -0.00000   0.00000  -0.00001  -0.00001   2.62761
   R21        2.04841  -0.00000   0.00000  -0.00000  -0.00000   2.04841
   R22        2.63164  -0.00000   0.00000  -0.00000  -0.00000   2.63164
   R23        3.32666   0.00001   0.00000   0.00002   0.00002   3.32668
   R24        2.60910   0.00000   0.00000   0.00000   0.00000   2.60910
   R25        2.04795   0.00000   0.00000   0.00000   0.00000   2.04795
   R26        2.05035  -0.00000   0.00000  -0.00000  -0.00000   2.05035
   R27        2.50763   0.00001   0.00000   0.00002   0.00002   2.50765
   R28        2.49596   0.00002   0.00000   0.00003   0.00003   2.49599
   R29        2.50607   0.00001   0.00000   0.00001   0.00001   2.50609
   R30        3.52773  -0.00000   0.00000  -0.00001  -0.00001   3.52772
   R31        2.73412  -0.00000   0.00000  -0.00000  -0.00000   2.73412
   R32        2.73535   0.00000   0.00000   0.00001   0.00001   2.73535
    A1        2.15034  -0.00001   0.00000  -0.00003  -0.00003   2.15031
    A2        2.03948   0.00001   0.00000   0.00002   0.00002   2.03950
    A3        2.09336   0.00000   0.00000   0.00000   0.00000   2.09337
    A4        2.22968  -0.00001   0.00000  -0.00003  -0.00003   2.22965
    A5        2.04731   0.00000   0.00000   0.00001   0.00001   2.04732
    A6        2.00618   0.00000   0.00000   0.00002   0.00002   2.00620
    A7        2.20660  -0.00001   0.00000  -0.00003  -0.00003   2.20657
    A8        1.89689   0.00002   0.00000   0.00007   0.00007   1.89696
    A9        2.17969  -0.00001   0.00000  -0.00004  -0.00004   2.17965
   A10        2.01464  -0.00000   0.00000  -0.00002  -0.00002   2.01462
   A11        1.87947   0.00000   0.00000   0.00002   0.00002   1.87949
   A12        1.89782  -0.00000   0.00000  -0.00001  -0.00001   1.89782
   A13        1.89788  -0.00000   0.00000  -0.00000  -0.00000   1.89788
   A14        1.95174  -0.00000   0.00000  -0.00000  -0.00000   1.95174
   A15        1.95220   0.00000   0.00000   0.00000   0.00000   1.95220
   A16        1.88356  -0.00000   0.00000  -0.00001  -0.00001   1.88355
   A17        1.93525  -0.00000   0.00000  -0.00000  -0.00000   1.93525
   A18        1.90292   0.00000   0.00000  -0.00000  -0.00000   1.90292
   A19        1.90231   0.00000   0.00000   0.00000   0.00000   1.90231
   A20        1.92702   0.00000   0.00000  -0.00000  -0.00000   1.92702
   A21        1.92703  -0.00000   0.00000   0.00000   0.00000   1.92703
   A22        1.86782  -0.00000   0.00000  -0.00000  -0.00000   1.86781
   A23        1.94269  -0.00000   0.00000  -0.00000  -0.00000   1.94269
   A24        1.93735   0.00000   0.00000   0.00000   0.00000   1.93735
   A25        1.94264   0.00000   0.00000   0.00000   0.00000   1.94264
   A26        1.87901  -0.00000   0.00000  -0.00000  -0.00000   1.87901
   A27        1.88026   0.00000   0.00000   0.00000   0.00000   1.88026
   A28        1.87900  -0.00000   0.00000  -0.00000  -0.00000   1.87899
   A29        2.08314   0.00000   0.00000   0.00001   0.00001   2.08315
   A30        2.09803  -0.00000   0.00000  -0.00001  -0.00001   2.09803
   A31        2.10200   0.00000   0.00000   0.00000   0.00000   2.10200
   A32        2.09205  -0.00000   0.00000  -0.00001  -0.00001   2.09204
   A33        2.09989   0.00000   0.00000   0.00000   0.00000   2.09990
   A34        2.09117   0.00000   0.00000   0.00000   0.00000   2.09118
   A35        2.11991   0.00000   0.00000   0.00001   0.00001   2.11991
   A36        2.08425  -0.00000   0.00000  -0.00002  -0.00002   2.08424
   A37        2.07882   0.00000   0.00000   0.00001   0.00001   2.07883
   A38        2.07206   0.00000   0.00000   0.00000   0.00000   2.07206
   A39        2.09722   0.00000   0.00000   0.00000   0.00000   2.09722
   A40        2.11383  -0.00000   0.00000  -0.00000  -0.00000   2.11383
   A41        2.10585  -0.00000   0.00000  -0.00001  -0.00001   2.10584
   A42        2.08876   0.00000   0.00000  -0.00000  -0.00000   2.08876
   A43        2.08857   0.00000   0.00000   0.00001   0.00001   2.08858
   A44        1.90964   0.00000   0.00000   0.00000   0.00000   1.90964
   A45        1.90125  -0.00000   0.00000  -0.00001  -0.00001   1.90125
   A46        1.91891  -0.00000   0.00000  -0.00001  -0.00001   1.91890
   A47        1.91044   0.00000   0.00000   0.00001   0.00001   1.91044
   A48        1.90409  -0.00000   0.00000  -0.00001  -0.00001   1.90408
   A49        1.91946   0.00000   0.00000   0.00001   0.00001   1.91947
   A50        1.77760  -0.00001   0.00000  -0.00006  -0.00006   1.77754
   A51        1.91792   0.00000   0.00000   0.00002   0.00002   1.91794
   A52        1.91456  -0.00000   0.00000  -0.00000  -0.00000   1.91456
   A53        1.83485  -0.00000   0.00000  -0.00003  -0.00003   1.83482
   A54        1.83459   0.00000   0.00000  -0.00000  -0.00000   1.83459
   A55        2.14449   0.00000   0.00000   0.00004   0.00004   2.14454
    D1       -0.00199   0.00000   0.00000   0.00007   0.00007  -0.00192
    D2        3.13435   0.00000   0.00000   0.00013   0.00013   3.13448
    D3       -3.13929   0.00000   0.00000   0.00006   0.00006  -3.13924
    D4       -0.00295   0.00000   0.00000   0.00012   0.00012  -0.00284
    D5       -3.13942  -0.00000   0.00000  -0.00003  -0.00003  -3.13945
    D6       -0.00349  -0.00000   0.00000  -0.00001  -0.00001  -0.00350
    D7       -0.00224  -0.00000   0.00000  -0.00002  -0.00002  -0.00226
    D8        3.13369   0.00000   0.00000  -0.00000  -0.00000   3.13369
    D9        3.14050   0.00000   0.00000   0.00002   0.00002   3.14051
   D10        0.00486   0.00000   0.00000   0.00000   0.00000   0.00486
   D11        0.00304   0.00000   0.00000   0.00001   0.00001   0.00305
   D12       -3.13260  -0.00000   0.00000  -0.00000  -0.00000  -3.13260
   D13       -0.00567   0.00000   0.00000   0.00005   0.00005  -0.00563
   D14        3.13607   0.00000   0.00000   0.00011   0.00011   3.13618
   D15        3.14106  -0.00000   0.00000  -0.00001  -0.00001   3.14105
   D16       -0.00038   0.00000   0.00000   0.00005   0.00005  -0.00033
   D17        3.14157  -0.00000   0.00000  -0.00013  -0.00013   3.14144
   D18        0.00013  -0.00000   0.00000  -0.00007  -0.00007   0.00005
   D19        3.13698  -0.00000   0.00000  -0.00012  -0.00012   3.13685
   D20        1.01905  -0.00000   0.00000  -0.00012  -0.00012   1.01892
   D21       -1.02770  -0.00000   0.00000  -0.00011  -0.00011  -1.02781
   D22       -3.14133   0.00000   0.00000  -0.00000  -0.00000  -3.14133
   D23        1.01669   0.00000   0.00000  -0.00000  -0.00000   1.01668
   D24       -1.01655   0.00000   0.00000  -0.00000  -0.00000  -1.01655
   D25       -1.05740   0.00000   0.00000  -0.00000  -0.00000  -1.05740
   D26        3.10061   0.00000   0.00000  -0.00000  -0.00000   3.10061
   D27        1.06737   0.00000   0.00000   0.00000   0.00000   1.06737
   D28        1.05759  -0.00000   0.00000  -0.00001  -0.00001   1.05758
   D29       -1.06758  -0.00000   0.00000  -0.00001  -0.00001  -1.06759
   D30       -3.10082  -0.00000   0.00000  -0.00001  -0.00001  -3.10083
   D31       -1.05046   0.00000   0.00000  -0.00001  -0.00001  -1.05047
   D32        3.14003   0.00000   0.00000  -0.00001  -0.00001   3.14001
   D33        1.04738   0.00000   0.00000  -0.00001  -0.00001   1.04737
   D34        1.06053  -0.00000   0.00000  -0.00001  -0.00001   1.06052
   D35       -1.03217  -0.00000   0.00000  -0.00001  -0.00001  -1.03218
   D36       -3.12481   0.00000   0.00000  -0.00001  -0.00001  -3.12482
   D37        3.12250  -0.00000   0.00000  -0.00002  -0.00002   3.12248
   D38        1.02980  -0.00000   0.00000  -0.00002  -0.00002   1.02978
   D39       -1.06284  -0.00000   0.00000  -0.00002  -0.00002  -1.06286
   D40        0.00004   0.00000   0.00000   0.00001   0.00001   0.00005
   D41        3.12878   0.00000   0.00000   0.00002   0.00002   3.12880
   D42       -3.13588  -0.00000   0.00000  -0.00001  -0.00001  -3.13589
   D43       -0.00714  -0.00000   0.00000  -0.00000  -0.00000  -0.00714
   D44        0.00145   0.00000   0.00000   0.00001   0.00001   0.00146
   D45       -3.11802   0.00000   0.00000   0.00000   0.00000  -3.11802
   D46       -3.12736   0.00000   0.00000   0.00000   0.00000  -3.12736
   D47        0.03636  -0.00000   0.00000  -0.00001  -0.00001   0.03635
   D48       -0.00067  -0.00000   0.00000  -0.00002  -0.00002  -0.00070
   D49        3.12736  -0.00000   0.00000  -0.00000  -0.00000   3.12736
   D50        3.11886  -0.00000   0.00000  -0.00002  -0.00002   3.11884
   D51       -0.03629   0.00000   0.00000   0.00001   0.00001  -0.03628
   D52        1.55131  -0.00000   0.00000   0.00011   0.00011   1.55143
   D53       -0.38721   0.00001   0.00000   0.00016   0.00016  -0.38705
   D54       -2.79486  -0.00000   0.00000   0.00008   0.00008  -2.79478
   D55       -1.56868  -0.00000   0.00000   0.00010   0.00010  -1.56857
   D56        2.77599   0.00001   0.00000   0.00015   0.00015   2.77614
   D57        0.36833  -0.00000   0.00000   0.00007   0.00007   0.36841
   D58       -0.00157   0.00000   0.00000   0.00002   0.00002  -0.00156
   D59        3.13407   0.00000   0.00000   0.00003   0.00003   3.13410
   D60       -3.12947  -0.00000   0.00000  -0.00001  -0.00001  -3.12948
   D61        0.00617   0.00000   0.00000   0.00001   0.00001   0.00617
   D62        1.04417  -0.00000   0.00000   0.00002   0.00002   1.04420
   D63        3.04490  -0.00000   0.00000   0.00002   0.00002   3.04491
   D64       -0.95278   0.00000   0.00000   0.00005   0.00005  -0.95273
   D65        3.13838  -0.00000   0.00000   0.00002   0.00002   3.13839
   D66       -1.14408  -0.00000   0.00000   0.00001   0.00001  -1.14407
   D67        1.14142   0.00000   0.00000   0.00004   0.00004   1.14147
   D68       -1.04929  -0.00000   0.00000   0.00003   0.00003  -1.04926
   D69        0.95143  -0.00000   0.00000   0.00002   0.00002   0.95145
   D70       -3.04625   0.00000   0.00000   0.00006   0.00006  -3.04619
         Item               Value     Threshold  Converged?
 Maximum Force            0.000020     0.000450     YES
 RMS     Force            0.000004     0.000300     YES
 Maximum Displacement     0.000742     0.001800     YES
 RMS     Displacement     0.000193     0.001200     YES
 Predicted change in Energy=-4.897935D-09
 Optimization completed.
    -- Stationary point found.
                           ----------------------------
                           !   Optimized Parameters   !
                           ! (Angstroms and Degrees)  !
 --------------------------                            --------------------------
 ! Name  Definition              Value          Derivative Info.                !
 --------------------------------------------------------------------------------
 ! R1    R(1,2)                  1.3937         -DE/DX =    0.0                 !
 ! R2    R(1,9)                  1.4016         -DE/DX =    0.0                 !
 ! R3    R(1,13)                 1.404          -DE/DX =    0.0                 !
 ! R4    R(2,3)                  1.3769         -DE/DX =    0.0                 !
 ! R5    R(2,14)                 1.0096         -DE/DX =    0.0                 !
 ! R6    R(3,4)                  1.2022         -DE/DX =    0.0                 !
 ! R7    R(3,5)                  1.3411         -DE/DX =    0.0                 !
[...]
 00083835,0.00049144,0.00097349,0.00127468,-0.00048409,-0.00250563,0.00
 091744,-0.00614775,-0.00003949,-0.00170053,-0.00041488,-0.00119664,-0.
 00017460,0.00052974,0.00003935,-0.00015697,0.00000875,-0.00005597,-0.0
 0002932,0.00000224,-0.00005548,-0.00002777,0.00000329,0.00000857,0.000
 00591,-0.00000226,0.00000827,0.00000681,0.00000038,0.00000735,-0.00001
 697,0.00000393,-0.00004638,0.00001565,0.00000410,0.00000591,-0.0000168
 2,-0.00000606,0.00001224,0.00007244,0.00009213,-0.29422136,0.08190386,
 -0.03536770,-0.00005415,-0.00006677,-0.00014284,-0.00016147,0.00011467
 ,0.00010107,-0.01677220,0.03920522,0.01275290,0.40552748,-0.00081578,0
 .00032168,0.00006759,0.00116832,-0.00002016,-0.00006208,-0.00104134,-0
 .00038424,0.00008363,0.00026759,0.00027552,-0.00001714,0.00055030,-0.0
 0014181,-0.00005545,-0.00023436,-0.00006235,0.00001988,0.00001286,0.00
 002660,-0.00000176,-0.00000143,-0.00002540,0.00000009,0.00037723,-0.00
 027184,-0.00022784,-0.00054218,-0.00059843,0.00004347,0.00087957,-0.00
 054156,0.00232145,0.00010250,0.00044684,0.00030773,0.00037802,0.000174
 23,-0.00015700,-0.00002829,0.00005175,-0.00001012,0.00002231,0.0000107
 3,0.00000075,0.00002263,0.00000977,-0.00000391,-0.00000374,-0.00000173
 ,0.00000318,-0.00000389,-0.00000141,-0.00000211,-0.00000188,0.00000624
 ,-0.00000322,0.00001633,-0.00000494,-0.00000161,-0.00000127,0.00000617
 ,0.00000357,0.00001202,-0.00003628,-0.00002213,0.08200130,-0.10304410,
 0.01312059,-0.00000088,0.00011279,-0.00010104,0.00004487,-0.00003605,-
 0.00005057,0.05411547,-0.03998284,-0.01081968,-0.11978400,0.12465946,0
 .00163385,-0.00062996,-0.00027271,-0.00236850,0.00018900,0.00016206,0.
 00188818,0.00069677,-0.00021167,-0.00045772,-0.00047861,0.00006208,-0.
 00096634,0.00028691,0.00012280,0.00038687,0.00010000,-0.00004494,-0.00
 002300,-0.00005231,-0.00000338,-0.00000022,0.00004480,-0.00000081,-0.0
 0079586,0.00071355,0.00076367,0.00071994,0.00139456,-0.00044943,-0.002
 33987,0.00090837,-0.00543713,-0.00033725,-0.00148745,-0.00047404,-0.00
 118323,-0.00010401,0.00076896,0.00000440,-0.00011626,-0.00003607,-0.00
 003664,-0.00001655,0.00000480,-0.00004271,-0.00002041,0.00000525,0.000
 00473,0.00000795,0.00000073,0.00000613,0.00000108,0.00000283,0.0000023
 1,-0.00001201,0.00000413,-0.00002810,0.00000750,0.00000140,0.00000431,
 -0.00000762,-0.00000175,-0.00007120,0.00007670,0.00004225,-0.04183970,
 0.01553164,-0.08384620,-0.00003114,0.00001597,-0.00044520,-0.00017423,
 0.00010953,0.00005367,0.02585113,-0.02074902,0.00971041,0.01036646,-0.
 00369430,0.06629338,0.00029568,0.00037200,0.00015333,0.00005001,0.0000
 3633,-0.00001623,0.00019181,-0.00031410,0.00005212,-0.00010324,0.00018
 119,-0.00004898,-0.00019370,0.00012659,0.00000243,0.00009301,0.0000041
 5,0.00000978,0.00000004,-0.00001147,0.00000126,-0.00000066,0.00001055,
 0.00000244,0.00093654,-0.00016234,-0.00061397,-0.00024368,-0.00039236,
 -0.00028564,0.00062281,0.00072090,0.00072856,0.00067359,-0.00060425,-0
 .00013871,-0.00039212,0.00014484,-0.00012230,0.00000135,-0.00002310,0.
 00002973,-0.00000542,-0.00000611,0.00000049,0.00000074,-0.00000369,-0.
 00000656,0.00000091,-0.00000145,0.00000151,-0.00000085,0.00000526,-0.0
 0000476,0.00000418,-0.00000194,-0.00000315,-0.00000963,0.00000541,0.00
 000128,0.00000187,-0.00000498,-0.00000058,0.00012640,-0.00004549,0.000
 03795,-0.14794371,-0.08390349,0.06930932,-0.00014247,0.00020174,0.0000
 5599,0.00002963,-0.00001809,0.00000285,0.00336253,-0.02872262,-0.00106
 183,-0.07286236,-0.02682514,0.03223048,0.21670837,-0.00052974,0.000086
 14,0.00008857,0.00085264,0.00009955,-0.00010001,-0.00068356,-0.0005354
 8,0.00009486,0.00016476,0.00036017,-0.00006123,0.00029608,-0.00000670,
 -0.00003592,-0.00012345,-0.00005414,0.00002822,0.00001147,0.00001222,-
 0.00000002,-0.00000250,-0.00001264,0.00000335,0.00061536,0.00018631,-0
 .00024913,0.00015908,-0.00131631,0.00002702,0.00141449,0.00093035,0.00
 044714,-0.00005153,0.00024982,-0.00009100,0.00025658,0.00030451,0.0000
 5284,-0.00003619,0.00001347,0.00001936,0.00001396,0.00000353,0.0000009
 7,0.00001848,0.00000617,-0.00000975,-0.00000242,-0.00000277,0.00000449
 ,-0.00000420,0.00000397,-0.00000683,0.00000212,0.00000407,-0.00000629,
 0.00000578,0.00000037,-0.00000015,0.00000063,0.00000082,0.00000285,0.0
 0010620,-0.00007319,0.00002391,-0.08700683,-0.16925134,0.08267200,-0.0
 0019918,0.00031584,-0.00017887,0.00003758,-0.00002790,0.00000469,-0.03
 488044,-0.07155972,0.01065647,-0.01160557,0.01599467,-0.00096537,0.144
 05682,0.23161891,0.00096111,-0.00022762,-0.00018387,-0.00152759,0.0000
 3280,0.00020786,0.00123531,0.00060446,-0.00021073,-0.00032411,-0.00041
 060,0.00011386,-0.00061095,0.00014149,0.00009376,0.00023838,0.00008128
 ,-0.00005338,-0.00001874,-0.00003262,-0.00000530,0.00000085,0.00002806
 ,-0.00000386,-0.00073133,-0.00002727,0.00026346,-0.00070827,0.00164403
 ,-0.00029330,-0.00259775,-0.00159231,-0.00064323,0.00006619,-0.0006353
 8,-0.00001930,-0.00075043,-0.00015424,0.00021348,0.00001788,-0.0000523
 1,-0.00006246,-0.00002283,-0.00000828,0.00000572,-0.00003183,-0.000016
 73,0.00001018,0.00000271,0.00000953,-0.00000004,0.00000565,-0.00000476
 ,0.00000765,-0.00000191,-0.00000965,0.00000675,-0.00001537,0.00000223,
 -0.00000041,0.00000259,-0.00000162,-0.00000032,-0.00012853,0.00009789,
 -0.00003170,0.07360943,0.08483850,-0.14946866,0.00025225,-0.00026960,-
 0.00022190,-0.00012136,0.00008680,-0.00003925,-0.00843341,-0.00920267,
 0.02029747,0.01605988,-0.00006094,0.01001169,-0.10210598,-0.10120965,0
 .13811269,-0.01282710,0.00322674,0.00137504,0.01723022,-0.00155814,-0.
 00185045,-0.01355080,-0.00513787,0.00090985,0.00302090,0.00352347,-0.0
 0018870,0.00680962,-0.00205118,-0.00064541,-0.00271458,-0.00066502,0.0
 0025106,0.00015167,0.00036710,-0.00000593,0.00000185,-0.00031188,-0.00
 000764,0.00476054,-0.00894624,0.00106463,-0.03483212,-0.00047884,0.002
 16759,-0.14942543,0.02777643,-0.00221514,-0.01147577,0.02537963,0.0013
 7286,0.01221615,-0.00062475,0.00073971,0.00004037,0.00091950,0.0000402
 5,0.00027995,0.00012430,-0.00002399,0.00028077,0.00012672,-0.00002294,
 -0.00003374,-0.00003456,0.00000280,-0.00003708,-0.00002788,0.00000020,
 -0.00002534,0.00006931,-0.00001494,0.00019934,-0.00005462,-0.00001816,
 -0.00002495,0.00006662,0.00002085,-0.00002314,0.00006372,0.00003628,-0
 .04273438,0.00939947,-0.03380582,0.00089063,-0.00329190,-0.00122367,0.
 00120610,-0.00084407,-0.00013450,0.00360238,0.00229412,0.00573933,-0.0
 3069766,0.01201389,-0.02676912,-0.00489571,-0.01712259,0.02826771,0.60
 548230,0.00319288,-0.00573750,-0.00057893,-0.00669504,0.00019262,0.000
 75888,0.00526438,0.00259762,-0.00025154,-0.00124230,-0.00171938,0.0000
 4758,-0.00257987,0.00059309,0.00021836,0.00104687,0.00032430,-0.000105
 67,-0.00006864,-0.00012837,0.00000085,0.00000736,0.00011639,0.00000476
 ,-0.00879955,-0.00061907,-0.00036941,-0.00267223,0.01857526,0.00049388
 ,0.02706929,-0.08614044,0.00084728,0.02789974,-0.00590161,-0.00164582,
 -0.00149753,-0.00748694,-0.00046254,0.00003079,-0.00028836,-0.00003751
 ,-0.00011393,-0.00004294,-0.00000817,-0.00011043,-0.00004676,0.0000249
 6,0.00001564,0.00000731,-0.00001726,0.00001887,0.00000536,0.00001533,0
 .00000374,-0.00002518,0.00001752,-0.00006749,0.00001408,0.00000577,0.0
 0000125,-0.00002363,-0.00001925,-0.00101119,0.00081978,0.00019070,0.00
 942522,-0.02191238,0.01384766,0.00221334,-0.00410804,-0.00043200,0.000
 99988,0.00002335,-0.00014996,-0.00685823,-0.02164478,-0.03723637,0.011
 64237,-0.00319074,0.00978874,-0.00760718,-0.01360878,0.02440586,0.1837
 2440,1.03724244,0.00177001,-0.00068651,-0.00083310,-0.00253705,0.00021
 685,-0.00107018,0.00181055,0.00081470,-0.00007992,-0.00041110,-0.00051
 799,-0.00020474,-0.00089100,0.00025172,0.00019208,0.00035414,0.0000744
 2,0.00006058,-0.00001848,-0.00004537,0.00001874,-0.00000166,0.00004108
 ,0.00000754,-0.00029167,0.00026453,0.00695328,0.00323377,0.00172539,-0
 .00355523,0.00524765,-0.00192882,-0.06413823,0.00115862,-0.00321222,-0
 .00372051,-0.00048960,-0.00010616,0.00699585,0.00001703,-0.00011625,0.
 00019014,-0.00003812,-0.00002852,-0.00001724,-0.00003845,-0.00000048,-
 0.00001217,0.00000523,-0.00000947,-0.00001093,0.00000317,0.00001761,-0
 .00000878,0.00000837,0.00000012,-0.00000462,-0.00002518,0.00000711,0.0
 0000675,-0.00000327,-0.00001714,-0.00001018,-0.00000845,0.00004436,0.0
 0101615,-0.04219450,0.01680050,-0.15846022,-0.00079985,0.00101673,-0.0
 0227848,-0.00007470,0.00006166,0.00102224,-0.00054101,0.00135596,-0.00
 296503,0.01097008,-0.00410876,0.00702495,-0.00133870,-0.00079875,-0.00
 249240,-0.08327536,0.03695289,0.53387951,0.00208185,-0.00009155,-0.000
 18170,-0.00272616,0.00024576,0.00035175,0.00258694,0.00060360,-0.00018
 014,-0.00071875,-0.00046479,0.00006864,-0.00143526,0.00046403,0.000144
 08,0.00058738,0.00013768,-0.00006056,-0.00003075,-0.00007490,-0.000000
 14,-0.00000028,0.00006691,0.00000134,0.00039883,0.00167547,-0.00070443
 ,-0.00046750,-0.00059132,0.00097925,0.00591264,0.02463326,0.01088668,-
 0.00447450,-0.00352262,0.00213292,-0.00142016,0.00213054,-0.00091543,0
 .00002341,-0.00015145,-0.00002767,-0.00005352,-0.00002838,0.00000747,-
 0.00005398,-0.00003017,0.00000431,0.00000671,0.00000912,0.00000020,0.0
 0000864,0.00000570,0.00000057,0.00000593,-0.00001667,0.00000334,-0.000
 04451,0.00001377,0.00000393,0.00000677,-0.00001508,-0.00000389,0.00012
 887,-0.00002889,0.00000692,0.00354767,-0.00591940,0.00290635,-0.000014
 25,0.00052671,0.00043700,-0.00064321,0.00021440,-0.00015029,-0.0000183
 2,-0.00210105,-0.00415047,0.00389679,-0.00159258,0.00147683,0.00227242
 ,0.00319962,-0.00363757,-0.08314703,0.00047986,-0.00194214,0.06030252,
 -0.00306449,0.00058609,0.00020485,0.00377810,0.00020576,-0.00038344,-0
 .00310490,-0.00151156,0.00012291,0.00077887,0.00104723,0.00000321,0.00
 153897,-0.00032479,-0.00011816,-0.00063941,-0.00019168,0.00004563,0.00
 004121,0.00007553,-0.00000467,-0.00000518,-0.00006949,-0.00000320,0.00
 172377,0.00101514,0.00058221,-0.00218736,-0.00412587,0.00023489,-0.006
 66512,-0.01455372,-0.00812803,0.00575937,0.00208943,-0.00177837,0.0014
 8353,-0.00103666,0.00056172,-0.00015683,0.00015485,0.00000421,0.000070
 90,0.00002753,0.00000616,0.00006450,0.00002609,-0.00001302,-0.00001052
 ,-0.00000121,0.00001252,-0.00001205,-0.00000528,-0.00000772,-0.0000036
 0,0.00001403,-0.00000922,0.00004196,-0.00000942,-0.00000459,-0.0000002
 9,0.00001652,0.00001284,0.00029468,-0.00023797,-0.00002659,0.00400719,
 -0.01919989,0.01221201,-0.00047353,0.00077517,-0.00032514,0.00074811,-
 0.00023942,0.00009983,-0.00054416,-0.00030210,-0.00614375,-0.00664587,
 0.00550868,-0.00273926,0.00330132,0.00783676,-0.00557418,-0.01079712,-
 0.53469601,-0.18113352,0.00275262,0.56459215,-0.00015439,0.00048778,0.
 00012927,0.00040014,0.00007623,0.00007954,-0.00044459,-0.00016588,-0.0
 0006099,0.00014876,0.00011555,0.00005853,0.00025456,-0.00005235,-0.000
 00790,-0.00010786,-0.00003029,-0.00001731,0.00000680,0.00001099,-0.000
 00698,-0.00000079,-0.00001227,-0.00000437,0.00049440,-0.00000949,0.000
 02197,-0.00088481,-0.00040017,0.00020679,-0.00342257,-0.00617608,0.008
 78524,0.00319923,-0.00033206,0.00126778,-0.00080299,-0.00083843,-0.000
 77624,-0.00004280,0.00000528,-0.00007284,0.00001408,0.00000904,0.00000
 693,0.00000711,0.00000047,0.00000314,-0.00000245,0.00000560,0.00000636
 ,-0.00000077,-0.00000669,0.00000186,-0.00000264,-0.00000091,0.00000121
 ,0.00000697,-0.00000178,-0.00000250,0.00000228,0.00000636,0.00000517,0
 .00003116,-0.00004268,-0.00010484,0.00808790,-0.02764457,0.00972192,0.
 00017260,0.00003137,0.00007563,0.00023346,-0.00006262,-0.00025169,-0.0
 0250356,-0.00671927,-0.01344510,-0.00376457,0.00338549,-0.00170217,-0.
 00026625,0.00205611,-0.00202693,-0.00552565,-0.18915106,-0.16072106,-0
 .00206312,0.20973742,0.14119620,0.00284235,-0.00224519,-0.00029817,-0.
 00418063,0.00043382,0.00052809,0.00380612,0.00078672,-0.00020889,-0.00
 112281,-0.00058711,0.00009412,-0.00212311,0.00073393,0.00017920,0.0008
 6639,0.00020800,-0.00008622,-0.00004464,-0.00011504,0.00000216,-0.0000
 0063,0.00009971,0.00000375,-0.00308796,-0.00070770,-0.00112053,-0.0029
 3008,0.00798264,0.00267945,-0.01195238,-0.02741197,0.01323092,-0.00053
 067,-0.00233340,0.00074912,-0.00119849,-0.00011966,-0.00090337,0.00000
 230,-0.00023444,0.00000048,-0.00008134,-0.00004157,0.00000975,-0.00007
 837,-0.00004285,0.00000320,0.00001013,0.00001101,0.00000012,0.00001046
 ,0.00001098,-0.00000207,0.00000967,-0.00002248,0.00000317,-0.00006533,
 0.00001982,0.00000648,0.00000893,-0.00002286,-0.00000627,-0.00047420,0
 .00055540,-0.00020647,-0.00524839,-0.00611699,-0.00589503,-0.00168065,
 0.00009419,0.00060206,-0.00032555,0.00025414,0.00003478,0.00142131,0.0
 0230726,0.00088008,0.00860438,-0.00116509,0.00292781,0.00115563,0.0007
 8386,0.00091190,-0.26895079,-0.22869484,0.11162404,0.01345648,0.005936
 93,0.00675689,0.27157022,0.00091705,-0.00029029,0.00001003,-0.00052189
 ,0.00051934,0.00001189,0.00040997,-0.00026225,-0.00005184,-0.00013332,
 0.00015025,-0.00001300,-0.00023357,0.00019907,0.00001288,0.00009070,-0
 .00000649,0.00001723,0.00000085,-0.00001937,0.00000415,-0.00000358,0.0
 0001164,0.00000018,0.00018806,0.00043914,0.00029191,-0.00160223,0.0004
 6975,-0.00013686,0.00429963,0.00286842,-0.00098392,-0.00049230,-0.0040
 8445,-0.00082098,-0.00015477,0.00251166,0.00005020,-0.00008659,-0.0000
 7112,0.00003333,-0.00000713,-0.00000679,0.00000626,-0.00000641,-0.0000
 0249,-0.00000902,0.00000004,0.00000068,0.00000576,-0.00000233,0.000005
 76,-0.00000892,0.00000427,-0.00000067,-0.00000586,-0.00000991,0.000004
 12,0.00000174,0.00000341,-0.00000410,0.00000285,-0.00007529,0.00008591
 ,0.00000843,-0.01635293,-0.01066193,-0.01156268,-0.00008609,0.00242960
 ,0.00058541,-0.00036506,0.00009528,0.00001679,0.00216967,0.00866149,0.
 00676436,0.00401379,0.00073265,0.00118449,-0.00078492,-0.00172253,0.00
 754546,-0.21740372,-0.35062437,0.13335123,-0.02440027,-0.00814626,0.01
 567783,0.24975136,0.35624075,-0.00038609,-0.00019104,-0.00010227,0.000
 27184,-0.00003579,0.00010628,-0.00033299,0.00008137,0.00004396,0.00017
 566,-0.00004986,0.00006786,0.00023974,-0.00011313,-0.00001145,-0.00009
 910,-0.00001755,-0.00003764,0.00000427,0.00001443,-0.00000949,0.000001
 75,-0.00001352,-0.00000178,-0.00002820,0.00114448,-0.00081505,0.002526
 38,-0.00178326,0.00131378,0.00143543,0.00676481,0.00908060,-0.00027635
 ,0.00079655,0.00026621,0.00030671,-0.00026767,-0.00001831,-0.00001010,
 0.00001508,-0.00006207,0.00000895,0.00001066,0.00000380,0.00000465,0.0
 0000032,0.00000661,-0.00000144,0.00000394,0.00000284,0.00000095,-0.000
 00795,0.00000528,-0.00000337,-0.00000085,0.00000334,0.00000810,-0.0000
 0311,-0.00000276,0.00000085,0.00000653,0.00000278,0.00009904,-0.000137
 89,-0.00025918,0.02368565,0.01539235,0.00979897,0.00011764,-0.00015019
 ,-0.00076234,0.00008557,-0.00004275,-0.00011515,-0.00149366,-0.0012430
 2,-0.00196786,-0.00489169,-0.00012926,-0.00165997,0.00251012,0.0069082
 1,-0.01315445,0.11443207,0.14167307,-0.15438595,-0.00545422,-0.0165530
 4,0.01839060,-0.13304803,-0.15194085,0.13419148,-0.00497659,0.00165876
 ,0.00127168,0.00017610,0.00141473,0.00001522,0.00044179,0.00054498,-0.
 00000346,-0.00001674,-0.00039056,-0.00000954,-0.00013740,-0.00011222,0
 .00000432,0.00004033,0.00002709,-0.00000088,-0.00000948,-0.00000697,0.
 00000034,0.00000067,0.00000460,0.00000029,0.00007529,0.02822711,0.0015
 0478,-0.06773546,0.04918355,0.00430856,0.00885756,-0.02254984,-0.00141
 378,-0.00425443,-0.00323164,0.00093767,-0.00123299,-0.00001170,-0.0000
 7038,-0.00037060,0.00010259,0.00001725,-0.00001106,-0.00000118,-0.0000
 0380,-0.00000979,-0.00000147,0.00000508,0.00000165,-0.00000157,-0.0000
 0229,0.00000195,-0.00000126,0.00000162,-0.00000097,0.00000033,0.000001
 76,-0.00000125,-0.00000184,0.00000011,-0.00000147,0.00000006,-0.000001
 89,0.00086822,-0.00036166,-0.00053703,-0.00072218,-0.00052875,-0.00020
 444,0.00052958,-0.00129634,-0.00004890,0.00006781,0.00003039,-0.000057
 06,0.00005380,0.00041296,0.00035841,0.00005241,0.00005667,-0.00003861,
 0.00026600,0.00025268,0.00013614,-0.00077720,-0.00501744,-0.00128238,0
 .00002435,0.00198841,0.00017348,0.00031166,0.00087350,0.00010990,0.068
 48845,0.00075223,0.00109154,-0.00046566,-0.00001913,-0.00021251,0.0000
 0123,-0.00007324,-0.00011969,0.00000024,-0.00001847,0.00006890,-0.0000
 0156,0.00002023,0.00001324,-0.00000051,-0.00000015,-0.00000307,-0.0000
 0112,0.00000111,0.00000137,0.00000012,0.00000030,-0.00000018,-0.000000
 04,-0.00006742,-0.00340617,-0.00038927,0.04814355,-0.33995997,-0.01729
 889,0.00328613,-0.01469070,-0.00097842,-0.00335081,-0.00022538,-0.0000
 7292,0.00008036,0.00072556,0.00007998,0.00004782,0.00002933,0.00001076
 ,0.00000215,0.00000067,-0.00000069,0.00000200,0.00000086,0.00000037,-0
 .00000026,-0.00000015,-0.00000008,-0.00000011,-0.00000034,0.00000015,0
 .00000009,-0.00000008,0.00000053,-0.00000011,0.00000013,0.,0.00000008,
 0.,-0.00000049,0.00012245,0.00064902,0.00029189,-0.00050100,-0.0002878
 7,-0.00004465,0.00032652,-0.00057541,-0.00006700,0.00005531,-0.0000521
 6,0.00003829,0.00002945,0.00012400,0.00005057,0.00012281,0.00000612,0.
 00001556,0.00026563,0.00014382,-0.00002796,0.00027497,-0.00256632,-0.0
 0028688,0.00187008,0.00068036,0.00004109,-0.00010858,0.00047761,-0.000
 13107,-0.05126397,0.35808747,0.00118563,-0.00018050,0.00796630,-0.0000
 4776,-0.00010460,-0.00015910,-0.00002276,-0.00005065,0.00013671,-0.000
 00203,0.00003405,0.00002683,0.00000139,0.00001233,-0.00004175,0.000002
 49,-0.00000240,0.00002301,0.00000113,0.00000038,-0.00000089,0.00000019
 ,-0.00000007,0.00000180,0.00055416,-0.00275512,0.00468645,0.00399361,-
 0.01802192,-0.04067234,-0.00010873,0.00132797,0.00279484,0.00094086,-0
 .00010207,0.00600914,-0.00015998,0.00005192,-0.00106519,0.00000338,-0.
 00000188,-0.00027975,-0.00000152,0.00000046,-0.00000157,0.00000171,-0.
 00000032,-0.00000239,-0.00000027,-0.00000180,-0.00000086,-0.00000003,0
 .00000235,-0.00000120,0.00000079,0.00000092,-0.00000130,-0.00000009,0.
 00000021,0.00000016,-0.00000073,-0.00000106,-0.00000092,-0.00047626,0.
 00021155,-0.00462027,-0.00153973,-0.00088309,0.00135794,0.00000705,0.0
 0008729,0.00049629,-0.00007266,0.00001875,-0.00074085,0.00015711,0.000
 09909,-0.00021647,-0.00004371,0.00017150,-0.00044958,0.00088398,0.0006
 2189,-0.00043304,-0.00069279,0.00117141,-0.00239881,0.00006019,-0.0008
 9451,-0.00075722,0.00054750,-0.00004848,0.00008131,-0.00517217,0.01923
 641,0.02826269\\0.00000497,0.00000010,0.00000082,0.00000759,0.00000155
 ,-0.00000153,-0.00001480,0.00002102,-0.00000073,-0.00000123,-0.0000012
 0,-0.00000159,0.00001991,-0.00001282,-0.00000099,-0.00001208,-0.000002
 12,0.00000424,-0.00000010,0.00000009,-0.00000101,-0.00000041,0.0000005
 2,0.00000100,0.00000006,0.00000461,0.00000029,0.00000444,-0.00000164,-
 0.00000264,-0.00000836,0.00000570,0.00000686,0.00000012,-0.00000385,0.
 00000014,-0.00000202,-0.00000086,-0.00000118,0.00000113,-0.00000248,0.
 00000260,0.00000031,-0.00000004,0.00000023,0.00000002,0.00000057,-0.00
 000059,0.00000046,0.00000044,0.00000045,0.00000013,0.00000116,0.000001
 72,0.00000022,0.00000145,-0.00000005,0.00000065,0.00000062,0.00000057,
 0.00000010,0.00000179,0.00000055,-0.00000196,-0.00000023,-0.00000048,-
 0.00001700,-0.00000003,-0.00001024,0.00000028,-0.00000019,0.00000038,-
 0.00000012,-0.00000065,0.00000115,-0.00000173,0.00000769,0.00000380,0.
 00001890,-0.00000862,-0.00000117,-0.00000607,-0.00000614,0.00000467,0.
 00000679,-0.00001272,-0.00001329,-0.00000056,0.00000071,0.00000635,0.0
 0000088,0.00000549,0.00000023,-0.00000052,0.00000008,-0.00000055\\\@


 ... SUBJECTS WHICH DISCLOSE THEIR FULL POWER, MEANING AND BEAUTY AS SOON
 AS THEY ARE PRESENTED TO THE MIND HAVE VERY LITTLE OF THOSE QUALITIES
 TO DISCLOSE.
                           -- CHARLES DUTTON (1882)
 Job cpu time:       0 days  5 hours 57 minutes 28.3 seconds.
 File lengths (MBytes):  RWF=    781 Int=      0 D2E=      0 Chk=     17 Scr=      1
 Normal termination of Gaussian 09 at Thu Nov 14 18:56:52 2019.
pbs_rusage has been removed.
Please contact help@nci.org.au if you require this functionality.
