 Entering Gaussian System, Link 0=/apps/gaussian/g09e01/g09/g09
 AtFile(1): /home/507/hio507/Basis/GTMP2LARGE.gbs
 Initial command:
 /apps/gaussian/g09e01/g09/l1.exe "/jobfs/local/4046930.r-man2/Gau-7012.inp" -scrdir="/jobfs/local/4046930.r-man2/"
 Entering Link 1 = /apps/gaussian/g09e01/g09/l1.exe PID=      7018.
  
 Copyright (c) 1988,1990,1992,1993,1995,1998,2003,2009,2015,
            Gaussian, Inc.  All Rights Reserved.
  
 This is part of the Gaussian(R) 09 program.  It is based on
 the Gaussian(R) 03 system (copyright 2003, Gaussian, Inc.),
 the Gaussian(R) 98 system (copyright 1998, Gaussian, Inc.),
 the Gaussian(R) 94 system (copyright 1995, Gaussian, Inc.),
 the Gaussian 92(TM) system (copyright 1992, Gaussian, Inc.),
 the Gaussian 90(TM) system (copyright 1990, Gaussian, Inc.),
 the Gaussian 88(TM) system (copyright 1988, Gaussian, Inc.),
 the Gaussian 86(TM) system (copyright 1986, Carnegie Mellon
 University), and the Gaussian 82(TM) system (copyright 1983,
 Carnegie Mellon University). Gaussian is a federally registered
 trademark of Gaussian, Inc.
  
 This software contains proprietary and confidential information,
 including trade secrets, belonging to Gaussian, Inc.
  
 This software is provided under written license and may be
 used, copied, transmitted, or stored only in accord with that
 written license.
  
 The following legend is applicable only to US Government
 contracts under FAR:
  
                    RESTRICTED RIGHTS LEGEND
  
 Use, reproduction and disclosure by the US Government is
 subject to restrictions as set forth in subparagraphs (a)
 and (c) of the Commercial Computer Software - Restricted
 Rights clause in FAR 52.227-19.
  
 Gaussian, Inc.
 340 Quinnipiac St., Bldg. 40, Wallingford CT 06492
  
  
 ---------------------------------------------------------------
 Warning -- This program may not be used in any manner that
 competes with the business of Gaussian, Inc. or will provide
 assistance to any competitor of Gaussian, Inc.  The licensee
 of this program is prohibited from giving any competitor of
 Gaussian, Inc. access to this program.  By using this program,
 the user acknowledges that Gaussian, Inc. is engaged in the
 business of creating and licensing software in the field of
 computational chemistry and represents and warrants to the
 licensee that it is not a competitor of Gaussian, Inc. and that
 it will not use this program in any manner prohibited above.
 ---------------------------------------------------------------
  

 Cite this work as:
 Gaussian 09, Revision E.01,
 M. J. Frisch, G. W. Trucks, H. B. Schlegel, G. E. Scuseria, 
 M. A. Robb, J. R. Cheeseman, G. Scalmani, V. Barone, B. Mennucci, 
 G. A. Petersson, H. Nakatsuji, M. Caricato, X. Li, H. P. Hratchian, 
 A. F. Izmaylov, J. Bloino, G. Zheng, J. L. Sonnenberg, M. Hada, 
 M. Ehara, K. Toyota, R. Fukuda, J. Hasegawa, M. Ishida, T. Nakajima, 
 Y. Honda, O. Kitao, H. Nakai, T. Vreven, J. A. Montgomery, Jr., 
 J. E. Peralta, F. Ogliaro, M. Bearpark, J. J. Heyd, E. Brothers, 
 K. N. Kudin, V. N. Staroverov, T. Keith, R. Kobayashi, J. Normand, 
 K. Raghavachari, A. Rendell, J. C. Burant, S. S. Iyengar, J. Tomasi, 
 M. Cossi, N. Rega, J. M. Millam, M. Klene, J. E. Knox, J. B. Cross, 
 V. Bakken, C. Adamo, J. Jaramillo, R. Gomperts, R. E. Stratmann, 
 O. Yazyev, A. J. Austin, R. Cammi, C. Pomelli, J. W. Ochterski, 
 R. L. Martin, K. Morokuma, V. G. Zakrzewski, G. A. Voth, 
 P. Salvador, J. J. Dannenberg, S. Dapprich, A. D. Daniels, 
 O. Farkas, J. B. Foresman, J. V. Ortiz, J. Cioslowski, 
 and D. J. Fox, Gaussian, Inc., Wallingford CT, 2013.
 
 ******************************************
 Gaussian 09:  ES64L-G09RevE.01 30-Nov-2015
                 9-Dec-2019 
 ******************************************
 %chk=CP21CA.MP2_GTMP2LARGE.chk
 %mem=1114112000
 %nproc=4
 Will use up to    4 processors via shared memory.
 -------------------------------------------------------------
 # MP2/Gen 5D SCF=Tight INT(grid=ultrafine) maxdisk=3489660928
 -------------------------------------------------------------
 1/38=1/1;
 2/12=2,17=6,18=5,40=1/2;
 3/5=7,8=1,11=9,16=1,25=1,30=1,75=-5/1,2,3;
 4//1;
 5/5=2,32=2,38=5/2;
 8/10=1/1;
 9/16=-3/6;
 6/7=2,8=2,9=2,10=2/1;
 99/5=1,9=1/99;
 ---------------------
 CP21CA.MP2_GTMP2LARGE
 ---------------------
 Symbolic Z-matrix:
 Charge =  0 Multiplicity = 1
 C                    -6.06358   1.35425   0.32729 
 N                    -4.7938    0.79482   0.19633 
 C                    -3.58751   1.45295   0.11001 
 O                    -3.4209    2.64339   0.12778 
 O                    -2.60847   0.54294   0.00075 
 C                    -1.27776   1.077    -0.09971 
 C                    -0.32089  -0.09023  -0.20735 
 C                     1.12133   0.397    -0.31794 
 C                    -6.29054   2.73576   0.39408 
 C                    -7.58786   3.20564   0.52708 
 C                    -8.64659   2.30663   0.5927 
 C                    -8.43725   0.9313    0.52949 
 C                    -7.1454    0.46218   0.39793 
 H                    -4.73266  -0.21239   0.16336 
 H                    -1.07669   1.68694   0.78423 
 H                    -1.22583   1.72761  -0.97601 
 H                    -0.58839  -0.69111  -1.08072 
 H                    -0.44072  -0.73073   0.6706 
 H                     1.2621    1.02345  -1.20203 
 H                     1.81286  -0.44283  -0.39404 
 H                     1.40966   0.9856    0.5563 
 H                    -5.46173   3.42492   0.34755 
 C                    -10.77506   3.11143  -1.06722 
 H                    -9.27671   0.24912   0.59591 
 H                    -6.96404  -0.60666   0.35424 
 F                    -10.70284   1.93928  -1.68506 
 F                    -12.01275   3.56765  -1.13449 
 F                    -9.95633   3.9651   -1.66688 
 S                    -10.29238   2.91711   0.72559 
 O                    -10.27703   4.2614    1.26037 
 O                    -11.15849   1.8772    1.23906 
 H                    -7.78015   4.27043   0.59217 
 
                          Input orientation:                          
 ---------------------------------------------------------------------
 Center     Atomic      Atomic             Coordinates (Angstroms)
 Number     Number       Type             X           Y           Z
 ---------------------------------------------------------------------
      1          6           0       -6.063581    1.354250    0.327292
      2          7           0       -4.793803    0.794820    0.196329
      3          6           0       -3.587513    1.452951    0.110008
      4          8           0       -3.420904    2.643388    0.127783
      5          8           0       -2.608472    0.542936    0.000752
      6          6           0       -1.277757    1.077003   -0.099712
      7          6           0       -0.320890   -0.090229   -0.207347
      8          6           0        1.121327    0.396999   -0.317940
      9          6           0       -6.290541    2.735765    0.394081
     10          6           0       -7.587863    3.205640    0.527079
     11          6           0       -8.646589    2.306629    0.592704
     12          6           0       -8.437251    0.931299    0.529487
     13          6           0       -7.145396    0.462185    0.397931
     14          1           0       -4.732665   -0.212391    0.163364
     15          1           0       -1.076694    1.686935    0.784233
     16          1           0       -1.225835    1.727607   -0.976006
     17          1           0       -0.588389   -0.691112   -1.080718
     18          1           0       -0.440719   -0.730728    0.670604
     19          1           0        1.262097    1.023448   -1.202033
     20          1           0        1.812857   -0.442827   -0.394039
     21          1           0        1.409661    0.985604    0.556300
     22          1           0       -5.461734    3.424920    0.347555
     23          6           0      -10.775063    3.111429   -1.067219
     24          1           0       -9.276710    0.249124    0.595905
     25          1           0       -6.964038   -0.606659    0.354244
     26          9           0      -10.702841    1.939280   -1.685059
     27          9           0      -12.012750    3.567647   -1.134486
     28          9           0       -9.956325    3.965104   -1.666884
     29         16           0      -10.292380    2.917114    0.725594
     30          8           0      -10.277033    4.261403    1.260365
     31          8           0      -11.158486    1.877202    1.239063
     32          1           0       -7.780152    4.270434    0.592168
 ---------------------------------------------------------------------
                    Distance matrix (angstroms):
                    1          2          3          4          5
     1  C    0.000000
     2  N    1.393718   0.000000
     3  C    2.487542   1.376852   0.000000
     4  O    2.947104   2.303639   1.202171   0.000000
     5  O    3.564076   2.208476   1.341113   2.255678   0.000000
     6  C    4.812828   3.539752   2.349530   2.664281   1.437402
     7  C    5.945658   4.577468   3.626698   4.146693   2.382694
     8  C    7.277057   5.950756   4.844724   5.086924   3.746233
     9  C    1.401626   2.458983   3.005440   2.883447   4.303584
    10  C    2.406449   3.705162   4.387331   4.223638   5.671098
    11  C    2.765755   4.157721   5.153252   5.257123   6.318218
    12  C    2.419521   3.661194   4.895717   5.315671   5.865582
    13  C    1.403956   2.383544   3.704463   4.324635   4.554992
    14  H    2.062176   1.009603   2.021777   3.142842   2.260344
    15  H    5.018816   3.867608   2.610275   2.615539   2.066137
    16  H    5.024119   3.869736   2.613884   2.622086   2.066201
    17  H    6.011964   4.639434   3.874219   4.538998   2.602534
    18  H    6.006794   4.636979   3.871051   4.534404   2.601937
    19  H    7.490916   6.219454   5.042286   5.130606   4.081530
    20  H    8.110985   6.747463   5.745610   6.098301   4.547059
    21  H    7.485832   6.216827   5.038783   5.125059   4.080439
    22  H    2.156457   2.717798   2.730897   2.196379   4.070284
    23  C    5.218276   6.537485   7.469759   7.465303   8.627336
    24  H    3.408468   4.533641   5.835431   6.343666   6.701189
    25  H    2.157941   2.588243   3.962646   4.813303   4.518570
    26  F    5.090634   6.306040   7.354364   7.537159   8.385138
    27  F    6.513719   7.846836   8.775268   8.733121   9.943746
    28  F    5.093796   6.338289   7.073191   6.905034   8.275457
    29  S    4.525918   5.917652   6.890426   6.902861   8.074935
    30  O    5.203398   6.573826   7.345775   7.134930   8.615129
    31  O    5.202198   6.539727   7.666445   7.854436   8.741648
    32  H    3.394246   4.599441   5.074338   4.676107   6.402366
                    6          7          8          9         10
     6  C    0.000000
     7  C    1.513146   0.000000
     8  C    2.503125   1.526307   0.000000
     9  C    5.303143   6.632095   7.804652   0.000000
    10  C    6.688902   8.013179   9.189805   1.386188   0.000000
    11  C    7.502740   8.700705   9.994406   2.403033   1.390477
    12  C    7.188567   8.213511   9.610933   2.807632   2.427776
    13  C    5.920713   6.873529   8.297917   2.428983   2.781906
    14  H    3.697044   4.429007   5.905271   3.342429   4.468488
    15  H    1.092612   2.170894   2.776692   5.332585   6.690883
    16  H    1.092645   2.171242   2.777182   5.342731   6.702183
    17  H    2.136312   1.093340   2.165397   6.814180   8.170821
    18  H    2.135864   1.093341   2.165404   6.805399   8.160715
    19  H    2.769267   2.176127   1.092646   7.907083   9.277586
    20  H    3.456647   2.170728   1.090556   8.740117  10.125874
    21  H    2.767836   2.176093   1.092651   7.898258   9.267408
    22  H    4.818551   6.252397   7.276530   1.078898   2.144933
    23  C    9.760829  10.967211  12.225124   4.731539   3.564955
    24  H    8.071711   8.998171  10.439164   3.891185   3.405572
    25  H    5.947654   6.686814   8.175101   3.409836   3.866866
    26  F    9.596304  10.681172  12.002441   4.942226   4.024960
    27  F   11.068611  12.285733  13.536017   5.980988   4.740408
    28  F    9.279801  10.555453  11.716032   4.381418   3.316605
    29  S    9.237455  10.456821  11.735104   4.019640   2.727099
    30  O    9.642468  10.964290  12.138669   4.355472   2.980600
    31  O   10.003072  11.109292  12.466317   5.014779   3.875695
    32  H    7.277214   8.677280   9.750288   2.147880   1.083973
                   11         12         13         14         15
    11  C    0.000000
    12  C    1.392606   0.000000
    13  C    2.386104   1.380676   0.000000
    14  H    4.674248   3.894359   2.516216   0.000000
    15  H    7.597632   7.403626   6.203094   4.166418   0.000000
    16  H    7.606820   7.409801   6.207270   4.166487   1.767014
    17  H    8.759074   8.174938   6.819885   4.353382   3.061305
    18  H    8.750309   8.168646   6.815430   4.352788   2.502493
    19  H   10.151340   9.853122   8.576762   6.271266   3.139333
    20  H   10.859705  10.382960   9.038615   6.573253   3.778058
    21  H   10.142711   9.847099   8.572517   6.270387   2.593411
    22  H    3.384372   3.886509   3.408087   3.714229   4.737072
    23  C    2.816638   3.573206   4.726484   7.005190   9.975741
    24  H    2.151834   1.083727   2.151067   4.587857   8.327246
    25  H    3.372698   2.136910   1.085001   2.273963   6.332952
    26  F    3.090521   3.324625   4.379049   6.609792   9.941015
    27  F    3.988031   4.743768   5.973553   8.304983  11.261256
    28  F    3.093814   4.041733   4.943200   6.934544   9.489250
    29  S    1.760392   2.724596   4.004691   6.404712   9.297615
    30  O    2.631589   3.874090   4.998500   7.208208   9.565606
    31  O    2.629033   2.967043   4.337588   6.842127  10.093839
    32  H    2.146448   3.403752   3.865670   5.437533   7.186633
                   16         17         18         19         20
    16  H    0.000000
    17  H    2.503498   0.000000
    18  H    3.061232   1.757983   0.000000
    19  H    2.595522   2.525615   3.079527   0.000000
    20  H    3.779301   2.509812   2.508976   1.762428   0.000000
    21  H    3.137573   3.079514   2.526414   1.764920   1.762421
    22  H    4.751372   6.536908   6.525670   7.306039   8.272189
    23  C    9.649407  10.873262  11.161580  12.217654  13.097391
    24  H    8.335071   8.898428   8.890468  10.719077  11.155146
    25  H    6.336035   6.535682   6.532164   8.529276   8.810258
    26  F    9.505851  10.468348  10.862285  12.009655  12.805618
    27  F   10.943875  12.192454  12.475828  13.516623  14.414561
    28  F    9.039092  10.477698  10.865609  11.606999  12.631851
    29  S    9.301216  10.509496  10.505475  11.866241  12.612675
    30  O    9.661557  11.130045  11.046369  12.235166  13.077931
    31  O   10.177744  11.122255  11.045133  12.686951  13.278001
    32  H    7.203070   8.895894   8.881726   9.773656  10.733744
                   21         22         23         24         25
    21  H    0.000000
    22  H    7.294512   0.000000
    23  C   12.474872   5.507388   0.000000
    24  H   10.711792   4.970050   3.633708   0.000000
    25  H    8.526133   4.302394   5.510776   2.477745   0.000000
    26  F   12.354994   5.814451   1.326980   3.176991   4.961775
    27  F   13.772684   6.718082   1.320806   4.636029   6.717935
    28  F   11.958495   4.954908   1.326156   4.403475   5.825784
    29  S   11.861583   4.871953   1.866793   2.857722   4.861352
    30  O   12.157524   4.971924   2.643505   4.188142   5.957770
    31  O   12.618218   5.970192   2.643722   2.570091   4.954378
    32  H    9.759306   2.479877   3.614741   4.290761   4.950624
                   26         27         28         29         30
    26  F    0.000000
    27  F    2.161151   0.000000
    28  F    2.159069   2.161088   0.000000
    29  S    2.633606   2.615867   2.633470   0.000000
    30  O    3.774796   3.037980   2.959634   1.446834   0.000000
    31  O    2.960060   3.036628   3.774791   1.447483   2.542012
    32  H    4.377459   4.624947   3.151551   2.856671   2.584760
                   31         32
    31  O    0.000000
    32  H    4.190366   0.000000
 Stoichiometry    C11H12F3NO4S
 Framework group  C1[X(C11H12F3NO4S)]
 Deg. of freedom    90
 Full point group                 C1      NOp   1
 Largest Abelian subgroup         C1      NOp   1
 Largest concise Abelian subgroup C1      NOp   1
                         Standard orientation:                         
 ---------------------------------------------------------------------
 Center     Atomic      Atomic             Coordinates (Angstroms)
 Number     Number       Type             X           Y           Z
 ---------------------------------------------------------------------
      1          6           0        0.944402    0.542741   -0.138276
      2          7           0        2.308525    0.727244    0.079844
      3          6           0        3.326232   -0.174716   -0.135702
      4          8           0        3.209591   -1.296819   -0.551030
      5          8           0        4.490034    0.403352    0.195942
      6          6           0        5.657615   -0.417523    0.025523
      7          6           0        6.860112    0.401716    0.440803
      8          6           0        8.146958   -0.404596    0.287501
      9          6           0        0.400891   -0.649951   -0.634905
     10          6           0       -0.969016   -0.745557   -0.823929
     11          6           0       -1.787063    0.337155   -0.520681
     12          6           0       -1.262098    1.529315   -0.028221
     13          6           0        0.102331    1.625929    0.159572
     14          1           0        2.603509    1.625395    0.434257
     15          1           0        5.718960   -0.727725   -1.020333
     16          1           0        5.547081   -1.316365    0.636863
     17          1           0        6.732166    0.722027    1.478312
     18          1           0        6.902281    1.307067   -0.170716
     19          1           0        8.128378   -1.303808    0.907943
     20          1           0        9.015149    0.184607    0.584819
     21          1           0        8.298042   -0.718039   -0.748266
     22          1           0        1.044759   -1.482529   -0.872115
     23          6           0       -4.061094   -0.474717    0.929526
     24          1           0       -1.917759    2.364493    0.188691
     25          1           0        0.528514    2.550045    0.535873
     26          9           0       -3.722478    0.377755    1.888435
     27          9           0       -5.371805   -0.637707    0.929722
     28          9           0       -3.471001   -1.639537    1.161201
     29         16           0       -3.528662    0.190772   -0.731365
     30          8           0       -3.823280   -0.866634   -1.673927
     31          8           0       -4.122039    1.508200   -0.817927
     32          1           0       -1.404666   -1.656404   -1.218346
 ---------------------------------------------------------------------
 Rotational constants (GHZ):      1.0384961      0.0959844      0.0953208
 General basis read from cards:  (5D, 7F)
 There are   924 symmetry adapted cartesian basis functions of A   symmetry.
 There are   820 symmetry adapted basis functions of A   symmetry.
   820 basis functions,  1214 primitive gaussians,   924 cartesian basis functions
    80 alpha electrons       80 beta electrons
       nuclear repulsion energy      1753.0805263801 Hartrees.
 NAtoms=   32 NActive=   32 NUniq=   32 SFac= 1.00D+00 NAtFMM=   60 NAOKFM=F Big=F
 Integral buffers will be    131072 words long.
 Raffenetti 1 integral format.
 Two-electron integral symmetry is turned on.
 One-electron integrals computed using PRISM.
 NBasis=   820 RedAO= T EigKep=  1.85D-06  NBF=   820
 NBsUse=   818 1.00D-06 EigRej=  4.01D-07 NBFU=   818
 ExpMin= 3.60D-02 ExpMax= 9.34D+04 ExpMxC= 3.17D+03 IAcc=3 IRadAn=         5 AccDes= 0.00D+00
 Harris functional with IExCor=  205 and IRadAn=       5 diagonalized for initial guess.
 HarFok:  IExCor=  205 AccDes= 0.00D+00 IRadAn=         5 IDoV= 1 UseB2=F ITyADJ=14
 ICtDFT=  3500011 ScaDFX=  1.000000  1.000000  1.000000  1.000000
 FoFCou: FMM=F IPFlag=           0 FMFlag=      100000 FMFlg1=           0
         NFxFlg=           0 DoJE=T BraDBF=F KetDBF=T FulRan=T
         wScrn=  0.000000 ICntrl=     500 IOpCl=  0 I1Cent=   200000004 NGrid=           0
         NMat0=    1 NMatS0=      1 NMatT0=    0 NMatD0=    1 NMtDS0=    0 NMtDT0=    0
 Petite list used in FoFCou.
 Requested convergence on RMS density matrix=1.00D-08 within 128 cycles.
 Requested convergence on MAX density matrix=1.00D-06.
 Requested convergence on             energy=1.00D-06.
 No special actions if energy rises.
 Initial convergence to 1.0D-05 achieved.  Increase integral accuracy.
 SCF Done:  E(RHF) =  -1473.65526557     A.U. after   17 cycles
            NFock= 17  Conv=0.26D-08     -V/T= 2.0009
 ExpMin= 3.60D-02 ExpMax= 9.34D+04 ExpMxC= 3.17D+03 IAcc=3 IRadAn=         5 AccDes= 0.00D+00
 HarFok:  IExCor=  205 AccDes= 0.00D+00 IRadAn=         5 IDoV=-2 UseB2=F ITyADJ=14
 ICtDFT= 12500011 ScaDFX=  1.000000  1.000000  1.000000  1.000000
 Range of M.O.s used for correlation:    25   818
 NBasis=   820 NAE=    80 NBE=    80 NFC=    24 NFV=     0
 NROrb=    794 NOA=    56 NOB=    56 NVA=   738 NVB=   738

 **** Warning!!: The largest alpha MO coefficient is  0.11147097D+03

 Fully direct method using O(OVN) memory.
 JobTyp=1 Pass  1:  I=   1 to   7 NPSUse=  4 ParTrn=T ParDer=T DoDerP=F.
 JobTyp=1 Pass  2:  I=   8 to  15 NPSUse=  4 ParTrn=T ParDer=T DoDerP=F.
 JobTyp=1 Pass  3:  I=  16 to  25 NPSUse=  4 ParTrn=T ParDer=T DoDerP=F.
 JobTyp=1 Pass  4:  I=  26 to  41 NPSUse=  4 ParTrn=T ParDer=T DoDerP=F.
 JobTyp=1 Pass  5:  I=  42 to  56 NPSUse=  4 ParTrn=T ParDer=T DoDerP=F.
 Spin components of T(2) and E(2):
     alpha-alpha T2 =       0.1467362038D+00 E2=     -0.4998225700D+00
     alpha-beta  T2 =       0.7594321209D+00 E2=     -0.2811325987D+01
     beta-beta   T2 =       0.1467362038D+00 E2=     -0.4998225700D+00
 ANorm=    0.1432796053D+01
 E2 =    -0.3810971127D+01 EUMP2 =    -0.14774662366929D+04

 **********************************************************************

            Population analysis using the SCF density.

 **********************************************************************

 Orbital symmetries:
       Occupied  (A) (A) (A) (A) (A) (A) (A) (A) (A) (A) (A) (A)
                 (A) (A) (A) (A) (A) (A) (A) (A) (A) (A) (A) (A)
                 (A) (A) (A) (A) (A) (A) (A) (A) (A) (A) (A) (A)
                 (A) (A) (A) (A) (A) (A) (A) (A) (A) (A) (A) (A)
                 (A) (A) (A) (A) (A) (A) (A) (A) (A) (A) (A) (A)
                 (A) (A) (A) (A) (A) (A) (A) (A) (A) (A) (A) (A)
                 (A) (A) (A) (A) (A) (A) (A) (A)
       Virtual   (A) (A) (A) (A) (A) (A) (A) (A) (A) (A) (A) (A)
                 (A) (A) (A) (A) (A) (A) (A) (A) (A) (A) (A) (A)
                 (A) (A) (A) (A) (A) (A) (A) (A) (A) (A) (A) (A)
                 (A) (A) (A) (A) (A) (A) (A) (A) (A) (A) (A) (A)
                 (A) (A) (A) (A) (A) (A) (A) (A) (A) (A) (A) (A)
                 (A) (A) (A) (A) (A) (A) (A) (A) (A) (A) (A) (A)
                 (A) (A) (A) (A) (A) (A) (A) (A) (A) (A) (A) (A)
                 (A) (A) (A) (A) (A) (A) (A) (A) (A) (A) (A) (A)
                 (A) (A) (A) (A) (A) (A) (A) (A) (A) (A) (A) (A)
                 (A) (A) (A) (A) (A) (A) (A) (A) (A) (A) (A) (A)
                 (A) (A) (A) (A) (A) (A) (A) (A) (A) (A) (A) (A)
                 (A) (A) (A) (A) (A) (A) (A) (A) (A) (A) (A) (A)
                 (A) (A) (A) (A) (A) (A) (A) (A) (A) (A) (A) (A)
                 (A) (A) (A) (A) (A) (A) (A) (A) (A) (A) (A) (A)
                 (A) (A) (A) (A) (A) (A) (A) (A) (A) (A) (A) (A)
                 (A) (A) (A) (A) (A) (A) (A) (A) (A) (A) (A) (A)
                 (A) (A) (A) (A) (A) (A) (A) (A) (A) (A) (A) (A)
                 (A) (A) (A) (A) (A) (A) (A) (A) (A) (A) (A) (A)
                 (A) (A) (A) (A) (A) (A) (A) (A) (A) (A) (A) (A)
                 (A) (A) (A) (A) (A) (A) (A) (A) (A) (A) (A) (A)
                 (A) (A) (A) (A) (A) (A) (A) (A) (A) (A) (A) (A)
                 (A) (A) (A) (A) (A) (A) (A) (A) (A) (A) (A) (A)
                 (A) (A) (A) (A) (A) (A) (A) (A) (A) (A) (A) (A)
                 (A) (A) (A) (A) (A) (A) (A) (A) (A) (A) (A) (A)
                 (A) (A) (A) (A) (A) (A) (A) (A) (A) (A) (A) (A)
                 (A) (A) (A) (A) (A) (A) (A) (A) (A) (A) (A) (A)
                 (A) (A) (A) (A) (A) (A) (A) (A) (A) (A) (A) (A)
                 (A) (A) (A) (A) (A) (A) (A) (A) (A) (A) (A) (A)
                 (A) (A) (A) (A) (A) (A) (A) (A) (A) (A) (A) (A)
                 (A) (A) (A) (A) (A) (A) (A) (A) (A) (A) (A) (A)
                 (A) (A) (A) (A) (A) (A) (A) (A) (A) (A) (A) (A)
                 (A) (A) (A) (A) (A) (A) (A) (A) (A) (A) (A) (A)
                 (A) (A) (A) (A) (A) (A) (A) (A) (A) (A) (A) (A)
                 (A) (A) (A) (A) (A) (A) (A) (A) (A) (A) (A) (A)
                 (A) (A) (A) (A) (A) (A) (A) (A) (A) (A) (A) (A)
                 (A) (A) (A) (A) (A) (A) (A) (A) (A) (A) (A) (A)
                 (A) (A) (A) (A) (A) (A) (A) (A) (A) (A) (A) (A)
                 (A) (A) (A) (A) (A) (A) (A) (A) (A) (A) (A) (A)
                 (A) (A) (A) (A) (A) (A) (A) (A) (A) (A) (A) (A)
                 (A) (A) (A) (A) (A) (A) (A) (A) (A) (A) (A) (A)
                 (A) (A) (A) (A) (A) (A) (A) (A) (A) (A) (A) (A)
                 (A) (A) (A) (A) (A) (A) (A) (A) (A) (A) (A) (A)
                 (A) (A) (A) (A) (A) (A) (A) (A) (A) (A) (A) (A)
                 (A) (A) (A) (A) (A) (A) (A) (A) (A) (A) (A) (A)
                 (A) (A) (A) (A) (A) (A) (A) (A) (A) (A) (A) (A)
                 (A) (A) (A) (A) (A) (A) (A) (A) (A) (A) (A) (A)
                 (A) (A) (A) (A) (A) (A) (A) (A) (A) (A) (A) (A)
                 (A) (A) (A) (A) (A) (A) (A) (A) (A) (A) (A) (A)
                 (A) (A) (A) (A) (A) (A) (A) (A) (A) (A) (A) (A)
                 (A) (A) (A) (A) (A) (A) (A) (A) (A) (A) (A) (A)
                 (A) (A) (A) (A) (A) (A) (A) (A) (A) (A) (A) (A)
                 (A) (A) (A) (A) (A) (A) (A) (A) (A) (A) (A) (A)
                 (A) (A) (A) (A) (A) (A) (A) (A) (A) (A) (A) (A)
                 (A) (A) (A) (A) (A) (A) (A) (A) (A) (A) (A) (A)
                 (A) (A) (A) (A) (A) (A) (A) (A) (A) (A) (A) (A)
                 (A) (A) (A) (A) (A) (A) (A) (A) (A) (A) (A) (A)
                 (A) (A) (A) (A) (A) (A) (A) (A) (A) (A) (A) (A)
                 (A) (A) (A) (A) (A) (A) (A) (A) (A) (A) (A) (A)
                 (A) (A) (A) (A) (A) (A) (A) (A) (A) (A) (A) (A)
                 (A) (A) (A) (A) (A) (A) (A) (A) (A) (A) (A) (A)
                 (A) (A) (A) (A) (A) (A) (A) (A) (A) (A) (A) (A)
                 (A) (A) (A) (A) (A) (A)
 The electronic state is 1-A.
 Alpha  occ. eigenvalues --  -92.19612 -26.36836 -26.36809 -26.36593 -20.62367
 Alpha  occ. eigenvalues --  -20.57205 -20.57178 -20.55780 -15.63296 -11.53993
 Alpha  occ. eigenvalues --  -11.43230 -11.33363 -11.30194 -11.28508 -11.28342
 Alpha  occ. eigenvalues --  -11.28179 -11.26652 -11.25596 -11.24148 -11.23184
 Alpha  occ. eigenvalues --   -9.16677  -6.85292  -6.85218  -6.85182  -1.76371
 Alpha  occ. eigenvalues --   -1.66664  -1.66622  -1.49703  -1.47287  -1.38944
 Alpha  occ. eigenvalues --   -1.36459  -1.29663  -1.19094  -1.09314  -1.07055
 Alpha  occ. eigenvalues --   -1.06015  -1.02454  -0.97020  -0.93096  -0.89136
 Alpha  occ. eigenvalues --   -0.87809  -0.85449  -0.85439  -0.83829  -0.82057
 Alpha  occ. eigenvalues --   -0.80182  -0.77697  -0.75309  -0.73908  -0.73644
 Alpha  occ. eigenvalues --   -0.71776  -0.71581  -0.69438  -0.69227  -0.68637
 Alpha  occ. eigenvalues --   -0.67562  -0.66845  -0.66755  -0.65264  -0.64758
 Alpha  occ. eigenvalues --   -0.64521  -0.63078  -0.62211  -0.59659  -0.59236
 Alpha  occ. eigenvalues --   -0.56661  -0.55363  -0.54125  -0.53214  -0.52542
 Alpha  occ. eigenvalues --   -0.52179  -0.50836  -0.50593  -0.49948  -0.48613
 Alpha  occ. eigenvalues --   -0.48363  -0.48212  -0.46476  -0.37781  -0.35187
 Alpha virt. eigenvalues --    0.02701   0.03657   0.04778   0.05162   0.05251
 Alpha virt. eigenvalues --    0.05867   0.06243   0.07102   0.07995   0.08107
 Alpha virt. eigenvalues --    0.08627   0.08720   0.09295   0.09629   0.10156
 Alpha virt. eigenvalues --    0.10178   0.11333   0.11587   0.12351   0.13014
 Alpha virt. eigenvalues --    0.13543   0.13979   0.14367   0.14750   0.15585
 Alpha virt. eigenvalues --    0.15941   0.16404   0.16526   0.17128   0.17424
 Alpha virt. eigenvalues --    0.17557   0.17726   0.18165   0.18706   0.18901
 Alpha virt. eigenvalues --    0.19189   0.19434   0.19528   0.20068   0.20284
 Alpha virt. eigenvalues --    0.20504   0.20908   0.22031   0.22345   0.23019
 Alpha virt. eigenvalues --    0.23070   0.23431   0.23877   0.24266   0.24948
 Alpha virt. eigenvalues --    0.25039   0.25377   0.25580   0.26422   0.26816
 Alpha virt. eigenvalues --    0.26999   0.27364   0.27780   0.28170   0.28389
 Alpha virt. eigenvalues --    0.29901   0.30215   0.30359   0.30890   0.31060
 Alpha virt. eigenvalues --    0.31602   0.31822   0.33297   0.33506   0.33875
 Alpha virt. eigenvalues --    0.34861   0.35198   0.35443   0.35839   0.36206
 Alpha virt. eigenvalues --    0.36728   0.37406   0.37664   0.37757   0.38409
 Alpha virt. eigenvalues --    0.38786   0.39011   0.39301   0.39465   0.39697
 Alpha virt. eigenvalues --    0.40057   0.40668   0.40763   0.41161   0.41686
 Alpha virt. eigenvalues --    0.41974   0.42362   0.42619   0.43070   0.43241
 Alpha virt. eigenvalues --    0.43952   0.44598   0.45209   0.45226   0.45882
 Alpha virt. eigenvalues --    0.46120   0.46315   0.46800   0.47556   0.47905
 Alpha virt. eigenvalues --    0.48435   0.48884   0.50123   0.50634   0.51136
 Alpha virt. eigenvalues --    0.51469   0.52181   0.52509   0.54374   0.54719
 Alpha virt. eigenvalues --    0.55067   0.55742   0.56051   0.56823   0.57369
 Alpha virt. eigenvalues --    0.58036   0.58510   0.59338   0.60298   0.61158
 Alpha virt. eigenvalues --    0.61298   0.62373   0.63243   0.63794   0.65062
 Alpha virt. eigenvalues --    0.65991   0.67007   0.67346   0.67920   0.68641
 Alpha virt. eigenvalues --    0.68822   0.69345   0.69800   0.70083   0.70725
 Alpha virt. eigenvalues --    0.72066   0.72207   0.72636   0.72988   0.73863
 Alpha virt. eigenvalues --    0.74293   0.75167   0.75722   0.76224   0.77278
 Alpha virt. eigenvalues --    0.78184   0.78752   0.79389   0.79831   0.80254
 Alpha virt. eigenvalues --    0.81124   0.82073   0.82571   0.83293   0.83824
 Alpha virt. eigenvalues --    0.84138   0.84240   0.84880   0.85195   0.85537
 Alpha virt. eigenvalues --    0.85923   0.86632   0.87343   0.87544   0.88046
 Alpha virt. eigenvalues --    0.89230   0.90218   0.90858   0.92286   0.93411
 Alpha virt. eigenvalues --    0.94023   0.94116   0.94230   0.94937   0.95385
 Alpha virt. eigenvalues --    0.95650   0.96692   0.97432   0.97789   0.99137
 Alpha virt. eigenvalues --    0.99616   0.99992   1.01191   1.01486   1.01890
 Alpha virt. eigenvalues --    1.02804   1.03135   1.03829   1.05298   1.05659
 Alpha virt. eigenvalues --    1.05870   1.06160   1.06984   1.07908   1.08507
 Alpha virt. eigenvalues --    1.11465   1.12850   1.14103   1.14736   1.15477
 Alpha virt. eigenvalues --    1.15878   1.17334   1.17515   1.19066   1.19901
 Alpha virt. eigenvalues --    1.21304   1.22057   1.22576   1.22942   1.23776
 Alpha virt. eigenvalues --    1.24257   1.24701   1.25163   1.25727   1.26400
 Alpha virt. eigenvalues --    1.26962   1.27791   1.29078   1.29518   1.30490
 Alpha virt. eigenvalues --    1.30926   1.31566   1.32485   1.33519   1.33696
 Alpha virt. eigenvalues --    1.34064   1.35086   1.35381   1.36289   1.36656
 Alpha virt. eigenvalues --    1.36825   1.37979   1.38326   1.38767   1.39447
 Alpha virt. eigenvalues --    1.39807   1.39843   1.41199   1.42961   1.43205
 Alpha virt. eigenvalues --    1.44292   1.45265   1.45616   1.46351   1.47089
 Alpha virt. eigenvalues --    1.47603   1.48449   1.48751   1.49030   1.50613
 Alpha virt. eigenvalues --    1.50956   1.51836   1.53404   1.54134   1.54920
 Alpha virt. eigenvalues --    1.55993   1.56344   1.57245   1.58286   1.58721
 Alpha virt. eigenvalues --    1.59104   1.59981   1.60630   1.61188   1.62332
 Alpha virt. eigenvalues --    1.62376   1.63185   1.63696   1.64175   1.64951
 Alpha virt. eigenvalues --    1.65703   1.65875   1.66939   1.67267   1.67411
 Alpha virt. eigenvalues --    1.67887   1.68790   1.69529   1.69725   1.70708
 Alpha virt. eigenvalues --    1.71682   1.73379   1.73636   1.74810   1.75596
 Alpha virt. eigenvalues --    1.76318   1.76667   1.78035   1.78433   1.78757
 Alpha virt. eigenvalues --    1.80121   1.81110   1.81760   1.83079   1.84475
 Alpha virt. eigenvalues --    1.85040   1.85400   1.86165   1.87004   1.90697
 Alpha virt. eigenvalues --    1.90888   1.92356   1.93896   1.94861   1.96438
 Alpha virt. eigenvalues --    1.97165   1.99032   2.00766   2.02704   2.03646
 Alpha virt. eigenvalues --    2.04503   2.06279   2.10231   2.10726   2.11642
 Alpha virt. eigenvalues --    2.12429   2.14655   2.15583   2.16276   2.18247
 Alpha virt. eigenvalues --    2.20491   2.20994   2.21487   2.23911   2.25254
 Alpha virt. eigenvalues --    2.27200   2.30105   2.30368   2.31399   2.34687
 Alpha virt. eigenvalues --    2.36907   2.37144   2.38190   2.38979   2.41376
 Alpha virt. eigenvalues --    2.42102   2.42692   2.44478   2.45962   2.47095
 Alpha virt. eigenvalues --    2.52384   2.53605   2.55461   2.57083   2.58279
 Alpha virt. eigenvalues --    2.59732   2.62086   2.62880   2.64261   2.66003
 Alpha virt. eigenvalues --    2.67631   2.69751   2.75048   2.75560   2.80782
 Alpha virt. eigenvalues --    2.81378   2.82710   2.84745   2.85916   2.88239
 Alpha virt. eigenvalues --    2.89746   2.90791   2.92465   2.93871   2.97181
 Alpha virt. eigenvalues --    2.97329   2.98368   2.99295   3.01689   3.02237
 Alpha virt. eigenvalues --    3.02642   3.03942   3.04554   3.05031   3.05549
 Alpha virt. eigenvalues --    3.07002   3.08555   3.10766   3.11153   3.11661
 Alpha virt. eigenvalues --    3.12110   3.13607   3.14464   3.15217   3.15357
 Alpha virt. eigenvalues --    3.16194   3.17439   3.17720   3.18016   3.18578
 Alpha virt. eigenvalues --    3.18924   3.19921   3.20549   3.21832   3.22576
 Alpha virt. eigenvalues --    3.23038   3.24779   3.24861   3.25172   3.27339
 Alpha virt. eigenvalues --    3.28973   3.29617   3.32252   3.32617   3.34550
 Alpha virt. eigenvalues --    3.35226   3.36481   3.37064   3.38003   3.41033
 Alpha virt. eigenvalues --    3.41245   3.41888   3.42307   3.44883   3.45265
 Alpha virt. eigenvalues --    3.45517   3.46428   3.47847   3.48412   3.49273
 Alpha virt. eigenvalues --    3.50156   3.50582   3.51390   3.52394   3.53877
 Alpha virt. eigenvalues --    3.54640   3.56288   3.57166   3.59738   3.61390
 Alpha virt. eigenvalues --    3.62917   3.64028   3.64301   3.64966   3.65622
 Alpha virt. eigenvalues --    3.66536   3.67763   3.68480   3.68596   3.69269
 Alpha virt. eigenvalues --    3.70600   3.71312   3.71828   3.72644   3.73831
 Alpha virt. eigenvalues --    3.75190   3.75848   3.76811   3.77345   3.77521
 Alpha virt. eigenvalues --    3.79392   3.79785   3.80720   3.81820   3.82511
 Alpha virt. eigenvalues --    3.82763   3.83283   3.84221   3.85412   3.86294
 Alpha virt. eigenvalues --    3.86913   3.88498   3.89308   3.90091   3.91298
 Alpha virt. eigenvalues --    3.91655   3.92556   3.93347   3.93841   3.95182
 Alpha virt. eigenvalues --    3.95911   3.96473   3.98476   3.99580   3.99970
 Alpha virt. eigenvalues --    4.00771   4.01627   4.02054   4.03190   4.03640
 Alpha virt. eigenvalues --    4.04197   4.05088   4.05401   4.06477   4.07174
 Alpha virt. eigenvalues --    4.09308   4.10139   4.10457   4.11262   4.12357
 Alpha virt. eigenvalues --    4.13771   4.14680   4.15928   4.17261   4.18343
 Alpha virt. eigenvalues --    4.18501   4.21280   4.22087   4.22326   4.25997
 Alpha virt. eigenvalues --    4.26195   4.27066   4.28863   4.29917   4.31602
 Alpha virt. eigenvalues --    4.32340   4.33221   4.35119   4.36273   4.38310
 Alpha virt. eigenvalues --    4.38840   4.38896   4.39783   4.40673   4.42579
 Alpha virt. eigenvalues --    4.43700   4.45376   4.47128   4.48860   4.49021
 Alpha virt. eigenvalues --    4.50841   4.52246   4.54569   4.55334   4.55697
 Alpha virt. eigenvalues --    4.57234   4.60563   4.60778   4.63307   4.65431
 Alpha virt. eigenvalues --    4.67178   4.68073   4.69139   4.69551   4.69970
 Alpha virt. eigenvalues --    4.70535   4.71494   4.72275   4.72677   4.74836
 Alpha virt. eigenvalues --    4.77147   4.77780   4.79123   4.79658   4.81501
 Alpha virt. eigenvalues --    4.82889   4.83779   4.84356   4.84907   4.87362
 Alpha virt. eigenvalues --    4.88475   4.89377   4.91590   4.92354   4.92814
 Alpha virt. eigenvalues --    4.93253   4.99369   5.00940   5.01293   5.03243
 Alpha virt. eigenvalues --    5.05656   5.08146   5.08508   5.11767   5.13053
 Alpha virt. eigenvalues --    5.15440   5.16159   5.16598   5.19186   5.30971
 Alpha virt. eigenvalues --    5.32341   5.32837   5.37628   5.41300   5.43366
 Alpha virt. eigenvalues --    5.45271   5.46087   5.48110   5.49072   5.49413
 Alpha virt. eigenvalues --    5.50442   5.51831   5.55388   5.56856   5.58524
 Alpha virt. eigenvalues --    5.59811   5.60039   5.61090   5.61810   5.63484
 Alpha virt. eigenvalues --    5.63830   5.65917   5.66052   5.67491   5.69853
 Alpha virt. eigenvalues --    5.70812   5.72273   5.73466   5.73963   5.74928
 Alpha virt. eigenvalues --    5.81040   5.81583   5.83058   5.83956   5.86512
 Alpha virt. eigenvalues --    5.87299   5.90157   5.92730   5.94058   5.95261
 Alpha virt. eigenvalues --    5.98196   5.99201   5.99773   6.00617   6.00678
 Alpha virt. eigenvalues --    6.05213   6.12440   6.12780   6.14174   6.14507
 Alpha virt. eigenvalues --    6.15657   6.20980   6.25299   6.27611   6.27715
 Alpha virt. eigenvalues --    6.30701   6.33037   6.33881   6.38474   6.40999
 Alpha virt. eigenvalues --    6.48509   6.50653   6.55168   6.65510   6.85903
 Alpha virt. eigenvalues --    6.88985   6.93159   6.94678   6.95382   6.97182
 Alpha virt. eigenvalues --    6.99751   7.02068   7.03328   7.04767   7.07966
 Alpha virt. eigenvalues --    7.08613   7.08746   7.08925   7.09162   7.10171
 Alpha virt. eigenvalues --    7.10385   7.10874   7.12943   7.13387   7.17534
 Alpha virt. eigenvalues --    7.19181   7.24339   7.24469   7.25708   7.32091
 Alpha virt. eigenvalues --    7.33271   7.35521   7.36224   7.37087   7.46675
 Alpha virt. eigenvalues --    7.48444   7.50693   7.51037   7.51323   7.55650
 Alpha virt. eigenvalues --    7.56627   7.61558   7.66960   7.70893   7.72394
 Alpha virt. eigenvalues --    7.72699   7.75661   7.82454   7.84117   7.86945
 Alpha virt. eigenvalues --    7.87386   7.88683   7.94429   7.95746   7.96941
 Alpha virt. eigenvalues --    8.06128   8.07156   8.15172   8.21545   8.27926
 Alpha virt. eigenvalues --    8.38376   8.40213   8.42101   8.45000   9.67951
 Alpha virt. eigenvalues --    9.68363   9.68454   9.79628   9.79946   9.86424
 Alpha virt. eigenvalues --   10.02076  10.12624  10.13283  10.15420  10.31104
 Alpha virt. eigenvalues --   10.35044  10.48045  10.48942  10.76338  10.77002
 Alpha virt. eigenvalues --   18.47312  18.73601  19.05261  25.06090  25.37810
 Alpha virt. eigenvalues --   25.50722  25.57969  25.59698  25.62492  25.63961
 Alpha virt. eigenvalues --   25.83427  25.88503  26.10189  26.31029  37.35463
 Alpha virt. eigenvalues --   51.76270  51.77825  51.78914  51.94224  68.81498
 Alpha virt. eigenvalues --   68.82388  68.86398 193.76315
          Condensed to atoms (all electrons):
               1          2          3          4          5          6
     1  C   19.715609  -0.503611   0.063469  -0.375052  -0.143523  -0.558908
     2  N   -0.503611   6.967578   0.546463   0.031493   0.094742  -0.181447
     3  C    0.063469   0.546463   7.421677   0.395641   0.218832  -0.587024
     4  O   -0.375052   0.031493   0.395641   8.139312  -0.073448  -0.185675
     5  O   -0.143523   0.094742   0.218832  -0.073448   8.098859   0.259068
     6  C   -0.558908  -0.181447  -0.587024  -0.185675   0.259068   6.956310
     7  C    0.056752  -0.048353   0.177298   0.052662  -0.203378  -0.631172
     8  C   -0.015796  -0.005862  -0.195213   0.001365   0.029468   0.381996
     9  C    0.705517   0.080427   0.221732   0.418674   0.030245  -0.152243
    10  C   -3.552349   0.197240  -0.113201   0.119089   0.006752  -0.059393
    11  C   -6.420233   0.039060  -1.263336   0.025130   0.012109  -0.094009
    12  C   -2.990727  -0.064734  -0.766429  -0.016045  -0.002046  -0.044594
    13  C    2.247881  -0.138892  -0.580309  -0.064618  -0.013417  -0.062020
    14  H    0.035379   0.409348   0.015011   0.004978  -0.011092  -0.000828
    15  H    0.007462   0.005731   0.034054  -0.009437  -0.047843   0.459995
    16  H    0.001396   0.006453   0.033977  -0.009774  -0.048187   0.465639
    17  H    0.002822   0.001930   0.002441  -0.000981   0.000485  -0.024082
    18  H    0.000757   0.001882  -0.000967  -0.000982   0.000758  -0.019961
    19  H   -0.000099   0.000066  -0.000835   0.000393  -0.000163  -0.022296
    20  H   -0.000011  -0.000726   0.003795   0.000409  -0.002254   0.015770
    21  H    0.000142   0.000082   0.000003   0.000378  -0.000165  -0.022576
    22  H   -0.249347  -0.011947   0.069637  -0.005687   0.006093   0.017437
    23  C    0.408037  -0.001919   0.013093  -0.000012  -0.000091   0.000134
    24  H    0.132045  -0.001086   0.006281  -0.000123  -0.000108  -0.000095
    25  H   -0.241502  -0.024255  -0.049758  -0.000243   0.001705  -0.003605
    26  F   -0.033245   0.000068  -0.001080  -0.000000   0.000000  -0.000006
    27  F    0.001299  -0.000001   0.000060  -0.000000  -0.000000   0.000000
    28  F   -0.022926   0.000169   0.000865  -0.000003   0.000000   0.000014
    29  S   -2.676991   0.021698  -0.146947   0.000985   0.001591  -0.002988
    30  O    0.008462   0.000497   0.001858  -0.000010   0.000002   0.000029
    31  O   -0.025909   0.000219  -0.002843  -0.000001   0.000002  -0.000028
    32  H    0.173798  -0.004473   0.014582  -0.000782  -0.000381   0.000786
               7          8          9         10         11         12
     1  C    0.056752  -0.015796   0.705517  -3.552349  -6.420233  -2.990727
     2  N   -0.048353  -0.005862   0.080427   0.197240   0.039060  -0.064734
     3  C    0.177298  -0.195213   0.221732  -0.113201  -1.263336  -0.766429
     4  O    0.052662   0.001365   0.418674   0.119089   0.025130  -0.016045
     5  O   -0.203378   0.029468   0.030245   0.006752   0.012109  -0.002046
     6  C   -0.631172   0.381996  -0.152243  -0.059393  -0.094009  -0.044594
     7  C    5.774247  -0.097203  -0.014995  -0.006786  -0.002407  -0.000512
     8  C   -0.097203   5.186911  -0.005396  -0.000529  -0.000168   0.000260
     9  C   -0.014995  -0.005396  15.315503   3.126404  -5.388624  -3.922333
    10  C   -0.006786  -0.000529   3.126404  16.034448   0.534926  -5.518370
    11  C   -0.002407  -0.000168  -5.388624   0.534926  22.346941   0.210226
    12  C   -0.000512   0.000260  -3.922333  -5.518370   0.210226  16.143511
    13  C   -0.002565   0.001674  -3.374264  -2.978752  -2.945496   1.841847
    14  H   -0.002292  -0.005295   0.101160   0.030128  -0.034955  -0.120018
    15  H   -0.066580  -0.009359  -0.009192  -0.001699  -0.000603   0.001005
    16  H   -0.066978  -0.008721  -0.009132  -0.001570  -0.000513   0.000503
    17  H    0.430425  -0.029389  -0.002225  -0.000437  -0.000071   0.000612
    18  H    0.431191  -0.028462  -0.001825  -0.000265  -0.000101   0.000221
    19  H   -0.005708   0.418705   0.000315   0.000083   0.000008  -0.000042
    20  H   -0.036815   0.407713  -0.000159  -0.000037  -0.000018  -0.000015
    21  H   -0.006135   0.418333   0.000245   0.000049   0.000014  -0.000022
    22  H    0.001064   0.000421   0.517790   0.085523   0.036482  -0.074425
    23  C    0.000012  -0.000001   0.231534   0.656680  -0.088009  -0.010369
    24  H    0.000062  -0.000012   0.038228   0.097081  -0.005994   0.349420
    25  H   -0.000520   0.000359  -0.016787  -0.054406   0.081663   0.164290
    26  F    0.000000   0.000000  -0.017794  -0.046476   0.077135  -0.007046
    27  F    0.000000   0.000000  -0.000697  -0.004389   0.035977  -0.014429
    28  F   -0.000000   0.000000  -0.034381  -0.057724   0.094112  -0.003066
    29  S   -0.000145   0.000015  -1.373112  -2.678481  -0.803703   1.140523
    30  O   -0.000001   0.000000   0.069968  -0.051372  -0.232164   0.016141
    31  O    0.000000  -0.000000  -0.024453  -0.003720  -0.162092  -0.068404
    32  H   -0.000038  -0.000009  -0.013912   0.390206  -0.122363   0.021268
              13         14         15         16         17         18
     1  C    2.247881   0.035379   0.007462   0.001396   0.002822   0.000757
     2  N   -0.138892   0.409348   0.005731   0.006453   0.001930   0.001882
     3  C   -0.580309   0.015011   0.034054   0.033977   0.002441  -0.000967
     4  O   -0.064618   0.004978  -0.009437  -0.009774  -0.000981  -0.000982
     5  O   -0.013417  -0.011092  -0.047843  -0.048187   0.000485   0.000758
     6  C   -0.062020  -0.000828   0.459995   0.465639  -0.024082  -0.019961
     7  C   -0.002565  -0.002292  -0.066580  -0.066978   0.430425   0.431191
     8  C    0.001674  -0.005295  -0.009359  -0.008721  -0.029389  -0.028462
     9  C   -3.374264   0.101160  -0.009192  -0.009132  -0.002225  -0.001825
    10  C   -2.978752   0.030128  -0.001699  -0.001570  -0.000437  -0.000265
    11  C   -2.945496  -0.034955  -0.000603  -0.000513  -0.000071  -0.000101
    12  C    1.841847  -0.120018   0.001005   0.000503   0.000612   0.000221
    13  C   12.332405  -0.097404   0.003474   0.003159   0.001448   0.000752
    14  H   -0.097404   0.462236   0.000415   0.000584   0.000446   0.000700
    15  H    0.003474   0.000415   0.585592  -0.051227   0.007364  -0.009941
    16  H    0.003159   0.000584  -0.051227   0.586246  -0.010033   0.007395
    17  H    0.001448   0.000446   0.007364  -0.010033   0.626617  -0.047479
    18  H    0.000752   0.000700  -0.009941   0.007395  -0.047479   0.626084
    19  H   -0.000197   0.000075   0.000250  -0.000130  -0.007999   0.005463
    20  H   -0.000079   0.000049  -0.001862  -0.001776  -0.005609  -0.005457
    21  H   -0.000128   0.000050  -0.000158   0.000217   0.005501  -0.007903
    22  H   -0.078213  -0.000730  -0.001270  -0.001196  -0.000138  -0.000133
    23  C    0.142935   0.002233   0.000003   0.000013  -0.000001   0.000001
    24  H   -0.113780   0.001674   0.000003  -0.000005   0.000003   0.000004
    25  H    0.460000  -0.005206   0.000020  -0.000071  -0.000002  -0.000099
    26  F   -0.011119  -0.000196  -0.000000   0.000000  -0.000000   0.000000
    27  F   -0.004111   0.000005  -0.000000   0.000000   0.000000  -0.000000
    28  F   -0.000713  -0.000046  -0.000000   0.000000  -0.000000   0.000000
    29  S   -0.307254  -0.015784  -0.000061  -0.000080   0.000004  -0.000008
    30  O    0.004589   0.000045  -0.000001   0.000000  -0.000000   0.000000
    31  O    0.055924  -0.000153  -0.000000   0.000000   0.000000  -0.000000
    32  H    0.030099   0.000991   0.000056   0.000040   0.000007   0.000006
              19         20         21         22         23         24
     1  C   -0.000099  -0.000011   0.000142  -0.249347   0.408037   0.132045
     2  N    0.000066  -0.000726   0.000082  -0.011947  -0.001919  -0.001086
     3  C   -0.000835   0.003795   0.000003   0.069637   0.013093   0.006281
     4  O    0.000393   0.000409   0.000378  -0.005687  -0.000012  -0.000123
     5  O   -0.000163  -0.002254  -0.000165   0.006093  -0.000091  -0.000108
     6  C   -0.022296   0.015770  -0.022576   0.017437   0.000134  -0.000095
     7  C   -0.005708  -0.036815  -0.006135   0.001064   0.000012   0.000062
     8  C    0.418705   0.407713   0.418333   0.000421  -0.000001  -0.000012
     9  C    0.000315  -0.000159   0.000245   0.517790   0.231534   0.038228
    10  C    0.000083  -0.000037   0.000049   0.085523   0.656680   0.097081
    11  C    0.000008  -0.000018   0.000014   0.036482  -0.088009  -0.005994
    12  C   -0.000042  -0.000015  -0.000022  -0.074425  -0.010369   0.349420
    13  C   -0.000197  -0.000079  -0.000128  -0.078213   0.142935  -0.113780
    14  H    0.000075   0.000049   0.000050  -0.000730   0.002233   0.001674
    15  H    0.000250  -0.001862  -0.000158  -0.001270   0.000003   0.000003
    16  H   -0.000130  -0.001776   0.000217  -0.001196   0.000013  -0.000005
    17  H   -0.007999  -0.005609   0.005501  -0.000138  -0.000001   0.000003
    18  H    0.005463  -0.005457  -0.007903  -0.000133   0.000001   0.000004
    19  H    0.621762  -0.025541  -0.042723   0.000017   0.000000  -0.000000
    20  H   -0.025541   0.586830  -0.025584   0.000031   0.000000   0.000000
    21  H   -0.042723  -0.025584   0.621608   0.000019  -0.000000  -0.000000
    22  H    0.000017   0.000031   0.000019   0.422013  -0.008270  -0.000849
    23  C    0.000000   0.000000  -0.000000  -0.008270   5.021106   0.027603
    24  H   -0.000000   0.000000  -0.000000  -0.000849   0.027603   0.437436
    25  H   -0.000003  -0.000008   0.000002   0.001280  -0.009783  -0.018963
    26  F    0.000000  -0.000000   0.000000   0.000139   0.161139  -0.009029
    27  F   -0.000000   0.000000   0.000000   0.000027   0.272599  -0.000401
    28  F    0.000000   0.000000  -0.000000   0.001182   0.157300  -0.001375
    29  S   -0.000000  -0.000000   0.000001   0.042664  -1.574669  -0.160114
    30  O    0.000000  -0.000000   0.000000   0.000951  -0.102464  -0.001741
    31  O   -0.000000  -0.000000   0.000000  -0.000313  -0.132077  -0.012354
    32  H   -0.000000  -0.000000  -0.000001  -0.015770   0.029140   0.002327
              25         26         27         28         29         30
     1  C   -0.241502  -0.033245   0.001299  -0.022926  -2.676991   0.008462
     2  N   -0.024255   0.000068  -0.000001   0.000169   0.021698   0.000497
     3  C   -0.049758  -0.001080   0.000060   0.000865  -0.146947   0.001858
     4  O   -0.000243  -0.000000  -0.000000  -0.000003   0.000985  -0.000010
     5  O    0.001705   0.000000  -0.000000   0.000000   0.001591   0.000002
     6  C   -0.003605  -0.000006   0.000000   0.000014  -0.002988   0.000029
     7  C   -0.000520   0.000000   0.000000  -0.000000  -0.000145  -0.000001
     8  C    0.000359   0.000000   0.000000   0.000000   0.000015   0.000000
     9  C   -0.016787  -0.017794  -0.000697  -0.034381  -1.373112   0.069968
    10  C   -0.054406  -0.046476  -0.004389  -0.057724  -2.678481  -0.051372
    11  C    0.081663   0.077135   0.035977   0.094112  -0.803703  -0.232164
    12  C    0.164290  -0.007046  -0.014429  -0.003066   1.140523   0.016141
    13  C    0.460000  -0.011119  -0.004111  -0.000713  -0.307254   0.004589
    14  H   -0.005206  -0.000196   0.000005  -0.000046  -0.015784   0.000045
    15  H    0.000020  -0.000000  -0.000000  -0.000000  -0.000061  -0.000001
    16  H   -0.000071   0.000000   0.000000   0.000000  -0.000080   0.000000
    17  H   -0.000002  -0.000000   0.000000  -0.000000   0.000004  -0.000000
    18  H   -0.000099   0.000000  -0.000000   0.000000  -0.000008   0.000000
    19  H   -0.000003   0.000000  -0.000000   0.000000  -0.000000   0.000000
    20  H   -0.000008  -0.000000   0.000000   0.000000  -0.000000  -0.000000
    21  H    0.000002   0.000000   0.000000  -0.000000   0.000001   0.000000
    22  H    0.001280   0.000139   0.000027   0.001182   0.042664   0.000951
    23  C   -0.009783   0.161139   0.272599   0.157300  -1.574669  -0.102464
    24  H   -0.018963  -0.009029  -0.000401  -0.001375  -0.160114  -0.001741
    25  H    0.534141   0.001111  -0.000005   0.000103   0.058965  -0.000490
    26  F    0.001111   9.010862   0.009292   0.019887   0.096404  -0.003582
    27  F   -0.000005   0.009292   9.037953   0.008518  -0.080525   0.005548
    28  F    0.000103   0.019887   0.008518   9.014670   0.080351   0.010113
    29  S    0.058965   0.096404  -0.080525   0.080351  22.057823   0.567894
    30  O   -0.000490  -0.003582   0.005548   0.010113   0.567894   8.414517
    31  O    0.001199   0.011278   0.003887  -0.003037   0.656461  -0.093636
    32  H   -0.000906  -0.001488  -0.000530  -0.009313  -0.156348  -0.006955
              31         32
     1  C   -0.025909   0.173798
     2  N    0.000219  -0.004473
     3  C   -0.002843   0.014582
     4  O   -0.000001  -0.000782
     5  O    0.000002  -0.000381
     6  C   -0.000028   0.000786
     7  C    0.000000  -0.000038
     8  C   -0.000000  -0.000009
     9  C   -0.024453  -0.013912
    10  C   -0.003720   0.390206
    11  C   -0.162092  -0.122363
    12  C   -0.068404   0.021268
    13  C    0.055924   0.030099
    14  H   -0.000153   0.000991
    15  H   -0.000000   0.000056
    16  H    0.000000   0.000040
    17  H    0.000000   0.000007
    18  H   -0.000000   0.000006
    19  H   -0.000000  -0.000000
    20  H   -0.000000  -0.000000
    21  H    0.000000  -0.000001
    22  H   -0.000313  -0.015770
    23  C   -0.132077   0.029140
    24  H   -0.012354   0.002327
    25  H    0.001199  -0.000906
    26  F    0.011278  -0.001488
    27  F    0.003887  -0.000530
    28  F   -0.003037  -0.009313
    29  S    0.656461  -0.156348
    30  O   -0.093636  -0.006955
    31  O    8.402416  -0.001726
    32  H   -0.001726   0.442865
 Mulliken charges:
               1
     1  C    0.249401
     2  N   -0.417840
     3  C    0.467172
     4  O   -0.447637
     5  O   -0.214615
     6  C    0.095775
     7  C    0.268868
     8  C   -0.445804
     9  C   -0.496220
    10  C   -0.148654
    11  C    0.071074
    12  C   -0.266201
    13  C   -0.352855
    14  H    0.228495
    15  H    0.103809
    16  H    0.103771
    17  H    0.048339
    18  H    0.048370
    19  H    0.058600
    20  H    0.091355
    21  H    0.058753
    22  H    0.245520
    23  C    0.804103
    24  H    0.233862
    25  H    0.121773
    26  F   -0.256254
    27  F   -0.270077
    28  F   -0.254700
    29  S    1.251832
    30  O   -0.608198
    31  O   -0.600642
    32  H    0.228825
 Sum of Mulliken charges =  -0.00000
 Mulliken charges with hydrogens summed into heavy atoms:
               1
     1  C    0.249401
     2  N   -0.189346
     3  C    0.467172
     4  O   -0.447637
     5  O   -0.214615
     6  C    0.303355
     7  C    0.365578
     8  C   -0.237094
     9  C   -0.250700
    10  C    0.080171
    11  C    0.071074
    12  C   -0.032340
    13  C   -0.231082
    23  C    0.804103
    26  F   -0.256254
    27  F   -0.270077
    28  F   -0.254700
    29  S    1.251832
    30  O   -0.608198
    31  O   -0.600642
 Electronic spatial extent (au):  <R**2>=          10802.1827
 Charge=              0.0000 electrons
 Dipole moment (field-independent basis, Debye):
    X=              7.9791    Y=              2.0873    Z=              2.5401  Tot=              8.6299
 Quadrupole moment (field-independent basis, Debye-Ang):
   XX=           -123.5806   YY=           -121.8866   ZZ=           -127.5086
   XY=              7.0091   XZ=             -5.5669   YZ=              1.1165
 Traceless Quadrupole moment (field-independent basis, Debye-Ang):
   XX=              0.7447   YY=              2.4386   ZZ=             -3.1834
   XY=              7.0091   XZ=             -5.5669   YZ=              1.1165
 Octapole moment (field-independent basis, Debye-Ang**2):
  XXX=            214.2587  YYY=             -0.0190  ZZZ=             27.0355  XYY=            -12.2552
  XXY=            -10.8549  XXZ=             54.3743  XZZ=             -2.7026  YZZ=             -4.5318
  YYZ=             16.1872  XYZ=             -3.5806
 Hexadecapole moment (field-independent basis, Debye-Ang**3):
 XXXX=         -11506.9254 YYYY=           -696.0273 ZZZZ=           -590.4944 XXXY=            106.1803
 XXXZ=           -191.9966 YYYX=             81.6062 YYYZ=             13.8755 ZZZX=           -109.3508
 ZZZY=            -17.0762 XXYY=          -2250.5451 XXZZ=          -2183.1815 YYZZ=           -222.9081
 XXYZ=            -22.6100 YYXZ=            -31.2027 ZZXY=              6.4809
 N-N= 1.753080526380D+03 E-N=-6.987457946166D+03  KE= 1.472272210636D+03
 1\1\GINC-R3719\SP\RMP2-FC\Gen\C11H12F3N1O4S1\ROOT\09-Dec-2019\0\\# MP2
 /Gen 5D SCF=Tight INT(grid=ultrafine) maxdisk=3489660928\\CP21CA.MP2_G
 TMP2LARGE\\0,1\C,0,-6.0635807212,1.3542496482,0.3272924859\N,0,-4.7938
 026145,0.7948202192,0.1963291461\C,0,-3.5875129536,1.4529506957,0.1100
 083698\O,0,-3.4209036541,2.6433882887,0.1277832085\O,0,-2.6084719663,0
 .542935799,0.000751672\C,0,-1.2777566449,1.0770033745,-0.0997123396\C,
 0,-0.320890383,-0.0902293711,-0.207346622\C,0,1.1213272101,0.396998783
 9,-0.3179395529\C,0,-6.2905409748,2.7357647924,0.3940812289\C,0,-7.587
 8632977,3.2056399824,0.5270793799\C,0,-8.6465887735,2.3066293632,0.592
 7040637\C,0,-8.4372514966,0.9312987539,0.5294873348\C,0,-7.1453956881,
 0.4621849053,0.3979313898\H,0,-4.7326646931,-0.2123906061,0.1633643071
 \H,0,-1.076694219,1.6869352244,0.7842326607\H,0,-1.2258345129,1.727607
 0679,-0.976006201\H,0,-0.5883893103,-0.6911117196,-1.0807177899\H,0,-0
 .4407187989,-0.7307282757,0.6706039631\H,0,1.2620973218,1.0234478249,-
 1.2020332148\H,0,1.8128573624,-0.4428268606,-0.3940394764\H,0,1.409660
 8105,0.9856037852,0.5562996529\H,0,-5.4617342307,3.4249202312,0.347554
 7454\C,0,-10.7750630882,3.1114294259,-1.0672188869\H,0,-9.2767097459,0
 .2491244509,0.5959053562\H,0,-6.9640375505,-0.6066589381,0.3542437\F,0
 ,-10.7028406676,1.9392798465,-1.685058544\F,0,-12.0127500047,3.5676472
 414,-1.1344862324\F,0,-9.9563254832,3.9651037789,-1.6668835506\S,0,-10
 .2923804446,2.9171140092,0.7255936529\O,0,-10.2770332287,4.2614028654,
 1.2603651205\O,0,-11.1584857299,1.8772018272,1.2390629126\H,0,-7.78015
 18283,4.2704335856,0.5921680595\\Version=ES64L-G09RevE.01\State=1-A\HF
 =-1473.6552656\MP2=-1477.4662367\RMSD=2.556e-09\PG=C01 [X(C11H12F3N1O4
 S1)]\\@


 WE MIGHT AS WELL ATTEMPT TO INTRODUCE A NEW PLANET 
 INTO THE SOLAR SYSTEM, OR TO ANNIHILATE ONE ALREADYIN EXISTENCE, 
 AS TO CREATE OR DESTROY A PARTICLE OF HYDROGEN.
 ALL THE CHANGES WE CAN PRODUCE CONSIST IN SEPARATING PARTICLES
 THAT ARE IN A STATE OF ... COMBINATION, AND JOINING 
 THOSE THAT WERE PREVIOUSLY AT A DISTANCE.

                                    -- JOHN DALTON, 1810
 Job cpu time:       0 days  5 hours 24 minutes 40.5 seconds.
 File lengths (MBytes):  RWF=    360 Int=      0 D2E=      0 Chk=     40 Scr=      1
 Normal termination of Gaussian 09 at Mon Dec  9 12:40:12 2019.
pbs_rusage has been removed.
Please contact help@nci.org.au if you require this functionality.
