 Entering Gaussian System, Link 0=/apps/gaussian/g16c01/g16/g16
 Initial command:
 /apps/gaussian/g16c01/g16/l1.exe "/jobfs/11569713.gadi-pbs/Gau-311956.inp" -scrdir="/jobfs/11569713.gadi-pbs/"
 Entering Link 1 = /apps/gaussian/g16c01/g16/l1.exe PID=    311957.
  
 Copyright (c) 1988-2019, Gaussian, Inc.  All Rights Reserved.
  
 This is part of the Gaussian(R) 16 program.  It is based on
 the Gaussian(R) 09 system (copyright 2009, Gaussian, Inc.),
 the Gaussian(R) 03 system (copyright 2003, Gaussian, Inc.),
 the Gaussian(R) 98 system (copyright 1998, Gaussian, Inc.),
 the Gaussian(R) 94 system (copyright 1995, Gaussian, Inc.),
 the Gaussian 92(TM) system (copyright 1992, Gaussian, Inc.),
 the Gaussian 90(TM) system (copyright 1990, Gaussian, Inc.),
 the Gaussian 88(TM) system (copyright 1988, Gaussian, Inc.),
 the Gaussian 86(TM) system (copyright 1986, Carnegie Mellon
 University), and the Gaussian 82(TM) system (copyright 1983,
 Carnegie Mellon University). Gaussian is a federally registered
 trademark of Gaussian, Inc.
  
 This software contains proprietary and confidential information,
 including trade secrets, belonging to Gaussian, Inc.
  
 This software is provided under written license and may be
 used, copied, transmitted, or stored only in accord with that
 written license.
  
 The following legend is applicable only to US Government
 contracts under FAR:
  
                    RESTRICTED RIGHTS LEGEND
  
 Use, reproduction and disclosure by the US Government is
 subject to restrictions as set forth in subparagraphs (a)
 and (c) of the Commercial Computer Software - Restricted
 Rights clause in FAR 52.227-19.
  
 Gaussian, Inc.
 340 Quinnipiac St., Bldg. 40, Wallingford CT 06492
  
  
 ---------------------------------------------------------------
 Warning -- This program may not be used in any manner that
 competes with the business of Gaussian, Inc. or will provide
 assistance to any competitor of Gaussian, Inc.  The licensee
 of this program is prohibited from giving any competitor of
 Gaussian, Inc. access to this program.  By using this program,
 the user acknowledges that Gaussian, Inc. is engaged in the
 business of creating and licensing software in the field of
 computational chemistry and represents and warrants to the
 licensee that it is not a competitor of Gaussian, Inc. and that
 it will not use this program in any manner prohibited above.
 ---------------------------------------------------------------
  

 Cite this work as:
 Gaussian 16, Revision C.01,
 M. J. Frisch, G. W. Trucks, H. B. Schlegel, G. E. Scuseria, 
 M. A. Robb, J. R. Cheeseman, G. Scalmani, V. Barone, 
 G. A. Petersson, H. Nakatsuji, X. Li, M. Caricato, A. V. Marenich, 
 J. Bloino, B. G. Janesko, R. Gomperts, B. Mennucci, H. P. Hratchian, 
 J. V. Ortiz, A. F. Izmaylov, J. L. Sonnenberg, D. Williams-Young, 
 F. Ding, F. Lipparini, F. Egidi, J. Goings, B. Peng, A. Petrone, 
 T. Henderson, D. Ranasinghe, V. G. Zakrzewski, J. Gao, N. Rega, 
 G. Zheng, W. Liang, M. Hada, M. Ehara, K. Toyota, R. Fukuda, 
 J. Hasegawa, M. Ishida, T. Nakajima, Y. Honda, O. Kitao, H. Nakai, 
 T. Vreven, K. Throssell, J. A. Montgomery, Jr., J. E. Peralta, 
 F. Ogliaro, M. J. Bearpark, J. J. Heyd, E. N. Brothers, K. N. Kudin, 
 V. N. Staroverov, T. A. Keith, R. Kobayashi, J. Normand, 
 K. Raghavachari, A. P. Rendell, J. C. Burant, S. S. Iyengar, 
 J. Tomasi, M. Cossi, J. M. Millam, M. Klene, C. Adamo, R. Cammi, 
 J. W. Ochterski, R. L. Martin, K. Morokuma, O. Farkas, 
 J. B. Foresman, and D. J. Fox, Gaussian, Inc., Wallingford CT, 2019.
 
 ******************************************
 Gaussian 16:  ES64L-G16RevC.01  3-Jul-2019
                22-Sep-2020 
 ******************************************
 %NprocShared=6
 Will use up to    6 processors via shared memory.
 %Mem=1194000MB
 %chk=CP19CA_c2.DSDPBEP86_AUG-cc-PVTZ.chk
 ----------------------------------------------------------------------
 # DSDPBEP86/AUG-cc-PVTZ SCF=Tight INT(grid=ultrafine) MaxDisk=1400000M
 B
 ----------------------------------------------------------------------
 1/38=1,172=1/1;
 2/12=2,17=6,18=5,40=1/2;
 3/5=16,6=1,7=10,11=9,25=1,30=1,74=-77,75=-5/1,2,3;
 4//1;
 5/5=2,32=2,38=5/2;
 8/10=1/1;
 9/16=-3/6;
 6/7=2,8=2,9=2,10=2/1;
 99/5=1,9=1/99;
 -------------------------------
 CP19CA_c2.DSDPBEP86_AUG-cc-PVTZ
 -------------------------------
 Symbolic Z-matrix:
 Charge =  0 Multiplicity = 1
 C                    -6.24129   1.47782   0.03181 
 N                    -4.9682    0.90476   0.08786 
 C                    -3.75766   1.54369  -0.03219 
 O                    -3.58446   2.72087  -0.20847 
 O                    -2.77614   0.63424   0.07963 
 C                    -1.44065   1.15257  -0.02531 
 C                    -0.48351  -0.00996   0.12454 
 C                     0.96499   0.46049   0.02411 
 C                    -7.33061   0.6125    0.18259 
 C                    -8.62334   1.10027   0.13945 
 C                    -8.86693   2.4609   -0.05465 
 C                    -7.77527   3.30904  -0.20294 
 C                    -6.4694    2.84202  -0.16316 
 H                    -4.91336  -0.09266   0.23275 
 H                    -1.29228   1.90371   0.75432 
 H                    -1.33011   1.64731  -0.99333 
 H                    -0.69859  -0.75034  -0.65071 
 H                    -0.6609   -0.49516   1.08815 
 H                     1.16314   0.93194  -0.94151 
 H                     1.65634  -0.37606   0.13195 
 H                     1.20094   1.18823   0.80429 
 H                    -7.17389  -0.44947   0.33481 
 Cl                   -9.92634  -0.03236   0.33408 
 C                    -10.26463   3.01223  -0.10476 
 H                    -7.94958   4.36679  -0.35417 
 H                    -5.64108   3.52286  -0.28116 
 F                    -10.25956   4.33884  -0.2993 
 F                    -10.985    2.47647  -1.10007 
 F                    -10.93816   2.78901   1.03241 
 
                          Input orientation:                          
 ---------------------------------------------------------------------
 Center     Atomic      Atomic             Coordinates (Angstroms)
 Number     Number       Type             X           Y           Z
 ---------------------------------------------------------------------
      1          6           0       -6.241294    1.477822    0.031813
      2          7           0       -4.968205    0.904758    0.087856
      3          6           0       -3.757663    1.543692   -0.032194
      4          8           0       -3.584459    2.720867   -0.208474
      5          8           0       -2.776142    0.634236    0.079627
      6          6           0       -1.440648    1.152567   -0.025308
      7          6           0       -0.483511   -0.009956    0.124538
      8          6           0        0.964986    0.460488    0.024109
      9          6           0       -7.330614    0.612498    0.182590
     10          6           0       -8.623344    1.100269    0.139454
     11          6           0       -8.866930    2.460902   -0.054646
     12          6           0       -7.775269    3.309042   -0.202944
     13          6           0       -6.469398    2.842020   -0.163163
     14          1           0       -4.913360   -0.092657    0.232746
     15          1           0       -1.292281    1.903709    0.754323
     16          1           0       -1.330113    1.647311   -0.993330
     17          1           0       -0.698585   -0.750337   -0.650713
     18          1           0       -0.660903   -0.495163    1.088147
     19          1           0        1.163139    0.931938   -0.941513
     20          1           0        1.656345   -0.376063    0.131949
     21          1           0        1.200939    1.188228    0.804285
     22          1           0       -7.173890   -0.449469    0.334813
     23         17           0       -9.926345   -0.032357    0.334081
     24          6           0      -10.264634    3.012228   -0.104758
     25          1           0       -7.949578    4.366786   -0.354166
     26          1           0       -5.641080    3.522861   -0.281157
     27          9           0      -10.259561    4.338837   -0.299304
     28          9           0      -10.984996    2.476468   -1.100070
     29          9           0      -10.938157    2.789014    1.032411
 ---------------------------------------------------------------------
                    Distance matrix (angstroms):
                    1          2          3          4          5
     1  C    0.000000
     2  N    1.397247   0.000000
     3  C    2.485328   1.374067   0.000000
     4  O    2.943071   2.302350   1.202836   0.000000
     5  O    3.566679   2.208708   1.342758   2.256193   0.000000
     6  C    4.811990   3.538061   2.349805   2.662525   1.436392
     7  C    5.947616   4.577174   3.627459   4.145379   2.381839
     8  C    7.277740   5.950143   4.845608   5.085358   3.745572
     9  C    1.399334   2.382303   3.698544   4.316459   4.555687
    10  C    2.414186   3.660728   4.888858   5.304503   5.866049
    11  C    2.804975   4.200232   5.190991   5.291100   6.360223
    12  C    2.400324   3.707392   4.391671   4.231887   5.676769
    13  C    1.396812   2.463650   3.009371   2.887837   4.309686
    14  H    2.066442   1.009375   2.020759   3.142701   2.262636
    15  H    5.019575   3.867105   2.612725   2.617023   2.066064
    16  H    5.019895   3.867307   2.612953   2.617365   2.066049
    17  H    6.012666   4.638370   3.873383   4.535758   2.601285
    18  H    6.012427   4.638234   3.873244   4.535555   2.601325
    19  H    7.488055   6.217211   5.041369   5.126139   4.080354
    20  H    8.112928   6.747377   5.746641   6.096957   4.546469
    21  H    7.487817   6.217070   5.041209   5.125885   4.080344
    22  H    2.162405   2.599994   3.972152   4.819772   4.536488
    23  Cl   3.993946   5.051927   6.377360   6.934992   7.185714
    24  C    4.308169   5.703568   6.671022   6.687330   7.859157
    25  H    3.378362   4.590164   5.064156   4.667391   6.394103
    26  H    2.154156   2.728258   2.743420   2.208658   4.084384
    27  F    4.943837   6.319909   7.082292   6.868993   8.358781
    28  F    4.978068   6.331130   7.365104   7.458057   8.495339
    29  F    4.978046   6.331108   7.365032   7.457970   8.495255
                    6          7          8          9         10
     6  C    0.000000
     7  C    1.513283   0.000000
     8  C    2.503696   1.526286   0.000000
     9  C    5.918327   6.875582   8.298506   0.000000
    10  C    7.184776   8.215211   9.610343   1.382365   0.000000
    11  C    7.540707   8.741793  10.033665   2.415191   1.395826
    12  C    6.693979   8.018274   9.195536   2.760018   2.390636
    13  C    5.306748   6.636819   7.808766   2.414954   2.786531
    14  H    3.698230   4.431942   5.907999   2.518506   3.898173
    15  H    1.092727   2.170910   2.776932   6.201256   7.400545
    16  H    1.092728   2.170920   2.776907   6.201583   7.400924
    17  H    2.136079   1.093360   2.165399   6.821695   8.176241
    18  H    2.136071   1.093360   2.165400   6.821436   8.175934
    19  H    2.769082   2.176025   1.092683   8.573767   9.847440
    20  H    3.457283   2.170961   1.090606   9.041307  10.385163
    21  H    2.769021   2.176023   1.092683   8.573527   9.847145
    22  H    5.963747   6.708096   8.195478   1.084209   2.130909
    23  Cl   8.575561   9.445185  10.906882   2.678919   1.737393
    24  C    9.018169  10.239948  11.516612   3.801282   2.531612
    25  H    7.266741   8.667594   9.740212   3.842643   3.371610
    26  H    4.829843   6.264655   7.287759   3.397027   3.865198
    27  F    9.380865  10.708071  11.880095   4.764090   3.654864
    28  F    9.695483  10.861084  12.170868   4.298151   3.001290
    29  F    9.695329  10.860851  12.170601   4.298114   3.001265
                   11         12         13         14         15
    11  C    0.000000
    12  C    1.390344   0.000000
    13  C    2.430059   1.387441   0.000000
    14  H    4.715291   4.466755   3.345194   0.000000
    15  H    7.638076   6.702273   5.340857   4.167702   0.000000
    16  H    7.638499   6.702693   5.341232   4.167783   1.766766
    17  H    8.797114   8.170588   6.815058   4.356303   3.061138
    18  H    8.796771   8.170257   6.814776   4.356273   2.502931
    19  H   10.184623   9.278536   7.906317   6.273159   3.138357
    20  H   10.900573  10.131509   8.744760   6.576587   3.778769
    21  H   10.184274   9.278182   7.906013   6.273115   2.594331
    22  H    3.389443   3.844118   3.402674   2.290792   6.348761
    23  Cl   2.736752   4.010046   4.523248   5.014371   8.858443
    24  C    1.503346   2.508919   3.799500   6.195994   9.081297
    25  H    2.136268   1.082624   2.133619   5.426759   7.184366
    26  H    3.403699   2.146298   1.078692   3.723659   4.754569
    27  F    2.350727   2.690998   4.077295   6.964415   9.351583
    28  F    2.362066   3.435165   4.626235   6.726184   9.885117
    29  F    2.362061   3.435170   4.626231   6.726192   9.690409
                   16         17         18         19         20
    16  H    0.000000
    17  H    2.502985   0.000000
    18  H    3.061141   1.757888   0.000000
    19  H    2.594368   2.525991   3.079491   0.000000
    20  H    3.778786   2.509648   2.509608   1.762510   0.000000
    21  H    3.138216   3.079489   2.526032   1.764915   1.762509
    22  H    6.349030   6.556780   6.556570   8.546540   8.832870
    23  Cl   8.858810   9.307892   9.307589  11.204180  11.589550
    24  C    9.081752  10.293894  10.293516  11.645675  12.395413
    25  H    7.184803   8.879741   8.879392   9.756268  10.724023
    26  H    4.754926   6.544085   6.543827   7.310701   8.284001
    27  F    9.352061  10.836764  10.836366  11.937230  12.822054
    28  F    9.691009  10.790015  10.963839  12.246954  13.017614
    29  F    9.885425  10.963975  10.789387  12.401067  13.017297
                   21         22         23         24         25
    21  H    0.000000
    22  H    8.546357   0.000000
    23  Cl  11.203899   2.783880   0.000000
    24  C   11.645286   4.661466   3.094595   0.000000
    25  H    9.755881   4.926733   4.871730   2.693792   0.000000
    26  H    7.310398   4.302131   5.601927   4.655009   2.459005
    27  F   11.936805   5.731609   4.429396   1.340807   2.310804
    28  F   12.400933   5.014431   3.077618   1.340376   3.652866
    29  F   12.246314   5.014392   3.077591   1.340377   3.652884
                   26         27         28         29
    26  H    0.000000
    27  F    4.690044   0.000000
    28  F    5.506631   2.153114   0.000000
    29  F    5.506633   2.153116   2.155773   0.000000
 Stoichiometry    C11H11ClF3NO2
 Framework group  C1[X(C11H11ClF3NO2)]
 Deg. of freedom    81
 Full point group                 C1      NOp   1
 Largest Abelian subgroup         C1      NOp   1
 Largest concise Abelian subgroup C1      NOp   1
                         Standard orientation:                         
 ---------------------------------------------------------------------
 Center     Atomic      Atomic             Coordinates (Angstroms)
 Number     Number       Type             X           Y           Z
 ---------------------------------------------------------------------
      1          6           0       -0.252700    0.138694   -0.000238
      2          7           0       -1.602254    0.500638   -0.000362
      3          6           0       -2.692282   -0.335962   -0.000271
      4          8           0       -2.671030   -1.538610   -0.000191
      5          8           0       -3.809081    0.409529   -0.000310
      6          6           0       -5.042071   -0.327329   -0.000054
      7          6           0       -6.176119    0.674649    0.000294
      8          6           0       -7.528413   -0.033057    0.000508
      9          6           0        0.680781    1.181167   -0.000141
     10          6           0        2.035791    0.907527   -0.000042
     11          6           0        2.498188   -0.409485   -0.000002
     12          6           0        1.559593   -1.435202   -0.000088
     13          6           0        0.195005   -1.184425   -0.000211
     14          1           0       -1.819157    1.486432   -0.000491
     15          1           0       -5.067905   -0.970050    0.883288
     16          1           0       -5.068320   -0.969925   -0.883478
     17          1           0       -6.082727    1.318282   -0.878598
     18          1           0       -6.082343    1.318085    0.879290
     19          1           0       -7.644908   -0.666714   -0.882024
     20          1           0       -8.347041    0.687547    0.000827
     21          1           0       -7.644475   -0.667001    0.882891
     22          1           0        0.352828    2.214587   -0.000174
     23         17           0        3.136460    2.251797    0.000045
     24          6           0        3.967138   -0.729225    0.000142
     25          1           0        1.904207   -2.461515   -0.000057
     26          1           0       -0.511083   -1.999910   -0.000279
     27          9           0        4.178658   -2.053243    0.000186
     28          9           0        4.592904   -0.235971   -1.077691
     29          9           0        4.592693   -0.235931    1.078082
 ---------------------------------------------------------------------
 Rotational constants (GHZ):           1.0952771           0.1233951           0.1133304
 Standard basis: Aug-CC-pVTZ (5D, 7F)
 There are  1269 symmetry adapted cartesian basis functions of A   symmetry.
 There are  1085 symmetry adapted basis functions of A   symmetry.
  1085 basis functions,  1635 primitive gaussians,  1269 cartesian basis functions
    72 alpha electrons       72 beta electrons
       nuclear repulsion energy      1431.5254336717 Hartrees.
 NAtoms=   29 NActive=   29 NUniq=   29 SFac= 1.00D+00 NAtFMM=   60 NAOKFM=F Big=F
 Integral buffers will be    131072 words long.
 Regular integral format.
 Two-electron integral symmetry is turned on.
 Nuclear repulsion after empirical dispersion term =     1431.5035653815 Hartrees.
 One-electron integrals computed using PRISM.
 NBasis=  1085 RedAO= T EigKep=  1.29D-06  NBF=  1085
 NBsUse=  1081 1.00D-06 EigRej=  9.80D-07 NBFU=  1081
 ExpMin= 2.53D-02 ExpMax= 4.56D+05 ExpMxC= 1.44D+03 IAcc=3 IRadAn=         5 AccDes= 0.00D+00
 Harris functional with IExCor= 1004 and IRadAn=       5 diagonalized for initial guess.
 HarFok:  IExCor= 1004 AccDes= 0.00D+00 IRadAn=         5 IDoV= 1 UseB2=F ITyADJ=14
 ICtDFT=  3500011 ScaDFX=  1.000000  1.000000  1.000000  1.000000
 FoFCou: FMM=F IPFlag=           0 FMFlag=      100000 FMFlg1=           0
         NFxFlg=           0 DoJE=T BraDBF=F KetDBF=T FulRan=T
         wScrn=  0.000000 ICntrl=       500 IOpCl=  0 I1Cent=   200000004 NGrid=           0
         NMat0=    1 NMatS0=      1 NMatT0=    0 NMatD0=    1 NMtDS0=    0 NMtDT0=    0
 Petite list used in FoFCou.
 Requested convergence on RMS density matrix=1.00D-08 within 128 cycles.
 Requested convergence on MAX density matrix=1.00D-06.
 Requested convergence on             energy=1.00D-06.
 No special actions if energy rises.
 SCF Done:  E(RDSDPBEP86) =  -1387.61984711     A.U. after   13 cycles
            NFock= 13  Conv=0.89D-08     -V/T= 2.0025
 DoSCS=T DFT=T ScalE2(SS,OS)=  0.220000  0.520000
 ExpMin= 2.53D-02 ExpMax= 4.56D+05 ExpMxC= 1.44D+03 IAcc=3 IRadAn=         5 AccDes= 0.00D+00
 HarFok:  IExCor=  205 AccDes= 0.00D+00 IRadAn=         5 IDoV=-2 UseB2=F ITyADJ=14
 ICtDFT= 12500011 ScaDFX=  1.000000  1.000000  1.000000  1.000000
 GSVD:  LWork=        -660 too small for GESVD, short by        2750 words or        2750 for optimal perf.
 Range of M.O.s used for correlation:    23  1081
 NBasis=  1085 NAE=    72 NBE=    72 NFC=    22 NFV=     0
 NROrb=   1059 NOA=    50 NOB=    50 NVA=  1009 NVB=  1009

 **** Warning!!: The largest alpha MO coefficient is  0.11019382D+03

 DoSCS=T DFT=T ScalE2(SS,OS)=  0.220000  0.520000
 Fully direct method using O(OVN) memory.
 JobTyp=1 Pass  1:  I=   1 to  50 NPSUse=  6 ParTrn=T ParDer=T DoDerP=F.
 Spin components of T(2) and E(2):
     alpha-alpha T2 =       0.1741127262D+00 E2=     -0.1107387266D+00
     alpha-beta  T2 =       0.9006028521D+00 E2=     -0.1483746066D+01
     beta-beta   T2 =       0.1741127262D+00 E2=     -0.1107387266D+00
 E2(DSDPBEP86) =    -0.1705223519D+01 E(DSDPBEP86) =    -0.13893250706290D+04

 **********************************************************************

            Population analysis using the SCF Density.

 **********************************************************************

 Orbital symmetries:
       Occupied  (A) (A) (A) (A) (A) (A) (A) (A) (A) (A) (A) (A)
                 (A) (A) (A) (A) (A) (A) (A) (A) (A) (A) (A) (A)
                 (A) (A) (A) (A) (A) (A) (A) (A) (A) (A) (A) (A)
                 (A) (A) (A) (A) (A) (A) (A) (A) (A) (A) (A) (A)
                 (A) (A) (A) (A) (A) (A) (A) (A) (A) (A) (A) (A)
                 (A) (A) (A) (A) (A) (A) (A) (A) (A) (A) (A) (A)
       Virtual   (A) (A) (A) (A) (A) (A) (A) (A) (A) (A) (A) (A)
                 (A) (A) (A) (A) (A) (A) (A) (A) (A) (A) (A) (A)
                 (A) (A) (A) (A) (A) (A) (A) (A) (A) (A) (A) (A)
                 (A) (A) (A) (A) (A) (A) (A) (A) (A) (A) (A) (A)
                 (A) (A) (A) (A) (A) (A) (A) (A) (A) (A) (A) (A)
                 (A) (A) (A) (A) (A) (A) (A) (A) (A) (A) (A) (A)
                 (A) (A) (A) (A) (A) (A) (A) (A) (A) (A) (A) (A)
                 (A) (A) (A) (A) (A) (A) (A) (A) (A) (A) (A) (A)
                 (A) (A) (A) (A) (A) (A) (A) (A) (A) (A) (A) (A)
                 (A) (A) (A) (A) (A) (A) (A) (A) (A) (A) (A) (A)
                 (A) (A) (A) (A) (A) (A) (A) (A) (A) (A) (A) (A)
                 (A) (A) (A) (A) (A) (A) (A) (A) (A) (A) (A) (A)
                 (A) (A) (A) (A) (A) (A) (A) (A) (A) (A) (A) (A)
                 (A) (A) (A) (A) (A) (A) (A) (A) (A) (A) (A) (A)
                 (A) (A) (A) (A) (A) (A) (A) (A) (A) (A) (A) (A)
                 (A) (A) (A) (A) (A) (A) (A) (A) (A) (A) (A) (A)
                 (A) (A) (A) (A) (A) (A) (A) (A) (A) (A) (A) (A)
                 (A) (A) (A) (A) (A) (A) (A) (A) (A) (A) (A) (A)
                 (A) (A) (A) (A) (A) (A) (A) (A) (A) (A) (A) (A)
                 (A) (A) (A) (A) (A) (A) (A) (A) (A) (A) (A) (A)
                 (A) (A) (A) (A) (A) (A) (A) (A) (A) (A) (A) (A)
                 (A) (A) (A) (A) (A) (A) (A) (A) (A) (A) (A) (A)
                 (A) (A) (A) (A) (A) (A) (A) (A) (A) (A) (A) (A)
                 (A) (A) (A) (A) (A) (A) (A) (A) (A) (A) (A) (A)
                 (A) (A) (A) (A) (A) (A) (A) (A) (A) (A) (A) (A)
                 (A) (A) (A) (A) (A) (A) (A) (A) (A) (A) (A) (A)
                 (A) (A) (A) (A) (A) (A) (A) (A) (A) (A) (A) (A)
                 (A) (A) (A) (A) (A) (A) (A) (A) (A) (A) (A) (A)
                 (A) (A) (A) (A) (A) (A) (A) (A) (A) (A) (A) (A)
                 (A) (A) (A) (A) (A) (A) (A) (A) (A) (A) (A) (A)
                 (A) (A) (A) (A) (A) (A) (A) (A) (A) (A) (A) (A)
                 (A) (A) (A) (A) (A) (A) (A) (A) (A) (A) (A) (A)
                 (A) (A) (A) (A) (A) (A) (A) (A) (A) (A) (A) (A)
                 (A) (A) (A) (A) (A) (A) (A) (A) (A) (A) (A) (A)
                 (A) (A) (A) (A) (A) (A) (A) (A) (A) (A) (A) (A)
                 (A) (A) (A) (A) (A) (A) (A) (A) (A) (A) (A) (A)
                 (A) (A) (A) (A) (A) (A) (A) (A) (A) (A) (A) (A)
                 (A) (A) (A) (A) (A) (A) (A) (A) (A) (A) (A) (A)
                 (A) (A) (A) (A) (A) (A) (A) (A) (A) (A) (A) (A)
                 (A) (A) (A) (A) (A) (A) (A) (A) (A) (A) (A) (A)
                 (A) (A) (A) (A) (A) (A) (A) (A) (A) (A) (A) (A)
                 (A) (A) (A) (A) (A) (A) (A) (A) (A) (A) (A) (A)
                 (A) (A) (A) (A) (A) (A) (A) (A) (A) (A) (A) (A)
                 (A) (A) (A) (A) (A) (A) (A) (A) (A) (A) (A) (A)
                 (A) (A) (A) (A) (A) (A) (A) (A) (A) (A) (A) (A)
                 (A) (A) (A) (A) (A) (A) (A) (A) (A) (A) (A) (A)
                 (A) (A) (A) (A) (A) (A) (A) (A) (A) (A) (A) (A)
                 (A) (A) (A) (A) (A) (A) (A) (A) (A) (A) (A) (A)
                 (A) (A) (A) (A) (A) (A) (A) (A) (A) (A) (A) (A)
                 (A) (A) (A) (A) (A) (A) (A) (A) (A) (A) (A) (A)
                 (A) (A) (A) (A) (A) (A) (A) (A) (A) (A) (A) (A)
                 (A) (A) (A) (A) (A) (A) (A) (A) (A) (A) (A) (A)
                 (A) (A) (A) (A) (A) (A) (A) (A) (A) (A) (A) (A)
                 (A) (A) (A) (A) (A) (A) (A) (A) (A) (A) (A) (A)
                 (A) (A) (A) (A) (A) (A) (A) (A) (A) (A) (A) (A)
                 (A) (A) (A) (A) (A) (A) (A) (A) (A) (A) (A) (A)
                 (A) (A) (A) (A) (A) (A) (A) (A) (A) (A) (A) (A)
                 (A) (A) (A) (A) (A) (A) (A) (A) (A) (A) (A) (A)
                 (A) (A) (A) (A) (A) (A) (A) (A) (A) (A) (A) (A)
                 (A) (A) (A) (A) (A) (A) (A) (A) (A) (A) (A) (A)
                 (A) (A) (A) (A) (A) (A) (A) (A) (A) (A) (A) (A)
                 (A) (A) (A) (A) (A) (A) (A) (A) (A) (A) (A) (A)
                 (A) (A) (A) (A) (A) (A) (A) (A) (A) (A) (A) (A)
                 (A) (A) (A) (A) (A) (A) (A) (A) (A) (A) (A) (A)
                 (A) (A) (A) (A) (A) (A) (A) (A) (A) (A) (A) (A)
                 (A) (A) (A) (A) (A) (A) (A) (A) (A) (A) (A) (A)
                 (A) (A) (A) (A) (A) (A) (A) (A) (A) (A) (A) (A)
                 (A) (A) (A) (A) (A) (A) (A) (A) (A) (A) (A) (A)
                 (A) (A) (A) (A) (A) (A) (A) (A) (A) (A) (A) (A)
                 (A) (A) (A) (A) (A) (A) (A) (A) (A) (A) (A) (A)
                 (A) (A) (A) (A) (A) (A) (A) (A) (A) (A) (A) (A)
                 (A) (A) (A) (A) (A) (A) (A) (A) (A) (A) (A) (A)
                 (A) (A) (A) (A) (A) (A) (A) (A) (A) (A) (A) (A)
                 (A) (A) (A) (A) (A) (A) (A) (A) (A) (A) (A) (A)
                 (A) (A) (A) (A) (A) (A) (A) (A) (A) (A) (A) (A)
                 (A) (A) (A) (A) (A) (A) (A) (A) (A) (A) (A) (A)
                 (A) (A) (A) (A) (A) (A) (A) (A) (A) (A) (A) (A)
                 (A) (A) (A) (A) (A) (A) (A) (A) (A) (A) (A) (A)
                 (A) (A) (A) (A) (A) (A) (A) (A) (A) (A) (A) (A)
                 (A) (A) (A) (A) (A) (A) (A) (A) (A) (A) (A) (A)
                 (A) (A) (A) (A) (A) (A) (A) (A) (A) (A) (A) (A)
                 (A) (A) (A) (A) (A) (A) (A) (A) (A) (A) (A) (A)
                 (A) (A) (A) (A) (A) (A) (A) (A) (A) (A) (A) (A)
                 (A) (A) (A) (A) (A) (A) (A) (A) (A) (A) (A) (A)
                 (A)
 The electronic state is 1-A.
 Alpha  occ. eigenvalues -- -103.58364 -25.71031 -25.70472 -25.70470 -20.06669
 Alpha  occ. eigenvalues --  -20.00025 -15.14510 -11.08701 -11.00329 -10.91653
 Alpha  occ. eigenvalues --  -10.90784 -10.88604 -10.86083 -10.85603 -10.85287
 Alpha  occ. eigenvalues --  -10.83838 -10.82939 -10.81955 -10.15867  -7.73554
 Alpha  occ. eigenvalues --   -7.73069  -7.73049  -1.57395  -1.48032  -1.47652
 Alpha  occ. eigenvalues --   -1.35857  -1.25585  -1.17340  -1.10137  -1.03182
 Alpha  occ. eigenvalues --   -0.98857  -0.96857  -0.92748  -0.88698  -0.85745
 Alpha  occ. eigenvalues --   -0.80251  -0.79195  -0.75264  -0.73998  -0.73495
 Alpha  occ. eigenvalues --   -0.73045  -0.71134  -0.69861  -0.66156  -0.64094
 Alpha  occ. eigenvalues --   -0.62216  -0.61882  -0.61076  -0.60072  -0.58896
 Alpha  occ. eigenvalues --   -0.58178  -0.57452  -0.57335  -0.55907  -0.55522
 Alpha  occ. eigenvalues --   -0.54921  -0.54484  -0.53195  -0.50643  -0.50302
 Alpha  occ. eigenvalues --   -0.49241  -0.47898  -0.47585  -0.46172  -0.44889
 Alpha  occ. eigenvalues --   -0.44475  -0.42108  -0.41729  -0.41470  -0.41011
 Alpha  occ. eigenvalues --   -0.33107  -0.30985
 Alpha virt. eigenvalues --    0.00954   0.01663   0.02445   0.02561   0.03260
 Alpha virt. eigenvalues --    0.03289   0.03338   0.03510   0.04929   0.05045
 Alpha virt. eigenvalues --    0.05168   0.05261   0.05983   0.06654   0.07012
 Alpha virt. eigenvalues --    0.07116   0.07412   0.08141   0.08362   0.08965
 Alpha virt. eigenvalues --    0.09603   0.09922   0.10002   0.10157   0.10427
 Alpha virt. eigenvalues --    0.11037   0.11090   0.11323   0.11469   0.11494
 Alpha virt. eigenvalues --    0.12069   0.12368   0.13193   0.13219   0.13745
 Alpha virt. eigenvalues --    0.13760   0.13997   0.14206   0.14310   0.14693
 Alpha virt. eigenvalues --    0.15229   0.15648   0.16146   0.16344   0.17149
 Alpha virt. eigenvalues --    0.17387   0.17566   0.17708   0.17807   0.18023
 Alpha virt. eigenvalues --    0.18315   0.19093   0.19379   0.19642   0.19936
 Alpha virt. eigenvalues --    0.20106   0.20152   0.20891   0.21530   0.22095
 Alpha virt. eigenvalues --    0.22205   0.22755   0.23123   0.23381   0.23414
 Alpha virt. eigenvalues --    0.23714   0.23963   0.24402   0.24602   0.25182
 Alpha virt. eigenvalues --    0.25453   0.25709   0.26000   0.26370   0.26804
 Alpha virt. eigenvalues --    0.27091   0.27424   0.27911   0.28122   0.28347
 Alpha virt. eigenvalues --    0.28621   0.29184   0.29342   0.29409   0.29633
 Alpha virt. eigenvalues --    0.30462   0.30506   0.30718   0.31156   0.31488
 Alpha virt. eigenvalues --    0.31515   0.31945   0.32259   0.32730   0.32887
 Alpha virt. eigenvalues --    0.32927   0.33274   0.33408   0.33867   0.33920
 Alpha virt. eigenvalues --    0.34086   0.34449   0.35048   0.35378   0.35739
 Alpha virt. eigenvalues --    0.36176   0.36557   0.36774   0.36918   0.36996
 Alpha virt. eigenvalues --    0.37351   0.37597   0.37686   0.38097   0.38247
 Alpha virt. eigenvalues --    0.38834   0.39078   0.39370   0.39896   0.40251
 Alpha virt. eigenvalues --    0.40562   0.40784   0.41101   0.41274   0.41800
 Alpha virt. eigenvalues --    0.42145   0.42313   0.42490   0.42808   0.42845
 Alpha virt. eigenvalues --    0.43023   0.43636   0.43829   0.44132   0.44289
 Alpha virt. eigenvalues --    0.44696   0.44902   0.45172   0.45402   0.46165
 Alpha virt. eigenvalues --    0.46498   0.46967   0.47259   0.47470   0.47926
 Alpha virt. eigenvalues --    0.48096   0.48236   0.48300   0.48777   0.49130
 Alpha virt. eigenvalues --    0.49461   0.49921   0.50014   0.50250   0.50669
 Alpha virt. eigenvalues --    0.50737   0.51133   0.51265   0.51582   0.51889
 Alpha virt. eigenvalues --    0.52214   0.52303   0.52397   0.53121   0.53841
 Alpha virt. eigenvalues --    0.53884   0.54828   0.55276   0.55587   0.56122
 Alpha virt. eigenvalues --    0.56459   0.57150   0.57447   0.57743   0.57860
 Alpha virt. eigenvalues --    0.59083   0.59792   0.59969   0.60215   0.61352
 Alpha virt. eigenvalues --    0.61822   0.61879   0.62626   0.63076   0.63434
 Alpha virt. eigenvalues --    0.63563   0.63781   0.64636   0.65432   0.65758
 Alpha virt. eigenvalues --    0.66060   0.66086   0.66418   0.66831   0.67581
 Alpha virt. eigenvalues --    0.67952   0.68503   0.68605   0.69543   0.70000
 Alpha virt. eigenvalues --    0.70026   0.70586   0.72102   0.72924   0.73248
 Alpha virt. eigenvalues --    0.73435   0.73503   0.73900   0.74568   0.75465
 Alpha virt. eigenvalues --    0.75717   0.76079   0.76479   0.76592   0.77140
 Alpha virt. eigenvalues --    0.77371   0.77936   0.78818   0.78937   0.79965
 Alpha virt. eigenvalues --    0.80040   0.80089   0.80659   0.80894   0.81036
 Alpha virt. eigenvalues --    0.81412   0.82267   0.82734   0.82788   0.83044
 Alpha virt. eigenvalues --    0.83666   0.83947   0.84359   0.84728   0.85565
 Alpha virt. eigenvalues --    0.85602   0.85687   0.86026   0.86177   0.86859
 Alpha virt. eigenvalues --    0.87003   0.87104   0.87241   0.87435   0.87898
 Alpha virt. eigenvalues --    0.88596   0.88995   0.89202   0.89553   0.90028
 Alpha virt. eigenvalues --    0.90472   0.90831   0.91193   0.91707   0.92060
 Alpha virt. eigenvalues --    0.92093   0.92560   0.93048   0.93305   0.93324
 Alpha virt. eigenvalues --    0.94244   0.94518   0.95637   0.95762   0.96776
 Alpha virt. eigenvalues --    0.96852   0.97076   0.97992   0.98374   0.98582
 Alpha virt. eigenvalues --    0.99268   0.99576   1.00121   1.00458   1.00473
 Alpha virt. eigenvalues --    1.00936   1.01336   1.02058   1.02093   1.02376
 Alpha virt. eigenvalues --    1.02917   1.02921   1.03537   1.03992   1.04364
 Alpha virt. eigenvalues --    1.05005   1.05045   1.05711   1.05799   1.06021
 Alpha virt. eigenvalues --    1.06216   1.06445   1.06489   1.07506   1.07725
 Alpha virt. eigenvalues --    1.08435   1.08642   1.08707   1.08786   1.09317
 Alpha virt. eigenvalues --    1.10605   1.10637   1.10799   1.10893   1.11622
 Alpha virt. eigenvalues --    1.11713   1.12300   1.12800   1.13557   1.13607
 Alpha virt. eigenvalues --    1.14197   1.14252   1.15154   1.16038   1.16247
 Alpha virt. eigenvalues --    1.16334   1.16516   1.16776   1.17493   1.17744
 Alpha virt. eigenvalues --    1.18293   1.18896   1.18904   1.19076   1.19474
 Alpha virt. eigenvalues --    1.20451   1.20927   1.22003   1.22083   1.22518
 Alpha virt. eigenvalues --    1.22535   1.22965   1.23701   1.24071   1.24469
 Alpha virt. eigenvalues --    1.24508   1.26005   1.26553   1.26820   1.27910
 Alpha virt. eigenvalues --    1.28465   1.28604   1.28851   1.29330   1.30198
 Alpha virt. eigenvalues --    1.30329   1.30702   1.31363   1.31465   1.31767
 Alpha virt. eigenvalues --    1.32757   1.32960   1.33335   1.33953   1.34760
 Alpha virt. eigenvalues --    1.34911   1.35784   1.36070   1.37003   1.37678
 Alpha virt. eigenvalues --    1.38035   1.38325   1.38796   1.39105   1.39889
 Alpha virt. eigenvalues --    1.39911   1.41673   1.42287   1.42688   1.42968
 Alpha virt. eigenvalues --    1.43374   1.43826   1.44301   1.44610   1.45843
 Alpha virt. eigenvalues --    1.45955   1.46435   1.47420   1.48355   1.48674
 Alpha virt. eigenvalues --    1.49393   1.50064   1.51456   1.51560   1.51898
 Alpha virt. eigenvalues --    1.52509   1.52665   1.53047   1.53361   1.53851
 Alpha virt. eigenvalues --    1.54200   1.54990   1.55748   1.55845   1.56944
 Alpha virt. eigenvalues --    1.57270   1.57603   1.57801   1.58327   1.59474
 Alpha virt. eigenvalues --    1.59781   1.60116   1.60650   1.60999   1.61116
 Alpha virt. eigenvalues --    1.61739   1.61760   1.62117   1.63477   1.64157
 Alpha virt. eigenvalues --    1.64945   1.65307   1.65637   1.66218   1.66300
 Alpha virt. eigenvalues --    1.66710   1.67226   1.68072   1.68314   1.68392
 Alpha virt. eigenvalues --    1.69368   1.69535   1.69974   1.70451   1.71238
 Alpha virt. eigenvalues --    1.71346   1.72599   1.72913   1.73156   1.73592
 Alpha virt. eigenvalues --    1.73778   1.74514   1.74954   1.76474   1.76718
 Alpha virt. eigenvalues --    1.76758   1.77548   1.78339   1.78743   1.79161
 Alpha virt. eigenvalues --    1.79699   1.80506   1.81195   1.82269   1.82350
 Alpha virt. eigenvalues --    1.83120   1.84227   1.84724   1.84815   1.85184
 Alpha virt. eigenvalues --    1.86065   1.86127   1.87009   1.87629   1.88021
 Alpha virt. eigenvalues --    1.88654   1.89695   1.89931   1.90531   1.91133
 Alpha virt. eigenvalues --    1.91910   1.92792   1.92799   1.93342   1.93477
 Alpha virt. eigenvalues --    1.94252   1.94482   1.96557   1.96869   1.97037
 Alpha virt. eigenvalues --    1.97502   1.98318   1.98886   1.99831   1.99955
 Alpha virt. eigenvalues --    2.00288   2.00333   2.01788   2.02891   2.03517
 Alpha virt. eigenvalues --    2.04511   2.04646   2.05087   2.06115   2.07331
 Alpha virt. eigenvalues --    2.07958   2.09748   2.10177   2.10309   2.11246
 Alpha virt. eigenvalues --    2.11947   2.12754   2.14514   2.14641   2.15515
 Alpha virt. eigenvalues --    2.15704   2.15804   2.16545   2.17183   2.18351
 Alpha virt. eigenvalues --    2.19763   2.21034   2.21087   2.21437   2.21921
 Alpha virt. eigenvalues --    2.23867   2.24697   2.24904   2.25590   2.26869
 Alpha virt. eigenvalues --    2.27912   2.28762   2.29161   2.31002   2.31347
 Alpha virt. eigenvalues --    2.31443   2.31971   2.32616   2.32666   2.34344
 Alpha virt. eigenvalues --    2.35833   2.36049   2.37139   2.38804   2.38872
 Alpha virt. eigenvalues --    2.40026   2.40845   2.43720   2.44545   2.45260
 Alpha virt. eigenvalues --    2.46874   2.46895   2.47944   2.48033   2.48418
 Alpha virt. eigenvalues --    2.49569   2.49981   2.51045   2.52520   2.53256
 Alpha virt. eigenvalues --    2.54300   2.54987   2.56946   2.57448   2.57728
 Alpha virt. eigenvalues --    2.59057   2.59313   2.60843   2.61374   2.62516
 Alpha virt. eigenvalues --    2.63154   2.63258   2.63937   2.67762   2.68662
 Alpha virt. eigenvalues --    2.69675   2.71201   2.71404   2.71879   2.73083
 Alpha virt. eigenvalues --    2.73710   2.74983   2.75843   2.76718   2.77679
 Alpha virt. eigenvalues --    2.77792   2.78388   2.79642   2.80485   2.80976
 Alpha virt. eigenvalues --    2.82608   2.84552   2.85416   2.87157   2.88407
 Alpha virt. eigenvalues --    2.88947   2.89653   2.89734   2.89870   2.94274
 Alpha virt. eigenvalues --    2.94798   2.95237   2.96041   2.96647   2.97038
 Alpha virt. eigenvalues --    2.97975   2.99538   2.99704   2.99944   3.00083
 Alpha virt. eigenvalues --    3.01728   3.02070   3.02724   3.05210   3.05515
 Alpha virt. eigenvalues --    3.05806   3.06815   3.07137   3.09516   3.10003
 Alpha virt. eigenvalues --    3.10423   3.11572   3.13900   3.14299   3.14746
 Alpha virt. eigenvalues --    3.15147   3.16313   3.17187   3.17767   3.18297
 Alpha virt. eigenvalues --    3.18575   3.19736   3.20032   3.20636   3.21702
 Alpha virt. eigenvalues --    3.23102   3.23602   3.25370   3.25491   3.26221
 Alpha virt. eigenvalues --    3.27267   3.27967   3.29494   3.29547   3.30786
 Alpha virt. eigenvalues --    3.31059   3.31767   3.32674   3.33673   3.33777
 Alpha virt. eigenvalues --    3.34718   3.35226   3.36176   3.36184   3.36663
 Alpha virt. eigenvalues --    3.37197   3.37542   3.39491   3.41373   3.41719
 Alpha virt. eigenvalues --    3.42012   3.42171   3.43575   3.43895   3.45286
 Alpha virt. eigenvalues --    3.45832   3.45895   3.47563   3.47647   3.48361
 Alpha virt. eigenvalues --    3.48997   3.49751   3.50921   3.51587   3.52788
 Alpha virt. eigenvalues --    3.53259   3.53869   3.54864   3.55821   3.56330
 Alpha virt. eigenvalues --    3.58158   3.58315   3.59371   3.59626   3.60501
 Alpha virt. eigenvalues --    3.60554   3.60889   3.61707   3.61800   3.62237
 Alpha virt. eigenvalues --    3.62612   3.63685   3.64120   3.64361   3.65405
 Alpha virt. eigenvalues --    3.65841   3.67668   3.68686   3.70151   3.70613
 Alpha virt. eigenvalues --    3.70664   3.70703   3.70888   3.72702   3.73155
 Alpha virt. eigenvalues --    3.74206   3.74605   3.74803   3.75459   3.76571
 Alpha virt. eigenvalues --    3.77836   3.78104   3.78799   3.78893   3.79644
 Alpha virt. eigenvalues --    3.80018   3.81165   3.81811   3.81990   3.82723
 Alpha virt. eigenvalues --    3.82893   3.83940   3.84574   3.85288   3.85597
 Alpha virt. eigenvalues --    3.85753   3.87596   3.87932   3.88612   3.89567
 Alpha virt. eigenvalues --    3.90793   3.91558   3.92011   3.92570   3.94076
 Alpha virt. eigenvalues --    3.94612   3.95674   3.96566   3.97033   3.98941
 Alpha virt. eigenvalues --    3.99406   4.00193   4.00222   4.00505   4.03200
 Alpha virt. eigenvalues --    4.04664   4.04700   4.05508   4.06038   4.07001
 Alpha virt. eigenvalues --    4.07310   4.07458   4.08289   4.08500   4.09968
 Alpha virt. eigenvalues --    4.10588   4.10803   4.11554   4.12184   4.13521
 Alpha virt. eigenvalues --    4.14004   4.14698   4.14718   4.16105   4.16867
 Alpha virt. eigenvalues --    4.16921   4.17755   4.18792   4.20970   4.22466
 Alpha virt. eigenvalues --    4.23598   4.23666   4.24397   4.24448   4.25787
 Alpha virt. eigenvalues --    4.27151   4.27601   4.28033   4.28522   4.29579
 Alpha virt. eigenvalues --    4.30401   4.31331   4.31983   4.33038   4.33624
 Alpha virt. eigenvalues --    4.34667   4.34777   4.36330   4.38249   4.38725
 Alpha virt. eigenvalues --    4.39141   4.40708   4.40992   4.42986   4.43444
 Alpha virt. eigenvalues --    4.44049   4.45959   4.46559   4.48603   4.48946
 Alpha virt. eigenvalues --    4.49866   4.50788   4.51721   4.51768   4.52279
 Alpha virt. eigenvalues --    4.53219   4.55412   4.56015   4.57217   4.57921
 Alpha virt. eigenvalues --    4.58563   4.59972   4.61557   4.62639   4.63341
 Alpha virt. eigenvalues --    4.64816   4.65679   4.66111   4.66152   4.67072
 Alpha virt. eigenvalues --    4.68147   4.70657   4.70754   4.72428   4.72732
 Alpha virt. eigenvalues --    4.74855   4.75101   4.76322   4.77447   4.78086
 Alpha virt. eigenvalues --    4.78735   4.80874   4.81671   4.82123   4.83378
 Alpha virt. eigenvalues --    4.83913   4.85991   4.86481   4.86793   4.88756
 Alpha virt. eigenvalues --    4.89564   4.91338   4.92138   4.92888   4.92999
 Alpha virt. eigenvalues --    4.94573   4.96305   4.96917   4.97310   4.99541
 Alpha virt. eigenvalues --    4.99713   5.00027   5.01035   5.01216   5.02874
 Alpha virt. eigenvalues --    5.05904   5.06403   5.09018   5.09149   5.09742
 Alpha virt. eigenvalues --    5.10983   5.11157   5.11932   5.12660   5.14517
 Alpha virt. eigenvalues --    5.16967   5.17052   5.18134   5.18943   5.19128
 Alpha virt. eigenvalues --    5.20544   5.23035   5.23209   5.24826   5.24976
 Alpha virt. eigenvalues --    5.27756   5.29185   5.33196   5.34898   5.37182
 Alpha virt. eigenvalues --    5.37747   5.39090   5.39271   5.44634   5.45049
 Alpha virt. eigenvalues --    5.45216   5.45340   5.45959   5.49845   5.51143
 Alpha virt. eigenvalues --    5.53964   5.54446   5.55449   5.56463   5.57766
 Alpha virt. eigenvalues --    5.59319   5.60068   5.62019   5.63940   5.64640
 Alpha virt. eigenvalues --    5.67939   5.69660   5.71374   5.73206   5.73821
 Alpha virt. eigenvalues --    5.75642   5.78824   5.80722   5.81855   5.83374
 Alpha virt. eigenvalues --    5.84925   5.87514   5.87837   5.90840   5.92050
 Alpha virt. eigenvalues --    5.95178   5.98166   5.98847   6.00844   6.01862
 Alpha virt. eigenvalues --    6.02931   6.06526   6.09616   6.10116   6.11189
 Alpha virt. eigenvalues --    6.15683   6.19062   6.23120   6.24712   6.28799
 Alpha virt. eigenvalues --    6.31822   6.33637   6.36252   6.46160   6.50092
 Alpha virt. eigenvalues --    6.51824   6.56985   6.57302   6.60696   6.64696
 Alpha virt. eigenvalues --    6.67039   6.68336   6.72993   6.74206   6.74476
 Alpha virt. eigenvalues --    6.77636   6.79263   6.83381   6.83460   6.87438
 Alpha virt. eigenvalues --    6.97726   6.98211   6.99379   7.00140   7.07435
 Alpha virt. eigenvalues --    7.10674   7.13195   7.15011   7.19382   7.20522
 Alpha virt. eigenvalues --    7.26694   7.28332   7.35310   7.41213   7.46032
 Alpha virt. eigenvalues --    7.47349   7.51223   7.62657   7.70325   7.72100
 Alpha virt. eigenvalues --    7.81312   7.90273   8.05788   8.20333   8.42638
 Alpha virt. eigenvalues --    8.43654   8.72539   8.75180   8.77164   8.80677
 Alpha virt. eigenvalues --    8.81843   8.86794   8.96414   8.97227   9.08716
 Alpha virt. eigenvalues --    9.11566   9.12670   9.13255   9.14133   9.16995
 Alpha virt. eigenvalues --    9.18978   9.20478   9.22467   9.24190   9.27893
 Alpha virt. eigenvalues --    9.29026   9.29367   9.31881   9.34725   9.37712
 Alpha virt. eigenvalues --    9.37957   9.39208   9.46760   9.48133   9.50205
 Alpha virt. eigenvalues --    9.51931   9.58943   9.70837   9.72169   9.78340
 Alpha virt. eigenvalues --    9.92693   9.99517  15.24085  15.73976  15.87322
 Alpha virt. eigenvalues --   16.06952  16.20991  16.29333  16.78549  17.33950
 Alpha virt. eigenvalues --   17.55837  18.01606  18.22631  18.63894  19.50666
 Alpha virt. eigenvalues --   19.98898  20.31143  20.78776  21.26752
          Condensed to atoms (all electrons):
               1          2          3          4          5          6
     1  C    8.938344  -0.015901  -1.284582   0.223064  -0.102840  -0.013375
     2  N   -0.015901   8.222023   0.140139  -0.122517  -0.431237  -0.088336
     3  C   -1.284582   0.140139   6.069956   0.229030   0.359407  -0.094670
     4  O    0.223064  -0.122517   0.229030   8.839437  -0.094993   0.006194
     5  O   -0.102840  -0.431237   0.359407  -0.094993   8.659382   0.213769
     6  C   -0.013375  -0.088336  -0.094670   0.006194   0.213769   5.501041
     7  C   -0.009824  -0.008088   0.036385  -0.016907  -0.100188   0.068943
     8  C    0.000994  -0.001011   0.003221  -0.005475   0.002958  -0.035349
     9  C   -0.439729  -0.434033  -0.034841   0.014335  -0.057582  -0.016929
    10  C   -0.704683   0.233685   0.097001  -0.009604   0.017099  -0.004945
    11  C    0.051056   0.021155  -0.014894   0.005353  -0.002485   0.004533
    12  C    0.205826  -0.055240  -0.193486   0.046757  -0.028121  -0.011511
    13  C   -1.175174  -0.441462   0.281843  -0.217673   0.048673  -0.005040
    14  H    0.016842   0.359323  -0.164462   0.026856   0.072611  -0.000200
    15  H   -0.016491  -0.004709   0.007029  -0.009619  -0.039475   0.304881
    16  H   -0.016485  -0.004690   0.006949  -0.009527  -0.039494   0.304904
    17  H   -0.001141  -0.011888   0.002663   0.005158  -0.034719   0.047365
    18  H   -0.001139  -0.011868   0.002629   0.005166  -0.034747   0.047345
    19  H    0.000459  -0.000456   0.002402  -0.000059   0.000086  -0.002876
    20  H    0.000029  -0.000540   0.001972  -0.000403   0.000004  -0.008577
    21  H    0.000459  -0.000455   0.002401  -0.000058   0.000086  -0.002878
    22  H   -0.037514  -0.133280  -0.104584   0.005554  -0.029988  -0.003512
    23  Cl   0.091977  -0.061274  -0.010862   0.000198  -0.001540   0.000108
    24  C    0.050044  -0.000275  -0.002999   0.000666  -0.000909   0.000197
    25  H    0.146577  -0.077850  -0.063631   0.006778  -0.004667  -0.000209
    26  H   -0.590344   0.054017   0.187749  -0.125529   0.021796  -0.006281
    27  F   -0.014998   0.001045  -0.000058   0.000038  -0.000015  -0.000006
    28  F    0.000960   0.003127   0.000642  -0.000001   0.000020  -0.000004
    29  F    0.000958   0.003120   0.000641  -0.000001   0.000020  -0.000005
               7          8          9         10         11         12
     1  C   -0.009824   0.000994  -0.439729  -0.704683   0.051056   0.205826
     2  N   -0.008088  -0.001011  -0.434033   0.233685   0.021155  -0.055240
     3  C    0.036385   0.003221  -0.034841   0.097001  -0.014894  -0.193486
     4  O   -0.016907  -0.005475   0.014335  -0.009604   0.005353   0.046757
     5  O   -0.100188   0.002958  -0.057582   0.017099  -0.002485  -0.028121
     6  C    0.068943  -0.035349  -0.016929  -0.004945   0.004533  -0.011511
     7  C    5.500416   0.116280   0.003199   0.000324  -0.000465   0.001434
     8  C    0.116280   5.790078  -0.000187  -0.000043   0.000040  -0.000011
     9  C    0.003199  -0.000187   8.669506  -0.468790  -0.032235  -0.173959
    10  C    0.000324  -0.000043  -0.468790   7.069954  -0.458728   0.169171
    11  C   -0.000465   0.000040  -0.032235  -0.458728   8.271856  -1.686189
    12  C    0.001434  -0.000011  -0.173959   0.169171  -1.686189   9.924843
    13  C   -0.002542  -0.000601  -0.158188   0.132501   0.077427  -0.924918
    14  H    0.001216   0.000221  -0.017574  -0.027389   0.011930  -0.009419
    15  H    0.014022  -0.003969   0.000831   0.000346  -0.000151  -0.000706
    16  H    0.014048  -0.003963   0.000836   0.000345  -0.000151  -0.000707
    17  H    0.402342  -0.040068   0.000085  -0.000046   0.000047  -0.000026
    18  H    0.402339  -0.040058   0.000085  -0.000046   0.000047  -0.000026
    19  H    0.036523   0.364479  -0.000028  -0.000003  -0.000001   0.000028
    20  H   -0.028072   0.449944  -0.000028   0.000001   0.000001  -0.000001
    21  H    0.036522   0.364485  -0.000028  -0.000003  -0.000001   0.000028
    22  H    0.000135   0.000023   0.262191  -0.331859   0.031461   0.087857
    23  Cl  -0.000001   0.000001  -0.093209  -0.222256  -0.012643   0.081654
    24  C   -0.000009   0.000002   0.014241  -0.209170  -0.263971  -0.506423
    25  H   -0.000058   0.000001   0.124153  -0.118901  -0.487697   0.589472
    26  H   -0.000138  -0.000090  -0.118428   0.054790   0.074443  -0.606122
    27  F   -0.000001   0.000000  -0.013019   0.021020  -0.015280  -0.034917
    28  F    0.000000  -0.000000  -0.023187  -0.013644   0.081512  -0.056394
    29  F    0.000000  -0.000000  -0.023169  -0.013660   0.081476  -0.056381
              13         14         15         16         17         18
     1  C   -1.175174   0.016842  -0.016491  -0.016485  -0.001141  -0.001139
     2  N   -0.441462   0.359323  -0.004709  -0.004690  -0.011888  -0.011868
     3  C    0.281843  -0.164462   0.007029   0.006949   0.002663   0.002629
     4  O   -0.217673   0.026856  -0.009619  -0.009527   0.005158   0.005166
     5  O    0.048673   0.072611  -0.039475  -0.039494  -0.034719  -0.034747
     6  C   -0.005040  -0.000200   0.304881   0.304904   0.047365   0.047345
     7  C   -0.002542   0.001216   0.014022   0.014048   0.402342   0.402339
     8  C   -0.000601   0.000221  -0.003969  -0.003963  -0.040068  -0.040058
     9  C   -0.158188  -0.017574   0.000831   0.000836   0.000085   0.000085
    10  C    0.132501  -0.027389   0.000346   0.000345  -0.000046  -0.000046
    11  C    0.077427   0.011930  -0.000151  -0.000151   0.000047   0.000047
    12  C   -0.924918  -0.009419  -0.000706  -0.000707  -0.000026  -0.000026
    13  C    8.771556  -0.012151   0.005673   0.005670  -0.000046  -0.000046
    14  H   -0.012151   0.806122  -0.003210  -0.003215  -0.001246  -0.001247
    15  H    0.005673  -0.003210   0.411221   0.011907   0.019017  -0.017100
    16  H    0.005670  -0.003215   0.011907   0.411213  -0.017066   0.019045
    17  H   -0.000046  -0.001246   0.019017  -0.017066   0.407008   0.011090
    18  H   -0.000046  -0.001247  -0.017100   0.019045   0.011090   0.407090
    19  H   -0.000117   0.000165  -0.007255  -0.008961   0.001017   0.000291
    20  H   -0.000018   0.000015   0.000155   0.000149  -0.002387  -0.002400
    21  H   -0.000117   0.000164  -0.008968  -0.007250   0.000287   0.001020
    22  H   -0.106793  -0.031616  -0.000089  -0.000088   0.000071   0.000071
    23  Cl  -0.022161   0.000416  -0.000002  -0.000002   0.000005   0.000005
    24  C    0.051736   0.000735  -0.000002  -0.000002   0.000002   0.000002
    25  H   -0.446186   0.003692  -0.000155  -0.000155   0.000010   0.000010
    26  H    0.494757  -0.011491   0.000749   0.000747  -0.000130  -0.000130
    27  F    0.023104   0.000092  -0.000002  -0.000002  -0.000000  -0.000000
    28  F    0.006585  -0.000228   0.000001  -0.000000   0.000000  -0.000001
    29  F    0.006577  -0.000228  -0.000000   0.000001  -0.000001   0.000000
              19         20         21         22         23         24
     1  C    0.000459   0.000029   0.000459  -0.037514   0.091977   0.050044
     2  N   -0.000456  -0.000540  -0.000455  -0.133280  -0.061274  -0.000275
     3  C    0.002402   0.001972   0.002401  -0.104584  -0.010862  -0.002999
     4  O   -0.000059  -0.000403  -0.000058   0.005554   0.000198   0.000666
     5  O    0.000086   0.000004   0.000086  -0.029988  -0.001540  -0.000909
     6  C   -0.002876  -0.008577  -0.002878  -0.003512   0.000108   0.000197
     7  C    0.036523  -0.028072   0.036522   0.000135  -0.000001  -0.000009
     8  C    0.364479   0.449944   0.364485   0.000023   0.000001   0.000002
     9  C   -0.000028  -0.000028  -0.000028   0.262191  -0.093209   0.014241
    10  C   -0.000003   0.000001  -0.000003  -0.331859  -0.222256  -0.209170
    11  C   -0.000001   0.000001  -0.000001   0.031461  -0.012643  -0.263971
    12  C    0.000028  -0.000001   0.000028   0.087857   0.081654  -0.506423
    13  C   -0.000117  -0.000018  -0.000117  -0.106793  -0.022161   0.051736
    14  H    0.000165   0.000015   0.000164  -0.031616   0.000416   0.000735
    15  H   -0.007255   0.000155  -0.008968  -0.000089  -0.000002  -0.000002
    16  H   -0.008961   0.000149  -0.007250  -0.000088  -0.000002  -0.000002
    17  H    0.001017  -0.002387   0.000287   0.000071   0.000005   0.000002
    18  H    0.000291  -0.002400   0.001020   0.000071   0.000005   0.000002
    19  H    0.314391   0.000443   0.020806  -0.000000   0.000000   0.000000
    20  H    0.000443   0.302968   0.000448  -0.000004  -0.000000   0.000000
    21  H    0.020806   0.000448   0.314382  -0.000000   0.000000   0.000000
    22  H   -0.000000  -0.000004  -0.000000   1.001938   0.013652   0.011567
    23  Cl   0.000000  -0.000000   0.000000   0.013652  17.743139  -0.032419
    24  C    0.000000   0.000000   0.000000   0.011567  -0.032419   5.219654
    25  H    0.000001  -0.000001   0.000001   0.010211   0.001956  -0.048901
    26  H    0.000020   0.000017   0.000020  -0.033624  -0.006978  -0.024485
    27  F    0.000000  -0.000000   0.000000  -0.000269   0.009641   0.186468
    28  F   -0.000000   0.000000   0.000000  -0.001541  -0.010590   0.185739
    29  F    0.000000   0.000000  -0.000000  -0.001541  -0.010592   0.185768
              25         26         27         28         29
     1  C    0.146577  -0.590344  -0.014998   0.000960   0.000958
     2  N   -0.077850   0.054017   0.001045   0.003127   0.003120
     3  C   -0.063631   0.187749  -0.000058   0.000642   0.000641
     4  O    0.006778  -0.125529   0.000038  -0.000001  -0.000001
     5  O   -0.004667   0.021796  -0.000015   0.000020   0.000020
     6  C   -0.000209  -0.006281  -0.000006  -0.000004  -0.000005
     7  C   -0.000058  -0.000138  -0.000001   0.000000   0.000000
     8  C    0.000001  -0.000090   0.000000  -0.000000  -0.000000
     9  C    0.124153  -0.118428  -0.013019  -0.023187  -0.023169
    10  C   -0.118901   0.054790   0.021020  -0.013644  -0.013660
    11  C   -0.487697   0.074443  -0.015280   0.081512   0.081476
    12  C    0.589472  -0.606122  -0.034917  -0.056394  -0.056381
    13  C   -0.446186   0.494757   0.023104   0.006585   0.006577
    14  H    0.003692  -0.011491   0.000092  -0.000228  -0.000228
    15  H   -0.000155   0.000749  -0.000002   0.000001  -0.000000
    16  H   -0.000155   0.000747  -0.000002  -0.000000   0.000001
    17  H    0.000010  -0.000130  -0.000000   0.000000  -0.000001
    18  H    0.000010  -0.000130  -0.000000  -0.000001   0.000000
    19  H    0.000001   0.000020   0.000000  -0.000000   0.000000
    20  H   -0.000001   0.000017  -0.000000   0.000000   0.000000
    21  H    0.000001   0.000020   0.000000   0.000000  -0.000000
    22  H    0.010211  -0.033624  -0.000269  -0.001541  -0.001541
    23  Cl   0.001956  -0.006978   0.009641  -0.010590  -0.010592
    24  C   -0.048901  -0.024485   0.186468   0.185739   0.185768
    25  H    1.317137  -0.261687   0.011099  -0.002013  -0.002008
    26  H   -0.261687   1.247942  -0.002811   0.000845   0.000843
    27  F    0.011099  -0.002811   9.326537  -0.066559  -0.066559
    28  F   -0.002013   0.000845  -0.066559   9.320219  -0.020381
    29  F   -0.002008   0.000843  -0.066559  -0.020381   9.320223
 Mulliken charges:
               1
     1  C    0.696632
     2  N   -0.132527
     3  C    0.537010
     4  O   -0.802219
     5  O   -0.392909
     6  C   -0.204576
     7  C   -0.467836
     8  C   -0.961902
     9  C   -0.984319
    10  C    0.787533
    11  C    0.262554
    12  C   -0.762510
    13  C   -0.392868
    14  H   -0.016725
    15  H    0.336074
    16  H    0.335944
    17  H    0.212599
    18  H    0.212572
    19  H    0.278647
    20  H    0.286286
    21  H    0.278649
    22  H    0.391570
    23  Cl  -0.458222
    24  C    1.182742
    25  H    0.303024
    26  H    0.649533
    27  F   -0.364547
    28  F   -0.405107
    29  F   -0.405101
 Sum of Mulliken charges =  -0.00000
 Mulliken charges with hydrogens summed into heavy atoms:
               1
     1  C    0.696632
     2  N   -0.149253
     3  C    0.537010
     4  O   -0.802219
     5  O   -0.392909
     6  C    0.467442
     7  C   -0.042665
     8  C   -0.118321
     9  C   -0.592749
    10  C    0.787533
    11  C    0.262554
    12  C   -0.459486
    13  C    0.256665
    23  Cl  -0.458222
    24  C    1.182742
    27  F   -0.364547
    28  F   -0.405107
    29  F   -0.405101
 Electronic spatial extent (au):  <R**2>=           8792.3444
 Charge=             -0.0000 electrons
 Dipole moment (field-independent basis, Debye):
    X=             -5.6095    Y=              1.7463    Z=             -0.0002  Tot=              5.8750
 Quadrupole moment (field-independent basis, Debye-Ang):
   XX=           -108.9741   YY=           -109.6048   ZZ=           -112.2885
   XY=             -5.2487   XZ=             -0.0015   YZ=             -0.0006
 Traceless Quadrupole moment (field-independent basis, Debye-Ang):
   XX=              1.3150   YY=              0.6843   ZZ=             -1.9994
   XY=             -5.2487   XZ=             -0.0015   YZ=             -0.0006
 Octapole moment (field-independent basis, Debye-Ang**2):
  XXX=           -134.5131  YYY=             -0.9102  ZZZ=              0.0026  XYY=             26.7011
  XXY=             11.7184  XXZ=              0.0041  XZZ=              9.8452  YZZ=             -4.4636
  YYZ=             -0.0005  XYZ=              0.0013
 Hexadecapole moment (field-independent basis, Debye-Ang**3):
 XXXX=          -9257.0706 YYYY=          -1009.0897 ZZZZ=           -199.6571 XXXY=            -22.4217
 XXXZ=             -0.0081 YYYX=            -62.3293 YYYZ=             -0.0056 ZZZX=              0.0230
 ZZZY=             -0.0026 XXYY=          -1825.3163 XXZZ=          -1657.5778 YYZZ=           -210.0024
 XXYZ=              0.0085 YYXZ=              0.0061 ZZXY=             -9.6671
 N-N= 1.431503565382D+03 E-N=-6.139133436538D+03  KE= 1.384123353143D+03
 Unable to Open any file for archive entry.
 1\1\GINC-GADI-HMEM-CLX-0050\SP\RDSDPBEP86-FC\Aug-CC-pVTZ\C11H11Cl1F3N1
 O2\HIO507\22-Sep-2020\0\\# DSDPBEP86/AUG-cc-PVTZ SCF=Tight INT(grid=ul
 trafine) MaxDisk=1400000MB\\CP19CA_c2.DSDPBEP86_AUG-cc-PVTZ\\0,1\C,0,-
 6.2412937515,1.4778218611,0.0318125601\N,0,-4.9682048194,0.9047580993,
 0.087855922\C,0,-3.7576631722,1.5436920287,-0.032193843\O,0,-3.5844591
 515,2.7208668564,-0.2084743709\O,0,-2.7761420705,0.6342357795,0.079626
 9158\C,0,-1.4406480429,1.152567408,-0.025308322\C,0,-0.4835112362,-0.0
 099556028,0.1245375878\C,0,0.9649862175,0.4604875937,0.024108862\C,0,-
 7.3306135739,0.6124982045,0.1825897734\C,0,-8.6233439207,1.1002694459,
 0.1394542285\C,0,-8.8669297093,2.4609022731,-0.0546461065\C,0,-7.77526
 8941,3.3090416346,-0.2029441508\C,0,-6.4693977812,2.8420197283,-0.1631
 630788\H,0,-4.913360282,-0.0926565903,0.2327463223\H,0,-1.292280554,1.
 9037091727,0.754322611\H,0,-1.3301125624,1.6473113833,-0.9933299433\H,
 0,-0.6985850315,-0.7503373463,-0.6507132677\H,0,-0.6609026345,-0.49516
 25604,1.0881469967\H,0,1.1631388792,0.9319383363,-0.9415130184\H,0,1.6
 563445042,-0.376062702,0.1319492902\H,0,1.200938901,1.1882284268,0.804
 2853671\H,0,-7.1738900918,-0.4494692592,0.3348127952\Cl,0,-9.926344575
 2,-0.0323572718,0.3340808615\C,0,-10.2646337929,3.0122280647,-0.104757
 6986\H,0,-7.9495783869,4.3667860877,-0.3541664202\H,0,-5.641080466,3.5
 228606594,-0.2811569609\F,0,-10.2595614937,4.3388366204,-0.2993042742\
 F,0,-10.9849955341,2.4764675991,-1.1000699104\F,0,-10.9381569263,2.789
 0140694,1.0324112721\\Version=ES64L-G16RevC.01\State=1-A\HF=-1387.6198
 471\MP2=-1389.3250706\RMSD=8.881e-09\PG=C01 [X(C11H11Cl1F3N1O2)]\\@
 The archive entry for this job was punched.


 WE THE UNWILLING
 LED BY THE UNQUALIFIED
 HAVE BEEN DOING THE UNBELIEVABLE SO LONG WITH SO LITTLE
 THAT WE NOW ATTEMPT THE IMPOSSIBLE WITH NOTHING.

                                    -- ANONYMOUS
 Job cpu time:       1 days 14 hours  7 minutes 43.4 seconds.
 Elapsed time:       0 days  6 hours 21 minutes 24.5 seconds.
 File lengths (MBytes):  RWF=    609 Int=      0 D2E=      0 Chk=     77 Scr=      1
 Normal termination of Gaussian 16 at Tue Sep 22 16:11:06 2020.
