 Entering Gaussian System, Link 0=/apps/gaussian/g09e01/g09/g09
 Initial command:
 /apps/gaussian/g09e01/g09/l1.exe "/jobfs/local/3588452.r-man2/Gau-33814.inp" -scrdir="/jobfs/local/3588452.r-man2/"
 Entering Link 1 = /apps/gaussian/g09e01/g09/l1.exe PID=     33815.
  
 Copyright (c) 1988,1990,1992,1993,1995,1998,2003,2009,2015,
            Gaussian, Inc.  All Rights Reserved.
  
 This is part of the Gaussian(R) 09 program.  It is based on
 the Gaussian(R) 03 system (copyright 2003, Gaussian, Inc.),
 the Gaussian(R) 98 system (copyright 1998, Gaussian, Inc.),
 the Gaussian(R) 94 system (copyright 1995, Gaussian, Inc.),
 the Gaussian 92(TM) system (copyright 1992, Gaussian, Inc.),
 the Gaussian 90(TM) system (copyright 1990, Gaussian, Inc.),
 the Gaussian 88(TM) system (copyright 1988, Gaussian, Inc.),
 the Gaussian 86(TM) system (copyright 1986, Carnegie Mellon
 University), and the Gaussian 82(TM) system (copyright 1983,
 Carnegie Mellon University). Gaussian is a federally registered
 trademark of Gaussian, Inc.
  
 This software contains proprietary and confidential information,
 including trade secrets, belonging to Gaussian, Inc.
  
 This software is provided under written license and may be
 used, copied, transmitted, or stored only in accord with that
 written license.
  
 The following legend is applicable only to US Government
 contracts under FAR:
  
                    RESTRICTED RIGHTS LEGEND
  
 Use, reproduction and disclosure by the US Government is
 subject to restrictions as set forth in subparagraphs (a)
 and (c) of the Commercial Computer Software - Restricted
 Rights clause in FAR 52.227-19.
  
 Gaussian, Inc.
 340 Quinnipiac St., Bldg. 40, Wallingford CT 06492
  
  
 ---------------------------------------------------------------
 Warning -- This program may not be used in any manner that
 competes with the business of Gaussian, Inc. or will provide
 assistance to any competitor of Gaussian, Inc.  The licensee
 of this program is prohibited from giving any competitor of
 Gaussian, Inc. access to this program.  By using this program,
 the user acknowledges that Gaussian, Inc. is engaged in the
 business of creating and licensing software in the field of
 computational chemistry and represents and warrants to the
 licensee that it is not a competitor of Gaussian, Inc. and that
 it will not use this program in any manner prohibited above.
 ---------------------------------------------------------------
  

 Cite this work as:
 Gaussian 09, Revision E.01,
 M. J. Frisch, G. W. Trucks, H. B. Schlegel, G. E. Scuseria, 
 M. A. Robb, J. R. Cheeseman, G. Scalmani, V. Barone, B. Mennucci, 
 G. A. Petersson, H. Nakatsuji, M. Caricato, X. Li, H. P. Hratchian, 
 A. F. Izmaylov, J. Bloino, G. Zheng, J. L. Sonnenberg, M. Hada, 
 M. Ehara, K. Toyota, R. Fukuda, J. Hasegawa, M. Ishida, T. Nakajima, 
 Y. Honda, O. Kitao, H. Nakai, T. Vreven, J. A. Montgomery, Jr., 
 J. E. Peralta, F. Ogliaro, M. Bearpark, J. J. Heyd, E. Brothers, 
 K. N. Kudin, V. N. Staroverov, T. Keith, R. Kobayashi, J. Normand, 
 K. Raghavachari, A. Rendell, J. C. Burant, S. S. Iyengar, J. Tomasi, 
 M. Cossi, N. Rega, J. M. Millam, M. Klene, J. E. Knox, J. B. Cross, 
 V. Bakken, C. Adamo, J. Jaramillo, R. Gomperts, R. E. Stratmann, 
 O. Yazyev, A. J. Austin, R. Cammi, C. Pomelli, J. W. Ochterski, 
 R. L. Martin, K. Morokuma, V. G. Zakrzewski, G. A. Voth, 
 P. Salvador, J. J. Dannenberg, S. Dapprich, A. D. Daniels, 
 O. Farkas, J. B. Foresman, J. V. Ortiz, J. Cioslowski, 
 and D. J. Fox, Gaussian, Inc., Wallingford CT, 2013.
 
 ******************************************
 Gaussian 09:  ES64L-G09RevE.01 30-Nov-2015
                14-Nov-2019 
 ******************************************
 %chk=CP19CA_c2.M062X_6-311pGd_opt_GD3.chk
 %mem=196608000
 %nproc=4
 Will use up to    4 processors via shared memory.
 ----------------------------------------------------------------------
 # M062X/6-311+G* SCF=Tight INT(grid=ultrafine) OPT IOP(2/17=4) Empiric
 alDispersion=GD3 maxdisk=2147483648
 ----------------------------------------------------------------------
 1/14=-1,18=20,19=15,26=4,38=1/1,3;
 2/9=110,12=2,17=4,18=5,40=1/2;
 3/5=4,6=6,7=11,11=2,16=1,25=1,30=1,71=1,74=-55,75=-5,124=31/1,2,3;
 4//1;
 5/5=2,32=2,38=5/2;
 6/7=2,8=2,9=2,10=2,28=1/1;
 7//1,2,3,16;
 1/14=-1,18=20,19=15,26=4/3(2);
 2/9=110,17=4/2;
 99//99;
 2/9=110,17=4/2;
 3/5=4,6=6,7=11,11=2,16=1,25=1,30=1,71=1,74=-55,75=-5,124=31/1,2,3;
 4/5=5,16=3,69=1/1;
 5/5=2,32=2,38=5/2;
 7//1,2,3,16;
 1/14=-1,18=20,19=15,26=4/3(-5);
 2/9=110,17=4/2;
 6/7=2,8=2,9=2,10=2,19=2,28=1/1;
 99/9=1/99;
 --------------------------------
 CP19CA_c2.M062X_6-311pGd_opt_GD3
 --------------------------------
 Symbolic Z-matrix:
 Charge =  0 Multiplicity = 1
 C                    -6.24129   1.47782   0.03181 
 N                    -4.9682    0.90476   0.08786 
 C                    -3.75766   1.54369  -0.03219 
 O                    -3.58446   2.72087  -0.20847 
 O                    -2.77614   0.63424   0.07963 
 C                    -1.44065   1.15257  -0.02531 
 C                    -0.48351  -0.00996   0.12454 
 C                     0.96499   0.46049   0.02411 
 C                    -7.33061   0.6125    0.18259 
 C                    -8.62334   1.10027   0.13945 
 C                    -8.86693   2.4609   -0.05465 
 C                    -7.77527   3.30904  -0.20294 
 C                    -6.4694    2.84202  -0.16316 
 H                    -4.91336  -0.09266   0.23275 
 H                    -1.29228   1.90371   0.75432 
 H                    -1.33011   1.64731  -0.99333 
 H                    -0.69859  -0.75034  -0.65071 
 H                    -0.6609   -0.49516   1.08815 
 H                     1.16314   0.93194  -0.94151 
 H                     1.65634  -0.37606   0.13195 
 H                     1.20094   1.18823   0.80429 
 H                    -7.17389  -0.44947   0.33481 
 Cl                   -9.92634  -0.03236   0.33408 
 C                    -10.26463   3.01223  -0.10476 
 H                    -7.94958   4.36679  -0.35417 
 H                    -5.64108   3.52286  -0.28116 
 F                    -10.25956   4.33884  -0.2993 
 F                    -10.985    2.47647  -1.10007 
 F                    -10.93816   2.78901   1.03241 
 

 GradGradGradGradGradGradGradGradGradGradGradGradGradGradGradGradGradGrad
 Berny optimization.
 Initialization pass.
                           ----------------------------
                           !    Initial Parameters    !
                           ! (Angstroms and Degrees)  !
 --------------------------                            --------------------------
 ! Name  Definition              Value          Derivative Info.                !
 --------------------------------------------------------------------------------
 ! R1    R(1,2)                  1.3972         estimate D2E/DX2                !
 ! R2    R(1,9)                  1.3993         estimate D2E/DX2                !
 ! R3    R(1,13)                 1.3968         estimate D2E/DX2                !
 ! R4    R(2,3)                  1.3741         estimate D2E/DX2                !
 ! R5    R(2,14)                 1.0094         estimate D2E/DX2                !
 ! R6    R(3,4)                  1.2028         estimate D2E/DX2                !
 ! R7    R(3,5)                  1.3428         estimate D2E/DX2                !
 ! R8    R(5,6)                  1.4364         estimate D2E/DX2                !
 ! R9    R(6,7)                  1.5133         estimate D2E/DX2                !
 ! R10   R(6,15)                 1.0927         estimate D2E/DX2                !
 ! R11   R(6,16)                 1.0927         estimate D2E/DX2                !
 ! R12   R(7,8)                  1.5263         estimate D2E/DX2                !
 ! R13   R(7,17)                 1.0934         estimate D2E/DX2                !
 ! R14   R(7,18)                 1.0934         estimate D2E/DX2                !
 ! R15   R(8,19)                 1.0927         estimate D2E/DX2                !
 ! R16   R(8,20)                 1.0906         estimate D2E/DX2                !
 ! R17   R(8,21)                 1.0927         estimate D2E/DX2                !
 ! R18   R(9,10)                 1.3824         estimate D2E/DX2                !
 ! R19   R(9,22)                 1.0842         estimate D2E/DX2                !
 ! R20   R(10,11)                1.3958         estimate D2E/DX2                !
 ! R21   R(10,23)                1.7374         estimate D2E/DX2                !
 ! R22   R(11,12)                1.3903         estimate D2E/DX2                !
 ! R23   R(11,24)                1.5033         estimate D2E/DX2                !
 ! R24   R(12,13)                1.3874         estimate D2E/DX2                !
 ! R25   R(12,25)                1.0826         estimate D2E/DX2                !
 ! R26   R(13,26)                1.0787         estimate D2E/DX2                !
 ! R27   R(24,27)                1.3408         estimate D2E/DX2                !
 ! R28   R(24,28)                1.3404         estimate D2E/DX2                !
 ! R29   R(24,29)                1.3404         estimate D2E/DX2                !
 ! A1    A(2,1,9)              116.8296         estimate D2E/DX2                !
 ! A2    A(2,1,13)             123.7075         estimate D2E/DX2                !
 ! A3    A(9,1,13)             119.4629         estimate D2E/DX2                !
 ! A4    A(1,2,3)              127.4805         estimate D2E/DX2                !
 ! A5    A(1,2,14)             117.4221         estimate D2E/DX2                !
 ! A6    A(3,2,14)             115.0974         estimate D2E/DX2                !
 ! A7    A(2,3,4)              126.494          estimate D2E/DX2                !
 ! A8    A(2,3,5)              108.7696         estimate D2E/DX2                !
 ! A9    A(4,3,5)              124.7364         estimate D2E/DX2                !
 ! A10   A(3,5,6)              115.4126         estimate D2E/DX2                !
 ! A11   A(5,6,7)              107.6747         estimate D2E/DX2                !
 ! A12   A(5,6,15)             108.7942         estimate D2E/DX2                !
 ! A13   A(5,6,16)             108.7929         estimate D2E/DX2                !
 ! A14   A(7,6,15)             111.8109         estimate D2E/DX2                !
 ! A15   A(7,6,16)             111.8116         estimate D2E/DX2                !
 ! A16   A(15,6,16)            107.8837         estimate D2E/DX2                !
 ! A17   A(6,7,8)              110.9133         estimate D2E/DX2                !
 ! A18   A(6,7,17)             109.0005         estimate D2E/DX2                !
 ! A19   A(6,7,18)             108.9999         estimate D2E/DX2                !
 ! A20   A(8,7,17)             110.4108         estimate D2E/DX2                !
 ! A21   A(8,7,18)             110.4109         estimate D2E/DX2                !
 ! A22   A(17,7,18)            107.0069         estimate D2E/DX2                !
 ! A23   A(7,8,19)             111.2993         estimate D2E/DX2                !
 ! A24   A(7,8,20)             111.0192         estimate D2E/DX2                !
 ! A25   A(7,8,21)             111.2991         estimate D2E/DX2                !
 ! A26   A(19,8,20)            107.6606         estimate D2E/DX2                !
 ! A27   A(19,8,21)            107.7254         estimate D2E/DX2                !
 ! A28   A(20,8,21)            107.6605         estimate D2E/DX2                !
 ! A29   A(1,9,10)             120.4256         estimate D2E/DX2                !
 ! A30   A(1,9,22)             120.5505         estimate D2E/DX2                !
 ! A31   A(10,9,22)            119.0238         estimate D2E/DX2                !
 ! A32   A(9,10,11)            120.7631         estimate D2E/DX2                !
 ! A33   A(9,10,23)            117.8929         estimate D2E/DX2                !
 ! A34   A(11,10,23)           121.3439         estimate D2E/DX2                !
 ! A35   A(10,11,12)           118.1936         estimate D2E/DX2                !
 ! A36   A(10,11,24)           121.6257         estimate D2E/DX2                !
 ! A37   A(12,11,24)           120.1807         estimate D2E/DX2                !
 ! A38   A(11,12,13)           122.0471         estimate D2E/DX2                !
 ! A39   A(11,12,25)           118.9786         estimate D2E/DX2                !
 ! A40   A(13,12,25)           118.9743         estimate D2E/DX2                !
 ! A41   A(1,13,12)            119.1077         estimate D2E/DX2                !
 ! A42   A(1,13,26)            120.418          estimate D2E/DX2                !
 ! A43   A(12,13,26)           120.4743         estimate D2E/DX2                !
 ! A44   A(11,24,27)           111.3564         estimate D2E/DX2                !
 ! A45   A(11,24,28)           112.1995         estimate D2E/DX2                !
 ! A46   A(11,24,29)           112.199          estimate D2E/DX2                !
 ! A47   A(27,24,28)           106.844          estimate D2E/DX2                !
 ! A48   A(27,24,29)           106.844          estimate D2E/DX2                !
 ! A49   A(28,24,29)           107.0597         estimate D2E/DX2                !
 ! D1    D(9,1,2,3)           -179.9894         estimate D2E/DX2                !
 ! D2    D(9,1,2,14)             0.0075         estimate D2E/DX2                !
 ! D3    D(13,1,2,3)             0.0108         estimate D2E/DX2                !
 ! D4    D(13,1,2,14)         -179.9923         estimate D2E/DX2                !
 ! D5    D(2,1,9,10)          -179.9987         estimate D2E/DX2                !
 ! D6    D(2,1,9,22)            -0.0007         estimate D2E/DX2                !
 ! D7    D(13,1,9,10)            0.0011         estimate D2E/DX2                !
 ! D8    D(13,1,9,22)          179.9991         estimate D2E/DX2                !
 ! D9    D(2,1,13,12)          179.9999         estimate D2E/DX2                !
 ! D10   D(2,1,13,26)           -0.0006         estimate D2E/DX2                !
 ! D11   D(9,1,13,12)            0.0001         estimate D2E/DX2                !
 ! D12   D(9,1,13,26)          179.9996         estimate D2E/DX2                !
 ! D13   D(1,2,3,4)             -0.0074         estimate D2E/DX2                !
 ! D14   D(1,2,3,5)            179.9937         estimate D2E/DX2                !
 ! D15   D(14,2,3,4)           179.9956         estimate D2E/DX2                !
 ! D16   D(14,2,3,5)            -0.0033         estimate D2E/DX2                !
 ! D17   D(2,3,5,6)           -179.9925         estimate D2E/DX2                !
 ! D18   D(4,3,5,6)              0.0086         estimate D2E/DX2                !
 ! D19   D(3,5,6,7)            179.9827         estimate D2E/DX2                !
 ! D20   D(3,5,6,15)            58.6264         estimate D2E/DX2                !
 ! D21   D(3,5,6,16)           -58.661          estimate D2E/DX2                !
 ! D22   D(5,6,7,8)            179.997          estimate D2E/DX2                !
 ! D23   D(5,6,7,17)            58.2319         estimate D2E/DX2                !
 ! D24   D(5,6,7,18)           -58.2381         estimate D2E/DX2                !
 ! D25   D(15,6,7,8)           -60.5488         estimate D2E/DX2                !
 ! D26   D(15,6,7,17)          177.686          estimate D2E/DX2                !
 ! D27   D(15,6,7,18)           61.216          estimate D2E/DX2                !
 ! D28   D(16,6,7,8)            60.5441         estimate D2E/DX2                !
 ! D29   D(16,6,7,17)          -61.2211         estimate D2E/DX2                !
 ! D30   D(16,6,7,18)         -177.691          estimate D2E/DX2                !
 ! D31   D(6,7,8,19)           -60.094          estimate D2E/DX2                !
 ! D32   D(6,7,8,20)           179.9962         estimate D2E/DX2                !
 ! D33   D(6,7,8,21)            60.0867         estimate D2E/DX2                !
 ! D34   D(17,7,8,19)           60.8421         estimate D2E/DX2                !
 ! D35   D(17,7,8,20)          -59.0677         estimate D2E/DX2                !
 ! D36   D(17,7,8,21)         -178.9773         estimate D2E/DX2                !
 ! D37   D(18,7,8,19)          178.9707         estimate D2E/DX2                !
 ! D38   D(18,7,8,20)           59.0609         estimate D2E/DX2                !
 ! D39   D(18,7,8,21)          -60.8486         estimate D2E/DX2                !
 ! D40   D(1,9,10,11)           -0.0017         estimate D2E/DX2                !
 ! D41   D(1,9,10,23)          179.9989         estimate D2E/DX2                !
 ! D42   D(22,9,10,11)        -179.9998         estimate D2E/DX2                !
 ! D43   D(22,9,10,23)           0.0008         estimate D2E/DX2                !
 ! D44   D(9,10,11,12)           0.0011         estimate D2E/DX2                !
 ! D45   D(9,10,11,24)        -179.9984         estimate D2E/DX2                !
 ! D46   D(23,10,11,12)       -179.9995         estimate D2E/DX2                !
 ! D47   D(23,10,11,24)          0.001          estimate D2E/DX2                !
 ! D48   D(10,11,12,13)          0.0            estimate D2E/DX2                !
 ! D49   D(10,11,12,25)       -180.0            estimate D2E/DX2                !
 ! D50   D(24,11,12,13)        179.9995         estimate D2E/DX2                !
 ! D51   D(24,11,12,25)         -0.0005         estimate D2E/DX2                !
 ! D52   D(10,11,24,27)        179.9987         estimate D2E/DX2                !
 ! D53   D(10,11,24,28)        -60.2915         estimate D2E/DX2                !
 ! D54   D(10,11,24,29)         60.2891         estimate D2E/DX2                !
 ! D55   D(12,11,24,27)         -0.0008         estimate D2E/DX2                !
 ! D56   D(12,11,24,28)        119.709          estimate D2E/DX2                !
 ! D57   D(12,11,24,29)       -119.7104         estimate D2E/DX2                !
 ! D58   D(11,12,13,1)          -0.0006         estimate D2E/DX2                !
 ! D59   D(11,12,13,26)        179.9999         estimate D2E/DX2                !
 ! D60   D(25,12,13,1)         179.9994         estimate D2E/DX2                !
 ! D61   D(25,12,13,26)         -0.0001         estimate D2E/DX2                !
 --------------------------------------------------------------------------------
 Trust Radius=3.00D-01 FncErr=1.00D-07 GrdErr=1.00D-06
 Number of steps in this run=    149 maximum allowed number of steps=    174.
 GradGradGradGradGradGradGradGradGradGradGradGradGradGradGradGradGradGrad

                          Input orientation:                          
 ---------------------------------------------------------------------
 Center     Atomic      Atomic             Coordinates (Angstroms)
 Number     Number       Type             X           Y           Z
 ---------------------------------------------------------------------
      1          6           0       -6.241294    1.477822    0.031813
      2          7           0       -4.968205    0.904758    0.087856
      3          6           0       -3.757663    1.543692   -0.032194
      4          8           0       -3.584459    2.720867   -0.208474
      5          8           0       -2.776142    0.634236    0.079627
      6          6           0       -1.440648    1.152567   -0.025308
      7          6           0       -0.483511   -0.009956    0.124538
      8          6           0        0.964986    0.460488    0.024109
      9          6           0       -7.330614    0.612498    0.182590
     10          6           0       -8.623344    1.100269    0.139454
     11          6           0       -8.866930    2.460902   -0.054646
     12          6           0       -7.775269    3.309042   -0.202944
     13          6           0       -6.469398    2.842020   -0.163163
     14          1           0       -4.913360   -0.092657    0.232746
     15          1           0       -1.292281    1.903709    0.754323
     16          1           0       -1.330113    1.647311   -0.993330
     17          1           0       -0.698585   -0.750337   -0.650713
     18          1           0       -0.660903   -0.495163    1.088147
     19          1           0        1.163139    0.931938   -0.941513
     20          1           0        1.656345   -0.376063    0.131949
     21          1           0        1.200939    1.188228    0.804285
     22          1           0       -7.173890   -0.449469    0.334813
     23         17           0       -9.926345   -0.032357    0.334081
     24          6           0      -10.264634    3.012228   -0.104758
     25          1           0       -7.949578    4.366786   -0.354166
     26          1           0       -5.641080    3.522861   -0.281157
     27          9           0      -10.259561    4.338837   -0.299304
     28          9           0      -10.984996    2.476468   -1.100070
     29          9           0      -10.938157    2.789014    1.032411
 ---------------------------------------------------------------------
                    Distance matrix (angstroms):
                    1          2          3          4          5
     1  C    0.000000
     2  N    1.397247   0.000000
     3  C    2.485328   1.374067   0.000000
     4  O    2.943071   2.302350   1.202836   0.000000
     5  O    3.566679   2.208708   1.342758   2.256193   0.000000
     6  C    4.811990   3.538061   2.349805   2.662525   1.436392
     7  C    5.947616   4.577174   3.627459   4.145379   2.381839
     8  C    7.277740   5.950143   4.845608   5.085358   3.745572
     9  C    1.399334   2.382303   3.698544   4.316459   4.555687
    10  C    2.414186   3.660728   4.888858   5.304503   5.866049
    11  C    2.804975   4.200232   5.190991   5.291100   6.360223
    12  C    2.400324   3.707392   4.391671   4.231887   5.676769
    13  C    1.396812   2.463650   3.009371   2.887837   4.309686
    14  H    2.066442   1.009375   2.020759   3.142701   2.262636
    15  H    5.019575   3.867105   2.612725   2.617023   2.066064
    16  H    5.019895   3.867307   2.612953   2.617365   2.066049
    17  H    6.012666   4.638370   3.873383   4.535758   2.601285
    18  H    6.012427   4.638234   3.873244   4.535555   2.601325
    19  H    7.488055   6.217211   5.041369   5.126139   4.080354
    20  H    8.112928   6.747377   5.746641   6.096957   4.546469
    21  H    7.487817   6.217070   5.041209   5.125885   4.080344
    22  H    2.162405   2.599994   3.972152   4.819772   4.536488
    23  Cl   3.993946   5.051927   6.377360   6.934992   7.185714
    24  C    4.308169   5.703568   6.671022   6.687330   7.859157
    25  H    3.378362   4.590164   5.064156   4.667391   6.394103
    26  H    2.154156   2.728258   2.743420   2.208658   4.084384
    27  F    4.943837   6.319909   7.082292   6.868993   8.358781
    28  F    4.978068   6.331130   7.365104   7.458057   8.495339
    29  F    4.978046   6.331108   7.365032   7.457970   8.495255
                    6          7          8          9         10
     6  C    0.000000
     7  C    1.513283   0.000000
     8  C    2.503696   1.526286   0.000000
     9  C    5.918327   6.875582   8.298506   0.000000
    10  C    7.184776   8.215211   9.610343   1.382365   0.000000
    11  C    7.540707   8.741793  10.033665   2.415191   1.395826
    12  C    6.693979   8.018274   9.195536   2.760018   2.390636
    13  C    5.306748   6.636819   7.808766   2.414954   2.786531
    14  H    3.698230   4.431942   5.907999   2.518506   3.898173
    15  H    1.092727   2.170910   2.776932   6.201256   7.400545
    16  H    1.092728   2.170920   2.776907   6.201583   7.400924
    17  H    2.136079   1.093360   2.165399   6.821695   8.176241
    18  H    2.136071   1.093360   2.165400   6.821436   8.175934
    19  H    2.769082   2.176025   1.092683   8.573767   9.847440
    20  H    3.457283   2.170961   1.090606   9.041307  10.385163
    21  H    2.769021   2.176023   1.092683   8.573527   9.847145
    22  H    5.963747   6.708096   8.195478   1.084209   2.130909
    23  Cl   8.575561   9.445185  10.906882   2.678919   1.737393
    24  C    9.018169  10.239948  11.516612   3.801282   2.531612
    25  H    7.266741   8.667594   9.740212   3.842643   3.371610
    26  H    4.829843   6.264655   7.287759   3.397027   3.865198
    27  F    9.380865  10.708071  11.880095   4.764090   3.654864
    28  F    9.695483  10.861084  12.170868   4.298151   3.001290
    29  F    9.695329  10.860851  12.170601   4.298114   3.001265
                   11         12         13         14         15
    11  C    0.000000
    12  C    1.390344   0.000000
    13  C    2.430059   1.387441   0.000000
    14  H    4.715291   4.466755   3.345194   0.000000
    15  H    7.638076   6.702273   5.340857   4.167702   0.000000
    16  H    7.638499   6.702693   5.341232   4.167783   1.766766
    17  H    8.797114   8.170588   6.815058   4.356303   3.061138
    18  H    8.796771   8.170257   6.814776   4.356273   2.502931
    19  H   10.184623   9.278536   7.906317   6.273159   3.138357
    20  H   10.900573  10.131509   8.744760   6.576587   3.778769
    21  H   10.184274   9.278182   7.906013   6.273115   2.594331
    22  H    3.389443   3.844118   3.402674   2.290792   6.348761
    23  Cl   2.736752   4.010046   4.523248   5.014371   8.858443
    24  C    1.503346   2.508919   3.799500   6.195994   9.081297
    25  H    2.136268   1.082624   2.133619   5.426759   7.184366
    26  H    3.403699   2.146298   1.078692   3.723659   4.754569
    27  F    2.350727   2.690998   4.077295   6.964415   9.351583
    28  F    2.362066   3.435165   4.626235   6.726184   9.885117
    29  F    2.362061   3.435170   4.626231   6.726192   9.690409
                   16         17         18         19         20
    16  H    0.000000
    17  H    2.502985   0.000000
    18  H    3.061141   1.757888   0.000000
    19  H    2.594368   2.525991   3.079491   0.000000
    20  H    3.778786   2.509648   2.509608   1.762510   0.000000
    21  H    3.138216   3.079489   2.526032   1.764915   1.762509
    22  H    6.349030   6.556780   6.556570   8.546540   8.832870
    23  Cl   8.858810   9.307892   9.307589  11.204180  11.589550
    24  C    9.081752  10.293894  10.293516  11.645675  12.395413
    25  H    7.184803   8.879741   8.879392   9.756268  10.724023
    26  H    4.754926   6.544085   6.543827   7.310701   8.284001
    27  F    9.352061  10.836764  10.836366  11.937230  12.822054
    28  F    9.691009  10.790015  10.963839  12.246954  13.017614
    29  F    9.885425  10.963975  10.789387  12.401067  13.017297
                   21         22         23         24         25
    21  H    0.000000
    22  H    8.546357   0.000000
    23  Cl  11.203899   2.783880   0.000000
    24  C   11.645286   4.661466   3.094595   0.000000
    25  H    9.755881   4.926733   4.871730   2.693792   0.000000
    26  H    7.310398   4.302131   5.601927   4.655009   2.459005
    27  F   11.936805   5.731609   4.429396   1.340807   2.310804
    28  F   12.400933   5.014431   3.077618   1.340376   3.652866
    29  F   12.246314   5.014392   3.077591   1.340377   3.652884
                   26         27         28         29
    26  H    0.000000
    27  F    4.690044   0.000000
    28  F    5.506631   2.153114   0.000000
    29  F    5.506633   2.153116   2.155773   0.000000
 Stoichiometry    C11H11ClF3NO2
 Framework group  C1[X(C11H11ClF3NO2)]
 Deg. of freedom    81
 Full point group                 C1      NOp   1
 Largest Abelian subgroup         C1      NOp   1
 Largest concise Abelian subgroup C1      NOp   1
                         Standard orientation:                         
 ---------------------------------------------------------------------
 Center     Atomic      Atomic             Coordinates (Angstroms)
 Number     Number       Type             X           Y           Z
 ---------------------------------------------------------------------
      1          6           0       -0.252700    0.138694   -0.000238
      2          7           0       -1.602254    0.500638   -0.000362
      3          6           0       -2.692282   -0.335962   -0.000271
      4          8           0       -2.671030   -1.538610   -0.000191
      5          8           0       -3.809081    0.409529   -0.000310
      6          6           0       -5.042071   -0.327329   -0.000054
      7          6           0       -6.176119    0.674649    0.000294
      8          6           0       -7.528413   -0.033057    0.000508
      9          6           0        0.680781    1.181167   -0.000141
     10          6           0        2.035791    0.907527   -0.000042
     11          6           0        2.498188   -0.409485   -0.000002
     12          6           0        1.559593   -1.435202   -0.000088
     13          6           0        0.195005   -1.184425   -0.000211
     14          1           0       -1.819157    1.486432   -0.000491
     15          1           0       -5.067905   -0.970050    0.883288
     16          1           0       -5.068320   -0.969925   -0.883478
     17          1           0       -6.082727    1.318282   -0.878598
     18          1           0       -6.082343    1.318085    0.879290
     19          1           0       -7.644908   -0.666714   -0.882024
     20          1           0       -8.347041    0.687547    0.000827
     21          1           0       -7.644475   -0.667001    0.882891
     22          1           0        0.352828    2.214587   -0.000174
     23         17           0        3.136460    2.251797    0.000045
     24          6           0        3.967138   -0.729225    0.000142
     25          1           0        1.904207   -2.461515   -0.000057
     26          1           0       -0.511083   -1.999910   -0.000279
     27          9           0        4.178658   -2.053243    0.000186
     28          9           0        4.592904   -0.235971   -1.077691
     29          9           0        4.592693   -0.235931    1.078082
 ---------------------------------------------------------------------
 Rotational constants (GHZ):      1.0952771      0.1233951      0.1133304
 Standard basis: 6-311+G(d) (5D, 7F)
 There are   455 symmetry adapted cartesian basis functions of A   symmetry.
 There are   437 symmetry adapted basis functions of A   symmetry.
   437 basis functions,   720 primitive gaussians,   455 cartesian basis functions
    72 alpha electrons       72 beta electrons
       nuclear repulsion energy      1431.5254273686 Hartrees.
 NAtoms=   29 NActive=   29 NUniq=   29 SFac= 1.00D+00 NAtFMM=   60 NAOKFM=F Big=F
 Integral buffers will be    131072 words long.
 Raffenetti 2 integral format.
 Two-electron integral symmetry is turned on.
 Nuclear repulsion after empirical dispersion term =     1431.5242050500 Hartrees.
 One-electron integrals computed using PRISM.
 NBasis=   437 RedAO= T EigKep=  1.47D-06  NBF=   437
 NBsUse=   435 1.00D-06 EigRej=  6.55D-07 NBFU=   435
 ExpMin= 4.38D-02 ExpMax= 1.06D+05 ExpMxC= 3.62D+03 IAcc=3 IRadAn=         5 AccDes= 0.00D+00
 Harris functional with IExCor= 1009 and IRadAn=       5 diagonalized for initial guess.
 HarFok:  IExCor= 1009 AccDes= 0.00D+00 IRadAn=         5 IDoV= 1 UseB2=F ITyADJ=14
 ICtDFT=  3500011 ScaDFX=  1.000000  1.000000  1.000000  1.000000
 FoFCou: FMM=F IPFlag=           0 FMFlag=      100000 FMFlg1=           0
         NFxFlg=           0 DoJE=T BraDBF=F KetDBF=T FulRan=T
         wScrn=  0.000000 ICntrl=     500 IOpCl=  0 I1Cent=   200000004 NGrid=           0
         NMat0=    1 NMatS0=      1 NMatT0=    0 NMatD0=    1 NMtDS0=    0 NMtDT0=    0
 Petite list used in FoFCou.
 Requested convergence on RMS density matrix=1.00D-08 within 128 cycles.
 Requested convergence on MAX density matrix=1.00D-06.
 Requested convergence on             energy=1.00D-06.
 No special actions if energy rises.
 SCF Done:  E(RM062X) =  -1390.67250207     A.U. after   15 cycles
            NFock= 15  Conv=0.93D-08     -V/T= 2.0028

 **********************************************************************

            Population analysis using the SCF density.

 **********************************************************************

 Orbital symmetries:
       Occupied  (A) (A) (A) (A) (A) (A) (A) (A) (A) (A) (A) (A)
                 (A) (A) (A) (A) (A) (A) (A) (A) (A) (A) (A) (A)
                 (A) (A) (A) (A) (A) (A) (A) (A) (A) (A) (A) (A)
                 (A) (A) (A) (A) (A) (A) (A) (A) (A) (A) (A) (A)
                 (A) (A) (A) (A) (A) (A) (A) (A) (A) (A) (A) (A)
                 (A) (A) (A) (A) (A) (A) (A) (A) (A) (A) (A) (A)
       Virtual   (A) (A) (A) (A) (A) (A) (A) (A) (A) (A) (A) (A)
                 (A) (A) (A) (A) (A) (A) (A) (A) (A) (A) (A) (A)
                 (A) (A) (A) (A) (A) (A) (A) (A) (A) (A) (A) (A)
                 (A) (A) (A) (A) (A) (A) (A) (A) (A) (A) (A) (A)
                 (A) (A) (A) (A) (A) (A) (A) (A) (A) (A) (A) (A)
                 (A) (A) (A) (A) (A) (A) (A) (A) (A) (A) (A) (A)
                 (A) (A) (A) (A) (A) (A) (A) (A) (A) (A) (A) (A)
                 (A) (A) (A) (A) (A) (A) (A) (A) (A) (A) (A) (A)
                 (A) (A) (A) (A) (A) (A) (A) (A) (A) (A) (A) (A)
                 (A) (A) (A) (A) (A) (A) (A) (A) (A) (A) (A) (A)
                 (A) (A) (A) (A) (A) (A) (A) (A) (A) (A) (A) (A)
                 (A) (A) (A) (A) (A) (A) (A) (A) (A) (A) (A) (A)
                 (A) (A) (A) (A) (A) (A) (A) (A) (A) (A) (A) (A)
                 (A) (A) (A) (A) (A) (A) (A) (A) (A) (A) (A) (A)
                 (A) (A) (A) (A) (A) (A) (A) (A) (A) (A) (A) (A)
                 (A) (A) (A) (A) (A) (A) (A) (A) (A) (A) (A) (A)
                 (A) (A) (A) (A) (A) (A) (A) (A) (A) (A) (A) (A)
                 (A) (A) (A) (A) (A) (A) (A) (A) (A) (A) (A) (A)
                 (A) (A) (A) (A) (A) (A) (A) (A) (A) (A) (A) (A)
                 (A) (A) (A) (A) (A) (A) (A) (A) (A) (A) (A) (A)
                 (A) (A) (A) (A) (A) (A) (A) (A) (A) (A) (A) (A)
                 (A) (A) (A) (A) (A) (A) (A) (A) (A) (A) (A) (A)
                 (A) (A) (A) (A) (A) (A) (A) (A) (A) (A) (A) (A)
                 (A) (A) (A) (A) (A) (A) (A) (A) (A) (A) (A) (A)
                 (A) (A) (A) (A) (A) (A) (A) (A) (A) (A) (A) (A)
                 (A) (A) (A) (A) (A) (A) (A) (A) (A) (A) (A) (A)
                 (A) (A) (A) (A) (A) (A) (A) (A) (A) (A) (A) (A)
                 (A) (A) (A) (A) (A) (A) (A) (A) (A) (A) (A) (A)
                 (A) (A) (A) (A) (A) (A) (A) (A) (A) (A) (A) (A)
                 (A) (A) (A) (A) (A) (A) (A) (A) (A) (A) (A) (A)
                 (A) (A) (A)
 The electronic state is 1-A.
 Alpha  occ. eigenvalues -- -102.69095 -25.27945 -25.27377 -25.27376 -19.68593
 Alpha  occ. eigenvalues --  -19.62559 -14.81514 -10.80657 -10.72164 -10.63711
 Alpha  occ. eigenvalues --  -10.62992 -10.60906 -10.58695 -10.57900 -10.57877
 Alpha  occ. eigenvalues --  -10.56455 -10.55267 -10.54216  -9.83377  -7.55899
 Alpha  occ. eigenvalues --   -7.55204  -7.55188  -1.47121  -1.37750  -1.37349
 Alpha  occ. eigenvalues --   -1.26685  -1.16771  -1.09088  -1.02337  -0.95941
 Alpha  occ. eigenvalues --   -0.91936  -0.89939  -0.86064  -0.82949  -0.80038
 Alpha  occ. eigenvalues --   -0.75096  -0.74141  -0.70348  -0.69596  -0.69383
 Alpha  occ. eigenvalues --   -0.68546  -0.66739  -0.65907  -0.62324  -0.60605
 Alpha  occ. eigenvalues --   -0.58002  -0.57587  -0.57226  -0.56242  -0.55234
 Alpha  occ. eigenvalues --   -0.55157  -0.53416  -0.53274  -0.52619  -0.51859
 Alpha  occ. eigenvalues --   -0.51214  -0.51014  -0.50471  -0.48191  -0.47172
 Alpha  occ. eigenvalues --   -0.45977  -0.44964  -0.44701  -0.43874  -0.42159
 Alpha  occ. eigenvalues --   -0.41899  -0.39745  -0.39329  -0.39328  -0.38208
 Alpha  occ. eigenvalues --   -0.32631  -0.30442
 Alpha virt. eigenvalues --   -0.01506  -0.01084  -0.00406   0.01169   0.01904
 Alpha virt. eigenvalues --    0.02548   0.02768   0.02937   0.03286   0.04728
 Alpha virt. eigenvalues --    0.04999   0.05126   0.05830   0.06226   0.06477
 Alpha virt. eigenvalues --    0.06773   0.07175   0.07433   0.07747   0.07814
 Alpha virt. eigenvalues --    0.08977   0.09240   0.09245   0.10070   0.10989
 Alpha virt. eigenvalues --    0.11555   0.12043   0.12277   0.12356   0.12957
 Alpha virt. eigenvalues --    0.13183   0.14195   0.14627   0.14778   0.15500
 Alpha virt. eigenvalues --    0.16277   0.17061   0.17630   0.18127   0.18166
 Alpha virt. eigenvalues --    0.18521   0.18977   0.19345   0.19387   0.20330
 Alpha virt. eigenvalues --    0.20343   0.20462   0.20471   0.21046   0.21547
 Alpha virt. eigenvalues --    0.22305   0.23364   0.23365   0.23429   0.23779
 Alpha virt. eigenvalues --    0.24264   0.24904   0.24990   0.25111   0.25182
 Alpha virt. eigenvalues --    0.25689   0.26207   0.27016   0.27124   0.27479
 Alpha virt. eigenvalues --    0.28134   0.29083   0.29371   0.29585   0.29746
 Alpha virt. eigenvalues --    0.29790   0.30939   0.31317   0.31646   0.31816
 Alpha virt. eigenvalues --    0.32392   0.32480   0.34026   0.34614   0.34820
 Alpha virt. eigenvalues --    0.35138   0.36620   0.37038   0.37985   0.38016
 Alpha virt. eigenvalues --    0.39101   0.39931   0.39982   0.40496   0.41436
 Alpha virt. eigenvalues --    0.42030   0.42231   0.42984   0.43700   0.44695
 Alpha virt. eigenvalues --    0.45608   0.46174   0.47150   0.47501   0.48482
 Alpha virt. eigenvalues --    0.49112   0.50156   0.50308   0.51560   0.52205
 Alpha virt. eigenvalues --    0.54010   0.54249   0.55635   0.55856   0.56807
 Alpha virt. eigenvalues --    0.58123   0.59318   0.59628   0.60497   0.61074
 Alpha virt. eigenvalues --    0.61156   0.62631   0.63204   0.63250   0.64729
 Alpha virt. eigenvalues --    0.64763   0.66595   0.66976   0.67517   0.68822
 Alpha virt. eigenvalues --    0.69656   0.69786   0.70956   0.71740   0.71784
 Alpha virt. eigenvalues --    0.72585   0.72733   0.73099   0.73493   0.74506
 Alpha virt. eigenvalues --    0.75888   0.76341   0.77039   0.77605   0.80096
 Alpha virt. eigenvalues --    0.80315   0.81693   0.82818   0.83831   0.87717
 Alpha virt. eigenvalues --    0.88678   0.90701   0.90999   0.91387   0.92827
 Alpha virt. eigenvalues --    0.93854   0.94025   0.95787   0.96206   0.97344
 Alpha virt. eigenvalues --    0.97731   0.99076   1.01589   1.02302   1.03613
 Alpha virt. eigenvalues --    1.04112   1.05174   1.06138   1.08622   1.09978
 Alpha virt. eigenvalues --    1.10405   1.10655   1.11165   1.13328   1.14205
 Alpha virt. eigenvalues --    1.17977   1.18889   1.20889   1.21169   1.22538
 Alpha virt. eigenvalues --    1.22941   1.24730   1.28906   1.29760   1.30659
 Alpha virt. eigenvalues --    1.31581   1.33451   1.35448   1.38633   1.38694
 Alpha virt. eigenvalues --    1.39783   1.42900   1.43614   1.45679   1.47532
 Alpha virt. eigenvalues --    1.48701   1.48809   1.49142   1.50449   1.53361
 Alpha virt. eigenvalues --    1.53493   1.53634   1.56321   1.57166   1.57381
 Alpha virt. eigenvalues --    1.57760   1.58842   1.59919   1.59928   1.61629
 Alpha virt. eigenvalues --    1.62144   1.63307   1.64506   1.66699   1.70123
 Alpha virt. eigenvalues --    1.72365   1.74893   1.76630   1.77343   1.78363
 Alpha virt. eigenvalues --    1.78955   1.81309   1.82204   1.83009   1.84062
 Alpha virt. eigenvalues --    1.84421   1.85708   1.86845   1.91129   1.91342
 Alpha virt. eigenvalues --    1.92348   1.94029   1.97445   1.98004   1.99208
 Alpha virt. eigenvalues --    2.01585   2.06048   2.07889   2.08770   2.09028
 Alpha virt. eigenvalues --    2.10506   2.16442   2.17815   2.21007   2.21624
 Alpha virt. eigenvalues --    2.26605   2.31007   2.31013   2.34649   2.36032
 Alpha virt. eigenvalues --    2.40205   2.40944   2.42379   2.47271   2.49498
 Alpha virt. eigenvalues --    2.50886   2.53659   2.54978   2.55122   2.57506
 Alpha virt. eigenvalues --    2.58832   2.60462   2.62121   2.64121   2.68283
 Alpha virt. eigenvalues --    2.69742   2.72450   2.72801   2.78506   2.81109
 Alpha virt. eigenvalues --    2.84763   2.85436   2.91661   2.92008   2.92246
 Alpha virt. eigenvalues --    2.96023   3.00524   3.01783   3.02157   3.03580
 Alpha virt. eigenvalues --    3.04495   3.06237   3.09811   3.11066   3.11368
 Alpha virt. eigenvalues --    3.17127   3.17401   3.20181   3.23778   3.24345
 Alpha virt. eigenvalues --    3.28095   3.28499   3.28794   3.33390   3.37184
 Alpha virt. eigenvalues --    3.39093   3.40924   3.43712   3.44038   3.51835
 Alpha virt. eigenvalues --    3.55178   3.66507   3.70289   3.73037   3.77847
 Alpha virt. eigenvalues --    3.80644   3.82083   3.84385   3.84799   3.86930
 Alpha virt. eigenvalues --    3.87408   3.88439   3.90079   3.96231   3.96366
 Alpha virt. eigenvalues --    4.00958   4.01611   4.01769   4.05416   4.09747
 Alpha virt. eigenvalues --    4.12484   4.18041   4.23399   4.28098   4.32753
 Alpha virt. eigenvalues --    4.55273   4.76979   4.80611   4.98843   5.02269
 Alpha virt. eigenvalues --    5.07818   5.09191   5.15310   5.36468   5.49751
 Alpha virt. eigenvalues --    5.79584   5.95322   6.44735   6.48679   6.50038
 Alpha virt. eigenvalues --    6.52727   6.55800   6.57998   6.63527   6.88070
 Alpha virt. eigenvalues --    6.91405   9.99593  23.43968  23.56230  23.65765
 Alpha virt. eigenvalues --   23.71022  23.80453  23.90145  23.92177  23.96535
 Alpha virt. eigenvalues --   24.08000  24.11034  24.19293  25.95346  26.31525
 Alpha virt. eigenvalues --   26.82934  35.64504  50.01041  50.13208  66.89061
 Alpha virt. eigenvalues --   66.91679  66.97515 216.10423
          Condensed to atoms (all electrons):
               1          2          3          4          5          6
     1  C   20.561020  -0.204230  -1.026425  -0.386730  -0.329822  -0.569077
     2  N   -0.204230   7.635622   0.224657   0.010755  -0.234241  -0.263513
     3  C   -1.026425   0.224657   8.309262   0.450013   0.292127  -0.559490
     4  O   -0.386730   0.010755   0.450013   8.037434  -0.196963  -0.189842
     5  O   -0.329822  -0.234241   0.292127  -0.196963   8.349928   0.331197
     6  C   -0.569077  -0.263513  -0.559490  -0.189842   0.331197   8.051075
     7  C   -0.044133   0.032642   0.104221   0.028948  -0.167721  -0.905042
     8  C   -0.010725  -0.003888  -0.233122   0.001398   0.031247   0.301858
     9  C    2.316371  -0.219402  -0.141512  -0.099903  -0.029989  -0.007419
    10  C   -1.900158   0.040295  -1.551288  -0.009771  -0.005028  -0.121767
    11  C   -5.435439   0.106872   0.001703   0.025795   0.021045  -0.012539
    12  C   -4.761476   0.213955   0.013001   0.181208   0.008576  -0.057638
    13  C   -0.237007  -0.113543  -0.040722   0.431308   0.044670  -0.232007
    14  H   -0.057361   0.259300   0.001801   0.000762   0.024423  -0.008317
    15  H    0.009376   0.005143   0.041508  -0.002161  -0.044149   0.353639
    16  H    0.009372   0.005117   0.041626  -0.002164  -0.044142   0.353558
    17  H    0.000005  -0.000857   0.007024  -0.000297   0.000790  -0.063502
    18  H    0.000006  -0.000862   0.007078  -0.000297   0.000789  -0.063539
    19  H   -0.000122  -0.000043  -0.001105  -0.000077  -0.000431  -0.047718
    20  H    0.000105   0.000035   0.007728   0.000032  -0.000691   0.090635
    21  H   -0.000122  -0.000043  -0.001114  -0.000077  -0.000430  -0.047748
    22  H    0.019715  -0.019901  -0.021755   0.000112  -0.000596  -0.001790
    23  Cl  -0.114170  -0.013182  -0.046373   0.000195  -0.000176  -0.002181
    24  C   -1.251783   0.041488  -0.001232  -0.000564   0.002855  -0.000121
    25  H    0.043811  -0.001868   0.006042  -0.000033   0.000007   0.000106
    26  H    0.050567  -0.027146   0.086856   0.004006   0.002310   0.010683
    27  F    0.030491   0.000038   0.000306  -0.000002   0.000001   0.000003
    28  F    0.016605  -0.000089  -0.000124  -0.000000   0.000000  -0.000002
    29  F    0.016611  -0.000089  -0.000124  -0.000000   0.000000  -0.000002
               7          8          9         10         11         12
     1  C   -0.044133  -0.010725   2.316371  -1.900158  -5.435439  -4.761476
     2  N    0.032642  -0.003888  -0.219402   0.040295   0.106872   0.213955
     3  C    0.104221  -0.233122  -0.141512  -1.551288   0.001703   0.013001
     4  O    0.028948   0.001398  -0.099903  -0.009771   0.025795   0.181208
     5  O   -0.167721   0.031247  -0.029989  -0.005028   0.021045   0.008576
     6  C   -0.905042   0.301858  -0.007419  -0.121767  -0.012539  -0.057638
     7  C    6.503944  -0.134039   0.013870  -0.001885  -0.004103  -0.003274
     8  C   -0.134039   6.058802   0.001743  -0.000554  -0.000430  -0.001927
     9  C    0.013870   0.001743  11.853258   1.001758  -2.789970  -2.495282
    10  C   -0.001885  -0.000554   1.001758  32.949658 -12.404307  -5.210148
    11  C   -0.004103  -0.000430  -2.789970 -12.404307  32.099504   2.442231
    12  C   -0.003274  -0.001927  -2.495282  -5.210148   2.442231  16.030121
    13  C   -0.012326  -0.012957  -1.566090  -6.238912  -3.835513   0.167989
    14  H   -0.001312  -0.000634  -0.037910  -0.016388   0.023779   0.014982
    15  H   -0.023048  -0.014632   0.001295   0.000243  -0.000165  -0.000581
    16  H   -0.023067  -0.014653   0.001291   0.000243  -0.000164  -0.000577
    17  H    0.442357  -0.045469   0.000079   0.000021   0.000001   0.000021
    18  H    0.442363  -0.045499   0.000079   0.000021   0.000001   0.000021
    19  H    0.014051   0.379628   0.000007  -0.000000  -0.000000   0.000000
    20  H   -0.136825   0.391501  -0.000026  -0.000001   0.000000   0.000003
    21  H    0.014065   0.379648   0.000007  -0.000000  -0.000000   0.000000
    22  H   -0.000015  -0.000002   0.297840   0.028470   0.049970  -0.029223
    23  Cl   0.000004   0.000001   0.477570  -1.164452  -0.696683   0.378489
    24  C   -0.000497  -0.000005  -2.030576   0.383842  -2.861591  -1.340455
    25  H    0.000003  -0.000000  -0.006183  -0.059159   0.018765   0.331650
    26  H   -0.000448   0.000068  -0.002258  -0.010608   0.017540  -0.123988
    27  F   -0.000000   0.000000  -0.015605  -0.198193  -0.233999   0.198328
    28  F   -0.000000  -0.000000   0.020813  -0.252805   0.296224   0.048809
    29  F   -0.000000  -0.000000   0.020798  -0.252801   0.296263   0.048795
              13         14         15         16         17         18
     1  C   -0.237007  -0.057361   0.009376   0.009372   0.000005   0.000006
     2  N   -0.113543   0.259300   0.005143   0.005117  -0.000857  -0.000862
     3  C   -0.040722   0.001801   0.041508   0.041626   0.007024   0.007078
     4  O    0.431308   0.000762  -0.002161  -0.002164  -0.000297  -0.000297
     5  O    0.044670   0.024423  -0.044149  -0.044142   0.000790   0.000789
     6  C   -0.232007  -0.008317   0.353639   0.353558  -0.063502  -0.063539
     7  C   -0.012326  -0.001312  -0.023048  -0.023067   0.442357   0.442363
     8  C   -0.012957  -0.000634  -0.014632  -0.014653  -0.045469  -0.045499
     9  C   -1.566090  -0.037910   0.001295   0.001291   0.000079   0.000079
    10  C   -6.238912  -0.016388   0.000243   0.000243   0.000021   0.000021
    11  C   -3.835513   0.023779  -0.000165  -0.000164   0.000001   0.000001
    12  C    0.167989   0.014982  -0.000581  -0.000577   0.000021   0.000021
    13  C   17.181663   0.061818  -0.004505  -0.004484   0.000093   0.000094
    14  H    0.061818   0.322869  -0.000005  -0.000005   0.000003   0.000003
    15  H   -0.004505  -0.000005   0.449464  -0.040565   0.005435  -0.007901
    16  H   -0.004484  -0.000005  -0.040565   0.449479  -0.007900   0.005436
    17  H    0.000093   0.000003   0.005435  -0.007900   0.445038  -0.036931
    18  H    0.000094   0.000003  -0.007901   0.005436  -0.036931   0.445043
    19  H   -0.000006  -0.000000  -0.000541   0.003774  -0.008114   0.006144
    20  H    0.000070   0.000000  -0.000206  -0.000205  -0.003217  -0.003218
    21  H   -0.000006  -0.000000   0.003774  -0.000542   0.006144  -0.008113
    22  H   -0.020544   0.007058  -0.000000  -0.000000  -0.000000  -0.000000
    23  Cl   0.331654   0.000437   0.000001   0.000001   0.000000   0.000000
    24  C   -0.322103   0.002995  -0.000006  -0.000006   0.000000   0.000000
    25  H   -0.042349  -0.000004   0.000000   0.000000  -0.000000  -0.000000
    26  H    0.310971  -0.000112  -0.000029  -0.000029  -0.000000  -0.000000
    27  F    0.207120   0.000002  -0.000000  -0.000000  -0.000000  -0.000000
    28  F    0.005066   0.000000   0.000000  -0.000000   0.000000  -0.000000
    29  F    0.005051   0.000000  -0.000000   0.000000  -0.000000   0.000000
              19         20         21         22         23         24
     1  C   -0.000122   0.000105  -0.000122   0.019715  -0.114170  -1.251783
     2  N   -0.000043   0.000035  -0.000043  -0.019901  -0.013182   0.041488
     3  C   -0.001105   0.007728  -0.001114  -0.021755  -0.046373  -0.001232
     4  O   -0.000077   0.000032  -0.000077   0.000112   0.000195  -0.000564
     5  O   -0.000431  -0.000691  -0.000430  -0.000596  -0.000176   0.002855
     6  C   -0.047718   0.090635  -0.047748  -0.001790  -0.002181  -0.000121
     7  C    0.014051  -0.136825   0.014065  -0.000015   0.000004  -0.000497
     8  C    0.379628   0.391501   0.379648  -0.000002   0.000001  -0.000005
     9  C    0.000007  -0.000026   0.000007   0.297840   0.477570  -2.030576
    10  C   -0.000000  -0.000001  -0.000000   0.028470  -1.164452   0.383842
    11  C   -0.000000   0.000000  -0.000000   0.049970  -0.696683  -2.861591
    12  C    0.000000   0.000003   0.000000  -0.029223   0.378489  -1.340455
    13  C   -0.000006   0.000070  -0.000006  -0.020544   0.331654  -0.322103
    14  H   -0.000000   0.000000  -0.000000   0.007058   0.000437   0.002995
    15  H   -0.000541  -0.000206   0.003774  -0.000000   0.000001  -0.000006
    16  H    0.003774  -0.000205  -0.000542  -0.000000   0.000001  -0.000006
    17  H   -0.008114  -0.003217   0.006144  -0.000000   0.000000   0.000000
    18  H    0.006144  -0.003218  -0.008113  -0.000000   0.000000   0.000000
    19  H    0.457394  -0.024876  -0.037781  -0.000000  -0.000000  -0.000000
    20  H   -0.024876   0.429333  -0.024877   0.000000  -0.000000   0.000000
    21  H   -0.037781  -0.024877   0.457402  -0.000000  -0.000000  -0.000000
    22  H   -0.000000   0.000000  -0.000000   0.415789  -0.013668   0.029951
    23  Cl  -0.000000  -0.000000  -0.000000  -0.013668  17.627802  -0.219165
    24  C   -0.000000   0.000000  -0.000000   0.029951  -0.219165  12.841394
    25  H    0.000000  -0.000000   0.000000   0.000042  -0.000206   0.026048
    26  H   -0.000000   0.000000  -0.000000  -0.000060   0.000129   0.011542
    27  F   -0.000000  -0.000000  -0.000000   0.000030   0.011372   0.139903
    28  F   -0.000000   0.000000  -0.000000   0.000014  -0.005544   0.019571
    29  F   -0.000000   0.000000  -0.000000   0.000014  -0.005545   0.019563
              25         26         27         28         29
     1  C    0.043811   0.050567   0.030491   0.016605   0.016611
     2  N   -0.001868  -0.027146   0.000038  -0.000089  -0.000089
     3  C    0.006042   0.086856   0.000306  -0.000124  -0.000124
     4  O   -0.000033   0.004006  -0.000002  -0.000000  -0.000000
     5  O    0.000007   0.002310   0.000001   0.000000   0.000000
     6  C    0.000106   0.010683   0.000003  -0.000002  -0.000002
     7  C    0.000003  -0.000448  -0.000000  -0.000000  -0.000000
     8  C   -0.000000   0.000068   0.000000  -0.000000  -0.000000
     9  C   -0.006183  -0.002258  -0.015605   0.020813   0.020798
    10  C   -0.059159  -0.010608  -0.198193  -0.252805  -0.252801
    11  C    0.018765   0.017540  -0.233999   0.296224   0.296263
    12  C    0.331650  -0.123988   0.198328   0.048809   0.048795
    13  C   -0.042349   0.310971   0.207120   0.005066   0.005051
    14  H   -0.000004  -0.000112   0.000002   0.000000   0.000000
    15  H    0.000000  -0.000029  -0.000000   0.000000  -0.000000
    16  H    0.000000  -0.000029  -0.000000  -0.000000   0.000000
    17  H   -0.000000  -0.000000  -0.000000   0.000000  -0.000000
    18  H   -0.000000  -0.000000  -0.000000  -0.000000   0.000000
    19  H    0.000000  -0.000000  -0.000000  -0.000000  -0.000000
    20  H   -0.000000   0.000000  -0.000000   0.000000   0.000000
    21  H    0.000000  -0.000000  -0.000000  -0.000000  -0.000000
    22  H    0.000042  -0.000060   0.000030   0.000014   0.000014
    23  Cl  -0.000206   0.000129   0.011372  -0.005544  -0.005545
    24  C    0.026048   0.011542   0.139903   0.019571   0.019563
    25  H    0.388565  -0.001778   0.012151   0.000278   0.000278
    26  H   -0.001778   0.364396   0.000013   0.000029   0.000029
    27  F    0.012151   0.000013   9.060842  -0.036367  -0.036367
    28  F    0.000278   0.000029  -0.036367   8.979330  -0.053205
    29  F    0.000278   0.000029  -0.036367  -0.053205   8.979337
 Mulliken charges:
               1
     1  C   -0.745275
     2  N   -0.473024
     3  C    0.029434
     4  O   -0.283084
     5  O   -0.055589
     6  C   -0.339500
     7  C   -0.138732
     8  C   -1.027355
     9  C   -0.564654
    10  C    0.993675
    11  C   -1.124791
    12  C   -0.053610
    13  C   -0.064495
    14  H    0.401817
    15  H    0.268616
    16  H    0.268609
    17  H    0.259277
    18  H    0.259281
    19  H    0.259818
    20  H    0.274699
    21  H    0.259814
    22  H    0.258550
    23  Cl   0.453692
    24  C    0.508955
    25  H    0.283832
    26  H    0.307317
    27  F   -0.140070
    28  F   -0.038602
    29  F   -0.038607
 Sum of Mulliken charges =  -0.00000
 Mulliken charges with hydrogens summed into heavy atoms:
               1
     1  C   -0.745275
     2  N   -0.071207
     3  C    0.029434
     4  O   -0.283084
     5  O   -0.055589
     6  C    0.197726
     7  C    0.379825
     8  C   -0.233024
     9  C   -0.306104
    10  C    0.993675
    11  C   -1.124791
    12  C    0.230223
    13  C    0.242822
    23  Cl   0.453692
    24  C    0.508955
    27  F   -0.140070
    28  F   -0.038602
    29  F   -0.038607
 Electronic spatial extent (au):  <R**2>=           8793.2746
 Charge=             -0.0000 electrons
 Dipole moment (field-independent basis, Debye):
    X=             -5.7135    Y=              1.7397    Z=             -0.0002  Tot=              5.9725
 Quadrupole moment (field-independent basis, Debye-Ang):
   XX=           -109.2919   YY=           -109.5088   ZZ=           -113.3177
   XY=             -4.7176   XZ=             -0.0015   YZ=             -0.0006
 Traceless Quadrupole moment (field-independent basis, Debye-Ang):
   XX=              1.4143   YY=              1.1973   ZZ=             -2.6116
   XY=             -4.7176   XZ=             -0.0015   YZ=             -0.0006
 Octapole moment (field-independent basis, Debye-Ang**2):
  XXX=           -141.1426  YYY=              0.8131  ZZZ=              0.0027  XYY=             27.0309
  XXY=             12.0334  XXZ=              0.0045  XZZ=              9.3766  YZZ=             -4.5196
  YYZ=             -0.0007  XYZ=              0.0011
 Hexadecapole moment (field-independent basis, Debye-Ang**3):
 XXXX=          -9294.6718 YYYY=          -1011.5272 ZZZZ=           -203.3879 XXXY=            -20.9222
 XXXZ=             -0.0116 YYYX=            -55.7081 YYYZ=             -0.0054 ZZZX=              0.0223
 ZZZY=             -0.0024 XXYY=          -1835.5222 XXZZ=          -1672.8798 YYZZ=           -211.3909
 XXYZ=              0.0103 YYXZ=              0.0057 ZZXY=             -8.3994
 N-N= 1.431524205050D+03 E-N=-6.141705053961D+03  KE= 1.386779659156D+03
 Calling FoFJK, ICntrl=      2127 FMM=F ISym2X=0 I1Cent= 0 IOpClX= 0 NMat=1 NMatS=1 NMatT=0.
 ***** Axes restored to original set *****
 -------------------------------------------------------------------
 Center     Atomic                   Forces (Hartrees/Bohr)
 Number     Number              X              Y              Z
 -------------------------------------------------------------------
      1        6           0.000004095   -0.000000539   -0.000000391
      2        7           0.000017385   -0.000012744    0.000001036
      3        6          -0.000003796    0.000013880   -0.000007287
      4        8          -0.000007060    0.000013093    0.000001464
      5        8          -0.000024336    0.000002989    0.000005106
      6        6           0.000003789   -0.000007520   -0.000002247
      7        6           0.000001743   -0.000006641    0.000000249
      8        6           0.000001204    0.000001492   -0.000000081
      9        6          -0.000000463    0.000001388   -0.000003542
     10        6           0.000003899    0.000000887    0.000000838
     11        6           0.000002371   -0.000000818    0.000000043
     12        6          -0.000000016   -0.000001559    0.000000664
     13        6          -0.000000208   -0.000003691    0.000001053
     14        1           0.000000752   -0.000000859    0.000002400
     15        1          -0.000004235   -0.000001893   -0.000002580
     16        1          -0.000002077   -0.000000903    0.000003549
     17        1           0.000001149    0.000001664    0.000001944
     18        1           0.000001193    0.000001001   -0.000002656
     19        1           0.000000125   -0.000000431    0.000002129
     20        1          -0.000001103    0.000002006   -0.000000515
     21        1           0.000000594   -0.000001066   -0.000001537
     22        1           0.000000248   -0.000001335    0.000001050
     23       17           0.000002637    0.000001290   -0.000000199
     24        6           0.000016646   -0.000006724    0.000001315
     25        1          -0.000000490   -0.000000205   -0.000000084
     26        1           0.000001784    0.000001556   -0.000000442
     27        9           0.000003424    0.000021603   -0.000003202
     28        9          -0.000010096   -0.000011312   -0.000019382
     29        9          -0.000009157   -0.000004610    0.000021302
 -------------------------------------------------------------------
 Cartesian Forces:  Max     0.000024336 RMS     0.000006657

 GradGradGradGradGradGradGradGradGradGradGradGradGradGradGradGradGradGrad
 Berny optimization.
 FormGI is forming the generalized inverse of G from B-inverse, IUseBI=4.
 GSVD:  received Info=                   1 from GESDD.
 Internal  Forces:  Max     0.000047479 RMS     0.000007247
 Search for a local minimum.
 Step number   1 out of a maximum of  149
 All quantities printed in internal units (Hartrees-Bohrs-Radians)
 Mixed Optimization -- En-DIIS/RFO-DIIS
 Second derivative matrix not updated -- first step.
 ITU=  0
     Eigenvalues ---    0.00418   0.00590   0.00722   0.01210   0.01583
     Eigenvalues ---    0.01728   0.01878   0.02005   0.02035   0.02130
     Eigenvalues ---    0.02169   0.02183   0.02191   0.02217   0.02222
     Eigenvalues ---    0.02237   0.02253   0.02449   0.03812   0.04968
     Eigenvalues ---    0.05390   0.05503   0.05538   0.05716   0.08122
     Eigenvalues ---    0.10649   0.10839   0.11293   0.12019   0.13617
     Eigenvalues ---    0.16000   0.16000   0.16000   0.16000   0.16000
     Eigenvalues ---    0.16000   0.16000   0.21883   0.21941   0.22000
     Eigenvalues ---    0.22375   0.23486   0.24609   0.25000   0.25000
     Eigenvalues ---    0.25000   0.25000   0.25000   0.25000   0.25000
     Eigenvalues ---    0.25000   0.25000   0.29769   0.31023   0.31741
     Eigenvalues ---    0.32029   0.34427   0.34427   0.34499   0.34499
     Eigenvalues ---    0.34504   0.34504   0.34743   0.35491   0.35679
     Eigenvalues ---    0.36153   0.40084   0.42422   0.42914   0.46077
     Eigenvalues ---    0.46080   0.46232   0.46378   0.47278   0.48328
     Eigenvalues ---    0.50203   0.56591   0.57024   0.57121   0.57121
     Eigenvalues ---    1.03411
 RFO step:  Lambda=-2.48330021D-08 EMin= 4.18239902D-03
 Linear search not attempted -- first point.
 Iteration  1 RMS(Cart)=  0.00019361 RMS(Int)=  0.00000001
 Iteration  2 RMS(Cart)=  0.00000002 RMS(Int)=  0.00000000
 Variable       Old X    -DE/DX   Delta X   Delta X   Delta X     New X
                                 (Linear)    (Quad)   (Total)
    R1        2.64041  -0.00001   0.00000  -0.00003  -0.00003   2.64038
    R2        2.64436  -0.00001   0.00000  -0.00001  -0.00001   2.64435
    R3        2.63959  -0.00000   0.00000  -0.00001  -0.00001   2.63958
    R4        2.59661  -0.00002   0.00000  -0.00004  -0.00004   2.59657
    R5        1.90744   0.00000   0.00000   0.00000   0.00000   1.90744
    R6        2.27303   0.00001   0.00000   0.00001   0.00001   2.27304
    R7        2.53744  -0.00001   0.00000  -0.00002  -0.00002   2.53743
    R8        2.71439  -0.00000   0.00000  -0.00001  -0.00001   2.71438
    R9        2.85969   0.00001   0.00000   0.00002   0.00002   2.85971
   R10        2.06495  -0.00000   0.00000  -0.00001  -0.00001   2.06494
   R11        2.06496  -0.00000   0.00000  -0.00001  -0.00001   2.06495
   R12        2.88426   0.00000   0.00000   0.00000   0.00000   2.88427
   R13        2.06615  -0.00000   0.00000  -0.00001  -0.00001   2.06614
   R14        2.06615  -0.00000   0.00000  -0.00001  -0.00001   2.06614
   R15        2.06487  -0.00000   0.00000  -0.00001  -0.00001   2.06487
   R16        2.06095  -0.00000   0.00000  -0.00001  -0.00001   2.06094
   R17        2.06487  -0.00000   0.00000  -0.00001  -0.00001   2.06487
   R18        2.61229  -0.00001   0.00000  -0.00001  -0.00001   2.61228
   R19        2.04886   0.00000   0.00000   0.00000   0.00000   2.04886
   R20        2.63773  -0.00000   0.00000  -0.00000  -0.00000   2.63773
   R21        3.28320  -0.00000   0.00000  -0.00001  -0.00001   3.28319
   R22        2.62737  -0.00000   0.00000  -0.00001  -0.00001   2.62736
   R23        2.84091  -0.00000   0.00000  -0.00000  -0.00000   2.84091
   R24        2.62188  -0.00000   0.00000  -0.00001  -0.00001   2.62188
   R25        2.04586  -0.00000   0.00000  -0.00000  -0.00000   2.04586
   R26        2.03843   0.00000   0.00000   0.00001   0.00001   2.03844
   R27        2.53376   0.00002   0.00000   0.00004   0.00004   2.53380
   R28        2.53294   0.00002   0.00000   0.00004   0.00004   2.53299
   R29        2.53295   0.00002   0.00000   0.00004   0.00004   2.53299
    A1        2.03906   0.00000   0.00000   0.00000   0.00000   2.03907
    A2        2.15910  -0.00001   0.00000  -0.00002  -0.00002   2.15908
    A3        2.08502   0.00000   0.00000   0.00002   0.00002   2.08504
    A4        2.22495  -0.00001   0.00000  -0.00005  -0.00005   2.22490
    A5        2.04940   0.00001   0.00000   0.00003   0.00003   2.04943
    A6        2.00883   0.00001   0.00000   0.00002   0.00002   2.00885
    A7        2.20774   0.00001   0.00000   0.00005   0.00005   2.20779
    A8        1.89839  -0.00005   0.00000  -0.00019  -0.00019   1.89820
    A9        2.17706   0.00003   0.00000   0.00014   0.00014   2.17720
   A10        2.01433   0.00002   0.00000   0.00009   0.00009   2.01442
   A11        1.87928   0.00001   0.00000   0.00004   0.00004   1.87932
   A12        1.89882  -0.00001   0.00000  -0.00004  -0.00004   1.89878
   A13        1.89879  -0.00000   0.00000  -0.00002  -0.00002   1.89878
   A14        1.95147   0.00000   0.00000   0.00002   0.00002   1.95149
   A15        1.95148  -0.00000   0.00000   0.00000   0.00000   1.95148
   A16        1.88293  -0.00000   0.00000  -0.00001  -0.00001   1.88292
   A17        1.93580  -0.00000   0.00000  -0.00001  -0.00001   1.93579
   A18        1.90242   0.00000   0.00000   0.00000   0.00000   1.90242
   A19        1.90241   0.00000   0.00000   0.00001   0.00001   1.90242
   A20        1.92703   0.00000   0.00000  -0.00000  -0.00000   1.92703
   A21        1.92703  -0.00000   0.00000  -0.00000  -0.00000   1.92703
   A22        1.86762  -0.00000   0.00000  -0.00000  -0.00000   1.86762
   A23        1.94254   0.00000   0.00000   0.00000   0.00000   1.94254
   A24        1.93765   0.00000   0.00000  -0.00000  -0.00000   1.93765
   A25        1.94254   0.00000   0.00000   0.00001   0.00001   1.94254
   A26        1.87903  -0.00000   0.00000  -0.00000  -0.00000   1.87903
   A27        1.88016  -0.00000   0.00000  -0.00000  -0.00000   1.88016
   A28        1.87903  -0.00000   0.00000  -0.00000  -0.00000   1.87903
   A29        2.10182  -0.00000   0.00000  -0.00001  -0.00001   2.10181
   A30        2.10400   0.00000   0.00000   0.00001   0.00001   2.10401
   A31        2.07736   0.00000   0.00000   0.00001   0.00001   2.07736
   A32        2.10771   0.00000   0.00000   0.00001   0.00001   2.10772
   A33        2.05762  -0.00000   0.00000  -0.00001  -0.00001   2.05761
   A34        2.11785   0.00000   0.00000   0.00000   0.00000   2.11785
   A35        2.06287   0.00000   0.00000   0.00000   0.00000   2.06287
   A36        2.12277   0.00000   0.00000   0.00000   0.00000   2.12277
   A37        2.09755  -0.00000   0.00000  -0.00001  -0.00001   2.09754
   A38        2.13012  -0.00000   0.00000  -0.00001  -0.00001   2.13012
   A39        2.07657   0.00000   0.00000   0.00000   0.00000   2.07657
   A40        2.07649   0.00000   0.00000   0.00001   0.00001   2.07650
   A41        2.07882  -0.00000   0.00000  -0.00001  -0.00001   2.07882
   A42        2.10169   0.00000   0.00000   0.00000   0.00000   2.10169
   A43        2.10267   0.00000   0.00000   0.00000   0.00000   2.10268
   A44        1.94354  -0.00000   0.00000  -0.00002  -0.00002   1.94352
   A45        1.95825  -0.00000   0.00000  -0.00002  -0.00002   1.95824
   A46        1.95824  -0.00000   0.00000  -0.00001  -0.00001   1.95823
   A47        1.86478   0.00000   0.00000   0.00001   0.00001   1.86479
   A48        1.86478   0.00000   0.00000   0.00001   0.00001   1.86479
   A49        1.86854   0.00000   0.00000   0.00002   0.00002   1.86857
    D1       -3.14141  -0.00000   0.00000  -0.00003  -0.00003  -3.14144
    D2        0.00013  -0.00000   0.00000  -0.00003  -0.00003   0.00010
    D3        0.00019  -0.00000   0.00000  -0.00002  -0.00002   0.00017
    D4       -3.14146  -0.00000   0.00000  -0.00003  -0.00003  -3.14148
    D5       -3.14157  -0.00000   0.00000  -0.00001  -0.00001  -3.14158
    D6       -0.00001   0.00000   0.00000   0.00002   0.00002   0.00001
    D7        0.00002  -0.00000   0.00000  -0.00002  -0.00002   0.00000
    D8        3.14158   0.00000   0.00000   0.00002   0.00002   3.14159
    D9        3.14159  -0.00000   0.00000  -0.00000  -0.00000   3.14159
   D10       -0.00001   0.00000   0.00000   0.00000   0.00000  -0.00001
   D11        0.00000   0.00000   0.00000   0.00001   0.00001   0.00001
   D12        3.14159   0.00000   0.00000   0.00001   0.00001  -3.14159
   D13       -0.00013   0.00000   0.00000   0.00008   0.00008  -0.00005
   D14        3.14148   0.00000   0.00000   0.00005   0.00005   3.14153
   D15        3.14152   0.00000   0.00000   0.00008   0.00008  -3.14159
   D16       -0.00006   0.00000   0.00000   0.00006   0.00006  -0.00000
   D17       -3.14146  -0.00000   0.00000  -0.00008  -0.00008  -3.14154
   D18        0.00015  -0.00000   0.00000  -0.00011  -0.00011   0.00005
   D19        3.14129   0.00000   0.00000   0.00007   0.00007   3.14137
   D20        1.02322  -0.00000   0.00000   0.00005   0.00005   1.02327
   D21       -1.02383   0.00000   0.00000   0.00009   0.00009  -1.02374
   D22        3.14154   0.00000   0.00000   0.00002   0.00002   3.14156
   D23        1.01634   0.00000   0.00000   0.00002   0.00002   1.01636
   D24       -1.01645   0.00000   0.00000   0.00002   0.00002  -1.01643
   D25       -1.05678  -0.00000   0.00000   0.00001   0.00001  -1.05677
   D26        3.10121   0.00000   0.00000   0.00001   0.00001   3.10122
   D27        1.06842  -0.00000   0.00000   0.00000   0.00000   1.06843
   D28        1.05669  -0.00000   0.00000   0.00001   0.00001   1.05671
   D29       -1.06851   0.00000   0.00000   0.00002   0.00002  -1.06849
   D30       -3.10129  -0.00000   0.00000   0.00001   0.00001  -3.10128
   D31       -1.04884   0.00000   0.00000   0.00003   0.00003  -1.04880
   D32        3.14153   0.00000   0.00000   0.00004   0.00004   3.14156
   D33        1.04871   0.00000   0.00000   0.00004   0.00004   1.04875
   D34        1.06189   0.00000   0.00000   0.00003   0.00003   1.06193
   D35       -1.03093   0.00000   0.00000   0.00004   0.00004  -1.03089
   D36       -3.12374   0.00000   0.00000   0.00003   0.00003  -3.12371
   D37        3.12363  -0.00000   0.00000   0.00003   0.00003   3.12366
   D38        1.03081  -0.00000   0.00000   0.00003   0.00003   1.03084
   D39       -1.06201  -0.00000   0.00000   0.00003   0.00003  -1.06198
   D40       -0.00003   0.00000   0.00000   0.00002   0.00002  -0.00001
   D41        3.14157   0.00000   0.00000   0.00001   0.00001   3.14159
   D42       -3.14159  -0.00000   0.00000  -0.00001  -0.00001   3.14159
   D43        0.00001  -0.00000   0.00000  -0.00002  -0.00002  -0.00001
   D44        0.00002  -0.00000   0.00000  -0.00001  -0.00001   0.00000
   D45       -3.14156  -0.00000   0.00000  -0.00002  -0.00002  -3.14159
   D46       -3.14158  -0.00000   0.00000  -0.00000  -0.00000  -3.14159
   D47        0.00002  -0.00000   0.00000  -0.00001  -0.00001   0.00001
   D48        0.00000   0.00000   0.00000   0.00000   0.00000   0.00000
   D49       -3.14159  -0.00000   0.00000  -0.00000  -0.00000   3.14159
   D50        3.14158   0.00000   0.00000   0.00001   0.00001  -3.14159
   D51       -0.00001   0.00000   0.00000   0.00001   0.00001  -0.00000
   D52        3.14157   0.00000   0.00000   0.00001   0.00001   3.14158
   D53       -1.05229  -0.00000   0.00000   0.00001   0.00001  -1.05228
   D54        1.05224   0.00000   0.00000   0.00002   0.00002   1.05226
   D55       -0.00001   0.00000   0.00000   0.00000   0.00000  -0.00001
   D56        2.08932  -0.00000   0.00000  -0.00000  -0.00000   2.08931
   D57       -2.08934   0.00000   0.00000   0.00001   0.00001  -2.08933
   D58       -0.00001   0.00000   0.00000   0.00000   0.00000  -0.00001
   D59        3.14159  -0.00000   0.00000  -0.00000  -0.00000   3.14159
   D60        3.14158   0.00000   0.00000   0.00001   0.00001   3.14159
   D61       -0.00000   0.00000   0.00000   0.00000   0.00000   0.00000
         Item               Value     Threshold  Converged?
 Maximum Force            0.000047     0.000450     YES
 RMS     Force            0.000007     0.000300     YES
 Maximum Displacement     0.000710     0.001800     YES
 RMS     Displacement     0.000194     0.001200     YES
 Predicted change in Energy=-1.241650D-08
 Optimization completed.
    -- Stationary point found.
                           ----------------------------
                           !   Optimized Parameters   !
                           ! (Angstroms and Degrees)  !
 --------------------------                            --------------------------
 ! Name  Definition              Value          Derivative Info.                !
 --------------------------------------------------------------------------------
 ! R1    R(1,2)                  1.3972         -DE/DX =    0.0                 !
 ! R2    R(1,9)                  1.3993         -DE/DX =    0.0                 !
 ! R3    R(1,13)                 1.3968         -DE/DX =    0.0                 !
 ! R4    R(2,3)                  1.3741         -DE/DX =    0.0                 !
 ! R5    R(2,14)                 1.0094         -DE/DX =    0.0                 !
 ! R6    R(3,4)                  1.2028         -DE/DX =    0.0                 !
 ! R7    R(3,5)                  1.3428         -DE/DX =    0.0                 !
 ! R8    R(5,6)                  1.4364         -DE/DX =    0.0                 !
 ! R9    R(6,7)                  1.5133         -DE/DX =    0.0                 !
 ! R10   R(6,15)                 1.0927         -DE/DX =    0.0                 !
 ! R11   R(6,16)                 1.0927         -DE/DX =    0.0                 !
 ! R12   R(7,8)                  1.5263         -DE/DX =    0.0                 !
 ! R13   R(7,17)                 1.0934         -DE/DX =    0.0                 !
 ! R14   R(7,18)                 1.0934         -DE/DX =    0.0                 !
 ! R15   R(8,19)                 1.0927         -DE/DX =    0.0                 !
 ! R16   R(8,20)                 1.0906         -DE/DX =    0.0                 !
 ! R17   R(8,21)                 1.0927         -DE/DX =    0.0                 !
 ! R18   R(9,10)                 1.3824         -DE/DX =    0.0                 !
 ! R19   R(9,22)                 1.0842         -DE/DX =    0.0                 !
 ! R20   R(10,11)                1.3958         -DE/DX =    0.0                 !
 ! R21   R(10,23)                1.7374         -DE/DX =    0.0                 !
 ! R22   R(11,12)                1.3903         -DE/DX =    0.0                 !
 ! R23   R(11,24)                1.5033         -DE/DX =    0.0                 !
 ! R24   R(12,13)                1.3874         -DE/DX =    0.0                 !
 ! R25   R(12,25)                1.0826         -DE/DX =    0.0                 !
 ! R26   R(13,26)                1.0787         -DE/DX =    0.0                 !
 ! R27   R(24,27)                1.3408         -DE/DX =    0.0                 !
 ! R28   R(24,28)                1.3404         -DE/DX =    0.0                 !
 ! R29   R(24,29)                1.3404         -DE/DX =    0.0                 !
 ! A1    A(2,1,9)              116.8296         -DE/DX =    0.0                 !
 ! A2    A(2,1,13)             123.7075         -DE/DX =    0.0                 !
 ! A3    A(9,1,13)             119.4629         -DE/DX =    0.0                 !
 ! A4    A(1,2,3)              127.4805         -DE/DX =    0.0                 !
 ! A5    A(1,2,14)             117.4221         -DE/DX =    0.0                 !
 ! A6    A(3,2,14)             115.0974         -DE/DX =    0.0                 !
 ! A7    A(2,3,4)              126.494          -DE/DX =    0.0                 !
 ! A8    A(2,3,5)              108.7696         -DE/DX =    0.0                 !
 ! A9    A(4,3,5)              124.7364         -DE/DX =    0.0                 !
 ! A10   A(3,5,6)              115.4126         -DE/DX =    0.0                 !
 ! A11   A(5,6,7)              107.6747         -DE/DX =    0.0                 !
 ! A12   A(5,6,15)             108.7942         -DE/DX =    0.0                 !
 ! A13   A(5,6,16)             108.7929         -DE/DX =    0.0                 !
 ! A14   A(7,6,15)             111.8109         -DE/DX =    0.0                 !
 ! A15   A(7,6,16)             111.8116         -DE/DX =    0.0                 !
 ! A16   A(15,6,16)            107.8837         -DE/DX =    0.0                 !
 ! A17   A(6,7,8)              110.9133         -DE/DX =    0.0                 !
 ! A18   A(6,7,17)             109.0005         -DE/DX =    0.0                 !
 ! A19   A(6,7,18)             108.9999         -DE/DX =    0.0                 !
 ! A20   A(8,7,17)             110.4108         -DE/DX =    0.0                 !
 ! A21   A(8,7,18)             110.4109         -DE/DX =    0.0                 !
 ! A22   A(17,7,18)            107.0069         -DE/DX =    0.0                 !
 ! A23   A(7,8,19)             111.2993         -DE/DX =    0.0                 !
 ! A24   A(7,8,20)             111.0192         -DE/DX =    0.0                 !
 ! A25   A(7,8,21)             111.2991         -DE/DX =    0.0                 !
 ! A26   A(19,8,20)            107.6606         -DE/DX =    0.0                 !
 ! A27   A(19,8,21)            107.7254         -DE/DX =    0.0                 !
 ! A28   A(20,8,21)            107.6605         -DE/DX =    0.0                 !
 ! A29   A(1,9,10)             120.4256         -DE/DX =    0.0                 !
 ! A30   A(1,9,22)             120.5505         -DE/DX =    0.0                 !
 ! A31   A(10,9,22)            119.0238         -DE/DX =    0.0                 !
 ! A32   A(9,10,11)            120.7631         -DE/DX =    0.0                 !
 ! A33   A(9,10,23)            117.8929         -DE/DX =    0.0                 !
 ! A34   A(11,10,23)           121.3439         -DE/DX =    0.0                 !
 ! A35   A(10,11,12)           118.1936         -DE/DX =    0.0                 !
 ! A36   A(10,11,24)           121.6257         -DE/DX =    0.0                 !
 ! A37   A(12,11,24)           120.1807         -DE/DX =    0.0                 !
 ! A38   A(11,12,13)           122.0471         -DE/DX =    0.0                 !
 ! A39   A(11,12,25)           118.9786         -DE/DX =    0.0                 !
 ! A40   A(13,12,25)           118.9743         -DE/DX =    0.0                 !
 ! A41   A(1,13,12)            119.1077         -DE/DX =    0.0                 !
 ! A42   A(1,13,26)            120.418          -DE/DX =    0.0                 !
 ! A43   A(12,13,26)           120.4743         -DE/DX =    0.0                 !
 ! A44   A(11,24,27)           111.3564         -DE/DX =    0.0                 !
 ! A45   A(11,24,28)           112.1995         -DE/DX =    0.0                 !
 ! A46   A(11,24,29)           112.199          -DE/DX =    0.0                 !
 ! A47   A(27,24,28)           106.844          -DE/DX =    0.0                 !
 ! A48   A(27,24,29)           106.844          -DE/DX =    0.0                 !
 ! A49   A(28,24,29)           107.0597         -DE/DX =    0.0                 !
 ! D1    D(9,1,2,3)           -179.9894         -DE/DX =    0.0                 !
 ! D2    D(9,1,2,14)             0.0075         -DE/DX =    0.0                 !
 ! D3    D(13,1,2,3)             0.0108         -DE/DX =    0.0                 !
 ! D4    D(13,1,2,14)         -179.9923         -DE/DX =    0.0                 !
 ! D5    D(2,1,9,10)          -179.9987         -DE/DX =    0.0                 !
 ! D6    D(2,1,9,22)            -0.0007         -DE/DX =    0.0                 !
 ! D7    D(13,1,9,10)            0.0011         -DE/DX =    0.0                 !
 ! D8    D(13,1,9,22)          179.9991         -DE/DX =    0.0                 !
 ! D9    D(2,1,13,12)          179.9999         -DE/DX =    0.0                 !
 ! D10   D(2,1,13,26)           -0.0006         -DE/DX =    0.0                 !
 ! D11   D(9,1,13,12)            0.0001         -DE/DX =    0.0                 !
 ! D12   D(9,1,13,26)         -180.0004         -DE/DX =    0.0                 !
 ! D13   D(1,2,3,4)             -0.0074         -DE/DX =    0.0                 !
 ! D14   D(1,2,3,5)            179.9937         -DE/DX =    0.0                 !
 ! D15   D(14,2,3,4)          -180.0044         -DE/DX =    0.0                 !
 ! D16   D(14,2,3,5)            -0.0033         -DE/DX =    0.0                 !
 ! D17   D(2,3,5,6)           -179.9925         -DE/DX =    0.0                 !
 ! D18   D(4,3,5,6)              0.0086         -DE/DX =    0.0                 !
 ! D19   D(3,5,6,7)            179.9827         -DE/DX =    0.0                 !
 ! D20   D(3,5,6,15)            58.6264         -DE/DX =    0.0                 !
 ! D21   D(3,5,6,16)           -58.661          -DE/DX =    0.0                 !
 ! D22   D(5,6,7,8)            179.997          -DE/DX =    0.0                 !
 ! D23   D(5,6,7,17)            58.2319         -DE/DX =    0.0                 !
 ! D24   D(5,6,7,18)           -58.2381         -DE/DX =    0.0                 !
 ! D25   D(15,6,7,8)           -60.5488         -DE/DX =    0.0                 !
 ! D26   D(15,6,7,17)          177.686          -DE/DX =    0.0                 !
 ! D27   D(15,6,7,18)           61.216          -DE/DX =    0.0                 !
 ! D28   D(16,6,7,8)            60.5441         -DE/DX =    0.0                 !
 ! D29   D(16,6,7,17)          -61.2211         -DE/DX =    0.0                 !
 ! D30   D(16,6,7,18)         -177.691          -DE/DX =    0.0                 !
 ! D31   D(6,7,8,19)           -60.094          -DE/DX =    0.0                 !
 ! D32   D(6,7,8,20)           179.9962         -DE/DX =    0.0                 !
 ! D33   D(6,7,8,21)            60.0867         -DE/DX =    0.0                 !
 ! D34   D(17,7,8,19)           60.8421         -DE/DX =    0.0                 !
[...]
 .00000745,-0.00001443,0.00000296,-0.00004830,0.00001196,-0.00000072,0.
 00000743,-0.00001470,0.00000101,0.00001273,-0.00094388,0.00007488,0.16
 711568,0.00260290,0.00119552,0.00062358,-0.00123890,-0.00016314,0.0000
 5169,0.00167586,-0.00025350,-0.00003096,-0.00065022,0.00010870,0.00000
 638,-0.00111143,0.00046315,-0.00004521,0.00043663,0.00010777,-0.000023
 50,-0.00002488,-0.00006622,0.00001061,-0.00000482,0.00005497,-0.000008
 05,-0.00683483,-0.00012233,0.00079205,-0.06886782,-0.09930899,0.012683
 80,-0.03160872,-0.02211243,0.00445011,0.00552925,-0.00417809,0.0011032
 3,-0.00155440,-0.00044605,-0.00005078,0.00000146,-0.00015377,0.0000266
 3,-0.00003397,-0.00002277,0.00001039,-0.00003521,-0.00002440,-0.000001
 90,0.00000216,0.00000917,0.00000592,0.00000193,0.00000689,-0.00000816,
 0.00000664,-0.00001100,0.00000063,-0.00003623,0.00001025,-0.00000078,0
 .00000677,-0.00001066,0.00000233,0.00080753,0.00120838,-0.00061719,0.1
 0238334,0.13015296,-0.00026459,0.00052426,0.00576767,0.00023724,0.0000
 6674,-0.00001039,-0.00029880,-0.00000531,-0.00020792,0.00011437,-0.000
 00294,0.00005326,0.00019764,-0.00007854,-0.00000363,-0.00007651,-0.000
 01811,0.00001658,0.00000471,0.00001216,0.00000049,0.00000082,-0.000009
 84,0.00000083,0.00193152,0.00132782,0.00402185,0.01226946,0.01268649,-
 0.02522811,0.00477076,0.00394544,0.00282947,-0.00071326,0.00123187,0.0
 0401158,0.00020383,-0.00001731,-0.00102711,-0.00000274,0.00003091,0.00
 002385,0.00000943,0.00000342,-0.00000152,0.00000302,0.00000496,0.00000
 042,-0.00000069,-0.00000073,-0.00000035,-0.00000012,-0.00000179,0.0000
 0217,-0.00000146,0.00000164,0.00000013,0.00000636,-0.00000183,-0.00000
 030,-0.00000082,0.00000225,-0.00000019,-0.00018190,-0.00057879,-0.0027
 9254,-0.01839569,-0.01944970,0.01605776,-0.00933268,0.00225635,-0.0001
 4014,0.01308819,-0.00122734,-0.00012813,-0.01046671,-0.00382043,0.0007
 9051,0.00237688,0.00268842,-0.00045072,0.00527893,-0.00164730,0.000126
 99,-0.00211349,-0.00050631,0.00012271,0.00011748,0.00027946,-0.0000433
 1,0.00000194,-0.00023957,0.00003521,0.00743203,-0.00256981,0.00032891,
 0.00788436,0.02326525,-0.00362904,-0.19607988,0.03766662,-0.00265240,-
 0.02835734,0.00208440,0.00033381,0.00280214,-0.00647434,0.00103045,0.0
 0003376,0.00067500,-0.00009606,0.00021706,0.00009798,-0.00001482,0.000
 21713,0.00009719,-0.00002397,-0.00002679,-0.00002276,0.00000488,-0.000
 02691,-0.00002243,0.00000248,-0.00001939,0.00005090,-0.00002248,0.0001
 5503,-0.00004393,0.00000320,-0.00001901,0.00005487,0.00000745,0.001350
 54,-0.00081362,0.00011214,-0.00760595,-0.00553918,0.00091535,0.6032742
 8,0.00253837,-0.00430428,0.00047922,-0.00503047,0.00008379,-0.00004454
 ,0.00408155,0.00203908,-0.00037691,-0.00101207,-0.00137303,0.00019078,
 -0.00200016,0.00046473,-0.00001830,0.00082364,0.00024774,-0.00003706,-
 0.00005138,-0.00009165,0.00001625,0.00000642,0.00008740,-0.00001232,-0
 .00062472,-0.00623680,0.00169599,0.03260398,-0.00786490,0.00013274,0.0
 4549099,-0.11224812,0.00585386,-0.00852558,0.02040934,-0.00269404,-0.0
 0757294,-0.00274263,0.00152435,0.00002754,-0.00019395,0.00005290,-0.00
 008818,-0.00003851,-0.00001305,-0.00008644,-0.00002996,0.00002219,0.00
 001432,-0.00000145,-0.00001704,0.00001460,0.00000729,0.00001270,0.0000
 0212,-0.00001555,0.00001804,-0.00005167,0.00001101,0.00000025,-0.00000
 024,-0.00002312,-0.00001460,0.00119726,-0.00010817,0.00013986,-0.00051
 343,-0.00238539,-0.00006346,-0.02811332,0.56319265,-0.00018154,0.00048
 517,-0.00072206,0.00042858,-0.00012758,-0.00096193,-0.00036668,-0.0002
 0373,0.00011402,0.00009132,0.00010965,-0.00023988,0.00017810,-0.000025
 84,0.00004161,-0.00007174,-0.00000803,0.00011974,0.00000520,0.00000898
 ,0.00001011,-0.00000089,-0.00000690,0.00000539,0.00004342,0.00173895,0
 .00498437,-0.00499810,0.00033783,-0.00201530,-0.00379848,0.00602527,-0
 .06629336,0.00188906,-0.00292681,0.00114146,0.00119172,0.00150007,0.00
 627528,-0.00000102,0.00003860,0.00016506,0.00000432,-0.00001047,-0.000
 01202,0.00001104,0.00001150,-0.00002055,-0.00000036,-0.00001567,-0.000
 00520,-0.00000311,0.00001295,-0.00001384,0.00000572,0.00000953,-0.0000
 1116,0.00000428,0.00000010,0.00000500,-0.00000548,-0.00000839,-0.00000
 400,-0.00018268,0.00018404,0.00100224,0.00017877,0.00004699,-0.0029059
 6,0.00224633,-0.00601436,0.51876166,-0.00509887,0.00201535,-0.00002250
 ,0.00009506,0.00140881,-0.00020992,0.00051445,0.00054349,-0.00008864,-
 0.00003715,-0.00039205,0.00005833,-0.00018187,-0.00009212,0.00001658,0
 .00005633,0.00003005,-0.00000511,-0.00001097,-0.00000929,0.00000163,0.
 00000041,0.00000635,-0.00000091,-0.00131802,-0.00028714,0.00005001,-0.
 00307298,-0.00218467,0.00051815,0.00835146,-0.02327170,0.00332855,-0.0
 6550691,0.04506018,-0.00603634,-0.00026053,0.02865678,-0.00409437,-0.0
 0037671,0.00010390,-0.00001185,-0.00001225,-0.00000252,-0.00000387,-0.
 00001196,-0.00000125,0.00000485,0.00000213,-0.00000152,-0.00000156,0.0
 0000219,-0.00000094,0.00000177,-0.00000093,0.,0.00000175,-0.00000273,-
 0.00000143,0.00000027,-0.00000105,-0.00000055,-0.00000168,0.00005336,0
 .00003041,-0.00001379,-0.00051366,-0.00168778,0.00026384,-0.00000680,-
 0.00393128,0.00051363,0.06937140,0.00111066,0.00129474,0.00085943,0.00
 007790,-0.00028905,0.00003174,-0.00021884,-0.00018773,0.00004694,0.000
 02226,0.00011964,-0.00001758,0.00009220,0.00000193,-0.00000817,-0.0000
 2814,-0.00001123,0.00000567,0.00000349,0.00000485,-0.00000062,0.000000
 15,-0.00000340,0.00000072,-0.00006298,0.00061899,-0.00022973,-0.002758
 72,0.00000320,0.00093056,0.00326583,-0.01424859,0.00268881,0.04341303,
 -0.33822757,0.04281994,-0.00002231,-0.00446278,0.00132754,0.00007165,0
 .00002518,-0.00003742,0.00000485,0.00000189,-0.00000055,0.00000553,0.0
 0000180,-0.00000090,-0.00000064,-0.00000059,0.00000038,-0.00000074,-0.
 00000011,-0.00000060,0.00000019,0.00000066,-0.00000042,0.00000168,-0.0
 0000006,-0.00000002,-0.00000006,0.00000041,-0.00000009,0.00002926,-0.0
 0006499,-0.00004558,-0.00006682,-0.00068139,0.00013593,0.00071826,-0.0
 0295631,-0.00000157,-0.04880355,0.35622070,0.00011004,0.00083937,0.007
 19894,-0.00001494,0.00000264,-0.00006095,0.00002302,0.00003026,0.00009
 507,-0.00000243,-0.00000851,0.00000424,-0.00001043,-0.00000412,-0.0000
 3923,0.00000341,0.00000441,0.00002260,-0.00000025,-0.00000034,0.000001
 18,0.,0.00000059,0.00000147,0.00001726,-0.00022482,-0.00092487,0.00060
 222,0.00091810,0.00579023,-0.00056173,0.00327129,0.00411639,-0.0057945
 0,0.04278367,-0.04575343,0.00010953,0.00069794,0.00448540,-0.00000707,
 -0.00003816,-0.00021381,-0.00000288,-0.00000044,-0.00000215,0.00000179
 ,-0.00000071,-0.00000236,0.00000028,-0.00000219,-0.00000091,-0.0000002
 3,0.00000200,-0.00000145,0.00000085,0.00000072,-0.00000133,-0.00000019
 ,0.00000005,0.00000008,-0.00000088,-0.00000121,-0.00000097,-0.00001362
 ,-0.00004561,-0.00036461,0.00002626,0.00017157,0.00021025,-0.00016792,
 0.00010059,-0.00287022,0.00622736,-0.04716076,0.03395780,0.01218128,0.
 00433006,-0.00080426,-0.00317989,-0.00208929,0.00029824,0.00196294,0.0
 0764160,-0.00116562,-0.00842053,-0.00236208,0.00051239,0.00051854,-0.0
 0141352,0.00020845,-0.00046504,-0.00009432,0.00002799,0.00000053,0.000
 03973,-0.00000605,0.00000424,-0.00004243,0.00000631,0.00003831,0.00215
 744,-0.00018593,-0.00018730,0.00069114,-0.00011359,-0.00320432,0.00280
 890,-0.00019025,-0.01596119,-0.01716324,0.00292734,-0.23290895,-0.1499
 5836,0.02628042,-0.00011097,-0.00012450,0.00001333,-0.00001571,0.00003
 480,-0.00001271,-0.00001608,0.00003761,0.00000130,0.00000322,-0.000012
 04,-0.00000224,0.00000317,-0.00001033,0.00000516,-0.00000456,0.0000098
 8,-0.00000068,0.00002564,-0.00000775,0.00000055,-0.00000484,0.00000952
 ,-0.00000215,0.00045303,0.00053450,-0.00008881,0.00028548,0.00013955,-
 0.00004045,0.00001785,-0.00114419,0.00017895,0.00087328,0.00010071,-0.
 00013315,0.24861452,-0.02514893,-0.01379301,0.00322946,0.00079225,0.00
 203124,-0.00083262,0.00048279,-0.00539851,0.00076052,-0.00172180,0.002
 54672,-0.00045436,-0.00057309,0.00108240,-0.00006143,0.00037140,0.0001
 1538,0.00000203,-0.00000385,-0.00002927,0.00000312,0.00000341,0.000036
 54,-0.00000426,0.00212126,-0.00456123,0.00149872,0.00118593,-0.0010084
 7,0.00001250,0.00340461,0.00032394,0.00088703,0.01100556,0.01232123,-0
 .00164133,-0.14630729,-0.18285251,0.02456022,-0.00005677,-0.00005372,-
 0.00004036,-0.00000042,-0.00001873,0.00000798,-0.00000564,-0.00001672,
 -0.00001250,-0.00000451,0.00000723,-0.00000107,-0.00000598,0.00001113,
 -0.00000285,0.00000322,-0.00000615,0.00000469,-0.00002338,0.00000352,-
 0.00000021,0.00000139,-0.00000839,-0.00000388,-0.00111592,-0.00067568,
 0.00011998,-0.00010189,0.00014438,-0.00011065,0.00005438,0.00085116,-0
 .00004818,-0.00033094,0.00059286,-0.00074243,0.15553808,0.18863791,0.0
 0351711,0.00258235,0.00401335,-0.00012424,-0.00076957,-0.00341543,-0.0
 0011646,0.00060507,-0.00022252,0.00041898,-0.00044070,-0.00075436,0.00
 008521,-0.00004335,0.00058201,-0.00004026,0.00001219,0.00018337,0.0000
 0036,0.00000214,-0.00000910,-0.00000042,-0.00000325,0.00000853,-0.0001
 8074,0.00149804,0.00576529,-0.00018604,0.00002316,-0.00074517,-0.00027
 732,0.00090013,0.00675959,-0.00120182,-0.00102229,0.00294978,0.0257448
 0,0.02463904,-0.04140675,0.00000340,-0.00003882,-0.00033171,0.00001626
 ,-0.00002016,-0.00003237,-0.00001615,0.00001390,-0.00003401,0.00000553
 ,-0.00001575,-0.00000280,-0.00000435,0.00001209,-0.00000666,0.00000526
 ,0.00000338,-0.00000546,0.00000284,-0.00000055,-0.00000138,-0.00000591
 ,-0.00000290,-0.00000295,0.00015313,0.00008374,-0.00004003,-0.00000508
 ,-0.00011595,-0.00060860,0.00000325,-0.00002183,0.00053350,-0.00007000
 ,-0.00075188,-0.00440970,-0.02767780,-0.02718407,0.03109043,0.00108256
 ,-0.00009904,-0.00000904,-0.00174859,0.00019181,0.00001065,0.00174797,
 0.00040039,-0.00009583,-0.00050678,-0.00032950,0.00005992,-0.00097185,
 0.00030969,-0.00002393,0.00040165,0.00010205,-0.00002425,-0.00002123,-
 0.00004995,0.00000767,0.00000042,0.00004478,-0.00000658,-0.00040094,0.
 00213015,-0.00031248,-0.00711854,-0.00253342,0.00056676,0.00059282,0.0
 3741591,-0.00531231,-0.00420369,0.00041793,0.00003970,0.00062004,0.001
 58016,-0.00024485,0.00001034,-0.00009296,0.00001219,-0.00003723,-0.000
 01999,0.00000272,-0.00003730,-0.00001977,0.00000485,0.00000529,0.00000
 418,-0.00000207,0.00000538,0.00000446,0.00000065,0.00000362,-0.0000101
 0,0.00000486,-0.00002963,0.00000900,-0.00000069,0.00000352,-0.00001102
 ,-0.00000185,-0.00054029,0.00020172,-0.00002397,0.00112750,0.00047091,
 -0.00008827,-0.08491278,0.02091584,-0.00281522,-0.00358141,0.00328670,
 -0.00041214,0.00008186,-0.00003015,0.00000286,0.08911126,-0.00232942,0
 .00064053,-0.00004115,0.00302476,0.00026464,-0.00010200,-0.00245802,-0
 .00137642,0.00026252,0.00055430,0.00095995,-0.00014887,0.00118116,-0.0
 0021601,0.00000741,-0.00048644,-0.00015024,0.00002887,0.00003344,0.000
 05396,-0.00000947,-0.00000419,-0.00005169,0.00000769,0.00049723,-0.001
 47636,0.00014551,0.00616747,0.00225518,-0.00020598,0.00509817,-0.03897
 308,0.00683290,-0.00510398,-0.00402056,0.00075861,0.00134296,0.0006547
 7,-0.00012360,-0.00014710,0.00011110,-0.00002104,0.00005410,0.00002176
 ,0.00000759,0.00005305,0.00001793,-0.00001500,-0.00000916,0.00000059,0
 .00000998,-0.00000940,-0.00000288,-0.00000872,-0.00000088,0.00000968,-
 0.00001137,0.00003093,-0.00000645,0.00000018,-0.00000016,0.00001301,0.
 00000844,0.00064787,-0.00021271,-0.00002468,0.00037740,0.00065812,-0.0
 0006796,0.02934313,-0.27230120,0.02848998,0.00194859,0.00176197,-0.000
 36162,0.00017798,-0.00012061,0.00001522,0.00680716,0.40547032,0.000317
 91,-0.00009012,0.00001678,-0.00040450,-0.00003998,0.00003546,0.0003229
 3,0.00020003,0.00001191,-0.00006953,-0.00012957,0.00004705,-0.00015155
 ,0.00002641,0.00001001,0.00006192,0.00001605,-0.00002911,-0.00000456,-
 0.00000764,-0.00000441,0.00000061,0.00000661,-0.00000087,-0.00007310,0
 .00010953,-0.00042390,-0.00070856,-0.00001478,0.00179242,-0.00057569,0
 .00612318,0.00752552,0.00084897,0.00063721,0.00027734,-0.00021012,-0.0
 0012873,0.00003700,0.00002014,-0.00002221,-0.00005161,-0.00000503,-0.0
 0000057,0.00000105,-0.00000893,-0.00000363,0.00000494,0.00000065,0.000
 00259,0.00000001,0.00000191,-0.00000192,0.00000341,-0.00000092,-0.0000
 0245,0.00000307,-0.00000390,0.00000065,-0.00000068,0.00000097,-0.00000
 003,-0.00000015,-0.00008932,-0.00001494,-0.00028019,-0.00007457,-0.000
 07001,0.00026299,-0.00405026,0.02867524,-0.07763374,-0.00021600,-0.000
 39099,-0.00035074,-0.00002767,0.00001981,0.00000773,-0.00115806,-0.047
 58836,0.08880037,0.00274998,-0.00193651,-0.00000227,-0.00436118,0.0005
 6977,-0.00013883,0.00351929,0.00111872,-0.00030519,-0.00085808,-0.0007
 9611,0.00014087,-0.00180991,0.00061378,-0.00000293,0.00072447,0.000168
 20,-0.00004118,-0.00003863,-0.00009628,0.00001314,-0.00000155,0.000081
 69,-0.00001468,-0.00125726,0.00022359,0.00116737,-0.00263628,-0.006372
 33,0.00102747,-0.03072614,-0.01507295,-0.03512825,0.00013987,0.0048641
 6,-0.00262408,-0.00213548,0.00159189,0.00187997,-0.00005476,-0.0002333
 9,-0.00000681,-0.00006935,-0.00003393,0.00000705,-0.00007695,-0.000033
 69,0.00000736,0.00000826,0.00001095,0.00000035,0.00000958,0.00000600,0
 .00000004,0.00000633,-0.00001891,0.00000841,-0.00005353,0.00001532,-0.
 00000205,0.00000778,-0.00001724,-0.00000098,-0.00022780,0.00019606,0.0
 0002980,0.00221056,0.00252012,-0.00116758,-0.15677625,-0.03903813,-0.0
 9142669,0.00032368,-0.00027043,-0.00103606,-0.00029141,0.00026994,0.00
 019948,0.00409810,-0.02595801,-0.00870466,0.16686050,0.00018493,0.0004
 2156,-0.00003197,-0.00003749,0.00015795,-0.00001201,-0.00005897,-0.000
 14698,-0.00001179,0.00002317,0.00010092,0.00001281,0.00002909,0.000039
 00,-0.00000443,-0.00002246,-0.00001980,-0.00000752,0.00000261,-0.00000
 204,-0.00000247,-0.00000206,-0.00000090,-0.00000008,-0.00043817,0.0009
 0530,0.00015566,-0.00330359,-0.00264377,-0.00022491,0.00161514,0.01127
 220,-0.00003740,0.00013817,-0.00111037,0.00084535,0.00064950,0.0004979
 5,-0.00021087,-0.00003942,-0.00002267,-0.00001235,0.00000366,0.0000025
 7,0.00000490,0.00000153,-0.00000183,-0.00000236,-0.00000128,0.00000345
 ,0.00000456,-0.00000126,-0.00000086,-0.00000250,0.00000056,-0.00000096
 ,-0.00000176,-0.00000033,0.00000046,-0.00000065,0.00000191,0.00000200,
 0.00000323,-0.00020966,0.00007529,0.00001595,0.00282352,-0.00155106,0.
 00178183,-0.03871159,-0.09736792,-0.04963278,0.00065663,0.00024897,-0.
 00017454,0.00005559,-0.00007163,-0.00008281,-0.03862168,-0.05966937,-0
 .04244145,0.07411277,0.13761755,0.00113130,-0.00068808,-0.00017720,-0.
 00161011,0.00025212,0.00005366,0.00138204,0.00030738,-0.00011957,-0.00
 039682,-0.00022445,0.00009721,-0.00075128,0.00027521,0.00001331,0.0002
 9870,0.00006546,-0.00005135,-0.00001651,-0.00004109,-0.00000260,-0.000
 00119,0.00003482,-0.00000686,-0.00065100,0.00035315,0.00031924,-0.0006
 1156,-0.00275465,0.00102086,-0.01572580,-0.00883076,-0.00590845,-0.001
 67468,0.00278581,-0.00128260,-0.00101289,-0.00004237,0.00064036,-0.000
 01774,-0.00009030,-0.00005873,-0.00002494,-0.00001107,0.00000747,-0.00
 003283,-0.00001818,0.00000653,0.00000224,0.00001015,0.00000279,0.00000
 431,-0.00000099,0.00000337,0.00000118,-0.00001056,0.00000577,-0.000022
 58,0.00000636,-0.00000229,0.00000499,-0.00000419,0.00000180,-0.0001104
 5,0.00008647,-0.00008545,0.00045885,0.00224900,-0.00077894,-0.09116648
 ,-0.04697151,-0.17546339,0.00030784,0.00000322,-0.00043627,-0.00019184
 ,0.00018474,0.00005718,-0.00845617,-0.02968758,0.00320548,0.13022363,0
 .10096256,0.26438159,0.00270687,-0.00184614,0.00042614,-0.00428105,0.0
 0060127,0.00015875,0.00345962,0.00112317,-0.00017823,-0.00084053,-0.00
 078718,0.00013081,-0.00177807,0.00058799,-0.00009315,0.00071107,0.0001
 6512,-0.00004046,-0.00003784,-0.00009401,0.00001604,-0.00000137,0.0000
 8089,-0.00000919,-0.00127487,-0.00012877,-0.00110764,-0.00258714,-0.00
 623526,0.00095701,-0.02841319,-0.00394741,0.03886509,0.00029133,0.0052
 8380,0.00109056,-0.00218177,0.00100425,-0.00213808,-0.00005203,-0.0002
 1795,0.00007215,-0.00007546,-0.00003303,0.00000587,-0.00006829,-0.0000
 3354,0.00000611,0.00000934,0.00000577,-0.00000204,0.00000809,0.0000099
 2,-0.00000354,0.00000768,-0.00001608,0.00000561,-0.00005247,0.00001528
 ,-0.00000022,0.00000604,-0.00002004,-0.00000278,-0.00022393,0.00017544
 ,-0.00007735,0.00220260,0.00264332,0.00030454,-0.14850363,-0.00993243,
 0.09688155,0.00035106,0.00002886,0.00103638,-0.00029310,0.00019634,-0.
 00025187,0.00521792,-0.02083295,0.01496090,0.02071616,0.00114920,-0.01
 134021,0.15497696,-0.00016923,0.00058285,-0.00018822,0.00045356,0.0000
 7688,-0.00001613,-0.00047420,-0.00023026,0.00006413,0.00014096,0.00016
 293,-0.00003787,0.00025514,-0.00004282,0.00000984,-0.00011174,-0.00003
 871,0.00000844,0.00000748,0.00001044,-0.00000169,-0.00000163,-0.000011
 45,0.00000143,-0.00023189,0.00071939,-0.00025772,-0.00293709,-0.001464
 53,0.00110863,0.00608022,0.01228311,-0.00591906,0.00057186,-0.00216020
 ,-0.00062601,0.00093938,0.00056720,0.00020313,-0.00003255,0.00000417,-
 0.00000507,0.00001151,0.00000464,0.00000247,0.00001095,0.00000482,-0.0
 0000455,-0.00000235,0.00000042,0.00000349,-0.00000208,-0.00000070,-0.0
 0000343,0.00000022,0.00000234,-0.00000342,0.00000650,-0.00000147,0.000
 00010,0.00000028,0.00000311,0.00000261,-0.00016956,0.00003385,-0.00004
 391,0.00248748,-0.00262906,-0.00134872,-0.00958027,-0.07711126,0.02003
 071,0.00053820,0.00023603,-0.00005777,0.00011495,-0.00009100,0.0001234
 4,-0.03247527,-0.03431592,0.05513005,0.00351499,0.01126500,-0.01820069
 ,0.03105418,0.09214019,-0.00126434,0.00055126,-0.00029534,0.00174125,-
 0.00029688,0.00005479,-0.00145940,-0.00031592,0.00002313,0.00041266,0.
 00023775,0.00001772,0.00079009,-0.00028998,0.00006346,-0.00031214,-0.0
 0007480,-0.00001916,0.00001631,0.00004134,-0.00001589,0.00000172,-0.00
 003712,0.00000352,0.00082307,-0.00047191,0.00052291,0.00166256,0.00377
 836,-0.00020758,0.01554689,0.00346116,-0.00923316,0.00152457,-0.002773
 90,-0.00038400,0.00090227,0.00001260,0.00061714,0.00002738,0.00008121,
 -0.00008833,0.00003437,0.00002002,-0.00000139,0.00002610,0.00001323,0.
 00000413,-0.00000407,0.00000164,0.00000231,-0.00000189,-0.00000954,0.0
 0000712,-0.00000557,0.00000478,0.00000154,0.00002393,-0.00000744,-0.00
 000140,-0.00000140,0.00001227,0.00000199,0.00017290,-0.00013092,-0.000
 04786,-0.00134354,-0.00181273,0.00030624,0.09652207,0.01738404,-0.2039
 8684,-0.00051803,-0.00020401,-0.00045066,0.00018276,-0.00015059,0.0000
 7822,0.01827489,0.04184251,-0.02326712,0.00589732,-0.01089220,-0.08544
 292,-0.13967272,-0.04997424,0.32173740\\-0.00000409,0.00000053,0.00000
 039,-0.00001739,0.00001275,-0.00000104,0.00000380,-0.00001389,0.000007
 29,0.00000706,-0.00001310,-0.00000146,0.00002433,-0.00000298,-0.000005
 11,-0.00000379,0.00000752,0.00000225,-0.00000175,0.00000664,-0.0000002
 5,-0.00000120,-0.00000149,0.00000008,0.00000041,-0.00000137,0.00000354
 ,-0.00000386,-0.00000093,-0.00000083,-0.00000234,0.00000084,-0.0000000
 5,-0.00000003,0.00000158,-0.00000067,0.00000024,0.00000365,-0.00000105
 ,-0.00000075,0.00000087,-0.00000240,0.00000424,0.00000189,0.00000258,0
 .00000208,0.00000090,-0.00000355,-0.00000115,-0.00000166,-0.00000194,-
 0.00000119,-0.00000100,0.00000266,-0.00000013,0.00000043,-0.00000213,0
 .00000110,-0.00000201,0.00000051,-0.00000059,0.00000107,0.00000154,-0.
 00000025,0.00000134,-0.00000105,-0.00000265,-0.00000129,0.00000020,-0.
 00001664,0.00000673,-0.00000132,0.00000049,0.00000021,0.00000008,-0.00
 000178,-0.00000155,0.00000044,-0.00000342,-0.00002159,0.00000320,0.000
 01009,0.00001131,0.00001938,0.00000916,0.00000461,-0.00002130\\\@


  ON THE CHOICE OF THE CORRECT LANGUAGE -
 I SPEAK SPANISH TO GOD, ITALIAN TO WOMEN,
 FRENCH TO MEN, AND GERMAN TO MY HORSE.
          -- CHARLES V
 Job cpu time:       0 days  3 hours 56 minutes 36.6 seconds.
 File lengths (MBytes):  RWF=    557 Int=      0 D2E=      0 Chk=     14 Scr=      1
 Normal termination of Gaussian 09 at Thu Nov 14 18:15:19 2019.
pbs_rusage has been removed.
Please contact help@nci.org.au if you require this functionality.
