 Entering Gaussian System, Link 0=/apps/gaussian/g09e01/g09/g09
 Initial command:
 /apps/gaussian/g09e01/g09/l1.exe "/jobfs/local/3588473.r-man2/Gau-32041.inp" -scrdir="/jobfs/local/3588473.r-man2/"
 Entering Link 1 = /apps/gaussian/g09e01/g09/l1.exe PID=     32045.
  
 Copyright (c) 1988,1990,1992,1993,1995,1998,2003,2009,2015,
            Gaussian, Inc.  All Rights Reserved.
  
 This is part of the Gaussian(R) 09 program.  It is based on
 the Gaussian(R) 03 system (copyright 2003, Gaussian, Inc.),
 the Gaussian(R) 98 system (copyright 1998, Gaussian, Inc.),
 the Gaussian(R) 94 system (copyright 1995, Gaussian, Inc.),
 the Gaussian 92(TM) system (copyright 1992, Gaussian, Inc.),
 the Gaussian 90(TM) system (copyright 1990, Gaussian, Inc.),
 the Gaussian 88(TM) system (copyright 1988, Gaussian, Inc.),
 the Gaussian 86(TM) system (copyright 1986, Carnegie Mellon
 University), and the Gaussian 82(TM) system (copyright 1983,
 Carnegie Mellon University). Gaussian is a federally registered
 trademark of Gaussian, Inc.
  
 This software contains proprietary and confidential information,
 including trade secrets, belonging to Gaussian, Inc.
  
 This software is provided under written license and may be
 used, copied, transmitted, or stored only in accord with that
 written license.
  
 The following legend is applicable only to US Government
 contracts under FAR:
  
                    RESTRICTED RIGHTS LEGEND
  
 Use, reproduction and disclosure by the US Government is
 subject to restrictions as set forth in subparagraphs (a)
 and (c) of the Commercial Computer Software - Restricted
 Rights clause in FAR 52.227-19.
  
 Gaussian, Inc.
 340 Quinnipiac St., Bldg. 40, Wallingford CT 06492
  
  
 ---------------------------------------------------------------
 Warning -- This program may not be used in any manner that
 competes with the business of Gaussian, Inc. or will provide
 assistance to any competitor of Gaussian, Inc.  The licensee
 of this program is prohibited from giving any competitor of
 Gaussian, Inc. access to this program.  By using this program,
 the user acknowledges that Gaussian, Inc. is engaged in the
 business of creating and licensing software in the field of
 computational chemistry and represents and warrants to the
 licensee that it is not a competitor of Gaussian, Inc. and that
 it will not use this program in any manner prohibited above.
 ---------------------------------------------------------------
  

 Cite this work as:
 Gaussian 09, Revision E.01,
 M. J. Frisch, G. W. Trucks, H. B. Schlegel, G. E. Scuseria, 
 M. A. Robb, J. R. Cheeseman, G. Scalmani, V. Barone, B. Mennucci, 
 G. A. Petersson, H. Nakatsuji, M. Caricato, X. Li, H. P. Hratchian, 
 A. F. Izmaylov, J. Bloino, G. Zheng, J. L. Sonnenberg, M. Hada, 
 M. Ehara, K. Toyota, R. Fukuda, J. Hasegawa, M. Ishida, T. Nakajima, 
 Y. Honda, O. Kitao, H. Nakai, T. Vreven, J. A. Montgomery, Jr., 
 J. E. Peralta, F. Ogliaro, M. Bearpark, J. J. Heyd, E. Brothers, 
 K. N. Kudin, V. N. Staroverov, T. Keith, R. Kobayashi, J. Normand, 
 K. Raghavachari, A. Rendell, J. C. Burant, S. S. Iyengar, J. Tomasi, 
 M. Cossi, N. Rega, J. M. Millam, M. Klene, J. E. Knox, J. B. Cross, 
 V. Bakken, C. Adamo, J. Jaramillo, R. Gomperts, R. E. Stratmann, 
 O. Yazyev, A. J. Austin, R. Cammi, C. Pomelli, J. W. Ochterski, 
 R. L. Martin, K. Morokuma, V. G. Zakrzewski, G. A. Voth, 
 P. Salvador, J. J. Dannenberg, S. Dapprich, A. D. Daniels, 
 O. Farkas, J. B. Foresman, J. V. Ortiz, J. Cioslowski, 
 and D. J. Fox, Gaussian, Inc., Wallingford CT, 2013.
 
 ******************************************
 Gaussian 09:  ES64L-G09RevE.01 30-Nov-2015
                14-Nov-2019 
 ******************************************
 %chk=CP19CA_c2.M062X_6-311pGd_opt_water_GD3.chk
 %mem=196608000
 %nproc=4
 Will use up to    4 processors via shared memory.
 ----------------------------------------------------------------------
 # M062X/6-311+G* SCF=Tight INT(grid=ultrafine) OPT IOP(2/17=4) Empiric
 alDispersion=GD3 SCRF=(SMD,Solvent=h2o) maxdisk=2147483648
 ----------------------------------------------------------------------
 1/14=-1,18=20,19=15,26=4,38=1/1,3;
 2/9=110,12=2,17=4,18=5,40=1/2;
 3/5=4,6=6,7=11,11=2,16=1,25=1,30=1,70=32201,71=1,72=1,74=-55,75=-5,124=31/1,2,3;
 4//1;
 5/5=2,32=2,38=5,53=1/2;
 6/7=2,8=2,9=2,10=2,28=1/1;
 7//1,2,3,16;
 1/14=-1,18=20,19=15,26=4/3(2);
 2/9=110,17=4/2;
 99//99;
 2/9=110,17=4/2;
 3/5=4,6=6,7=11,11=2,16=1,25=1,30=1,70=32205,71=1,72=1,74=-55,75=-5,124=31/1,2,3;
 4/5=5,16=3,69=1/1;
 5/5=2,32=2,38=5,53=1/2;
 7//1,2,3,16;
 1/14=-1,18=20,19=15,26=4/3(-5);
 2/9=110,17=4/2;
 6/7=2,8=2,9=2,10=2,19=2,28=1/1;
 99/9=1/99;
 --------------------------------------
 CP19CA_c2.M062X_6-311pGd_opt_water_GD3
 --------------------------------------
 Symbolic Z-matrix:
 Charge =  0 Multiplicity = 1
 C                    -6.23804   1.4883   -0.00032 
 N                    -4.96917   0.90772   0.03714 
 C                    -3.7601    1.53787  -0.03064 
 O                    -3.58178   2.7332   -0.14641 
 O                    -2.77689   0.63501   0.05197 
 C                    -1.43047   1.15396  -0.00272 
 C                    -0.48446  -0.02045   0.1014 
 C                     0.96319   0.4557    0.05094 
 C                    -7.32028   0.62311   0.20906 
 C                    -8.61027   1.11177   0.17955 
 C                    -8.86511   2.46515  -0.05452 
 C                    -7.78252   3.31187  -0.262 
 C                    -6.4763    2.84348  -0.24 
 H                    -4.93332  -0.09665   0.16515 
 H                    -1.29366   1.85423   0.82382 
 H                    -1.30255   1.68992  -0.94543 
 H                    -0.68425  -0.71513  -0.71898 
 H                    -0.67614  -0.55349   1.03661 
 H                     1.17345   0.97886  -0.88529 
 H                     1.65262  -0.38679   0.12517 
 H                     1.18146   1.14045   0.8743 
 H                    -7.14423  -0.42993   0.39583 
 Cl                   -9.91414  -0.01478   0.44687 
 C                    -10.26128   3.00712  -0.08687 
 H                    -7.95609   4.36408  -0.44891 
 H                    -5.66253   3.52965  -0.41106 
 F                    -10.28219   4.32459  -0.32639 
 F                    -11.01578   2.43265  -1.04189 
 F                    -10.91473   2.81906   1.07464 
 

 GradGradGradGradGradGradGradGradGradGradGradGradGradGradGradGradGradGrad
 Berny optimization.
 Initialization pass.
                           ----------------------------
                           !    Initial Parameters    !
                           ! (Angstroms and Degrees)  !
 --------------------------                            --------------------------
 ! Name  Definition              Value          Derivative Info.                !
 --------------------------------------------------------------------------------
 ! R1    R(1,2)                  1.3959         estimate D2E/DX2                !
 ! R2    R(1,9)                  1.4013         estimate D2E/DX2                !
 ! R3    R(1,13)                 1.3967         estimate D2E/DX2                !
 ! R4    R(2,3)                  1.3651         estimate D2E/DX2                !
 ! R5    R(2,14)                 1.0131         estimate D2E/DX2                !
 ! R6    R(3,4)                  1.2141         estimate D2E/DX2                !
 ! R7    R(3,5)                  1.3374         estimate D2E/DX2                !
 ! R8    R(5,6)                  1.444          estimate D2E/DX2                !
 ! R9    R(6,7)                  1.5116         estimate D2E/DX2                !
 ! R10   R(6,15)                 1.0919         estimate D2E/DX2                !
 ! R11   R(6,16)                 1.0919         estimate D2E/DX2                !
 ! R12   R(7,8)                  1.5248         estimate D2E/DX2                !
 ! R13   R(7,17)                 1.0934         estimate D2E/DX2                !
 ! R14   R(7,18)                 1.0934         estimate D2E/DX2                !
 ! R15   R(8,19)                 1.0929         estimate D2E/DX2                !
 ! R16   R(8,20)                 1.0912         estimate D2E/DX2                !
 ! R17   R(8,21)                 1.0929         estimate D2E/DX2                !
 ! R18   R(9,10)                 1.3798         estimate D2E/DX2                !
 ! R19   R(9,22)                 1.0839         estimate D2E/DX2                !
 ! R20   R(10,11)                1.3969         estimate D2E/DX2                !
 ! R21   R(10,23)                1.7437         estimate D2E/DX2                !
 ! R22   R(11,12)                1.39           estimate D2E/DX2                !
 ! R23   R(11,24)                1.498          estimate D2E/DX2                !
 ! R24   R(12,13)                1.3878         estimate D2E/DX2                !
 ! R25   R(12,25)                1.0827         estimate D2E/DX2                !
 ! R26   R(13,26)                1.0781         estimate D2E/DX2                !
 ! R27   R(24,27)                1.3392         estimate D2E/DX2                !
 ! R28   R(24,28)                1.3459         estimate D2E/DX2                !
 ! R29   R(24,29)                1.3459         estimate D2E/DX2                !
 ! A1    A(2,1,9)              116.182          estimate D2E/DX2                !
 ! A2    A(2,1,13)             124.2799         estimate D2E/DX2                !
 ! A3    A(9,1,13)             119.5357         estimate D2E/DX2                !
 ! A4    A(1,2,3)              127.7177         estimate D2E/DX2                !
 ! A5    A(1,2,14)             116.6083         estimate D2E/DX2                !
 ! A6    A(3,2,14)             115.6293         estimate D2E/DX2                !
 ! A7    A(2,3,4)              126.1071         estimate D2E/DX2                !
 ! A8    A(2,3,5)              109.6596         estimate D2E/DX2                !
 ! A9    A(4,3,5)              124.2332         estimate D2E/DX2                !
 ! A10   A(3,5,6)              116.1374         estimate D2E/DX2                !
 ! A11   A(5,6,7)              107.5605         estimate D2E/DX2                !
 ! A12   A(5,6,15)             108.5807         estimate D2E/DX2                !
 ! A13   A(5,6,16)             108.5615         estimate D2E/DX2                !
 ! A14   A(7,6,15)             111.5743         estimate D2E/DX2                !
 ! A15   A(7,6,16)             111.5608         estimate D2E/DX2                !
 ! A16   A(15,6,16)            108.9087         estimate D2E/DX2                !
 ! A17   A(6,7,8)              110.4428         estimate D2E/DX2                !
 ! A18   A(6,7,17)             109.1215         estimate D2E/DX2                !
 ! A19   A(6,7,18)             109.1445         estimate D2E/DX2                !
 ! A20   A(8,7,17)             110.3077         estimate D2E/DX2                !
 ! A21   A(8,7,18)             110.303          estimate D2E/DX2                !
 ! A22   A(17,7,18)            107.4572         estimate D2E/DX2                !
 ! A23   A(7,8,19)             111.1298         estimate D2E/DX2                !
 ! A24   A(7,8,20)             110.8859         estimate D2E/DX2                !
 ! A25   A(7,8,21)             111.1208         estimate D2E/DX2                !
 ! A26   A(19,8,20)            107.8373         estimate D2E/DX2                !
 ! A27   A(19,8,21)            107.8808         estimate D2E/DX2                !
 ! A28   A(20,8,21)            107.838          estimate D2E/DX2                !
 ! A29   A(1,9,10)             120.0135         estimate D2E/DX2                !
 ! A30   A(1,9,22)             120.0105         estimate D2E/DX2                !
 ! A31   A(10,9,22)            119.9759         estimate D2E/DX2                !
 ! A32   A(9,10,11)            121.1491         estimate D2E/DX2                !
 ! A33   A(9,10,23)            117.8404         estimate D2E/DX2                !
 ! A34   A(11,10,23)           121.0104         estimate D2E/DX2                !
 ! A35   A(10,11,12)           118.2365         estimate D2E/DX2                !
 ! A36   A(10,11,24)           121.6118         estimate D2E/DX2                !
 ! A37   A(12,11,24)           120.1516         estimate D2E/DX2                !
 ! A38   A(11,12,13)           121.6749         estimate D2E/DX2                !
 ! A39   A(11,12,25)           119.5338         estimate D2E/DX2                !
 ! A40   A(13,12,25)           118.7911         estimate D2E/DX2                !
 ! A41   A(1,13,12)            119.3898         estimate D2E/DX2                !
 ! A42   A(1,13,26)            121.0652         estimate D2E/DX2                !
 ! A43   A(12,13,26)           119.5447         estimate D2E/DX2                !
 ! A44   A(11,24,27)           111.9831         estimate D2E/DX2                !
 ! A45   A(11,24,28)           112.544          estimate D2E/DX2                !
 ! A46   A(11,24,29)           112.5386         estimate D2E/DX2                !
 ! A47   A(27,24,28)           106.5134         estimate D2E/DX2                !
 ! A48   A(27,24,29)           106.5123         estimate D2E/DX2                !
 ! A49   A(28,24,29)           106.2931         estimate D2E/DX2                !
 ! D1    D(9,1,2,3)           -174.4375         estimate D2E/DX2                !
 ! D2    D(9,1,2,14)             3.0069         estimate D2E/DX2                !
 ! D3    D(13,1,2,3)             6.1272         estimate D2E/DX2                !
 ! D4    D(13,1,2,14)         -176.4284         estimate D2E/DX2                !
 ! D5    D(2,1,9,10)          -179.5548         estimate D2E/DX2                !
 ! D6    D(2,1,9,22)             0.5434         estimate D2E/DX2                !
 ! D7    D(13,1,9,10)           -0.0912         estimate D2E/DX2                !
 ! D8    D(13,1,9,22)         -179.9929         estimate D2E/DX2                !
 ! D9    D(2,1,13,12)          179.6484         estimate D2E/DX2                !
 ! D10   D(2,1,13,26)           -0.1532         estimate D2E/DX2                !
 ! D11   D(9,1,13,12)            0.2309         estimate D2E/DX2                !
 ! D12   D(9,1,13,26)         -179.5707         estimate D2E/DX2                !
 ! D13   D(1,2,3,4)             -0.5447         estimate D2E/DX2                !
 ! D14   D(1,2,3,5)            179.3671         estimate D2E/DX2                !
 ! D15   D(14,2,3,4)          -178.0104         estimate D2E/DX2                !
 ! D16   D(14,2,3,5)             1.9015         estimate D2E/DX2                !
 ! D17   D(2,3,5,6)           -179.8676         estimate D2E/DX2                !
 ! D18   D(4,3,5,6)              0.0463         estimate D2E/DX2                !
 ! D19   D(3,5,6,7)           -179.818          estimate D2E/DX2                !
 ! D20   D(3,5,6,15)            59.3            estimate D2E/DX2                !
 ! D21   D(3,5,6,16)           -58.9632         estimate D2E/DX2                !
 ! D22   D(5,6,7,8)           -179.9693         estimate D2E/DX2                !
 ! D23   D(5,6,7,17)            58.6147         estimate D2E/DX2                !
 ! D24   D(5,6,7,18)           -58.5441         estimate D2E/DX2                !
 ! D25   D(15,6,7,8)           -60.9879         estimate D2E/DX2                !
 ! D26   D(15,6,7,17)          177.5961         estimate D2E/DX2                !
 ! D27   D(15,6,7,18)           60.4373         estimate D2E/DX2                !
 ! D28   D(16,6,7,8)            61.0807         estimate D2E/DX2                !
 ! D29   D(16,6,7,17)          -60.3354         estimate D2E/DX2                !
 ! D30   D(16,6,7,18)         -177.4942         estimate D2E/DX2                !
 ! D31   D(6,7,8,19)           -60.0455         estimate D2E/DX2                !
 ! D32   D(6,7,8,20)          -179.9765         estimate D2E/DX2                !
 ! D33   D(6,7,8,21)            60.0975         estimate D2E/DX2                !
 ! D34   D(17,7,8,19)           60.6649         estimate D2E/DX2                !
 ! D35   D(17,7,8,20)          -59.2661         estimate D2E/DX2                !
 ! D36   D(17,7,8,21)         -179.1921         estimate D2E/DX2                !
 ! D37   D(18,7,8,19)          179.2185         estimate D2E/DX2                !
 ! D38   D(18,7,8,20)           59.2874         estimate D2E/DX2                !
 ! D39   D(18,7,8,21)          -60.6386         estimate D2E/DX2                !
 ! D40   D(1,9,10,11)           -0.1197         estimate D2E/DX2                !
 ! D41   D(1,9,10,23)          179.9857         estimate D2E/DX2                !
 ! D42   D(22,9,10,11)         179.7821         estimate D2E/DX2                !
 ! D43   D(22,9,10,23)          -0.1125         estimate D2E/DX2                !
 ! D44   D(9,10,11,12)           0.1848         estimate D2E/DX2                !
 ! D45   D(9,10,11,24)        -179.9136         estimate D2E/DX2                !
 ! D46   D(23,10,11,12)       -179.924          estimate D2E/DX2                !
 ! D47   D(23,10,11,24)         -0.0224         estimate D2E/DX2                !
 ! D48   D(10,11,12,13)         -0.0407         estimate D2E/DX2                !
 ! D49   D(10,11,12,25)        179.7771         estimate D2E/DX2                !
 ! D50   D(24,11,12,13)       -179.9438         estimate D2E/DX2                !
 ! D51   D(24,11,12,25)         -0.126          estimate D2E/DX2                !
 ! D52   D(10,11,24,27)       -179.9595         estimate D2E/DX2                !
 ! D53   D(10,11,24,28)        -59.9951         estimate D2E/DX2                !
 ! D54   D(10,11,24,29)         60.0814         estimate D2E/DX2                !
 ! D55   D(12,11,24,27)         -0.0597         estimate D2E/DX2                !
 ! D56   D(12,11,24,28)        119.9047         estimate D2E/DX2                !
 ! D57   D(12,11,24,29)       -120.0189         estimate D2E/DX2                !
 ! D58   D(11,12,13,1)          -0.166          estimate D2E/DX2                !
 ! D59   D(11,12,13,26)        179.6386         estimate D2E/DX2                !
 ! D60   D(25,12,13,1)        -179.9852         estimate D2E/DX2                !
 ! D61   D(25,12,13,26)         -0.1805         estimate D2E/DX2                !
 --------------------------------------------------------------------------------
 Trust Radius=3.00D-01 FncErr=1.00D-07 GrdErr=1.00D-06
 Number of steps in this run=    149 maximum allowed number of steps=    174.
 GradGradGradGradGradGradGradGradGradGradGradGradGradGradGradGradGradGrad

                          Input orientation:                          
 ---------------------------------------------------------------------
 Center     Atomic      Atomic             Coordinates (Angstroms)
 Number     Number       Type             X           Y           Z
 ---------------------------------------------------------------------
      1          6           0       -6.238037    1.488304   -0.000324
      2          7           0       -4.969172    0.907724    0.037144
      3          6           0       -3.760103    1.537871   -0.030644
      4          8           0       -3.581784    2.733200   -0.146411
      5          8           0       -2.776894    0.635010    0.051969
      6          6           0       -1.430468    1.153958   -0.002720
      7          6           0       -0.484458   -0.020453    0.101397
      8          6           0        0.963192    0.455702    0.050943
      9          6           0       -7.320280    0.623111    0.209056
     10          6           0       -8.610272    1.111767    0.179547
     11          6           0       -8.865111    2.465151   -0.054516
     12          6           0       -7.782524    3.311875   -0.261997
     13          6           0       -6.476297    2.843478   -0.239999
     14          1           0       -4.933316   -0.096649    0.165152
     15          1           0       -1.293655    1.854229    0.823820
     16          1           0       -1.302551    1.689915   -0.945435
     17          1           0       -0.684252   -0.715128   -0.718977
     18          1           0       -0.676143   -0.553486    1.036610
     19          1           0        1.173451    0.978860   -0.885294
     20          1           0        1.652623   -0.386794    0.125166
     21          1           0        1.181459    1.140449    0.874305
     22          1           0       -7.144226   -0.429927    0.395829
     23         17           0       -9.914140   -0.014776    0.446869
     24          6           0      -10.261275    3.007121   -0.086874
     25          1           0       -7.956086    4.364084   -0.448908
     26          1           0       -5.662534    3.529646   -0.411063
     27          9           0      -10.282192    4.324591   -0.326392
     28          9           0      -11.015776    2.432653   -1.041888
     29          9           0      -10.914728    2.819056    1.074636
 ---------------------------------------------------------------------
                    Distance matrix (angstroms):
                    1          2          3          4          5
     1  C    0.000000
     2  N    1.395885   0.000000
     3  C    2.478616   1.365112   0.000000
     4  O    2.937139   2.300195   1.214088   0.000000
     5  O    3.565159   2.209225   1.337417   2.256015   0.000000
     6  C    4.819183   3.547485   2.361222   2.672604   1.444010
     7  C    5.948981   4.580208   3.629830   4.151800   2.384815
     8  C    7.275067   5.949577   4.846366   5.087510   3.744382
     9  C    1.401302   2.374503   3.683626   4.307572   4.546116
    10  C    2.408658   3.649592   4.873386   5.293485   5.854218
    11  C    2.803334   4.196704   5.188596   5.290920   6.358234
    12  C    2.404022   3.712731   4.402327   4.241985   5.685113
    13  C    1.396677   2.468881   3.020951   2.898124   4.318351
    14  H    2.059553   1.013133   2.021491   3.151469   2.279976
    15  H    5.025935   3.876100   2.629364   2.636185   2.069359
    16  H    5.029206   3.875744   2.626694   2.630929   2.069137
    17  H    6.017982   4.643911   3.874360   4.540318   2.606987
    18  H    6.014883   4.643724   3.876031   4.543632   2.606760
    19  H    7.481501   6.211905   5.038142   5.122101   4.074546
    20  H    8.111367   6.747718   5.746844   6.099765   4.546435
    21  H    7.478965   6.211704   5.039436   5.125154   4.074343
    22  H    2.158176   2.578531   3.937816   4.794829   4.508427
    23  Cl   3.996619   5.046938   6.364818   6.928353   7.177635
    24  C    4.301249   5.694664   6.665366   6.685371   7.852525
    25  H    3.379797   4.593944   5.076288   4.678227   6.401633
    26  H    2.160321   2.748839   2.780491   2.243633   4.113421
    27  F    4.950357   6.327347   7.098657   6.889150   8.371718
    28  F    4.980305   6.328596   7.380246   7.493760   8.503365
    29  F    4.979747   6.330815   7.351989   7.434406   8.487653
                    6          7          8          9         10
     6  C    0.000000
     7  C    1.511628   0.000000
     8  C    2.494003   1.524782   0.000000
     9  C    5.917477   6.866894   8.286672   0.000000
    10  C    7.182242   8.204687   9.596780   1.379759   0.000000
    11  C    7.549558   8.742877  10.032176   2.418489   1.396917
    12  C    6.713601   8.031079   9.205607   2.768576   2.391779
    13  C    5.326459   6.649871   7.818703   2.417434   2.780053
    14  H    3.723191   4.449968   5.923424   2.493507   3.870463
    15  H    1.091909   2.165902   2.765245   6.181730   7.382359
    16  H    1.091936   2.165754   2.765799   6.219645   7.416376
    17  H    2.136199   1.093391   2.162797   6.832934   8.183317
    18  H    2.136488   1.093385   2.162734   6.798072   8.152180
    19  H    2.754993   2.172751   1.092906   8.571325   9.842397
    20  H    3.449018   2.168383   1.091157   9.029946  10.371869
    21  H    2.755271   2.172639   1.092906   8.543405   9.816390
    22  H    5.942606   6.678837   8.162935   1.083867   2.138431
    23  Cl   8.575591   9.436010  10.894699   2.681710   1.743741
    24  C    9.023550  10.236592  11.511620   3.797438   2.527679
    25  H    7.286130   8.680566   9.750837   3.851240   3.376460
    26  H    4.870423   6.299071   7.318663   3.403030   3.857994
    27  F    9.408013  10.726510  11.898292   4.770806   3.656984
    28  F    9.725896  10.873522  12.190090   4.300697   3.003846
    29  F    9.689399  10.853596  12.153945   4.300171   3.004420
                   11         12         13         14         15
    11  C    0.000000
    12  C    1.389959   0.000000
    13  C    2.425689   1.387843   0.000000
    14  H    4.697881   4.463012   3.345039   0.000000
    15  H    7.646675   6.738630   5.382388   4.181734   0.000000
    16  H    7.654217   6.714751   5.347522   4.196150   1.776891
    17  H    8.802394   8.173802   6.814754   4.383919   3.058299
    18  H    8.795563   8.193171   6.841848   4.369401   2.494733
    19  H   10.181944   9.275825   7.900117   6.289099   3.126333
    20  H   10.899019  10.141600   8.754847   6.592449   3.767076
    21  H   10.176007   9.292969   7.923586   6.278837   2.576475
    22  H    3.397901   3.852433   3.400821   2.247756   6.295214
    23  Cl   2.738958   4.014086   4.523292   4.989456   8.828818
    24  C    1.498016   2.503548   3.791608   6.171228   9.087174
    25  H    2.141919   1.082684   2.132056   5.423315   7.232371
    26  H    3.393637   2.136352   1.078100   3.743501   4.839324
    27  F    2.353626   2.697793   4.084850   6.956972   9.392522
    28  F    2.366710   3.440230   4.628031   6.697061   9.916404
    29  F    2.366678   3.440954   4.629097   6.716085   9.672582
                   16         17         18         19         20
    16  H    0.000000
    17  H    2.493554   0.000000
    18  H    3.058388   1.763031   0.000000
    19  H    2.576781   2.519587   3.076166   0.000000
    20  H    3.767222   2.506266   2.506325   1.765120   0.000000
    21  H    3.127886   3.076132   2.519215   1.767021   1.765128
    22  H    6.357506   6.561660   6.500921   8.532860   8.801118
    23  Cl   8.888417   9.329551   9.272465  11.211451  11.577215
    24  C    9.095653  10.294370  10.286637  11.640631  12.389697
    25  H    7.187993   8.874170   8.909929   9.746723  10.734417
    26  H    4.762312   6.549520   6.605439   7.311778   8.314901
    27  F    9.378630  10.847735  10.859540  11.947303  12.839038
    28  F    9.742058  10.805238  10.961076  12.276615  13.030719
    29  F    9.886840  10.971333  10.779802  12.383526  13.004511
                   21         22         23         24         25
    21  H    0.000000
    22  H    8.485991   0.000000
    23  Cl  11.163762   2.801317   0.000000
    24  C   11.633766   4.665008   3.088243   0.000000
    25  H    9.779440   4.935103   4.879632   2.699318   0.000000
    26  H    7.362111   4.304033   5.601351   4.639672   2.440922
    27  F   11.958083   5.742289   4.423065   1.339230   2.329665
    28  F   12.414271   5.024967   3.069187   1.345859   3.666572
    29  F   12.213747   5.023282   3.070159   1.345910   3.669041
                   26         27         28         29
    26  H    0.000000
    27  F    4.688321   0.000000
    28  F    5.500775   2.151630   0.000000
    29  F    5.504342   2.151655   2.153879   0.000000
 Stoichiometry    C11H11ClF3NO2
 Framework group  C1[X(C11H11ClF3NO2)]
 Deg. of freedom    81
 Full point group                 C1      NOp   1
 Largest Abelian subgroup         C1      NOp   1
 Largest concise Abelian subgroup C1      NOp   1
                         Standard orientation:                         
 ---------------------------------------------------------------------
 Center     Atomic      Atomic             Coordinates (Angstroms)
 Number     Number       Type             X           Y           Z
 ---------------------------------------------------------------------
      1          6           0       -0.254030    0.121769   -0.046853
      2          7           0       -1.600718    0.488319   -0.070711
      3          6           0       -2.690529   -0.330427    0.003428
      4          8           0       -2.671091   -1.540872    0.095382
      5          8           0       -3.808062    0.403095   -0.038381
      6          6           0       -5.051552   -0.327427    0.033960
      7          6           0       -6.176772    0.679729   -0.033368
      8          6           0       -7.527116   -0.024763    0.038890
      9          6           0        0.672382    1.172737   -0.017293
     10          6           0        2.024888    0.900306   -0.001651
     11          6           0        2.497366   -0.414239   -0.012257
     12          6           0        1.567595   -1.446985   -0.043039
     13          6           0        0.202378   -1.198142   -0.062208
     14          1           0       -1.800204    1.480746   -0.112308
     15          1           0       -5.071062   -0.889260    0.970031
     16          1           0       -5.091162   -1.029776   -0.801181
     17          1           0       -6.094205    1.247311   -0.964248
     18          1           0       -6.073783    1.388220    0.793024
     19          1           0       -7.650045   -0.726819   -0.789632
     20          1           0       -8.344964    0.695932   -0.009559
     21          1           0       -7.629527   -0.585158    0.971581
     22          1           0        0.326694    2.199927   -0.005099
     23         17           0        3.127265    2.250890    0.034663
     24          6           0        3.963330   -0.721894    0.006459
     25          1           0        1.910690   -2.473794   -0.055437
     26          1           0       -0.488404   -2.025329   -0.091878
     27          9           0        4.199157   -2.040108   -0.008777
     28          9           0        4.612641   -0.204842   -1.052971
     29          9           0        4.578544   -0.235842    1.100415
 ---------------------------------------------------------------------
 Rotational constants (GHZ):      1.0971566      0.1233150      0.1133044
 Standard basis: 6-311+G(d) (5D, 7F)
 There are   455 symmetry adapted cartesian basis functions of A   symmetry.
 There are   437 symmetry adapted basis functions of A   symmetry.
   437 basis functions,   720 primitive gaussians,   455 cartesian basis functions
    72 alpha electrons       72 beta electrons
       nuclear repulsion energy      1431.0938239580 Hartrees.
 NAtoms=   29 NActive=   29 NUniq=   29 SFac= 1.00D+00 NAtFMM=   60 NAOKFM=F Big=F
 Integral buffers will be    131072 words long.
 Raffenetti 2 integral format.
 Two-electron integral symmetry is turned on.
 Nuclear repulsion after empirical dispersion term =     1431.0926020902 Hartrees.
 ------------------------------------------------------------------------------
 Polarizable Continuum Model (PCM)
 =================================
 Model                : PCM (using non-symmetric T matrix).
 Atomic radii         : SMD-Coulomb.
 Polarization charges : Total charges.
 Charge compensation  : None.
 Solution method      : On-the-fly selection.
 Cavity type          : VdW (van der Waals Surface) (Alpha=1.000).
 Cavity algorithm     : GePol (No added spheres)
                        Default sphere list used, NSphG=   29.
                        Lebedev-Laikov grids with approx.  5.0 points / Ang**2.
                        Smoothing algorithm: York/Karplus (Gamma=1.0000).
                        Polarization charges: spherical gaussians, with
                                              point-specific exponents (IZeta= 3).
                        Self-potential: point-specific (ISelfS= 7).
                        Self-field    : sphere-specific E.n sum rule (ISelfD= 2).
 1st derivatives      : Analytical E(r).r(x)/FMM algorithm (CHGder, D1EAlg=3).
                        Cavity 1st derivative terms included.
 Solvent              : Water, Eps=  78.355300 Eps(inf)=   1.777849
 ------------------------------------------------------------------------------
 ------------------------------------------------------------------------------
 Atomic radii for non-electrostatic terms: SMD-CDS.
 ------------------------------------------------------------------------------
 Nuclear repulsion after PCM non-electrostatic terms =     1431.1053382016 Hartrees.
 One-electron integrals computed using PRISM.
 NBasis=   437 RedAO= T EigKep=  1.53D-06  NBF=   437
 NBsUse=   435 1.00D-06 EigRej=  7.03D-07 NBFU=   435
 ExpMin= 4.38D-02 ExpMax= 1.06D+05 ExpMxC= 3.62D+03 IAcc=3 IRadAn=         5 AccDes= 0.00D+00
 Harris functional with IExCor= 1009 and IRadAn=       5 diagonalized for initial guess.
 HarFok:  IExCor= 1009 AccDes= 0.00D+00 IRadAn=         5 IDoV= 1 UseB2=F ITyADJ=14
 ICtDFT=  3500011 ScaDFX=  1.000000  1.000000  1.000000  1.000000
 FoFCou: FMM=F IPFlag=           0 FMFlag=      100000 FMFlg1=           0
         NFxFlg=           0 DoJE=T BraDBF=F KetDBF=T FulRan=T
         wScrn=  0.000000 ICntrl=     500 IOpCl=  0 I1Cent=   200000004 NGrid=           0
         NMat0=    1 NMatS0=      1 NMatT0=    0 NMatD0=    1 NMtDS0=    0 NMtDT0=    0
 Petite list used in FoFCou.
 Requested convergence on RMS density matrix=1.00D-08 within 128 cycles.
 Requested convergence on MAX density matrix=1.00D-06.
 Requested convergence on             energy=1.00D-06.
 No special actions if energy rises.
 Inv3:  Mode=1 IEnd=    16216875.
 Iteration    1 A*A^-1 deviation from unit magnitude is 6.99D-15 for   2312.
 Iteration    1 A*A^-1 deviation from orthogonality  is 4.38D-15 for   1807    183.
 Iteration    1 A^-1*A deviation from unit magnitude is 7.11D-15 for   2312.
 Iteration    1 A^-1*A deviation from orthogonality  is 1.93D-12 for   1865   1775.
 Error on total polarization charges =  0.04477
 SCF Done:  E(RM062X) =  -1390.68202461     A.U. after   15 cycles
            NFock= 15  Conv=0.41D-08     -V/T= 2.0028
 SMD-CDS (non-electrostatic) energy       (kcal/mol) =       7.99
 (included in total energy above)

 **********************************************************************

            Population analysis using the SCF density.

 **********************************************************************

 Orbital symmetries:
       Occupied  (A) (A) (A) (A) (A) (A) (A) (A) (A) (A) (A) (A)
                 (A) (A) (A) (A) (A) (A) (A) (A) (A) (A) (A) (A)
                 (A) (A) (A) (A) (A) (A) (A) (A) (A) (A) (A) (A)
                 (A) (A) (A) (A) (A) (A) (A) (A) (A) (A) (A) (A)
                 (A) (A) (A) (A) (A) (A) (A) (A) (A) (A) (A) (A)
                 (A) (A) (A) (A) (A) (A) (A) (A) (A) (A) (A) (A)
       Virtual   (A) (A) (A) (A) (A) (A) (A) (A) (A) (A) (A) (A)
                 (A) (A) (A) (A) (A) (A) (A) (A) (A) (A) (A) (A)
                 (A) (A) (A) (A) (A) (A) (A) (A) (A) (A) (A) (A)
                 (A) (A) (A) (A) (A) (A) (A) (A) (A) (A) (A) (A)
                 (A) (A) (A) (A) (A) (A) (A) (A) (A) (A) (A) (A)
                 (A) (A) (A) (A) (A) (A) (A) (A) (A) (A) (A) (A)
                 (A) (A) (A) (A) (A) (A) (A) (A) (A) (A) (A) (A)
                 (A) (A) (A) (A) (A) (A) (A) (A) (A) (A) (A) (A)
                 (A) (A) (A) (A) (A) (A) (A) (A) (A) (A) (A) (A)
                 (A) (A) (A) (A) (A) (A) (A) (A) (A) (A) (A) (A)
                 (A) (A) (A) (A) (A) (A) (A) (A) (A) (A) (A) (A)
                 (A) (A) (A) (A) (A) (A) (A) (A) (A) (A) (A) (A)
                 (A) (A) (A) (A) (A) (A) (A) (A) (A) (A) (A) (A)
                 (A) (A) (A) (A) (A) (A) (A) (A) (A) (A) (A) (A)
                 (A) (A) (A) (A) (A) (A) (A) (A) (A) (A) (A) (A)
                 (A) (A) (A) (A) (A) (A) (A) (A) (A) (A) (A) (A)
                 (A) (A) (A) (A) (A) (A) (A) (A) (A) (A) (A) (A)
                 (A) (A) (A) (A) (A) (A) (A) (A) (A) (A) (A) (A)
                 (A) (A) (A) (A) (A) (A) (A) (A) (A) (A) (A) (A)
                 (A) (A) (A) (A) (A) (A) (A) (A) (A) (A) (A) (A)
                 (A) (A) (A) (A) (A) (A) (A) (A) (A) (A) (A) (A)
                 (A) (A) (A) (A) (A) (A) (A) (A) (A) (A) (A) (A)
                 (A) (A) (A) (A) (A) (A) (A) (A) (A) (A) (A) (A)
                 (A) (A) (A) (A) (A) (A) (A) (A) (A) (A) (A) (A)
                 (A) (A) (A) (A) (A) (A) (A) (A) (A) (A) (A) (A)
                 (A) (A) (A) (A) (A) (A) (A) (A) (A) (A) (A) (A)
                 (A) (A) (A) (A) (A) (A) (A) (A) (A) (A) (A) (A)
                 (A) (A) (A) (A) (A) (A) (A) (A) (A) (A) (A) (A)
                 (A) (A) (A) (A) (A) (A) (A) (A) (A) (A) (A) (A)
                 (A) (A) (A) (A) (A) (A) (A) (A) (A) (A) (A) (A)
                 (A) (A) (A)
 The electronic state is 1-A.
 Alpha  occ. eigenvalues -- -102.69172 -25.28750 -25.28326 -25.28325 -19.67693
 Alpha  occ. eigenvalues --  -19.62203 -14.80192 -10.81339 -10.71786 -10.63284
 Alpha  occ. eigenvalues --  -10.62150 -10.59048 -10.58417 -10.57179 -10.56816
 Alpha  occ. eigenvalues --  -10.55767 -10.53088 -10.51913  -9.83457  -7.55972
 Alpha  occ. eigenvalues --   -7.55292  -7.55275  -1.47915  -1.38562  -1.38147
 Alpha  occ. eigenvalues --   -1.25783  -1.15871  -1.07978  -1.01957  -0.95570
 Alpha  occ. eigenvalues --   -0.90965  -0.88778  -0.85549  -0.82446  -0.79245
 Alpha  occ. eigenvalues --   -0.74508  -0.73465  -0.70256  -0.70250  -0.68858
 Alpha  occ. eigenvalues --   -0.67378  -0.66054  -0.64803  -0.61529  -0.59351
 Alpha  occ. eigenvalues --   -0.58565  -0.58510  -0.57088  -0.55859  -0.54394
 Alpha  occ. eigenvalues --   -0.54258  -0.53787  -0.53573  -0.52186  -0.51948
 Alpha  occ. eigenvalues --   -0.50829  -0.50452  -0.49523  -0.46938  -0.46185
 Alpha  occ. eigenvalues --   -0.45359  -0.44057  -0.43242  -0.42718  -0.40156
 Alpha  occ. eigenvalues --   -0.40146  -0.39440  -0.39384  -0.38131  -0.37995
 Alpha  occ. eigenvalues --   -0.32166  -0.29818
 Alpha virt. eigenvalues --   -0.01254  -0.00344   0.01072   0.02173   0.02590
 Alpha virt. eigenvalues --    0.03090   0.03700   0.03970   0.04625   0.04988
 Alpha virt. eigenvalues --    0.05127   0.05567   0.06463   0.06614   0.06904
 Alpha virt. eigenvalues --    0.07510   0.07851   0.08096   0.08205   0.09004
 Alpha virt. eigenvalues --    0.09688   0.09728   0.10131   0.10491   0.11011
 Alpha virt. eigenvalues --    0.11737   0.12288   0.12678   0.12966   0.13590
 Alpha virt. eigenvalues --    0.13797   0.14872   0.15057   0.15505   0.16280
 Alpha virt. eigenvalues --    0.17162   0.17497   0.17718   0.18485   0.18791
 Alpha virt. eigenvalues --    0.19560   0.19725   0.20157   0.20559   0.20875
 Alpha virt. eigenvalues --    0.21135   0.21406   0.21802   0.21968   0.22635
 Alpha virt. eigenvalues --    0.23370   0.23826   0.23903   0.24375   0.24776
 Alpha virt. eigenvalues --    0.25028   0.25225   0.25825   0.26012   0.26177
 Alpha virt. eigenvalues --    0.26769   0.27192   0.27637   0.28070   0.28244
 Alpha virt. eigenvalues --    0.29033   0.29448   0.29765   0.29990   0.30414
 Alpha virt. eigenvalues --    0.30800   0.31102   0.31158   0.31977   0.32193
 Alpha virt. eigenvalues --    0.32568   0.33524   0.34189   0.34840   0.35005
 Alpha virt. eigenvalues --    0.35275   0.36567   0.36787   0.37281   0.38590
 Alpha virt. eigenvalues --    0.38899   0.39632   0.39704   0.40921   0.41843
 Alpha virt. eigenvalues --    0.42282   0.42685   0.43602   0.44494   0.44900
 Alpha virt. eigenvalues --    0.45744   0.46086   0.47375   0.48124   0.49632
 Alpha virt. eigenvalues --    0.49739   0.49786   0.50193   0.51056   0.52886
 Alpha virt. eigenvalues --    0.54093   0.54823   0.56080   0.56330   0.57747
 Alpha virt. eigenvalues --    0.59291   0.59761   0.60180   0.60819   0.62080
 Alpha virt. eigenvalues --    0.62377   0.63279   0.63910   0.64316   0.65467
 Alpha virt. eigenvalues --    0.65710   0.67917   0.68744   0.68924   0.69846
 Alpha virt. eigenvalues --    0.70279   0.71222   0.71717   0.72575   0.73037
 Alpha virt. eigenvalues --    0.73326   0.73701   0.74313   0.74987   0.75165
 Alpha virt. eigenvalues --    0.76826   0.77752   0.78551   0.78832   0.80836
 Alpha virt. eigenvalues --    0.81443   0.82650   0.83335   0.85137   0.88118
 Alpha virt. eigenvalues --    0.88966   0.91292   0.92002   0.92104   0.93604
 Alpha virt. eigenvalues --    0.94354   0.94700   0.96075   0.96340   0.97601
 Alpha virt. eigenvalues --    0.98106   0.99757   1.01345   1.03628   1.04502
 Alpha virt. eigenvalues --    1.04910   1.05485   1.06902   1.08738   1.10236
 Alpha virt. eigenvalues --    1.10906   1.11752   1.12244   1.13551   1.15437
 Alpha virt. eigenvalues --    1.18367   1.19887   1.21153   1.22364   1.22798
 Alpha virt. eigenvalues --    1.23606   1.24225   1.28783   1.30578   1.31761
 Alpha virt. eigenvalues --    1.32587   1.33528   1.36274   1.37824   1.39151
 Alpha virt. eigenvalues --    1.40559   1.43567   1.44132   1.45252   1.46816
 Alpha virt. eigenvalues --    1.47906   1.49426   1.50362   1.50645   1.52781
 Alpha virt. eigenvalues --    1.53245   1.53534   1.55873   1.57052   1.57307
 Alpha virt. eigenvalues --    1.58692   1.59207   1.60743   1.62189   1.62260
 Alpha virt. eigenvalues --    1.63793   1.64297   1.64600   1.68066   1.70689
 Alpha virt. eigenvalues --    1.74024   1.74776   1.77597   1.79403   1.79748
 Alpha virt. eigenvalues --    1.80005   1.81529   1.82649   1.84446   1.84835
 Alpha virt. eigenvalues --    1.85256   1.86355   1.87764   1.91730   1.92042
 Alpha virt. eigenvalues --    1.92679   1.94583   1.97486   1.98891   1.99417
 Alpha virt. eigenvalues --    2.02150   2.06664   2.08327   2.09174   2.09723
 Alpha virt. eigenvalues --    2.11135   2.18125   2.19006   2.21731   2.22619
 Alpha virt. eigenvalues --    2.25972   2.30816   2.31587   2.35205   2.36565
 Alpha virt. eigenvalues --    2.41041   2.41514   2.43942   2.47403   2.51392
 Alpha virt. eigenvalues --    2.53149   2.55755   2.56111   2.57256   2.58824
 Alpha virt. eigenvalues --    2.60922   2.61763   2.62853   2.65968   2.69208
 Alpha virt. eigenvalues --    2.70474   2.73866   2.74622   2.79787   2.81781
 Alpha virt. eigenvalues --    2.85714   2.85829   2.92031   2.92268   2.93008
 Alpha virt. eigenvalues --    2.96855   3.00621   3.00947   3.02239   3.04327
 Alpha virt. eigenvalues --    3.05027   3.07748   3.10111   3.11963   3.12451
 Alpha virt. eigenvalues --    3.18940   3.19137   3.22060   3.24023   3.24969
 Alpha virt. eigenvalues --    3.30110   3.30180   3.30845   3.34263   3.37563
 Alpha virt. eigenvalues --    3.39824   3.41445   3.43044   3.44413   3.51828
 Alpha virt. eigenvalues --    3.55194   3.66918   3.69944   3.74396   3.78478
 Alpha virt. eigenvalues --    3.79723   3.82714   3.83488   3.83789   3.86076
 Alpha virt. eigenvalues --    3.86560   3.87714   3.90587   3.96055   3.97919
 Alpha virt. eigenvalues --    4.00127   4.01134   4.02588   4.05415   4.11151
 Alpha virt. eigenvalues --    4.12660   4.18731   4.22316   4.26610   4.30911
 Alpha virt. eigenvalues --    4.56455   4.76541   4.81077   4.97166   5.01268
 Alpha virt. eigenvalues --    5.08983   5.10187   5.15608   5.36023   5.49676
 Alpha virt. eigenvalues --    5.79900   5.95505   6.43795   6.47848   6.49093
 Alpha virt. eigenvalues --    6.51973   6.54606   6.57070   6.62711   6.85777
 Alpha virt. eigenvalues --    6.90312   9.99306  23.44290  23.58121  23.65549
 Alpha virt. eigenvalues --   23.73053  23.82894  23.90530  23.91872  23.97449
 Alpha virt. eigenvalues --   24.08444  24.12075  24.19922  25.95127  26.31224
 Alpha virt. eigenvalues --   26.82244  35.66261  50.01804  50.12808  66.88125
 Alpha virt. eigenvalues --   66.90847  66.96572 216.10170
          Condensed to atoms (all electrons):
               1          2          3          4          5          6
     1  C   18.935122  -0.224392  -0.940066  -0.282176  -0.266096  -0.533239
     2  N   -0.224392   7.488884   0.347513  -0.033561  -0.152180  -0.235074
     3  C   -0.940066   0.347513   7.949275   0.504909   0.291061  -0.514259
     4  O   -0.282176  -0.033561   0.504909   8.174078  -0.184791  -0.172945
     5  O   -0.266096  -0.152180   0.291061  -0.184791   8.288067   0.281327
     6  C   -0.533239  -0.235074  -0.514259  -0.172945   0.281327   7.951810
     7  C   -0.052389   0.024372   0.097042   0.030022  -0.148872  -0.893654
     8  C   -0.012292  -0.006232  -0.237751  -0.000185   0.031699   0.305761
     9  C    2.060088  -0.200075  -0.008400  -0.067776  -0.011234   0.020082
    10  C   -1.066101   0.022720  -1.448406  -0.007605  -0.000625  -0.107060
    11  C   -4.938405   0.080162  -0.019260   0.015905   0.016748  -0.011810
    12  C   -4.162698   0.218740  -0.138560   0.135369  -0.003510  -0.071823
    13  C   -0.429223  -0.098889  -0.038866   0.304442   0.004985  -0.237106
    14  H   -0.046805   0.267048  -0.018972   0.000267   0.014577  -0.005080
    15  H    0.007292   0.004155   0.036841  -0.000400  -0.041299   0.354745
    16  H    0.005411   0.003721   0.020508  -0.000792  -0.041521   0.371682
    17  H    0.000246  -0.000838   0.006122  -0.000259   0.001342  -0.063834
    18  H   -0.000478  -0.000803   0.002505  -0.000285   0.001468  -0.065033
    19  H   -0.000195  -0.000025  -0.002282  -0.000058  -0.000311  -0.049568
    20  H    0.000128   0.000032   0.008580   0.000028  -0.000675   0.091142
    21  H   -0.000088  -0.000049  -0.002158  -0.000067  -0.000330  -0.048574
    22  H    0.020023  -0.017355  -0.020615   0.000029  -0.000433  -0.001497
    23  Cl  -0.268177  -0.011072  -0.053079   0.000132  -0.000048  -0.002383
    24  C   -1.254775   0.031634  -0.035828  -0.000108   0.002603  -0.000845
    25  H    0.035961  -0.001569   0.005988  -0.000013   0.000008   0.000104
    26  H    0.032243  -0.020912   0.068455   0.001800   0.001288   0.009069
    27  F    0.029851   0.000003   0.000505  -0.000001   0.000001   0.000004
    28  F    0.018749  -0.000098  -0.000310   0.000000   0.000000  -0.000002
    29  F    0.021115  -0.000103   0.000204  -0.000000   0.000000   0.000000
               7          8          9         10         11         12
     1  C   -0.052389  -0.012292   2.060088  -1.066101  -4.938405  -4.162698
     2  N    0.024372  -0.006232  -0.200075   0.022720   0.080162   0.218740
     3  C    0.097042  -0.237751  -0.008400  -1.448406  -0.019260  -0.138560
     4  O    0.030022  -0.000185  -0.067776  -0.007605   0.015905   0.135369
     5  O   -0.148872   0.031699  -0.011234  -0.000625   0.016748  -0.003510
     6  C   -0.893654   0.305761   0.020082  -0.107060  -0.011810  -0.071823
     7  C    6.526178  -0.162892   0.014442  -0.001525  -0.003800  -0.002888
     8  C   -0.162892   6.138600   0.002094  -0.000465  -0.000343  -0.002086
     9  C    0.014442   0.002094  10.839803   0.986003  -2.551203  -2.157184
    10  C   -0.001525  -0.000465   0.986003  32.218759 -13.013397  -4.088737
    11  C   -0.003800  -0.000343  -2.551203 -13.013397  30.904917   2.028603
    12  C   -0.002888  -0.002086  -2.157184  -4.088737   2.028603  15.507475
    13  C   -0.011246  -0.012627  -1.153606  -6.455085  -2.718118  -0.878679
    14  H   -0.001776  -0.000439  -0.017807  -0.009402   0.022237   0.012218
    15  H   -0.021734  -0.016450   0.000381   0.000198  -0.000051  -0.000153
    16  H   -0.020157  -0.013094   0.001541   0.000156  -0.000128  -0.000574
    17  H    0.444204  -0.045853  -0.000096   0.000007   0.000007   0.000035
    18  H    0.449377  -0.045404   0.000304   0.000032  -0.000000  -0.000005
    19  H    0.015198   0.380663   0.000004  -0.000001  -0.000000   0.000002
    20  H   -0.131766   0.382285  -0.000024  -0.000001   0.000000   0.000003
    21  H    0.011146   0.383623   0.000012   0.000000  -0.000001  -0.000002
    22  H   -0.000038  -0.000002   0.311477  -0.002187   0.059507  -0.025777
    23  Cl  -0.000005  -0.000001   0.321874  -1.210351  -0.497405   0.351845
    24  C   -0.000494  -0.000003  -1.893354  -0.109171  -2.596778  -1.037079
    25  H    0.000002   0.000000  -0.004573  -0.059914   0.002397   0.336930
    26  H   -0.000332   0.000056  -0.005532  -0.004980   0.017350  -0.106869
    27  F   -0.000000   0.000000  -0.013524  -0.188143  -0.175257   0.148347
    28  F   -0.000000  -0.000000   0.024152  -0.196312   0.237357   0.043297
    29  F   -0.000000   0.000000   0.024101  -0.192488   0.242484   0.030374
              13         14         15         16         17         18
     1  C   -0.429223  -0.046805   0.007292   0.005411   0.000246  -0.000478
     2  N   -0.098889   0.267048   0.004155   0.003721  -0.000838  -0.000803
     3  C   -0.038866  -0.018972   0.036841   0.020508   0.006122   0.002505
     4  O    0.304442   0.000267  -0.000400  -0.000792  -0.000259  -0.000285
     5  O    0.004985   0.014577  -0.041299  -0.041521   0.001342   0.001468
     6  C   -0.237106  -0.005080   0.354745   0.371682  -0.063834  -0.065033
     7  C   -0.011246  -0.001776  -0.021734  -0.020157   0.444204   0.449377
     8  C   -0.012627  -0.000439  -0.016450  -0.013094  -0.045853  -0.045404
     9  C   -1.153606  -0.017807   0.000381   0.001541  -0.000096   0.000304
    10  C   -6.455085  -0.009402   0.000198   0.000156   0.000007   0.000032
    11  C   -2.718118   0.022237  -0.000051  -0.000128   0.000007  -0.000000
    12  C   -0.878679   0.012218  -0.000153  -0.000574   0.000035  -0.000005
    13  C   16.971255   0.048379  -0.001185  -0.004956   0.000258  -0.000167
    14  H    0.048379   0.246804  -0.000018  -0.000031   0.000010  -0.000007
    15  H   -0.001185  -0.000018   0.426122  -0.038546   0.004950  -0.007477
    16  H   -0.004956  -0.000031  -0.038546   0.426262  -0.007528   0.004952
    17  H    0.000258   0.000010   0.004950  -0.007528   0.431424  -0.036338
    18  H   -0.000167  -0.000007  -0.007477   0.004952  -0.036338   0.431295
    19  H    0.000024   0.000000  -0.000347   0.003145  -0.007608   0.005715
    20  H    0.000062   0.000000  -0.000152  -0.000145  -0.003118  -0.003072
    21  H   -0.000044  -0.000000   0.003152  -0.000341   0.005697  -0.007585
    22  H   -0.014784   0.003948  -0.000000  -0.000000  -0.000000  -0.000000
    23  Cl   0.352868   0.000610   0.000001   0.000001   0.000000   0.000000
    24  C   -0.050641   0.002314  -0.000003  -0.000005   0.000000  -0.000000
    25  H   -0.018258  -0.000010  -0.000000   0.000000  -0.000000  -0.000000
    26  H    0.326825  -0.000048  -0.000005  -0.000021   0.000000  -0.000000
    27  F    0.193308   0.000001  -0.000000  -0.000000   0.000000  -0.000000
    28  F    0.009678  -0.000000   0.000000  -0.000000   0.000000  -0.000000
    29  F   -0.000156  -0.000000  -0.000000   0.000000  -0.000000   0.000000
              19         20         21         22         23         24
     1  C   -0.000195   0.000128  -0.000088   0.020023  -0.268177  -1.254775
     2  N   -0.000025   0.000032  -0.000049  -0.017355  -0.011072   0.031634
     3  C   -0.002282   0.008580  -0.002158  -0.020615  -0.053079  -0.035828
     4  O   -0.000058   0.000028  -0.000067   0.000029   0.000132  -0.000108
     5  O   -0.000311  -0.000675  -0.000330  -0.000433  -0.000048   0.002603
     6  C   -0.049568   0.091142  -0.048574  -0.001497  -0.002383  -0.000845
     7  C    0.015198  -0.131766   0.011146  -0.000038  -0.000005  -0.000494
     8  C    0.380663   0.382285   0.383623  -0.000002  -0.000001  -0.000003
     9  C    0.000004  -0.000024   0.000012   0.311477   0.321874  -1.893354
    10  C   -0.000001  -0.000001   0.000000  -0.002187  -1.210351  -0.109171
    11  C   -0.000000   0.000000  -0.000001   0.059507  -0.497405  -2.596778
    12  C    0.000002   0.000003  -0.000002  -0.025777   0.351845  -1.037079
    13  C    0.000024   0.000062  -0.000044  -0.014784   0.352868  -0.050641
    14  H    0.000000   0.000000  -0.000000   0.003948   0.000610   0.002314
    15  H   -0.000347  -0.000152   0.003152  -0.000000   0.000001  -0.000003
    16  H    0.003145  -0.000145  -0.000341  -0.000000   0.000001  -0.000005
    17  H   -0.007608  -0.003118   0.005697  -0.000000   0.000000   0.000000
    18  H    0.005715  -0.003072  -0.007585  -0.000000   0.000000  -0.000000
    19  H    0.443795  -0.024072  -0.036293  -0.000000  -0.000000  -0.000000
    20  H   -0.024072   0.420765  -0.024033   0.000000  -0.000000   0.000000
    21  H   -0.036293  -0.024033   0.443537  -0.000000  -0.000000  -0.000000
    22  H   -0.000000   0.000000  -0.000000   0.351205  -0.007385   0.022754
    23  Cl  -0.000000  -0.000000  -0.000000  -0.007385  17.688911  -0.070614
    24  C   -0.000000   0.000000  -0.000000   0.022754  -0.070614  12.250475
    25  H    0.000000  -0.000000   0.000000   0.000027  -0.000252   0.020367
    26  H   -0.000000   0.000000  -0.000000  -0.000007   0.000142   0.010463
    27  F   -0.000000  -0.000000  -0.000000   0.000021   0.012808   0.140760
    28  F   -0.000000   0.000000  -0.000000  -0.000017  -0.013408   0.018772
    29  F    0.000000   0.000000  -0.000000  -0.000017  -0.012833   0.029149
              25         26         27         28         29
     1  C    0.035961   0.032243   0.029851   0.018749   0.021115
     2  N   -0.001569  -0.020912   0.000003  -0.000098  -0.000103
     3  C    0.005988   0.068455   0.000505  -0.000310   0.000204
     4  O   -0.000013   0.001800  -0.000001   0.000000  -0.000000
     5  O    0.000008   0.001288   0.000001   0.000000   0.000000
     6  C    0.000104   0.009069   0.000004  -0.000002   0.000000
     7  C    0.000002  -0.000332  -0.000000  -0.000000  -0.000000
     8  C    0.000000   0.000056   0.000000  -0.000000   0.000000
     9  C   -0.004573  -0.005532  -0.013524   0.024152   0.024101
    10  C   -0.059914  -0.004980  -0.188143  -0.196312  -0.192488
    11  C    0.002397   0.017350  -0.175257   0.237357   0.242484
    12  C    0.336930  -0.106869   0.148347   0.043297   0.030374
    13  C   -0.018258   0.326825   0.193308   0.009678  -0.000156
    14  H   -0.000010  -0.000048   0.000001  -0.000000  -0.000000
    15  H   -0.000000  -0.000005  -0.000000   0.000000  -0.000000
    16  H    0.000000  -0.000021  -0.000000  -0.000000   0.000000
    17  H   -0.000000   0.000000   0.000000   0.000000  -0.000000
    18  H   -0.000000  -0.000000  -0.000000  -0.000000   0.000000
    19  H    0.000000  -0.000000  -0.000000  -0.000000   0.000000
    20  H   -0.000000   0.000000  -0.000000   0.000000   0.000000
    21  H    0.000000  -0.000000  -0.000000  -0.000000  -0.000000
    22  H    0.000027  -0.000007   0.000021  -0.000017  -0.000017
    23  Cl  -0.000252   0.000142   0.012808  -0.013408  -0.012833
    24  C    0.020367   0.010463   0.140760   0.018772   0.029149
    25  H    0.354950  -0.001951   0.010996   0.000233   0.000151
    26  H   -0.001951   0.355923   0.000018   0.000026   0.000030
    27  F    0.010996   0.000018   9.060161  -0.035577  -0.035829
    28  F    0.000233   0.000026  -0.035577   9.006416  -0.047311
    29  F    0.000151   0.000030  -0.035829  -0.047311   9.007047
 Mulliken charges:
               1
     1  C   -0.688634
     2  N   -0.485757
     3  C    0.139302
     4  O   -0.415958
     5  O   -0.083249
     6  C   -0.371940
     7  C   -0.158414
     8  C   -1.068662
     9  C   -0.521971
    10  C    0.934080
    11  C   -1.101718
    12  C   -0.136611
    13  C   -0.088450
    14  H    0.481982
    15  H    0.289983
    16  H    0.290462
    17  H    0.271171
    18  H    0.271007
    19  H    0.272212
    20  H    0.284032
    21  H    0.272397
    22  H    0.321126
    23  Cl   0.417822
    24  C    0.520408
    25  H    0.318426
    26  H    0.316969
    27  F   -0.148453
    28  F   -0.065645
    29  F   -0.065917
 Sum of Mulliken charges =  -0.00000
 Mulliken charges with hydrogens summed into heavy atoms:
               1
     1  C   -0.688634
     2  N   -0.003774
     3  C    0.139302
     4  O   -0.415958
     5  O   -0.083249
     6  C    0.208506
     7  C    0.383763
     8  C   -0.240021
     9  C   -0.200845
    10  C    0.934080
    11  C   -1.101718
    12  C    0.181814
    13  C    0.228519
    23  Cl   0.417822
    24  C    0.520408
    27  F   -0.148453
    28  F   -0.065645
    29  F   -0.065917
 Electronic spatial extent (au):  <R**2>=           8798.2165
 Charge=             -0.0000 electrons
 Dipole moment (field-independent basis, Debye):
    X=             -6.9957    Y=              2.6134    Z=             -0.3012  Tot=              7.4739
 Quadrupole moment (field-independent basis, Debye-Ang):
   XX=           -112.4260   YY=           -109.2396   ZZ=           -113.4742
   XY=             -8.0111   XZ=              0.2372   YZ=              0.5431
 Traceless Quadrupole moment (field-independent basis, Debye-Ang):
   XX=             -0.7127   YY=              2.4736   ZZ=             -1.7610
   XY=             -8.0111   XZ=              0.2372   YZ=              0.5431
 Octapole moment (field-independent basis, Debye-Ang**2):
  XXX=           -183.9794  YYY=              3.9414  ZZZ=              0.8756  XYY=             27.7236
  XXY=             13.4691  XXZ=             -0.4511  XZZ=              6.3677  YZZ=             -3.9681
  YYZ=             -1.5967  XYZ=             -1.1618
 Hexadecapole moment (field-independent basis, Debye-Ang**3):
 XXXX=          -9323.0611 YYYY=          -1006.5352 ZZZZ=           -205.2874 XXXY=            -43.8232
 XXXZ=              2.0343 YYYX=            -73.4651 YYYZ=              2.4152 ZZZX=             -0.5297
 ZZZY=             -0.8557 XXYY=          -1850.2794 XXZZ=          -1673.8809 YYZZ=           -211.8476
 XXYZ=              5.6053 YYXZ=              4.3963 ZZXY=             -9.8832
 N-N= 1.431105338202D+03 E-N=-6.140958116469D+03  KE= 1.386738230619D+03
 D1PCM: PCM CHGder 1st derivatives, ID1Alg=3 FixD1E=F DoIter=F DoCFld=F I1PDM=0.
 Calling FoFJK, ICntrl=      2127 FMM=F ISym2X=0 I1Cent= 0 IOpClX= 0 NMat=1 NMatS=1 NMatT=0.
 ***** Axes restored to original set *****
 -------------------------------------------------------------------
 Center     Atomic                   Forces (Hartrees/Bohr)
 Number     Number              X              Y              Z
 -------------------------------------------------------------------
      1        6          -0.000007539   -0.000006244   -0.000000579
      2        7           0.000012930   -0.000000255    0.000002563
      3        6           0.000004175    0.000005062   -0.000004347
      4        8          -0.000007441   -0.000003257    0.000001225
      5        8          -0.000010017    0.000004403    0.000001812
      6        6          -0.000003654   -0.000000701    0.000000845
      7        6          -0.000000443    0.000003342   -0.000000675
      8        6           0.000000473    0.000003406    0.000001055
      9        6           0.000007708    0.000000674   -0.000002993
     10        6          -0.000004828   -0.000000501    0.000000055
     11        6           0.000002658   -0.000006283   -0.000000490
     12        6           0.000001768    0.000002810   -0.000001469
     13        6           0.000000345   -0.000009770    0.000004336
     14        1           0.000001666    0.000000137    0.000000257
     15        1          -0.000000699    0.000002639    0.000001978
     16        1           0.000000358    0.000004774   -0.000000095
     17        1           0.000002397    0.000002266   -0.000000475
     18        1           0.000001286    0.000001690    0.000000667
     19        1           0.000000226    0.000004757    0.000000212
     20        1           0.000001359    0.000003110    0.000000460
     21        1           0.000000334    0.000003658    0.000001153
     22        1          -0.000001422   -0.000002356   -0.000002589
     23       17           0.000000639   -0.000003341   -0.000001635
     24        6          -0.000007934    0.000000268    0.000000845
     25        1          -0.000001134   -0.000001655    0.000001062
     26        1           0.000005174    0.000004222   -0.000001112
     27        9          -0.000003358   -0.000009472    0.000001008
     28        9           0.000002679   -0.000000055    0.000002739
     29        9           0.000002293   -0.000003331   -0.000005814
 -------------------------------------------------------------------
 Cartesian Forces:  Max     0.000012930 RMS     0.000003777

 GradGradGradGradGradGradGradGradGradGradGradGradGradGradGradGradGradGrad
 Berny optimization.
 FormGI is forming the generalized inverse of G from B-inverse, IUseBI=4.
 GSVD:  received Info=                   1 from GESDD.
 Internal  Forces:  Max     0.000024429 RMS     0.000004497
 Search for a local minimum.
 Step number   1 out of a maximum of  149
 All quantities printed in internal units (Hartrees-Bohrs-Radians)
 Mixed Optimization -- En-DIIS/RFO-DIIS
 Second derivative matrix not updated -- first step.
 ITU=  0
     Eigenvalues ---    0.00438   0.00612   0.00792   0.01110   0.01610
     Eigenvalues ---    0.01746   0.01951   0.02004   0.02118   0.02153
     Eigenvalues ---    0.02182   0.02189   0.02222   0.02227   0.02237
     Eigenvalues ---    0.02268   0.02272   0.02520   0.03889   0.05009
     Eigenvalues ---    0.05450   0.05549   0.05578   0.05743   0.08040
     Eigenvalues ---    0.10603   0.10695   0.11238   0.11955   0.13578
     Eigenvalues ---    0.15993   0.16000   0.16000   0.16000   0.16000
     Eigenvalues ---    0.16000   0.16000   0.21890   0.21982   0.22003
     Eigenvalues ---    0.22376   0.23486   0.24609   0.24999   0.25000
     Eigenvalues ---    0.25000   0.25000   0.25000   0.25000   0.25000
     Eigenvalues ---    0.25000   0.25000   0.29911   0.31102   0.31187
     Eigenvalues ---    0.32586   0.34424   0.34424   0.34479   0.34479
     Eigenvalues ---    0.34590   0.34593   0.34679   0.35531   0.35672
     Eigenvalues ---    0.36225   0.39041   0.42296   0.42903   0.45452
     Eigenvalues ---    0.46156   0.46242   0.46309   0.47283   0.48658
     Eigenvalues ---    0.51928   0.55901   0.55912   0.57378   0.57788
     Eigenvalues ---    0.98052
 RFO step:  Lambda=-1.20040482D-08 EMin= 4.38133920D-03
 Linear search not attempted -- first point.
 Iteration  1 RMS(Cart)=  0.00025061 RMS(Int)=  0.00000001
 Iteration  2 RMS(Cart)=  0.00000003 RMS(Int)=  0.00000000
 Variable       Old X    -DE/DX   Delta X   Delta X   Delta X     New X
                                 (Linear)    (Quad)   (Total)
    R1        2.63784  -0.00001   0.00000  -0.00001  -0.00001   2.63783
    R2        2.64808  -0.00000   0.00000  -0.00001  -0.00001   2.64807
    R3        2.63934  -0.00000   0.00000  -0.00001  -0.00001   2.63933
    R4        2.57969  -0.00001   0.00000  -0.00002  -0.00002   2.57966
    R5        1.91454  -0.00000   0.00000  -0.00000  -0.00000   1.91454
    R6        2.29429  -0.00001   0.00000  -0.00001  -0.00001   2.29429
    R7        2.52735  -0.00001   0.00000  -0.00002  -0.00002   2.52733
    R8        2.72878  -0.00000   0.00000  -0.00001  -0.00001   2.72877
    R9        2.85656  -0.00000   0.00000  -0.00000  -0.00000   2.85656
   R10        2.06341   0.00000   0.00000   0.00000   0.00000   2.06341
   R11        2.06346   0.00000   0.00000   0.00001   0.00001   2.06346
   R12        2.88142   0.00000   0.00000   0.00000   0.00000   2.88142
   R13        2.06621   0.00000   0.00000   0.00000   0.00000   2.06621
   R14        2.06620   0.00000   0.00000   0.00000   0.00000   2.06620
   R15        2.06529   0.00000   0.00000   0.00000   0.00000   2.06530
   R16        2.06199   0.00000   0.00000   0.00000   0.00000   2.06199
   R17        2.06529   0.00000   0.00000   0.00000   0.00000   2.06529
   R18        2.60737   0.00000   0.00000   0.00001   0.00001   2.60738
   R19        2.04821   0.00000   0.00000   0.00000   0.00000   2.04821
   R20        2.63979   0.00000   0.00000   0.00000   0.00000   2.63979
   R21        3.29519   0.00000   0.00000   0.00000   0.00000   3.29519
   R22        2.62664   0.00000   0.00000   0.00001   0.00001   2.62665
   R23        2.83084   0.00000   0.00000   0.00001   0.00001   2.83085
   R24        2.62264  -0.00000   0.00000  -0.00000  -0.00000   2.62264
   R25        2.04598  -0.00000   0.00000  -0.00000  -0.00000   2.04598
   R26        2.03731   0.00001   0.00000   0.00002   0.00002   2.03734
   R27        2.53078  -0.00001   0.00000  -0.00001  -0.00001   2.53077
   R28        2.54331  -0.00001   0.00000  -0.00001  -0.00001   2.54330
   R29        2.54340  -0.00001   0.00000  -0.00001  -0.00001   2.54339
    A1        2.02776   0.00002   0.00000   0.00008   0.00008   2.02784
    A2        2.16909  -0.00002   0.00000  -0.00009  -0.00009   2.16900
    A3        2.08629   0.00000   0.00000   0.00002   0.00002   2.08631
    A4        2.22909  -0.00002   0.00000  -0.00011  -0.00011   2.22898
    A5        2.03520   0.00001   0.00000   0.00006   0.00006   2.03526
    A6        2.01811   0.00001   0.00000   0.00005   0.00005   2.01816
    A7        2.20098  -0.00001   0.00000  -0.00003  -0.00003   2.20096
    A8        1.91392  -0.00000   0.00000  -0.00000  -0.00000   1.91392
    A9        2.16828   0.00001   0.00000   0.00003   0.00003   2.16831
   A10        2.02698  -0.00001   0.00000  -0.00004  -0.00004   2.02694
   A11        1.87728   0.00000   0.00000   0.00001   0.00001   1.87730
   A12        1.89509  -0.00000   0.00000  -0.00001  -0.00001   1.89509
   A13        1.89476  -0.00000   0.00000  -0.00000  -0.00000   1.89475
   A14        1.94734   0.00000   0.00000   0.00000   0.00000   1.94734
   A15        1.94710  -0.00000   0.00000  -0.00000  -0.00000   1.94710
   A16        1.90082  -0.00000   0.00000  -0.00001  -0.00001   1.90081
   A17        1.92759  -0.00000   0.00000  -0.00001  -0.00001   1.92758
   A18        1.90453   0.00000   0.00000   0.00001   0.00001   1.90454
   A19        1.90493   0.00000   0.00000   0.00000   0.00000   1.90494
   A20        1.92523  -0.00000   0.00000  -0.00001  -0.00001   1.92522
   A21        1.92515   0.00000   0.00000   0.00000   0.00000   1.92515
   A22        1.87548  -0.00000   0.00000   0.00000   0.00000   1.87548
   A23        1.93958  -0.00000   0.00000  -0.00000  -0.00000   1.93958
   A24        1.93532  -0.00000   0.00000  -0.00000  -0.00000   1.93532
   A25        1.93942   0.00000   0.00000   0.00000   0.00000   1.93943
   A26        1.88212   0.00000   0.00000   0.00000   0.00000   1.88212
   A27        1.88287  -0.00000   0.00000  -0.00000  -0.00000   1.88287
   A28        1.88213   0.00000   0.00000   0.00000   0.00000   1.88213
   A29        2.09463  -0.00000   0.00000  -0.00002  -0.00002   2.09461
   A30        2.09458   0.00000   0.00000   0.00002   0.00002   2.09460
   A31        2.09397  -0.00000   0.00000  -0.00001  -0.00001   2.09397
   A32        2.11445  -0.00000   0.00000   0.00000   0.00000   2.11445
   A33        2.05670   0.00000   0.00000   0.00000   0.00000   2.05670
   A34        2.11203   0.00000   0.00000  -0.00000  -0.00000   2.11203
   A35        2.06362   0.00000   0.00000   0.00001   0.00001   2.06362
   A36        2.12253  -0.00000   0.00000  -0.00001  -0.00001   2.12252
   A37        2.09704   0.00000   0.00000   0.00000   0.00000   2.09704
   A38        2.12363  -0.00000   0.00000  -0.00001  -0.00001   2.12361
   A39        2.08626   0.00000   0.00000   0.00001   0.00001   2.08627
   A40        2.07330   0.00000   0.00000   0.00000   0.00000   2.07330
   A41        2.08375   0.00000   0.00000   0.00001   0.00001   2.08375
   A42        2.11299  -0.00000   0.00000  -0.00001  -0.00001   2.11298
   A43        2.08645  -0.00000   0.00000   0.00000   0.00000   2.08645
   A44        1.95447   0.00000   0.00000   0.00001   0.00001   1.95449
   A45        1.96426   0.00000   0.00000   0.00000   0.00000   1.96426
   A46        1.96417  -0.00000   0.00000  -0.00000  -0.00000   1.96416
   A47        1.85901  -0.00000   0.00000  -0.00001  -0.00001   1.85900
   A48        1.85899  -0.00000   0.00000  -0.00000  -0.00000   1.85899
   A49        1.85516   0.00000   0.00000   0.00000   0.00000   1.85517
    D1       -3.04451  -0.00000   0.00000  -0.00009  -0.00009  -3.04460
    D2        0.05248  -0.00000   0.00000  -0.00007  -0.00007   0.05241
    D3        0.10694  -0.00000   0.00000  -0.00013  -0.00013   0.10681
    D4       -3.07926  -0.00000   0.00000  -0.00011  -0.00011  -3.07937
    D5       -3.13382  -0.00000   0.00000  -0.00007  -0.00007  -3.13389
    D6        0.00948  -0.00000   0.00000  -0.00006  -0.00006   0.00943
    D7       -0.00159  -0.00000   0.00000  -0.00004  -0.00004  -0.00163
    D8       -3.14147  -0.00000   0.00000  -0.00003  -0.00003  -3.14149
    D9        3.13546   0.00000   0.00000   0.00006   0.00006   3.13551
   D10       -0.00267   0.00000   0.00000   0.00005   0.00005  -0.00262
   D11        0.00403   0.00000   0.00000   0.00002   0.00002   0.00405
   D12       -3.13410   0.00000   0.00000   0.00001   0.00001  -3.13409
   D13       -0.00951   0.00000   0.00000   0.00001   0.00001  -0.00950
   D14        3.13055  -0.00000   0.00000  -0.00002  -0.00002   3.13053
   D15       -3.10687  -0.00000   0.00000  -0.00001  -0.00001  -3.10688
   D16        0.03319  -0.00000   0.00000  -0.00003  -0.00003   0.03315
   D17       -3.13928   0.00000   0.00000   0.00003   0.00003  -3.13925
   D18        0.00081   0.00000   0.00000   0.00000   0.00000   0.00081
   D19       -3.13842   0.00000   0.00000   0.00010   0.00010  -3.13832
   D20        1.03498   0.00000   0.00000   0.00009   0.00009   1.03507
   D21       -1.02910   0.00000   0.00000   0.00011   0.00011  -1.02900
   D22       -3.14106  -0.00000   0.00000  -0.00004  -0.00004  -3.14109
   D23        1.02302   0.00000   0.00000  -0.00003  -0.00003   1.02299
   D24       -1.02179  -0.00000   0.00000  -0.00004  -0.00004  -1.02182
   D25       -1.06444  -0.00000   0.00000  -0.00003  -0.00003  -1.06447
   D26        3.09964   0.00000   0.00000  -0.00002  -0.00002   3.09961
   D27        1.05483  -0.00000   0.00000  -0.00003  -0.00003   1.05480
   D28        1.06606  -0.00000   0.00000  -0.00004  -0.00004   1.06602
   D29       -1.05305  -0.00000   0.00000  -0.00003  -0.00003  -1.05308
   D30       -3.09786  -0.00000   0.00000  -0.00004  -0.00004  -3.09790
   D31       -1.04799   0.00000   0.00000   0.00001   0.00001  -1.04798
   D32       -3.14118   0.00000   0.00000   0.00001   0.00001  -3.14117
   D33        1.04890  -0.00000   0.00000   0.00001   0.00001   1.04890
   D34        1.05880   0.00000   0.00000   0.00001   0.00001   1.05881
   D35       -1.03439   0.00000   0.00000   0.00001   0.00001  -1.03438
   D36       -3.12749   0.00000   0.00000   0.00000   0.00000  -3.12749
   D37        3.12795  -0.00000   0.00000   0.00001   0.00001   3.12796
   D38        1.03476   0.00000   0.00000   0.00001   0.00001   1.03477
   D39       -1.05834  -0.00000   0.00000   0.00000   0.00000  -1.05834
   D40       -0.00209   0.00000   0.00000   0.00002   0.00002  -0.00207
   D41        3.14134   0.00000   0.00000   0.00003   0.00003   3.14137
   D42        3.13779   0.00000   0.00000   0.00001   0.00001   3.13780
   D43       -0.00196   0.00000   0.00000   0.00002   0.00002  -0.00195
   D44        0.00323   0.00000   0.00000   0.00001   0.00001   0.00323
   D45       -3.14008   0.00000   0.00000   0.00002   0.00002  -3.14006
   D46       -3.14027   0.00000   0.00000   0.00000   0.00000  -3.14026
   D47       -0.00039   0.00000   0.00000   0.00002   0.00002  -0.00037
   D48       -0.00071  -0.00000   0.00000  -0.00002  -0.00002  -0.00073
   D49        3.13770   0.00000   0.00000   0.00001   0.00001   3.13771
   D50       -3.14061  -0.00000   0.00000  -0.00004  -0.00004  -3.14065
   D51       -0.00220  -0.00000   0.00000  -0.00001  -0.00001  -0.00221
   D52       -3.14089  -0.00000   0.00000  -0.00001  -0.00001  -3.14090
   D53       -1.04711  -0.00000   0.00000  -0.00001  -0.00001  -1.04713
   D54        1.04862  -0.00000   0.00000  -0.00002  -0.00002   1.04860
   D55       -0.00104   0.00000   0.00000   0.00000   0.00000  -0.00104
   D56        2.09273   0.00000   0.00000   0.00000   0.00000   2.09273
   D57       -2.09472  -0.00000   0.00000   0.00000   0.00000  -2.09472
   D58       -0.00290   0.00000   0.00000   0.00001   0.00001  -0.00289
   D59        3.13529   0.00000   0.00000   0.00001   0.00001   3.13530
   D60       -3.14133  -0.00000   0.00000  -0.00002  -0.00002  -3.14135
   D61       -0.00315  -0.00000   0.00000  -0.00001  -0.00001  -0.00316
         Item               Value     Threshold  Converged?
 Maximum Force            0.000024     0.000450     YES
 RMS     Force            0.000004     0.000300     YES
 Maximum Displacement     0.000716     0.001800     YES
 RMS     Displacement     0.000251     0.001200     YES
 Predicted change in Energy=-6.002024D-09
 Optimization completed.
    -- Stationary point found.
                           ----------------------------
                           !   Optimized Parameters   !
                           ! (Angstroms and Degrees)  !
 --------------------------                            --------------------------
 ! Name  Definition              Value          Derivative Info.                !
 --------------------------------------------------------------------------------
 ! R1    R(1,2)                  1.3959         -DE/DX =    0.0                 !
 ! R2    R(1,9)                  1.4013         -DE/DX =    0.0                 !
 ! R3    R(1,13)                 1.3967         -DE/DX =    0.0                 !
 ! R4    R(2,3)                  1.3651         -DE/DX =    0.0                 !
 ! R5    R(2,14)                 1.0131         -DE/DX =    0.0                 !
 ! R6    R(3,4)                  1.2141         -DE/DX =    0.0                 !
 ! R7    R(3,5)                  1.3374         -DE/DX =    0.0                 !
 ! R8    R(5,6)                  1.444          -DE/DX =    0.0                 !
 ! R9    R(6,7)                  1.5116         -DE/DX =    0.0                 !
 ! R10   R(6,15)                 1.0919         -DE/DX =    0.0                 !
 ! R11   R(6,16)                 1.0919         -DE/DX =    0.0                 !
 ! R12   R(7,8)                  1.5248         -DE/DX =    0.0                 !
 ! R13   R(7,17)                 1.0934         -DE/DX =    0.0                 !
 ! R14   R(7,18)                 1.0934         -DE/DX =    0.0                 !
 ! R15   R(8,19)                 1.0929         -DE/DX =    0.0                 !
 ! R16   R(8,20)                 1.0912         -DE/DX =    0.0                 !
 ! R17   R(8,21)                 1.0929         -DE/DX =    0.0                 !
 ! R18   R(9,10)                 1.3798         -DE/DX =    0.0                 !
 ! R19   R(9,22)                 1.0839         -DE/DX =    0.0                 !
 ! R20   R(10,11)                1.3969         -DE/DX =    0.0                 !
 ! R21   R(10,23)                1.7437         -DE/DX =    0.0                 !
 ! R22   R(11,12)                1.39           -DE/DX =    0.0                 !
 ! R23   R(11,24)                1.498          -DE/DX =    0.0                 !
 ! R24   R(12,13)                1.3878         -DE/DX =    0.0                 !
 ! R25   R(12,25)                1.0827         -DE/DX =    0.0                 !
 ! R26   R(13,26)                1.0781         -DE/DX =    0.0                 !
 ! R27   R(24,27)                1.3392         -DE/DX =    0.0                 !
 ! R28   R(24,28)                1.3459         -DE/DX =    0.0                 !
 ! R29   R(24,29)                1.3459         -DE/DX =    0.0                 !
 ! A1    A(2,1,9)              116.182          -DE/DX =    0.0                 !
 ! A2    A(2,1,13)             124.2799         -DE/DX =    0.0                 !
 ! A3    A(9,1,13)             119.5357         -DE/DX =    0.0                 !
 ! A4    A(1,2,3)              127.7177         -DE/DX =    0.0                 !
 ! A5    A(1,2,14)             116.6083         -DE/DX =    0.0                 !
 ! A6    A(3,2,14)             115.6293         -DE/DX =    0.0                 !
 ! A7    A(2,3,4)              126.1071         -DE/DX =    0.0                 !
 ! A8    A(2,3,5)              109.6596         -DE/DX =    0.0                 !
 ! A9    A(4,3,5)              124.2332         -DE/DX =    0.0                 !
 ! A10   A(3,5,6)              116.1374         -DE/DX =    0.0                 !
 ! A11   A(5,6,7)              107.5605         -DE/DX =    0.0                 !
 ! A12   A(5,6,15)             108.5807         -DE/DX =    0.0                 !
 ! A13   A(5,6,16)             108.5615         -DE/DX =    0.0                 !
 ! A14   A(7,6,15)             111.5743         -DE/DX =    0.0                 !
 ! A15   A(7,6,16)             111.5608         -DE/DX =    0.0                 !
 ! A16   A(15,6,16)            108.9087         -DE/DX =    0.0                 !
 ! A17   A(6,7,8)              110.4428         -DE/DX =    0.0                 !
 ! A18   A(6,7,17)             109.1215         -DE/DX =    0.0                 !
 ! A19   A(6,7,18)             109.1445         -DE/DX =    0.0                 !
 ! A20   A(8,7,17)             110.3077         -DE/DX =    0.0                 !
 ! A21   A(8,7,18)             110.303          -DE/DX =    0.0                 !
 ! A22   A(17,7,18)            107.4572         -DE/DX =    0.0                 !
 ! A23   A(7,8,19)             111.1298         -DE/DX =    0.0                 !
 ! A24   A(7,8,20)             110.8859         -DE/DX =    0.0                 !
 ! A25   A(7,8,21)             111.1208         -DE/DX =    0.0                 !
 ! A26   A(19,8,20)            107.8373         -DE/DX =    0.0                 !
 ! A27   A(19,8,21)            107.8808         -DE/DX =    0.0                 !
 ! A28   A(20,8,21)            107.838          -DE/DX =    0.0                 !
 ! A29   A(1,9,10)             120.0135         -DE/DX =    0.0                 !
 ! A30   A(1,9,22)             120.0105         -DE/DX =    0.0                 !
 ! A31   A(10,9,22)            119.9759         -DE/DX =    0.0                 !
 ! A32   A(9,10,11)            121.1491         -DE/DX =    0.0                 !
 ! A33   A(9,10,23)            117.8404         -DE/DX =    0.0                 !
 ! A34   A(11,10,23)           121.0104         -DE/DX =    0.0                 !
 ! A35   A(10,11,12)           118.2365         -DE/DX =    0.0                 !
 ! A36   A(10,11,24)           121.6118         -DE/DX =    0.0                 !
 ! A37   A(12,11,24)           120.1516         -DE/DX =    0.0                 !
 ! A38   A(11,12,13)           121.6749         -DE/DX =    0.0                 !
 ! A39   A(11,12,25)           119.5338         -DE/DX =    0.0                 !
 ! A40   A(13,12,25)           118.7911         -DE/DX =    0.0                 !
 ! A41   A(1,13,12)            119.3898         -DE/DX =    0.0                 !
 ! A42   A(1,13,26)            121.0652         -DE/DX =    0.0                 !
 ! A43   A(12,13,26)           119.5447         -DE/DX =    0.0                 !
 ! A44   A(11,24,27)           111.9831         -DE/DX =    0.0                 !
 ! A45   A(11,24,28)           112.544          -DE/DX =    0.0                 !
 ! A46   A(11,24,29)           112.5386         -DE/DX =    0.0                 !
 ! A47   A(27,24,28)           106.5134         -DE/DX =    0.0                 !
 ! A48   A(27,24,29)           106.5123         -DE/DX =    0.0                 !
 ! A49   A(28,24,29)           106.2931         -DE/DX =    0.0                 !
 ! D1    D(9,1,2,3)           -174.4375         -DE/DX =    0.0                 !
 ! D2    D(9,1,2,14)             3.0069         -DE/DX =    0.0                 !
 ! D3    D(13,1,2,3)             6.1272         -DE/DX =    0.0                 !
 ! D4    D(13,1,2,14)         -176.4284         -DE/DX =    0.0                 !
 ! D5    D(2,1,9,10)          -179.5548         -DE/DX =    0.0                 !
 ! D6    D(2,1,9,22)             0.5434         -DE/DX =    0.0                 !
[...]
 000041,-0.00000058,-0.00000200,-0.00000098,-0.00003571,-0.00107633,0.0
 0011644,0.15985344,0.00318863,0.00188428,0.00061817,-0.00170482,-0.000
 23212,0.00007130,0.00147357,0.00072758,-0.00012853,-0.00051045,-0.0004
 3040,0.00003687,-0.00072316,0.00018763,-0.00001550,0.00017403,0.000088
 95,-0.00000438,-0.00002708,-0.00003834,0.00000410,-0.00000507,0.000023
 79,-0.00000247,-0.00766526,-0.00080048,0.00127835,-0.06224681,-0.09407
 726,0.01610574,-0.03196391,-0.02132292,0.00599115,0.00565587,-0.004505
 98,0.00134607,-0.00160278,-0.00087168,0.00002479,-0.00000584,-0.000145
 97,0.00001986,-0.00003111,-0.00000953,-0.00000019,-0.00003217,-0.00000
 806,0.00000123,-0.00000007,0.00000435,0.00000154,0.00000001,0.00000397
 ,-0.00000232,-0.00000037,-0.00000101,0.00000052,-0.00001064,-0.0000017
 5,0.00000016,-0.00000042,-0.00000120,-0.00000036,0.00114865,0.00093368
 ,-0.00065186,0.09590585,0.12580646,-0.00037722,0.00039839,0.00595046,0
 .00047751,0.00012642,-0.00007180,-0.00036949,-0.00021979,-0.00020656,0
 .00013007,0.00011549,0.00003329,0.00018421,-0.00004568,-0.00000541,-0.
 00004179,-0.00002028,0.00002121,0.00000753,0.00001023,0.00000266,0.000
 00131,-0.00000633,-0.00000026,0.00336047,0.00241561,0.00371166,0.01557
 766,0.01617847,-0.02653477,0.00615241,0.00482557,0.00203579,-0.0007914
 8,0.00161017,0.00381340,0.00024869,0.00009964,-0.00105640,0.00000009,0
 .00004228,0.00004846,0.00001084,0.00000116,-0.00000038,0.00000433,0.00
 000308,-0.00000063,0.00000008,-0.00000092,-0.00000028,0.00000004,-0.00
 000132,0.00000057,0.00000004,0.00000026,-0.00000021,0.00000266,0.00000
 040,-0.00000032,0.00000021,0.00000015,0.00000012,-0.00023619,-0.000553
 63,-0.00286492,-0.02446866,-0.02542688,0.01865130,-0.01170388,0.002305
 58,0.00023421,0.01577824,-0.00181382,-0.00025336,-0.01039788,-0.006261
 48,0.00105126,0.00199407,0.00402791,-0.00042291,0.00415213,-0.00131558
 ,0.00008085,-0.00102030,-0.00037684,0.00002523,0.00012810,0.00021154,-
 0.00002149,0.00002197,-0.00012254,0.00001162,0.01103174,-0.00161095,0.
 00022910,0.00161414,0.02300482,-0.00439776,-0.19729599,0.03899860,-0.0
 0069250,-0.03116108,0.00068609,0.00141105,0.00450274,-0.00703620,0.001
 12349,0.00027393,0.00086029,-0.00026527,0.00020531,0.00004285,0.000003
 70,0.00020629,0.00003741,-0.00001081,-0.00000237,-0.00002192,-0.000007
 38,-0.00000280,-0.00001984,0.00001104,0.00000269,0.00000591,-0.0000050
 0,0.00005651,0.00000916,-0.00000086,0.00000280,0.00000687,0.00000356,0
 .00115793,-0.00065425,0.00009947,-0.00576051,-0.00361050,0.00075955,0.
 57675985,0.00291170,-0.00456581,0.00049161,-0.00558971,0.00076780,-0.0
 0012330,0.00380064,0.00218734,-0.00036206,-0.00087550,-0.00135090,0.00
 012166,-0.00157762,0.00053369,-0.00001521,0.00039213,0.00014694,-0.000
 00835,-0.00004811,-0.00007776,0.00000614,-0.00000808,0.00004505,-0.000
 00429,-0.00129564,-0.00493538,0.00186045,0.03078946,-0.01145337,0.0000
 0212,0.04740554,-0.10995109,0.00643407,-0.00874785,0.01816869,-0.00265
 960,-0.00715385,-0.00119208,0.00189836,-0.00016125,-0.00029596,0.00009
 970,-0.00007469,-0.00001746,-0.00000366,-0.00007659,-0.00001514,0.0000
 0504,0.00000099,0.00000780,0.00000141,0.00000183,0.00000786,-0.0000029
 9,-0.00000149,-0.00000216,0.00000249,-0.00002072,-0.00000382,0.0000006
 7,-0.00000187,-0.00000287,-0.00000216,0.00092197,0.00006007,0.00012424
 ,0.00071956,-0.00040748,-0.00041239,-0.03793456,0.53321994,-0.00003259
 ,0.00054865,-0.00106349,0.00021773,-0.00014429,-0.00078321,-0.00020044
 ,-0.00009044,-0.00005245,0.00011212,0.00003307,-0.00004461,0.00007861,
 -0.00002230,0.00010603,-0.00001727,-0.00000176,0.00003815,0.00000092,0
 .00000306,-0.00000782,0.00000139,-0.00000220,-0.00000020,-0.00008985,0
 .00197933,0.00508361,-0.00583608,0.00040195,-0.00304457,-0.00209373,0.
 00692021,-0.06352239,0.00297109,-0.00319514,0.00179644,0.00150301,0.00
 176769,0.00640467,0.00002148,0.00000660,0.00000124,0.00000776,-0.00000
 248,-0.00000494,-0.00000089,0.00000411,-0.00000573,-0.00000128,-0.0000
 0257,-0.00000023,0.00000025,0.00000192,-0.00000085,0.00000128,0.000001
 51,-0.00000117,0.00000090,0.00000036,0.00000094,-0.00000092,-0.0000011
 1,-0.00000077,-0.00017437,0.00020495,0.00092506,-0.00000221,-0.0002898
 4,-0.00278428,0.00146232,-0.01077358,0.46500724,-0.00479901,0.00156018
 ,0.00034680,-0.00004147,0.00158125,-0.00028482,0.00062365,0.00030627,-
 0.00001278,-0.00013150,-0.00022231,0.00002243,-0.00028837,0.00002613,-
 0.00000163,0.00006638,0.00003317,-0.00000331,-0.00001163,-0.00001481,0
 .00000151,-0.00000155,0.00000900,-0.00000074,-0.00103469,-0.00018040,0
 .00002538,-0.00299997,-0.00160074,0.00073132,0.00809419,-0.02320620,0.
 00411254,-0.06551536,0.04493582,-0.00705476,-0.00084969,0.02860672,-0.
 00511268,-0.00038141,0.00002709,-0.00002590,-0.00001211,-0.00000437,-0
 .00000079,-0.00001235,-0.00000421,0.00000143,0.00000021,0.00000133,0.0
 0000046,0.00000031,0.00000115,-0.00000065,-0.00000020,-0.00000043,0.00
 000051,-0.00000400,-0.00000090,0.00000009,-0.00000022,-0.00000048,-0.0
 0000044,0.00011446,0.00005246,-0.00002484,-0.00053455,-0.00168156,0.00
 033898,-0.00030389,-0.00167026,0.00014584,0.06924365,0.00079541,0.0014
 8357,0.00102886,0.00026373,-0.00028745,0.00003182,-0.00036964,-0.00020
 733,0.00003606,0.00006694,0.00013965,-0.00000632,0.00016027,-0.0000375
 2,-0.00000264,-0.00003961,-0.00001703,0.00000370,0.00000556,0.00000839
 ,-0.00000057,0.00000041,-0.00000513,0.00000038,0.00003787,0.00044983,-
 0.00030811,-0.00244912,0.00040737,0.00115784,0.00314510,-0.01303764,0.
 00312295,0.04413979,-0.33758172,0.05310184,-0.00002423,-0.00422101,0.0
 0171018,0.00006954,0.00004749,-0.00004645,0.00000768,0.00000238,0.0000
 0033,0.00000768,0.00000188,-0.00000074,-0.00000013,-0.00000098,-0.0000
 0039,-0.00000020,-0.00000081,0.00000043,0.00000020,0.00000043,-0.00000
 051,0.00000237,0.00000027,-0.00000006,0.00000011,0.00000046,0.00000036
 ,0.00002917,-0.00006045,-0.00004484,-0.00012383,-0.00065702,0.00018079
 ,0.00086293,-0.00256363,-0.00029214,-0.04919107,0.35346910,0.00050503,
 0.00087712,0.00711521,-0.00011479,0.00001958,-0.00008732,0.00006254,0.
 00003437,0.00004755,-0.00004615,-0.00000174,0.00004625,-0.00002979,0.0
 0001213,-0.00002930,0.00000795,0.00000523,0.00001070,-0.00000075,-0.00
 000145,0.00000140,-0.00000016,0.00000082,-0.00000055,0.00001373,-0.000
 30616,-0.00113738,0.00085605,0.00116255,0.00565120,-0.00086290,0.00428
 620,0.00394391,-0.00675400,0.05308841,-0.04886818,0.00016370,0.0004009
 9,0.00491651,-0.00000957,-0.00004830,-0.00022154,-0.00000050,-0.000000
 04,-0.00000001,-0.00000139,-0.00000144,0.00000010,0.00000014,0.0000001
 5,-0.00000031,0.00000005,0.00000029,-0.00000025,0.00000005,-0.00000003
 ,0.,-0.00000038,-0.00000009,-0.00000010,-0.00000027,-0.00000019,-0.000
 00021,-0.00002261,-0.00004184,-0.00028188,0.00006443,0.00026023,0.0002
 6869,-0.00030168,-0.00019372,-0.00378645,0.00716918,-0.05811708,0.0371
 2583,0.01097083,0.00551404,-0.00143396,-0.00104073,-0.00148082,0.00005
 263,0.00025404,0.00260619,-0.00031639,-0.00710783,0.00006183,-0.000316
 20,0.00001468,-0.00021679,0.00003201,-0.00010350,-0.00003069,0.0000044
 3,0.00000495,0.00001202,-0.00000077,0.00000361,-0.00000725,0.00000099,
 0.00016914,0.00218316,-0.00016210,-0.00011945,0.00065008,-0.00015216,-
 0.00302768,0.00271004,-0.00003899,-0.01679086,-0.01718395,0.00425569,-
 0.22762138,-0.14981897,0.03844294,-0.00000855,-0.00007744,0.00004238,-
 0.00000217,0.00000889,0.00000765,-0.00000574,0.00000699,-0.00001033,-0
 .00000071,-0.00000027,-0.00000117,-0.00000046,-0.00000038,0.00000102,0
 .00000047,0.00000059,-0.00000027,0.00000209,0.00000040,-0.00000011,0.0
 0000047,0.00000063,0.00000002,0.00043638,0.00044274,-0.00008202,0.0002
 0382,0.00002720,-0.00004231,0.00025232,-0.00107447,0.00018581,0.001296
 17,-0.00009831,-0.00024195,0.24301854,-0.02341321,-0.01315637,0.004446
 55,0.00008319,0.00203447,-0.00092459,0.00054389,-0.00410607,0.00032966
 ,-0.00171102,0.00247278,-0.00029517,-0.00050795,0.00097490,0.00003986,
 0.00025118,0.00009949,0.00001391,-0.00001274,-0.00002366,0.00000399,-0
 .00000089,0.00001884,-0.00000190,0.00209839,-0.00427737,0.00182751,0.0
 0114229,-0.00086181,-0.00002339,0.00328522,0.00044144,0.00102912,0.011
 08501,0.01176203,-0.00216095,-0.14704486,-0.18441322,0.03571250,-0.000
 01681,-0.00006088,-0.00007606,-0.00001243,-0.00001650,0.00000528,-0.00
 002984,-0.00000897,-0.00001267,-0.00000504,0.00000731,-0.00000002,-0.0
 0000475,0.00000864,-0.00000196,-0.00000042,-0.00000160,0.00000126,-0.0
 0001094,-0.00000183,0.00000011,-0.00000118,-0.00000220,-0.00000106,-0.
 00109875,-0.00055564,0.00010445,-0.00011716,0.00010909,-0.00013263,0.0
 0004999,0.00076088,-0.00006618,-0.00051699,0.00054771,-0.00094806,0.15
 548501,0.18845817,0.00383144,0.00285761,0.00350348,-0.00033247,-0.0008
 1416,-0.00327403,-0.00006259,0.00090716,-0.00069050,0.00050337,-0.0003
 7414,0.00047759,0.00000331,-0.00012371,0.00041482,-0.00002284,-0.00000
 095,0.00010329,-0.00000181,0.00000052,-0.00000063,0.00000047,-0.000002
 36,0.00000185,-0.00008869,0.00180463,0.00585285,-0.00027291,-0.0000281
 1,-0.00073820,-0.00005515,0.00100930,0.00667386,-0.00101233,-0.0005458
 1,0.00329503,0.03778601,0.03524352,-0.04492167,0.00001871,-0.00003052,
 -0.00028401,0.00003070,-0.00001482,-0.00001809,-0.00003009,0.00001603,
 -0.00001691,0.00000153,-0.00000473,-0.00000045,0.00000042,0.00000125,-
 0.00000111,0.00000140,0.00000128,-0.00000056,0.00000089,0.00000019,-0.
 00000048,-0.00000096,-0.00000038,-0.00000051,0.00017219,0.00004464,-0.
 00019260,-0.00000866,-0.00012564,-0.00062107,-0.00004171,0.00001342,0.
 00036613,-0.00020715,-0.00095833,-0.00446447,-0.04022205,-0.03894014,0
 .03425294,0.00128903,-0.00003521,-0.00008200,-0.00192381,0.00027646,0.
 00002529,0.00139964,0.00077904,-0.00012367,-0.00034186,-0.00051376,0.0
 0004031,-0.00059881,0.00018265,-0.00001214,0.00014778,0.00006228,-0.00
 000349,-0.00001879,-0.00003048,0.00000217,-0.00000305,0.00001762,-0.00
 000151,-0.00080775,0.00211844,-0.00038159,-0.00657708,-0.00253999,0.00
 087905,0.00024568,0.03783765,-0.00654340,-0.00338878,0.00065862,-0.000
 23418,0.00029860,0.00137320,-0.00018895,-0.00004994,-0.00012223,0.0000
 2359,-0.00002798,-0.00000715,-0.00000068,-0.00002866,-0.00000617,0.000
 00172,0.00000045,0.00000312,0.00000087,0.00000036,0.00000303,-0.000001
 40,-0.00000047,-0.00000088,0.00000079,-0.00000830,-0.00000127,0.000000
 14,-0.00000041,-0.00000109,-0.00000056,-0.00054280,0.00013370,-0.00000
 972,0.00078371,0.00016839,-0.00005365,-0.08075470,0.02151669,-0.003380
 85,-0.00332282,0.00294333,-0.00042058,-0.00001844,-0.00000396,0.000012
 53,0.08689850,-0.00250646,0.00075427,0.00005569,0.00316506,-0.00018042
 ,-0.00007709,-0.00210799,-0.00129123,0.00021681,0.00044188,0.00083100,
 -0.00008241,0.00087768,-0.00026353,0.00001614,-0.00021446,-0.00008537,
 0.00000434,0.00002852,0.00004337,-0.00000430,0.00000456,-0.00002542,0.
 00000266,0.00096853,-0.00221775,0.00029714,0.00682094,0.00420758,-0.00
 068942,0.00516538,-0.03939222,0.00835898,-0.00508596,-0.00251609,0.000
 93054,0.00113619,-0.00010820,-0.00014251,0.00000681,0.00017585,-0.0000
 4886,0.00004262,0.00000951,0.00000169,0.00004242,0.00000816,-0.0000030
 6,-0.00000082,-0.00000423,-0.00000081,-0.00000099,-0.00000396,0.000001
 60,0.00000082,0.00000117,-0.00000145,0.00001172,0.00000221,-0.00000023
 ,0.00000088,0.00000141,0.00000112,0.00071436,-0.00016418,-0.00005850,-
 0.00021581,-0.00025611,0.00008199,0.03524481,-0.25737532,0.03303895,0.
 00070811,0.00174506,-0.00033210,0.00012691,-0.00006798,0.00000102,0.00
 366002,0.39613839,0.00040121,-0.00012481,0.00008081,-0.00049438,0.0000
 1100,0.00001243,0.00032302,0.00021289,0.00002780,-0.00006563,-0.000126
 44,0.00000625,-0.00013425,0.00004096,-0.00000197,0.00003278,0.00001019
 ,-0.00001046,-0.00000454,-0.00000705,-0.00000218,-0.00000075,0.0000042
 8,0.00000107,-0.00014648,0.00022724,-0.00046251,-0.00084336,-0.0002856
 4,0.00204202,-0.00056430,0.00687090,0.00685155,0.00088547,0.00059312,-
 0.00013045,-0.00022633,-0.00004759,-0.00001912,0.00000133,-0.00002723,
 -0.00002011,-0.00000643,-0.00000078,0.,-0.00000697,-0.00000156,0.00000
 093,-0.00000016,0.00000091,0.00000047,0.00000020,0.00000048,0.,-0.0000
 0030,-0.00000029,0.00000026,-0.00000185,-0.00000031,0.00000005,0.00000
 012,-0.00000019,-0.00000006,-0.00011754,-0.00002971,-0.00026718,0.0000
 1344,0.00008650,0.00023418,-0.00589008,0.03370219,-0.07290662,-0.00002
 674,-0.00046203,0.00013689,-0.00002085,0.00001796,0.00003442,-0.000620
 00,-0.05795597,0.09076467,0.00351917,-0.00196255,-0.00001705,-0.005260
 26,0.00072885,-0.00015420,0.00350702,0.00204536,-0.00038226,-0.0007108
 7,-0.00131257,0.00011549,-0.00141624,0.00046891,0.00000693,0.00035027,
 0.00012896,0.00000339,-0.00004318,-0.00007152,0.00000828,-0.00000750,0
 .00004096,-0.00000581,-0.00239959,-0.00001745,0.00116422,-0.00074621,-
 0.00616160,0.00127458,-0.03307393,-0.01693214,-0.03390907,0.00062890,0
 .00528982,-0.00330271,-0.00265058,0.00176777,0.00201425,-0.00011771,-0
 .00028614,0.00007265,-0.00006724,-0.00001658,-0.00000213,-0.00007291,-
 0.00001157,0.00000214,0.00000071,0.00000774,0.00000251,0.00000144,0.00
 000645,-0.00000362,-0.00000097,-0.00000219,0.00000173,-0.00001929,-0.0
 0000307,0.00000020,-0.00000080,-0.00000232,-0.00000106,-0.00018402,0.0
 0017748,0.00006664,0.00147922,0.00200738,-0.00118389,-0.14801268,-0.03
 732996,-0.07862814,0.00037495,-0.00028690,-0.00093846,-0.00039644,0.00
 030026,0.00025114,0.00242536,-0.02861186,-0.00835596,0.16458222,0.0004
 3965,0.00041680,-0.00002707,-0.00031107,0.00005994,-0.00001779,0.00016
 822,0.00009591,-0.00003824,-0.00002285,-0.00006728,0.00001601,-0.00005
 046,0.00001747,-0.00000455,0.00001032,0.00000066,-0.00000056,-0.000001
 33,-0.00000276,-0.00000025,-0.00000052,0.00000159,0.00000005,-0.000623
 57,0.00055874,0.00017090,-0.00246235,-0.00195539,-0.00013862,0.0003414
 8,0.01031623,-0.00099292,0.00037531,-0.00055328,0.00065163,0.00039109,
 0.00032695,-0.00017375,-0.00000645,-0.00001801,0.00000973,-0.00000247,
 0.00000014,0.00000049,-0.00000304,-0.00000077,-0.00000025,0.00000008,0
 .00000048,0.00000054,-0.00000012,0.00000021,-0.00000036,-0.00000002,-0
 .00000026,-0.00000001,-0.00000083,-0.00000006,-0.00000003,0.00000019,0
 .,0.00000021,-0.00012461,0.00005686,0.00003796,0.00271082,-0.00241488,
 0.00206848,-0.03984630,-0.09171056,-0.04490612,0.00027425,0.00020032,-
 0.00011450,0.00002670,-0.00005425,-0.00006249,-0.03900323,-0.06595962,
 -0.03917316,0.07731497,0.14173242,0.00145768,-0.00066919,-0.00010679,-
 0.00198469,0.00028984,-0.00000365,0.00136017,0.00075767,-0.00011122,-0
 .00032546,-0.00047874,0.00003864,-0.00056656,0.00018972,-0.00000214,0.
 00013697,0.00005129,-0.00001080,-0.00001778,-0.00002841,0.00000107,-0.
 00000364,0.00001743,-0.00000101,-0.00108303,0.00014099,0.00020855,0.00
 045034,-0.00253530,0.00125367,-0.01508311,-0.00927321,-0.00484940,-0.0
 0124257,0.00301757,-0.00172607,-0.00119628,-0.00005495,0.00064818,-0.0
 0004540,-0.00010877,0.00001791,-0.00002610,-0.00000608,-0.00000021,-0.
 00002830,-0.00000550,0.00000134,-0.00000007,0.00000377,0.00000149,0.00
 000027,0.00000218,-0.00000113,-0.00000063,-0.00000110,0.00000080,-0.00
 000773,-0.00000126,0.,-0.00000012,-0.00000058,-0.00000017,-0.00008825,
 0.00006549,-0.00002323,-0.00014802,0.00212308,-0.00095653,-0.08163233,
 -0.04082407,-0.14715617,0.00022584,0.00005124,-0.00018245,-0.00024489,
 0.00021244,0.00011835,-0.00734300,-0.02845942,0.00402934,0.12019772,0.
 09776042,0.23774964,0.00340279,-0.00184089,0.00034391,-0.00501987,0.00
 073237,0.00022488,0.00335537,0.00194919,-0.00030820,-0.00071932,-0.001
 24220,0.00014289,-0.00134968,0.00044173,-0.00006044,0.00033316,0.00011
 964,-0.00001530,-0.00004098,-0.00006869,0.00000513,-0.00000757,0.00003
 986,-0.00000257,-0.00234376,-0.00043370,-0.00097737,-0.00076891,-0.005
 87025,0.00104657,-0.02801652,-0.00279965,0.03973006,0.00098510,0.00580
 720,0.00108408,-0.00279140,0.00105139,-0.00206447,-0.00011385,-0.00026
 728,0.00010356,-0.00006939,-0.00001210,-0.00000002,-0.00006455,-0.0000
 1391,0.00000450,0.00000116,0.00000685,0.00000231,0.00000084,0.00000689
 ,-0.00000373,-0.00000079,-0.00000193,0.00000151,-0.00001840,-0.0000029
 0,0.00000045,-0.00000102,-0.00000243,-0.00000122,-0.00018273,0.0001355
 8,-0.00009894,0.00148528,0.00207242,0.00030801,-0.13172469,-0.00481830
 ,0.08374813,0.00043084,0.00004494,0.00090306,-0.00038355,0.00018449,-0
 .00025470,0.00492534,-0.02042388,0.01586933,0.01831116,0.00040612,-0.0
 1276102,0.14038594,-0.00018268,0.00062579,-0.00023228,0.00049660,-0.00
 005016,0.00001286,-0.00037717,-0.00020250,0.00004906,0.00011644,0.0001
 2129,-0.00001870,0.00017531,-0.00005683,0.00001119,-0.00004411,-0.0000
 1961,0.00000261,0.00000584,0.00000867,-0.00000125,0.00000101,-0.000005
 27,0.00000027,-0.00017322,0.00042394,-0.00020059,-0.00237117,-0.000508
 40,0.00108685,0.00591822,0.01178006,-0.00641822,0.00066279,-0.00203509
 ,-0.00066456,0.00088060,0.00039556,0.00019194,0.00001192,0.00002562,-0
 .00001347,0.00000816,0.00000171,0.00000039,0.00000782,0.00000245,-0.00
 000105,-0.00000017,-0.00000085,-0.00000003,0.00000009,-0.00000091,0.00
 000016,0.00000021,0.00000028,-0.00000035,0.00000229,0.00000043,-0.0000
 0003,0.00000020,0.00000028,0.00000026,-0.00008584,0.00000958,-0.000044
 02,0.00232498,-0.00358759,-0.00133874,-0.00572999,-0.06998525,0.014877
 78,0.00017179,0.00017382,-0.00004131,0.00012594,-0.00008738,0.00012571
 ,-0.02946880,-0.03400636,0.05646414,0.00272350,0.00895239,-0.02223653,
 0.02479945,0.08802434,-0.00184474,0.00060704,-0.00011909,0.00242612,-0
 .00036070,-0.00006300,-0.00164426,-0.00091525,0.00015063,0.00039217,0.
 00058462,-0.00005442,0.00067124,-0.00022179,0.00002444,-0.00016371,-0.
 00006161,0.00000027,0.00002092,0.00003339,-0.00000439,0.00000403,-0.00
 002000,0.00000215,0.00146119,-0.00018483,0.00039142,0.00061231,0.00377
 969,-0.00019177,0.01613243,0.00309854,-0.01147393,0.00084484,-0.003510
 12,-0.00050800,0.00128670,0.00000210,0.00053523,0.00005599,0.00012885,
 -0.00005273,0.00003409,0.00000699,0.00000021,0.00003168,0.00000638,-0.
 00000128,-0.00000019,-0.00000292,-0.00000093,-0.00000012,-0.00000399,0
 .00000245,0.00000003,0.00000064,-0.00000045,0.00000918,0.00000143,-0.0
 0000032,0.00000070,0.00000151,0.00000075,0.00014301,-0.00009332,0.0000
 1520,-0.00095319,-0.00132169,0.00033201,0.08743668,0.01062181,-0.18456
 357,-0.00036508,-0.00018659,-0.00020385,0.00026095,-0.00015981,0.00013
 067,0.01841491,0.04484747,-0.03040249,0.00170250,-0.01506574,-0.088938
 02,-0.12697039,-0.04161209,0.31499284\\0.00000757,0.00000626,0.0000005
 7,-0.00001294,0.00000025,-0.00000256,-0.00000416,-0.00000507,0.0000043
 5,0.00000744,0.00000325,-0.00000122,0.00001001,-0.00000440,-0.00000181
 ,0.00000365,0.00000070,-0.00000085,0.00000044,-0.00000334,0.00000068,-
 0.00000047,-0.00000341,-0.00000105,-0.00000773,-0.00000068,0.00000299,
 0.00000484,0.00000049,-0.00000005,-0.00000264,0.00000630,0.00000049,-0
 .00000180,-0.00000282,0.00000147,-0.00000034,0.00000977,-0.00000434,-0
 .00000167,-0.00000014,-0.00000026,0.00000070,-0.00000264,-0.00000198,-
 0.00000036,-0.00000477,0.00000009,-0.00000240,-0.00000227,0.00000047,-
 0.00000129,-0.00000169,-0.00000067,-0.00000023,-0.00000476,-0.00000021
 ,-0.00000136,-0.00000311,-0.00000046,-0.00000033,-0.00000366,-0.000001
 15,0.00000142,0.00000235,0.00000259,-0.00000064,0.00000334,0.00000164,
 0.00000795,-0.00000026,-0.00000085,0.00000114,0.00000165,-0.00000106,-
 0.00000517,-0.00000422,0.00000111,0.00000336,0.00000947,-0.00000101,-0
 .00000268,0.00000005,-0.00000274,-0.00000230,0.00000333,0.00000582\\\@


 IT IS BY EATING THE LIGHT OF A STAR THAT WE EXIST, 
 IN THE FINAL ANALYSIS, 
 JUST AS IT IS BY PERCEIVING THE LIGHT OF STARS
 THAT WE DEFINE THE WORLD AROUND US.

                                    -- GILBERT GROSVENOR
 Job cpu time:       0 days  4 hours 10 minutes 27.7 seconds.
 File lengths (MBytes):  RWF=    656 Int=      0 D2E=      0 Chk=     22 Scr=      1
 Normal termination of Gaussian 09 at Thu Nov 14 18:24:07 2019.
pbs_rusage has been removed.
Please contact help@nci.org.au if you require this functionality.
