 Entering Gaussian System, Link 0=/apps/gaussian/g09e01/g09/g09
 Initial command:
 /apps/gaussian/g09e01/g09/l1.exe "/jobfs/local/3588356.r-man2/Gau-39765.inp" -scrdir="/jobfs/local/3588356.r-man2/"
 Entering Link 1 = /apps/gaussian/g09e01/g09/l1.exe PID=     39766.
  
 Copyright (c) 1988,1990,1992,1993,1995,1998,2003,2009,2015,
            Gaussian, Inc.  All Rights Reserved.
  
 This is part of the Gaussian(R) 09 program.  It is based on
 the Gaussian(R) 03 system (copyright 2003, Gaussian, Inc.),
 the Gaussian(R) 98 system (copyright 1998, Gaussian, Inc.),
 the Gaussian(R) 94 system (copyright 1995, Gaussian, Inc.),
 the Gaussian 92(TM) system (copyright 1992, Gaussian, Inc.),
 the Gaussian 90(TM) system (copyright 1990, Gaussian, Inc.),
 the Gaussian 88(TM) system (copyright 1988, Gaussian, Inc.),
 the Gaussian 86(TM) system (copyright 1986, Carnegie Mellon
 University), and the Gaussian 82(TM) system (copyright 1983,
 Carnegie Mellon University). Gaussian is a federally registered
 trademark of Gaussian, Inc.
  
 This software contains proprietary and confidential information,
 including trade secrets, belonging to Gaussian, Inc.
  
 This software is provided under written license and may be
 used, copied, transmitted, or stored only in accord with that
 written license.
  
 The following legend is applicable only to US Government
 contracts under FAR:
  
                    RESTRICTED RIGHTS LEGEND
  
 Use, reproduction and disclosure by the US Government is
 subject to restrictions as set forth in subparagraphs (a)
 and (c) of the Commercial Computer Software - Restricted
 Rights clause in FAR 52.227-19.
  
 Gaussian, Inc.
 340 Quinnipiac St., Bldg. 40, Wallingford CT 06492
  
  
 ---------------------------------------------------------------
 Warning -- This program may not be used in any manner that
 competes with the business of Gaussian, Inc. or will provide
 assistance to any competitor of Gaussian, Inc.  The licensee
 of this program is prohibited from giving any competitor of
 Gaussian, Inc. access to this program.  By using this program,
 the user acknowledges that Gaussian, Inc. is engaged in the
 business of creating and licensing software in the field of
 computational chemistry and represents and warrants to the
 licensee that it is not a competitor of Gaussian, Inc. and that
 it will not use this program in any manner prohibited above.
 ---------------------------------------------------------------
  

 Cite this work as:
 Gaussian 09, Revision E.01,
 M. J. Frisch, G. W. Trucks, H. B. Schlegel, G. E. Scuseria, 
 M. A. Robb, J. R. Cheeseman, G. Scalmani, V. Barone, B. Mennucci, 
 G. A. Petersson, H. Nakatsuji, M. Caricato, X. Li, H. P. Hratchian, 
 A. F. Izmaylov, J. Bloino, G. Zheng, J. L. Sonnenberg, M. Hada, 
 M. Ehara, K. Toyota, R. Fukuda, J. Hasegawa, M. Ishida, T. Nakajima, 
 Y. Honda, O. Kitao, H. Nakai, T. Vreven, J. A. Montgomery, Jr., 
 J. E. Peralta, F. Ogliaro, M. Bearpark, J. J. Heyd, E. Brothers, 
 K. N. Kudin, V. N. Staroverov, T. Keith, R. Kobayashi, J. Normand, 
 K. Raghavachari, A. Rendell, J. C. Burant, S. S. Iyengar, J. Tomasi, 
 M. Cossi, N. Rega, J. M. Millam, M. Klene, J. E. Knox, J. B. Cross, 
 V. Bakken, C. Adamo, J. Jaramillo, R. Gomperts, R. E. Stratmann, 
 O. Yazyev, A. J. Austin, R. Cammi, C. Pomelli, J. W. Ochterski, 
 R. L. Martin, K. Morokuma, V. G. Zakrzewski, G. A. Voth, 
 P. Salvador, J. J. Dannenberg, S. Dapprich, A. D. Daniels, 
 O. Farkas, J. B. Foresman, J. V. Ortiz, J. Cioslowski, 
 and D. J. Fox, Gaussian, Inc., Wallingford CT, 2013.
 
 ******************************************
 Gaussian 09:  ES64L-G09RevE.01 30-Nov-2015
                14-Nov-2019 
 ******************************************
 %chk=CP19CA.M062X_6-311pGd_opt_GD3.chk
 %mem=196608000
 %nproc=4
 Will use up to    4 processors via shared memory.
 ----------------------------------------------------------------------
 # M062X/6-311+G* SCF=Tight INT(grid=ultrafine) OPT IOP(2/17=4) Empiric
 alDispersion=GD3 maxdisk=2147483648
 ----------------------------------------------------------------------
 1/14=-1,18=20,19=15,26=4,38=1/1,3;
 2/9=110,12=2,17=4,18=5,40=1/2;
 3/5=4,6=6,7=11,11=2,16=1,25=1,30=1,71=1,74=-55,75=-5,124=31/1,2,3;
 4//1;
 5/5=2,32=2,38=5/2;
 6/7=2,8=2,9=2,10=2,28=1/1;
 7//1,2,3,16;
 1/14=-1,18=20,19=15,26=4/3(2);
 2/9=110,17=4/2;
 99//99;
 2/9=110,17=4/2;
 3/5=4,6=6,7=11,11=2,16=1,25=1,30=1,71=1,74=-55,75=-5,124=31/1,2,3;
 4/5=5,16=3,69=1/1;
 5/5=2,32=2,38=5/2;
 7//1,2,3,16;
 1/14=-1,18=20,19=15,26=4/3(-5);
 2/9=110,17=4/2;
 6/7=2,8=2,9=2,10=2,19=2,28=1/1;
 99/9=1/99;
 -----------------------------
 CP19CA.M062X_6-311pGd_opt_GD3
 -----------------------------
 Symbolic Z-matrix:
 Charge =  0 Multiplicity = 1
 C                    -6.29862   1.27924   0.01961 
 N                    -5.00055   0.76346   0.044 
 C                    -3.81834   1.46258   0.00254 
 O                    -3.69657   2.65734  -0.06275 
 O                    -2.7981    0.59076   0.04692 
 C                    -1.4866    1.17601   0.01133 
 C                    -0.47838   0.04906   0.06963 
 C                     0.94766   0.5921    0.03598 
 C                    -6.57448   2.64688  -0.05387 
 C                    -7.89539   3.07073  -0.0732 
 C                    -8.9579    2.16885  -0.02128 
 C                    -8.6648    0.80991   0.05169 
 C                    -7.35612   0.36519   0.07218 
 H                    -4.9041   -0.23981   0.09817 
 H                    -1.38252   1.85813   0.85857 
 H                    -1.38763   1.7623   -0.90542 
 H                    -0.64941  -0.6258   -0.77345 
 H                    -0.64431  -0.53044   0.98183 
 H                     1.13498   1.15912  -0.87908 
 H                     1.67608  -0.21851   0.07792 
 H                     1.14008   1.25488   0.88312 
 H                    -5.77603   3.37161  -0.09544 
 Cl                   -8.18434   4.78111  -0.16524 
 C                    -10.38995   2.62707  -0.04217 
 H                    -9.4752    0.0936    0.09283 
 H                    -7.1504   -0.6983    0.12935 
 F                    -11.23413   1.58485   0.01682 
 F                    -10.68441   3.42218   0.99505 
 F                    -10.69043   3.30521  -1.15777 
 

 GradGradGradGradGradGradGradGradGradGradGradGradGradGradGradGradGradGrad
 Berny optimization.
 Initialization pass.
                           ----------------------------
                           !    Initial Parameters    !
                           ! (Angstroms and Degrees)  !
 --------------------------                            --------------------------
 ! Name  Definition              Value          Derivative Info.                !
 --------------------------------------------------------------------------------
 ! R1    R(1,2)                  1.397          estimate D2E/DX2                !
 ! R2    R(1,9)                  1.3971         estimate D2E/DX2                !
 ! R3    R(1,13)                 1.3988         estimate D2E/DX2                !
 ! R4    R(2,3)                  1.3741         estimate D2E/DX2                !
 ! R5    R(2,14)                 1.0093         estimate D2E/DX2                !
 ! R6    R(3,4)                  1.2027         estimate D2E/DX2                !
 ! R7    R(3,5)                  1.3427         estimate D2E/DX2                !
 ! R8    R(5,6)                  1.4366         estimate D2E/DX2                !
 ! R9    R(6,7)                  1.5132         estimate D2E/DX2                !
 ! R10   R(6,15)                 1.0927         estimate D2E/DX2                !
 ! R11   R(6,16)                 1.0927         estimate D2E/DX2                !
 ! R12   R(7,8)                  1.5263         estimate D2E/DX2                !
 ! R13   R(7,17)                 1.0934         estimate D2E/DX2                !
 ! R14   R(7,18)                 1.0934         estimate D2E/DX2                !
 ! R15   R(8,19)                 1.0927         estimate D2E/DX2                !
 ! R16   R(8,20)                 1.0906         estimate D2E/DX2                !
 ! R17   R(8,21)                 1.0927         estimate D2E/DX2                !
 ! R18   R(9,10)                 1.3874         estimate D2E/DX2                !
 ! R19   R(9,22)                 1.0791         estimate D2E/DX2                !
 ! R20   R(10,11)                1.3946         estimate D2E/DX2                !
 ! R21   R(10,23)                1.7371         estimate D2E/DX2                !
 ! R22   R(11,12)                1.3921         estimate D2E/DX2                !
 ! R23   R(11,24)                1.5037         estimate D2E/DX2                !
 ! R24   R(12,13)                1.3823         estimate D2E/DX2                !
 ! R25   R(12,25)                1.0824         estimate D2E/DX2                !
 ! R26   R(13,26)                1.0847         estimate D2E/DX2                !
 ! R27   R(24,27)                1.3425         estimate D2E/DX2                !
 ! R28   R(24,28)                1.3397         estimate D2E/DX2                !
 ! R29   R(24,29)                1.3397         estimate D2E/DX2                !
 ! A1    A(2,1,9)              123.0797         estimate D2E/DX2                !
 ! A2    A(2,1,13)             117.4234         estimate D2E/DX2                !
 ! A3    A(9,1,13)             119.4968         estimate D2E/DX2                !
 ! A4    A(1,2,3)              127.6661         estimate D2E/DX2                !
 ! A5    A(1,2,14)             117.1752         estimate D2E/DX2                !
 ! A6    A(3,2,14)             115.1587         estimate D2E/DX2                !
 ! A7    A(2,3,4)              126.4531         estimate D2E/DX2                !
 ! A8    A(2,3,5)              108.8069         estimate D2E/DX2                !
 ! A9    A(4,3,5)              124.74           estimate D2E/DX2                !
 ! A10   A(3,5,6)              115.3619         estimate D2E/DX2                !
 ! A11   A(5,6,7)              107.692          estimate D2E/DX2                !
 ! A12   A(5,6,15)             108.7878         estimate D2E/DX2                !
 ! A13   A(5,6,16)             108.7873         estimate D2E/DX2                !
 ! A14   A(7,6,15)             111.8124         estimate D2E/DX2                !
 ! A15   A(7,6,16)             111.8124         estimate D2E/DX2                !
 ! A16   A(15,6,16)            107.8758         estimate D2E/DX2                !
 ! A17   A(6,7,8)              110.8965         estimate D2E/DX2                !
 ! A18   A(6,7,17)             109.0103         estimate D2E/DX2                !
 ! A19   A(6,7,18)             109.0103         estimate D2E/DX2                !
 ! A20   A(8,7,17)             110.4109         estimate D2E/DX2                !
 ! A21   A(8,7,18)             110.4109         estimate D2E/DX2                !
 ! A22   A(17,7,18)            107.0041         estimate D2E/DX2                !
 ! A23   A(7,8,19)             111.2999         estimate D2E/DX2                !
 ! A24   A(7,8,20)             111.0225         estimate D2E/DX2                !
 ! A25   A(7,8,21)             111.2998         estimate D2E/DX2                !
 ! A26   A(19,8,20)            107.6625         estimate D2E/DX2                !
 ! A27   A(19,8,21)            107.7166         estimate D2E/DX2                !
 ! A28   A(20,8,21)            107.6624         estimate D2E/DX2                !
 ! A29   A(1,9,10)             119.195          estimate D2E/DX2                !
 ! A30   A(1,9,22)             120.8878         estimate D2E/DX2                !
 ! A31   A(10,9,22)            119.9172         estimate D2E/DX2                !
 ! A32   A(9,10,11)            121.8212         estimate D2E/DX2                !
 ! A33   A(9,10,23)            117.3823         estimate D2E/DX2                !
 ! A34   A(11,10,23)           120.7966         estimate D2E/DX2                !
 ! A35   A(10,11,12)           118.2178         estimate D2E/DX2                !
 ! A36   A(10,11,24)           121.8681         estimate D2E/DX2                !
 ! A37   A(12,11,24)           119.914          estimate D2E/DX2                !
 ! A38   A(11,12,13)           120.9411         estimate D2E/DX2                !
 ! A39   A(11,12,25)           119.366          estimate D2E/DX2                !
 ! A40   A(13,12,25)           119.6929         estimate D2E/DX2                !
 ! A41   A(1,13,12)            120.3281         estimate D2E/DX2                !
 ! A42   A(1,13,26)            119.9524         estimate D2E/DX2                !
 ! A43   A(12,13,26)           119.7195         estimate D2E/DX2                !
 ! A44   A(11,24,27)           111.2024         estimate D2E/DX2                !
 ! A45   A(11,24,28)           112.2978         estimate D2E/DX2                !
 ! A46   A(11,24,29)           112.2979         estimate D2E/DX2                !
 ! A47   A(27,24,28)           106.7696         estimate D2E/DX2                !
 ! A48   A(27,24,29)           106.7696         estimate D2E/DX2                !
 ! A49   A(28,24,29)           107.1578         estimate D2E/DX2                !
 ! D1    D(9,1,2,3)             -0.0119         estimate D2E/DX2                !
 ! D2    D(9,1,2,14)          -179.9989         estimate D2E/DX2                !
 ! D3    D(13,1,2,3)           179.9891         estimate D2E/DX2                !
 ! D4    D(13,1,2,14)            0.0022         estimate D2E/DX2                !
 ! D5    D(2,1,9,10)          -179.9997         estimate D2E/DX2                !
 ! D6    D(2,1,9,22)             0.0007         estimate D2E/DX2                !
 ! D7    D(13,1,9,10)           -0.0008         estimate D2E/DX2                !
 ! D8    D(13,1,9,22)          179.9996         estimate D2E/DX2                !
 ! D9    D(2,1,13,12)          179.9997         estimate D2E/DX2                !
 ! D10   D(2,1,13,26)           -0.0006         estimate D2E/DX2                !
 ! D11   D(9,1,13,12)            0.0007         estimate D2E/DX2                !
 ! D12   D(9,1,13,26)         -179.9996         estimate D2E/DX2                !
 ! D13   D(1,2,3,4)              0.0089         estimate D2E/DX2                !
 ! D14   D(1,2,3,5)           -179.9912         estimate D2E/DX2                !
 ! D15   D(14,2,3,4)           179.9961         estimate D2E/DX2                !
 ! D16   D(14,2,3,5)            -0.004          estimate D2E/DX2                !
 ! D17   D(2,3,5,6)           -179.9974         estimate D2E/DX2                !
 ! D18   D(4,3,5,6)              0.0025         estimate D2E/DX2                !
 ! D19   D(3,5,6,7)            179.999          estimate D2E/DX2                !
 ! D20   D(3,5,6,15)            58.6345         estimate D2E/DX2                !
 ! D21   D(3,5,6,16)           -58.6367         estimate D2E/DX2                !
 ! D22   D(5,6,7,8)            179.9996         estimate D2E/DX2                !
 ! D23   D(5,6,7,17)            58.2386         estimate D2E/DX2                !
 ! D24   D(5,6,7,18)           -58.2393         estimate D2E/DX2                !
 ! D25   D(15,6,7,8)           -60.5423         estimate D2E/DX2                !
 ! D26   D(15,6,7,17)          177.6967         estimate D2E/DX2                !
 ! D27   D(15,6,7,18)           61.2188         estimate D2E/DX2                !
 ! D28   D(16,6,7,8)            60.5421         estimate D2E/DX2                !
 ! D29   D(16,6,7,17)          -61.2189         estimate D2E/DX2                !
 ! D30   D(16,6,7,18)         -177.6969         estimate D2E/DX2                !
 ! D31   D(6,7,8,19)           -60.0859         estimate D2E/DX2                !
 ! D32   D(6,7,8,20)           179.9992         estimate D2E/DX2                !
 ! D33   D(6,7,8,21)            60.0845         estimate D2E/DX2                !
 ! D34   D(17,7,8,19)           60.8514         estimate D2E/DX2                !
 ! D35   D(17,7,8,20)          -59.0635         estimate D2E/DX2                !
 ! D36   D(17,7,8,21)         -178.9782         estimate D2E/DX2                !
 ! D37   D(18,7,8,19)          178.9767         estimate D2E/DX2                !
 ! D38   D(18,7,8,20)           59.0619         estimate D2E/DX2                !
 ! D39   D(18,7,8,21)          -60.8528         estimate D2E/DX2                !
 ! D40   D(1,9,10,11)            0.0004         estimate D2E/DX2                !
 ! D41   D(1,9,10,23)         -179.9999         estimate D2E/DX2                !
 ! D42   D(22,9,10,11)         180.0            estimate D2E/DX2                !
 ! D43   D(22,9,10,23)          -0.0003         estimate D2E/DX2                !
 ! D44   D(9,10,11,12)           0.0001         estimate D2E/DX2                !
 ! D45   D(9,10,11,24)        -179.9998         estimate D2E/DX2                !
 ! D46   D(23,10,11,12)       -179.9996         estimate D2E/DX2                !
 ! D47   D(23,10,11,24)          0.0005         estimate D2E/DX2                !
 ! D48   D(10,11,12,13)         -0.0003         estimate D2E/DX2                !
 ! D49   D(10,11,12,25)        179.9998         estimate D2E/DX2                !
 ! D50   D(24,11,12,13)        179.9997         estimate D2E/DX2                !
 ! D51   D(24,11,12,25)         -0.0002         estimate D2E/DX2                !
 ! D52   D(10,11,24,27)       -179.9975         estimate D2E/DX2                !
 ! D53   D(10,11,24,28)        -60.4223         estimate D2E/DX2                !
 ! D54   D(10,11,24,29)         60.4273         estimate D2E/DX2                !
 ! D55   D(12,11,24,27)          0.0026         estimate D2E/DX2                !
 ! D56   D(12,11,24,28)        119.5777         estimate D2E/DX2                !
 ! D57   D(12,11,24,29)       -119.5727         estimate D2E/DX2                !
 ! D58   D(11,12,13,1)          -0.0002         estimate D2E/DX2                !
 ! D59   D(11,12,13,26)       -179.9999         estimate D2E/DX2                !
 ! D60   D(25,12,13,1)         179.9998         estimate D2E/DX2                !
 ! D61   D(25,12,13,26)          0.0            estimate D2E/DX2                !
 --------------------------------------------------------------------------------
 Trust Radius=3.00D-01 FncErr=1.00D-07 GrdErr=1.00D-06
 Number of steps in this run=    149 maximum allowed number of steps=    174.
 GradGradGradGradGradGradGradGradGradGradGradGradGradGradGradGradGradGrad

                          Input orientation:                          
 ---------------------------------------------------------------------
 Center     Atomic      Atomic             Coordinates (Angstroms)
 Number     Number       Type             X           Y           Z
 ---------------------------------------------------------------------
      1          6           0       -6.298616    1.279236    0.019605
      2          7           0       -5.000552    0.763456    0.043997
      3          6           0       -3.818341    1.462576    0.002536
      4          8           0       -3.696574    2.657337   -0.062747
      5          8           0       -2.798098    0.590763    0.046919
      6          6           0       -1.486597    1.176011    0.011326
      7          6           0       -0.478379    0.049059    0.069626
      8          6           0        0.947663    0.592098    0.035985
      9          6           0       -6.574482    2.646880   -0.053867
     10          6           0       -7.895392    3.070729   -0.073199
     11          6           0       -8.957897    2.168847   -0.021278
     12          6           0       -8.664802    0.809910    0.051685
     13          6           0       -7.356120    0.365186    0.072183
     14          1           0       -4.904098   -0.239812    0.098171
     15          1           0       -1.382516    1.858132    0.858570
     16          1           0       -1.387633    1.762298   -0.905417
     17          1           0       -0.649408   -0.625801   -0.773454
     18          1           0       -0.644313   -0.530438    0.981832
     19          1           0        1.134976    1.159120   -0.879077
     20          1           0        1.676085   -0.218513    0.077924
     21          1           0        1.140079    1.254878    0.883119
     22          1           0       -5.776032    3.371615   -0.095437
     23         17           0       -8.184342    4.781107   -0.165243
     24          6           0      -10.389955    2.627068   -0.042171
     25          1           0       -9.475200    0.093596    0.092834
     26          1           0       -7.150401   -0.698303    0.129347
     27          9           0      -11.234133    1.584850    0.016817
     28          9           0      -10.684412    3.422176    0.995047
     29          9           0      -10.690432    3.305206   -1.157773
 ---------------------------------------------------------------------
                    Distance matrix (angstroms):
                    1          2          3          4          5
     1  C    0.000000
     2  N    1.396995   0.000000
     3  C    2.487100   1.374086   0.000000
     4  O    2.945601   2.301856   1.202723   0.000000
     5  O    3.567684   2.209216   1.342730   2.256106   0.000000
     6  C    4.813133   3.538241   2.349304   2.661543   1.436599
     7  C    5.949033   4.578325   3.627378   4.144564   2.382237
     8  C    7.278804   5.950688   4.844961   5.083690   3.745777
     9  C    1.397122   2.456444   3.000345   2.877941   4.301029
    10  C    2.401615   3.703693   4.383405   4.219133   5.669839
    11  C    2.804435   4.199996   5.187911   5.284115   6.359098
    12  C    2.412496   3.664553   4.890458   5.301828   5.870798
    13  C    1.398773   2.389166   3.704726   4.320236   4.563670
    14  H    2.063579   1.009348   2.021420   3.142846   2.264447
    15  H    5.020660   3.866786   2.611992   2.615802   2.066125
    16  H    5.020634   3.866815   2.612002   2.615797   2.066120
    17  H    6.014288   4.640120   3.873708   4.535341   2.601905
    18  H    6.014312   4.640099   3.873704   4.535345   2.601912
    19  H    7.488681   6.217179   5.040305   5.123955   4.080388
    20  H    8.114339   6.748547   5.746343   6.095553   4.546889
    21  H    7.488687   6.217152   5.040287   5.123941   4.080382
    22  H    2.159717   2.724574   2.736162   2.198957   4.076947
    23  Cl   3.981612   5.130480   5.486598   4.965981   6.827564
    24  C    4.308076   5.703169   6.674140   6.693481   7.860710
    25  H    3.391429   4.524773   5.820852   6.323725   6.695743
    26  H    2.155978   2.601129   3.973425   4.819351   4.539937
    27  F    4.944971   6.287525   7.416814   7.613893   8.494458
    28  F    4.977839   6.346617   7.208886   7.108712   8.432662
    29  F    4.977833   6.346611   7.208830   7.108647   8.432581
                    6          7          8          9         10
     6  C    0.000000
     7  C    1.513248   0.000000
     8  C    2.503434   1.526310   0.000000
     9  C    5.296629   6.627698   7.798261   0.000000
    10  C    6.683544   8.010179   9.184507   1.387381   0.000000
    11  C    7.537050   8.740937  10.030431   2.431100   1.394634
    12  C    7.187649   8.221723   9.614946   2.784787   2.391420
    13  C    5.925575   6.885002   8.306962   2.415154   2.762591
    14  H    3.700191   4.435228   5.910927   3.338605   4.465074
    15  H    1.092678   2.170861   2.776549   5.330214   6.690004
    16  H    1.092678   2.170862   2.776548   5.330199   6.689956
    17  H    2.136186   1.093376   2.165434   6.806963   8.164495
    18  H    2.136187   1.093376   2.165434   6.806977   8.164536
    19  H    2.768708   2.176049   1.092675   7.894944   9.265594
    20  H    3.457121   2.171032   1.090618   8.734970  10.122012
    21  H    2.768694   2.176046   1.092674   7.894939   9.265614
    22  H    4.819890   6.255537   7.276749   1.079116   2.140727
    23  Cl   7.608396   9.045955  10.048971   2.675627   1.737054
    24  C    9.020987  10.241970  11.519062   3.815542   2.533898
    25  H    8.062013   8.996961  10.434933   3.867162   3.374415
    26  H    5.967048   6.714014   8.200762   3.399338   3.847290
    27  F    9.756108  10.864975  12.222197   4.779671   3.655562
    28  F    9.519074  10.788763  12.009759   4.311940   3.007207
    29  F    9.518973  10.788652  12.009632   4.311965   3.007245
                   11         12         13         14         15
    11  C    0.000000
    12  C    1.392099   0.000000
    13  C    2.414046   1.382335   0.000000
    14  H    4.716905   3.904737   2.525689   0.000000
    15  H    7.632633   7.401455   6.207353   4.169067   0.000000
    16  H    7.632554   7.401370   6.207290   4.169072   1.766596
    17  H    8.798115   8.184661   6.832067   4.360173   3.061188
    18  H    8.798185   8.184739   6.832127   4.360171   2.503079
    19  H   10.179462   9.850072   8.581021   6.275543   3.137801
    20  H   10.899124  10.391934   9.051047   6.580249   3.778479
    21  H   10.179509   9.850126   8.581058   6.275534   2.593840
    22  H    3.402413   3.863802   3.400498   3.720236   4.743812
    23  Cl   2.728189   4.006034   4.499187   6.003250   7.473742
    24  C    1.503726   2.507394   3.785940   6.191390   9.084963
    25  H    2.141796   1.082379   2.136514   4.583248   8.318142
    26  H    3.392681   2.138726   1.084711   2.292828   6.351033
    27  F    2.350267   2.683880   4.065665   6.588274   9.891289
    28  F    2.363176   3.434048   4.612417   6.901200   9.433458
    29  F    2.363178   3.434016   4.612390   6.901174   9.633118
                   16         17         18         19         20
    16  H    0.000000
    17  H    2.503080   0.000000
    18  H    3.061189   1.757882   0.000000
    19  H    2.593853   2.526089   3.079523   0.000000
    20  H    3.778484   2.509710   2.509700   1.762533   0.000000
    21  H    3.137781   3.079521   2.526095   1.764803   1.762533
    22  H    4.743840   6.536155   6.536136   7.298716   8.273640
    23  Cl   7.473708   9.294074   9.294102  10.023873  11.058180
    24  C    9.084867  10.295348  10.295434  11.648146  12.397623
    25  H    8.318042   8.897337   8.897433  10.707744  11.155662
    26  H    6.350968   6.563781   6.563847   8.550696   8.839666
    27  F    9.891187  10.841952  10.842048  12.408817  13.035704
    28  F    9.633123  10.964261  10.790130  12.179149  12.918111
    29  F    9.433256  10.789934  10.964241  12.021798  12.917983
                   21         22         23         24         25
    21  H    0.000000
    22  H    7.298681   0.000000
    23  Cl  10.023881   2.791325   0.000000
    24  C   11.648208   4.673913   3.085411   0.000000
    25  H   10.707814   4.946180   4.868848   2.696939   0.000000
    26  H    8.550740   4.301587   5.583883   4.645667   2.456243
    27  F   12.408888   5.744214   4.421587   1.342511   2.307263
    28  F   12.021992   5.028310   3.072998   1.339673   3.654534
    29  F   12.179084   5.028349   3.073091   1.339674   3.654482
                   26         27         28         29
    26  H    0.000000
    27  F    4.679992   0.000000
    28  F    5.497000   2.152881   0.000000
    29  F    5.496961   2.152881   2.156004   0.000000
 Stoichiometry    C11H11ClF3NO2
 Framework group  C1[X(C11H11ClF3NO2)]
 Deg. of freedom    81
 Full point group                 C1      NOp   1
 Largest Abelian subgroup         C1      NOp   1
 Largest concise Abelian subgroup C1      NOp   1
                         Standard orientation:                         
 ---------------------------------------------------------------------
 Center     Atomic      Atomic             Coordinates (Angstroms)
 Number     Number       Type             X           Y           Z
 ---------------------------------------------------------------------
      1          6           0       -0.217431   -0.719217   -0.000145
      2          7           0       -1.600966   -0.912676   -0.000225
      3          6           0       -2.583150    0.048274   -0.000081
      4          8           0       -2.417410    1.239522   -0.000008
      5          8           0       -3.781450   -0.557534   -0.000035
      6          6           0       -4.916295    0.323342    0.000056
      7          6           0       -6.163565   -0.533535    0.000071
      8          6           0       -7.419709    0.333484    0.000176
      9          6           0        0.375662    0.545769   -0.000138
     10          6           0        1.759535    0.644366   -0.000060
     11          6           0        2.577239   -0.485396    0.000002
     12          6           0        1.969480   -1.737820   -0.000017
     13          6           0        0.592523   -1.859630   -0.000091
     14          1           0       -1.933159   -1.865793   -0.000206
     15          1           0       -4.864189    0.964486   -0.883212
     16          1           0       -4.864106    0.964398    0.883384
     17          1           0       -6.148958   -1.183751    0.878978
     18          1           0       -6.149043   -1.183661   -0.878904
     19          1           0       -7.457929    0.976736    0.882618
     20          1           0       -8.319989   -0.282100    0.000174
     21          1           0       -7.457999    0.976844   -0.882184
     22          1           0       -0.227655    1.440475   -0.000184
     23         17           0        2.446813    2.239674   -0.000052
     24          6           0        4.077250   -0.379760    0.000091
     25          1           0        2.586405   -2.627172    0.000028
     26          1           0        0.139874   -2.845382   -0.000104
     27          9           0        4.649514   -1.594194    0.000085
     28          9           0        4.541378    0.266243   -1.077865
     29          9           0        4.541258    0.266177    1.078139
 ---------------------------------------------------------------------
 Rotational constants (GHZ):      1.1310639      0.1272999      0.1170104
 Standard basis: 6-311+G(d) (5D, 7F)
 There are   455 symmetry adapted cartesian basis functions of A   symmetry.
 There are   437 symmetry adapted basis functions of A   symmetry.
   437 basis functions,   720 primitive gaussians,   455 cartesian basis functions
    72 alpha electrons       72 beta electrons
       nuclear repulsion energy      1439.0340644238 Hartrees.
 NAtoms=   29 NActive=   29 NUniq=   29 SFac= 1.00D+00 NAtFMM=   60 NAOKFM=F Big=F
 Integral buffers will be    131072 words long.
 Raffenetti 2 integral format.
 Two-electron integral symmetry is turned on.
 Nuclear repulsion after empirical dispersion term =     1439.0328325965 Hartrees.
 One-electron integrals computed using PRISM.
 NBasis=   437 RedAO= T EigKep=  1.79D-06  NBF=   437
 NBsUse=   435 1.00D-06 EigRej=  7.28D-07 NBFU=   435
 ExpMin= 4.38D-02 ExpMax= 1.06D+05 ExpMxC= 3.62D+03 IAcc=3 IRadAn=         5 AccDes= 0.00D+00
 Harris functional with IExCor= 1009 and IRadAn=       5 diagonalized for initial guess.
 HarFok:  IExCor= 1009 AccDes= 0.00D+00 IRadAn=         5 IDoV= 1 UseB2=F ITyADJ=14
 ICtDFT=  3500011 ScaDFX=  1.000000  1.000000  1.000000  1.000000
 FoFCou: FMM=F IPFlag=           0 FMFlag=      100000 FMFlg1=           0
         NFxFlg=           0 DoJE=T BraDBF=F KetDBF=T FulRan=T
         wScrn=  0.000000 ICntrl=     500 IOpCl=  0 I1Cent=   200000004 NGrid=           0
         NMat0=    1 NMatS0=      1 NMatT0=    0 NMatD0=    1 NMtDS0=    0 NMtDT0=    0
 Petite list used in FoFCou.
 Requested convergence on RMS density matrix=1.00D-08 within 128 cycles.
 Requested convergence on MAX density matrix=1.00D-06.
 Requested convergence on             energy=1.00D-06.
 No special actions if energy rises.
 SCF Done:  E(RM062X) =  -1390.67239487     A.U. after   16 cycles
            NFock= 16  Conv=0.38D-08     -V/T= 2.0028

 **********************************************************************

            Population analysis using the SCF density.

 **********************************************************************

 Orbital symmetries:
       Occupied  (A) (A) (A) (A) (A) (A) (A) (A) (A) (A) (A) (A)
                 (A) (A) (A) (A) (A) (A) (A) (A) (A) (A) (A) (A)
                 (A) (A) (A) (A) (A) (A) (A) (A) (A) (A) (A) (A)
                 (A) (A) (A) (A) (A) (A) (A) (A) (A) (A) (A) (A)
                 (A) (A) (A) (A) (A) (A) (A) (A) (A) (A) (A) (A)
                 (A) (A) (A) (A) (A) (A) (A) (A) (A) (A) (A) (A)
       Virtual   (A) (A) (A) (A) (A) (A) (A) (A) (A) (A) (A) (A)
                 (A) (A) (A) (A) (A) (A) (A) (A) (A) (A) (A) (A)
                 (A) (A) (A) (A) (A) (A) (A) (A) (A) (A) (A) (A)
                 (A) (A) (A) (A) (A) (A) (A) (A) (A) (A) (A) (A)
                 (A) (A) (A) (A) (A) (A) (A) (A) (A) (A) (A) (A)
                 (A) (A) (A) (A) (A) (A) (A) (A) (A) (A) (A) (A)
                 (A) (A) (A) (A) (A) (A) (A) (A) (A) (A) (A) (A)
                 (A) (A) (A) (A) (A) (A) (A) (A) (A) (A) (A) (A)
                 (A) (A) (A) (A) (A) (A) (A) (A) (A) (A) (A) (A)
                 (A) (A) (A) (A) (A) (A) (A) (A) (A) (A) (A) (A)
                 (A) (A) (A) (A) (A) (A) (A) (A) (A) (A) (A) (A)
                 (A) (A) (A) (A) (A) (A) (A) (A) (A) (A) (A) (A)
                 (A) (A) (A) (A) (A) (A) (A) (A) (A) (A) (A) (A)
                 (A) (A) (A) (A) (A) (A) (A) (A) (A) (A) (A) (A)
                 (A) (A) (A) (A) (A) (A) (A) (A) (A) (A) (A) (A)
                 (A) (A) (A) (A) (A) (A) (A) (A) (A) (A) (A) (A)
                 (A) (A) (A) (A) (A) (A) (A) (A) (A) (A) (A) (A)
                 (A) (A) (A) (A) (A) (A) (A) (A) (A) (A) (A) (A)
                 (A) (A) (A) (A) (A) (A) (A) (A) (A) (A) (A) (A)
                 (A) (A) (A) (A) (A) (A) (A) (A) (A) (A) (A) (A)
                 (A) (A) (A) (A) (A) (A) (A) (A) (A) (A) (A) (A)
                 (A) (A) (A) (A) (A) (A) (A) (A) (A) (A) (A) (A)
                 (A) (A) (A) (A) (A) (A) (A) (A) (A) (A) (A) (A)
                 (A) (A) (A) (A) (A) (A) (A) (A) (A) (A) (A) (A)
                 (A) (A) (A) (A) (A) (A) (A) (A) (A) (A) (A) (A)
                 (A) (A) (A) (A) (A) (A) (A) (A) (A) (A) (A) (A)
                 (A) (A) (A) (A) (A) (A) (A) (A) (A) (A) (A) (A)
                 (A) (A) (A) (A) (A) (A) (A) (A) (A) (A) (A) (A)
                 (A) (A) (A) (A) (A) (A) (A) (A) (A) (A) (A) (A)
                 (A) (A) (A) (A) (A) (A) (A) (A) (A) (A) (A) (A)
                 (A) (A) (A)
 The electronic state is 1-A.
 Alpha  occ. eigenvalues -- -102.68516 -25.27931 -25.27323 -25.27322 -19.68572
 Alpha  occ. eigenvalues --  -19.62530 -14.81496 -10.80623 -10.72133 -10.63402
 Alpha  occ. eigenvalues --  -10.62966 -10.60870 -10.58661 -10.58148 -10.57401
 Alpha  occ. eigenvalues --  -10.56916 -10.55250 -10.54190  -9.82801  -7.55323
 Alpha  occ. eigenvalues --   -7.54631  -7.54608  -1.47078  -1.37699  -1.37314
 Alpha  occ. eigenvalues --   -1.26662  -1.16752  -1.09058  -1.02062  -0.95831
 Alpha  occ. eigenvalues --   -0.91846  -0.89840  -0.85995  -0.83048  -0.79968
 Alpha  occ. eigenvalues --   -0.75319  -0.73358  -0.70571  -0.69553  -0.69336
 Alpha  occ. eigenvalues --   -0.68411  -0.67528  -0.65270  -0.62437  -0.60578
 Alpha  occ. eigenvalues --   -0.58099  -0.57556  -0.57271  -0.55699  -0.55134
 Alpha  occ. eigenvalues --   -0.55109  -0.53365  -0.53313  -0.52684  -0.51637
 Alpha  occ. eigenvalues --   -0.51215  -0.51168  -0.50392  -0.48036  -0.47204
 Alpha  occ. eigenvalues --   -0.45962  -0.44884  -0.44684  -0.43784  -0.42138
 Alpha  occ. eigenvalues --   -0.41906  -0.39504  -0.39353  -0.38738  -0.38235
 Alpha  occ. eigenvalues --   -0.32480  -0.30398
 Alpha virt. eigenvalues --   -0.01599  -0.00889  -0.00581   0.01078   0.02016
 Alpha virt. eigenvalues --    0.02236   0.02795   0.03125   0.03819   0.04631
 Alpha virt. eigenvalues --    0.05022   0.05121   0.05991   0.06222   0.06543
 Alpha virt. eigenvalues --    0.07052   0.07125   0.07467   0.07745   0.08373
 Alpha virt. eigenvalues --    0.08568   0.08972   0.09513   0.10314   0.10815
 Alpha virt. eigenvalues --    0.11311   0.11870   0.11940   0.12396   0.13352
 Alpha virt. eigenvalues --    0.13447   0.14561   0.14716   0.14775   0.15741
 Alpha virt. eigenvalues --    0.15966   0.17258   0.17646   0.17838   0.18123
 Alpha virt. eigenvalues --    0.18787   0.19220   0.19408   0.19594   0.20085
 Alpha virt. eigenvalues --    0.20544   0.20742   0.20981   0.21347   0.22013
 Alpha virt. eigenvalues --    0.22344   0.22525   0.22860   0.23334   0.23874
 Alpha virt. eigenvalues --    0.23904   0.24527   0.24729   0.24836   0.26135
 Alpha virt. eigenvalues --    0.26284   0.26510   0.26735   0.27199   0.27593
 Alpha virt. eigenvalues --    0.28373   0.28731   0.29273   0.29604   0.30052
 Alpha virt. eigenvalues --    0.30318   0.30585   0.31269   0.31467   0.31517
 Alpha virt. eigenvalues --    0.32759   0.33056   0.34007   0.34931   0.35584
 Alpha virt. eigenvalues --    0.36011   0.36474   0.37169   0.37663   0.38001
 Alpha virt. eigenvalues --    0.38440   0.39537   0.39761   0.40848   0.41321
 Alpha virt. eigenvalues --    0.42185   0.42289   0.43508   0.43623   0.44670
 Alpha virt. eigenvalues --    0.45582   0.46118   0.47150   0.47441   0.48430
 Alpha virt. eigenvalues --    0.49777   0.50677   0.50862   0.51383   0.52448
 Alpha virt. eigenvalues --    0.52946   0.54159   0.54940   0.55615   0.56655
 Alpha virt. eigenvalues --    0.57934   0.59350   0.59699   0.60392   0.60649
 Alpha virt. eigenvalues --    0.61809   0.62257   0.62726   0.63708   0.65336
 Alpha virt. eigenvalues --    0.66551   0.66699   0.67101   0.67547   0.68647
 Alpha virt. eigenvalues --    0.68780   0.69444   0.70034   0.71651   0.72105
 Alpha virt. eigenvalues --    0.72354   0.72592   0.73207   0.73458   0.74923
 Alpha virt. eigenvalues --    0.75736   0.76212   0.77152   0.77719   0.80032
 Alpha virt. eigenvalues --    0.80238   0.81935   0.83502   0.84620   0.87235
 Alpha virt. eigenvalues --    0.88360   0.89775   0.90710   0.91962   0.93279
 Alpha virt. eigenvalues --    0.94227   0.94458   0.96183   0.96730   0.96733
 Alpha virt. eigenvalues --    0.98490   0.99547   1.01554   1.02702   1.03715
 Alpha virt. eigenvalues --    1.04091   1.05592   1.06497   1.08057   1.09853
 Alpha virt. eigenvalues --    1.09878   1.10790   1.12062   1.13640   1.14720
 Alpha virt. eigenvalues --    1.18432   1.18703   1.21139   1.21384   1.22701
 Alpha virt. eigenvalues --    1.23903   1.24757   1.27590   1.29484   1.30296
 Alpha virt. eigenvalues --    1.32410   1.33969   1.35812   1.39014   1.39477
 Alpha virt. eigenvalues --    1.39823   1.43137   1.44363   1.45462   1.46898
 Alpha virt. eigenvalues --    1.48701   1.48720   1.49709   1.50359   1.53213
 Alpha virt. eigenvalues --    1.53676   1.53908   1.56853   1.57402   1.57438
 Alpha virt. eigenvalues --    1.57983   1.58847   1.59796   1.59958   1.61511
 Alpha virt. eigenvalues --    1.61679   1.63099   1.64954   1.66876   1.70686
 Alpha virt. eigenvalues --    1.72597   1.75269   1.76951   1.77401   1.78332
 Alpha virt. eigenvalues --    1.78936   1.79714   1.81833   1.82699   1.83098
 Alpha virt. eigenvalues --    1.85589   1.86187   1.88986   1.89397   1.91896
 Alpha virt. eigenvalues --    1.92913   1.94419   1.96639   1.98124   1.99463
 Alpha virt. eigenvalues --    2.01423   2.05197   2.07782   2.08198   2.09110
 Alpha virt. eigenvalues --    2.11524   2.16527   2.18284   2.19979   2.22349
 Alpha virt. eigenvalues --    2.25999   2.31874   2.32216   2.34684   2.35650
 Alpha virt. eigenvalues --    2.39073   2.40144   2.42456   2.47459   2.49555
 Alpha virt. eigenvalues --    2.50836   2.53731   2.54764   2.55205   2.57115
 Alpha virt. eigenvalues --    2.58856   2.60604   2.61807   2.64304   2.67654
 Alpha virt. eigenvalues --    2.69755   2.72717   2.74590   2.79081   2.81505
 Alpha virt. eigenvalues --    2.83910   2.84692   2.90959   2.92067   2.94286
 Alpha virt. eigenvalues --    2.95290   3.00629   3.01778   3.02059   3.03586
 Alpha virt. eigenvalues --    3.05118   3.05835   3.09644   3.11126   3.11351
 Alpha virt. eigenvalues --    3.17188   3.17721   3.20212   3.23262   3.26008
 Alpha virt. eigenvalues --    3.27931   3.28474   3.28830   3.33608   3.37360
 Alpha virt. eigenvalues --    3.39176   3.41277   3.43815   3.44085   3.51085
 Alpha virt. eigenvalues --    3.55144   3.66612   3.70338   3.72922   3.78006
 Alpha virt. eigenvalues --    3.80682   3.82005   3.84418   3.84852   3.86963
 Alpha virt. eigenvalues --    3.87415   3.88770   3.89857   3.96229   3.96475
 Alpha virt. eigenvalues --    4.01038   4.01700   4.01952   4.05316   4.09750
 Alpha virt. eigenvalues --    4.12694   4.18065   4.23396   4.28056   4.32781
 Alpha virt. eigenvalues --    4.55118   4.76805   4.80727   4.99010   5.01989
 Alpha virt. eigenvalues --    5.07744   5.09296   5.15325   5.36659   5.49723
 Alpha virt. eigenvalues --    5.79591   5.95452   6.44798   6.48657   6.50148
 Alpha virt. eigenvalues --    6.52955   6.55966   6.58124   6.64173   6.88242
 Alpha virt. eigenvalues --    6.91276  10.00157  23.44324  23.56221  23.65858
 Alpha virt. eigenvalues --   23.71015  23.80500  23.90348  23.92166  23.96726
 Alpha virt. eigenvalues --   24.07951  24.11216  24.19297  25.95993  26.32614
 Alpha virt. eigenvalues --   26.80533  35.64601  50.00998  50.13227  66.89093
 Alpha virt. eigenvalues --   66.91649  66.97491 216.10982
          Condensed to atoms (all electrons):
               1          2          3          4          5          6
     1  C   18.868131  -0.017361  -0.855050  -0.227121  -0.365308  -0.618460
     2  N   -0.017361   7.628657   0.245206   0.009339  -0.226470  -0.299432
     3  C   -0.855050   0.245206   8.618716   0.448469   0.300926  -0.643772
     4  O   -0.227121   0.009339   0.448469   8.045733  -0.198720  -0.200061
     5  O   -0.365308  -0.226470   0.300926  -0.198720   8.346526   0.369481
     6  C   -0.618460  -0.299432  -0.643772  -0.200061   0.369481   8.336145
     7  C   -0.018506   0.035103   0.141389   0.029391  -0.171341  -0.974322
     8  C   -0.017485  -0.005000  -0.259284   0.001302   0.033189   0.329501
     9  C   -1.411684  -0.156272  -0.118223   0.388731   0.075189  -0.308908
    10  C   -2.325992   0.197933   0.906690   0.047789   0.031795  -0.002186
    11  C   -2.507782  -0.105352  -1.387559   0.003777  -0.000366  -0.139755
    12  C   -0.388816   0.096050  -0.306355  -0.008000  -0.012506   0.004893
    13  C   -1.216661  -0.171322  -1.169926  -0.054814  -0.065605  -0.103937
    14  H   -0.052630   0.256946  -0.002214  -0.000004   0.025038  -0.005883
    15  H    0.007628   0.005224   0.042294  -0.002251  -0.044140   0.352270
    16  H    0.007642   0.005218   0.042303  -0.002252  -0.044135   0.352258
    17  H    0.000008  -0.000791   0.007857  -0.000310   0.000822  -0.064575
    18  H    0.000013  -0.000792   0.007879  -0.000310   0.000820  -0.064588
    19  H   -0.000098  -0.000045  -0.000794  -0.000081  -0.000422  -0.047980
    20  H    0.000127   0.000040   0.008389   0.000031  -0.000683   0.091353
    21  H   -0.000099  -0.000045  -0.000804  -0.000081  -0.000422  -0.047981
    22  H    0.026903  -0.027578   0.097696   0.005265   0.002884   0.011673
    23  Cl  -0.072560  -0.003166   0.020309   0.001515   0.000459   0.002637
    24  C   -2.117527   0.025688  -0.181421  -0.000915   0.002043  -0.008035
    25  H    0.054154  -0.002910   0.005014  -0.000015  -0.000014   0.000075
    26  H    0.047651  -0.022131  -0.022620   0.000098  -0.000672  -0.001475
    27  F    0.017006  -0.000148  -0.000990   0.000002   0.000000  -0.000012
    28  F    0.018297   0.000039  -0.000203  -0.000004   0.000000   0.000001
    29  F    0.018337   0.000039  -0.000202  -0.000004   0.000000   0.000001
               7          8          9         10         11         12
     1  C   -0.018506  -0.017485  -1.411684  -2.325992  -2.507782  -0.388816
     2  N    0.035103  -0.005000  -0.156272   0.197933  -0.105352   0.096050
     3  C    0.141389  -0.259284  -0.118223   0.906690  -1.387559  -0.306355
     4  O    0.029391   0.001302   0.388731   0.047789   0.003777  -0.008000
     5  O   -0.171341   0.033189   0.075189   0.031795  -0.000366  -0.012506
     6  C   -0.974322   0.329501  -0.308908  -0.002186  -0.139755   0.004893
     7  C    6.518081  -0.140056  -0.021674  -0.005277  -0.001591  -0.000485
     8  C   -0.140056   6.069995  -0.011703  -0.000201  -0.001036  -0.000083
     9  C   -0.021674  -0.011703  11.756757   3.996860  -3.612547  -1.742530
    10  C   -0.005277  -0.000201   3.996860  29.250788 -11.608904  -4.196131
    11  C   -0.001591  -0.001036  -3.612547 -11.608904  32.336249  -2.959736
    12  C   -0.000485  -0.000083  -1.742530  -4.196131  -2.959736  13.977567
    13  C    0.021202  -0.000663  -2.540272  -6.814443   1.247725   0.764804
    14  H   -0.002445  -0.000578   0.077965   0.024069   0.014411  -0.002575
    15  H   -0.022893  -0.014875  -0.002407   0.000049   0.000093   0.000016
    16  H   -0.022900  -0.014872  -0.002409   0.000048   0.000093   0.000016
    17  H    0.442509  -0.045563   0.000176   0.000016   0.000007  -0.000001
    18  H    0.442501  -0.045568   0.000177   0.000016   0.000007  -0.000001
    19  H    0.014187   0.379495  -0.000015  -0.000001  -0.000001   0.000000
    20  H   -0.137164   0.390439   0.000064   0.000001   0.000001  -0.000001
    21  H    0.014189   0.379504  -0.000015  -0.000001  -0.000001   0.000000
    22  H   -0.000539   0.000082   0.333579  -0.080778  -0.004281  -0.020826
    23  Cl  -0.000042   0.000033   0.550968  -1.301270  -0.446943   0.323437
    24  C   -0.000513  -0.000031  -1.053899  -2.816671  -3.875193   0.413032
    25  H    0.000001   0.000000  -0.007969  -0.006653   0.156061   0.247864
    26  H   -0.000030   0.000001  -0.006948  -0.008954   0.038604  -0.015513
    27  F    0.000000  -0.000000  -0.007571  -0.102757  -0.210392   0.089118
    28  F   -0.000000   0.000000   0.016547  -0.114968   0.147074  -0.009806
    29  F   -0.000000   0.000000   0.016600  -0.114910   0.147115  -0.009839
              13         14         15         16         17         18
     1  C   -1.216661  -0.052630   0.007628   0.007642   0.000008   0.000013
     2  N   -0.171322   0.256946   0.005224   0.005218  -0.000791  -0.000792
     3  C   -1.169926  -0.002214   0.042294   0.042303   0.007857   0.007879
     4  O   -0.054814  -0.000004  -0.002251  -0.002252  -0.000310  -0.000310
     5  O   -0.065605   0.025038  -0.044140  -0.044135   0.000822   0.000820
     6  C   -0.103937  -0.005883   0.352270   0.352258  -0.064575  -0.064588
     7  C    0.021202  -0.002445  -0.022893  -0.022900   0.442509   0.442501
     8  C   -0.000663  -0.000578  -0.014875  -0.014872  -0.045563  -0.045568
     9  C   -2.540272   0.077965  -0.002407  -0.002409   0.000176   0.000177
    10  C   -6.814443   0.024069   0.000049   0.000048   0.000016   0.000016
    11  C    1.247725   0.014411   0.000093   0.000093   0.000007   0.000007
    12  C    0.764804  -0.002575   0.000016   0.000016  -0.000001  -0.000001
    13  C   15.580199  -0.070084   0.000888   0.000888   0.000074   0.000073
    14  H   -0.070084   0.324768  -0.000013  -0.000013   0.000005   0.000005
    15  H    0.000888  -0.000013   0.448773  -0.040326   0.005448  -0.007876
    16  H    0.000888  -0.000013  -0.040326   0.448775  -0.007876   0.005448
    17  H    0.000074   0.000005   0.005448  -0.007876   0.445585  -0.037086
    18  H    0.000073   0.000005  -0.007876   0.005448  -0.037086   0.445587
    19  H    0.000010  -0.000000  -0.000536   0.003783  -0.008123   0.006147
    20  H   -0.000017   0.000000  -0.000201  -0.000201  -0.003220  -0.003220
    21  H    0.000010  -0.000000   0.003783  -0.000536   0.006148  -0.008124
    22  H   -0.024031  -0.000007  -0.000034  -0.000034  -0.000000  -0.000000
    23  Cl   0.289982  -0.000005   0.000005   0.000005   0.000000   0.000000
    24  C    0.263167   0.003499  -0.000004  -0.000004   0.000000   0.000000
    25  H   -0.109762   0.000007   0.000000   0.000000  -0.000000  -0.000000
    26  H    0.290346   0.007367  -0.000000  -0.000000  -0.000000  -0.000000
    27  F    0.132063   0.000000   0.000000   0.000000  -0.000000  -0.000000
    28  F   -0.008394   0.000002  -0.000000  -0.000000  -0.000000   0.000000
    29  F   -0.008415   0.000002  -0.000000  -0.000000   0.000000  -0.000000
              19         20         21         22         23         24
     1  C   -0.000098   0.000127  -0.000099   0.026903  -0.072560  -2.117527
     2  N   -0.000045   0.000040  -0.000045  -0.027578  -0.003166   0.025688
     3  C   -0.000794   0.008389  -0.000804   0.097696   0.020309  -0.181421
     4  O   -0.000081   0.000031  -0.000081   0.005265   0.001515  -0.000915
     5  O   -0.000422  -0.000683  -0.000422   0.002884   0.000459   0.002043
     6  C   -0.047980   0.091353  -0.047981   0.011673   0.002637  -0.008035
     7  C    0.014187  -0.137164   0.014189  -0.000539  -0.000042  -0.000513
     8  C    0.379495   0.390439   0.379504   0.000082   0.000033  -0.000031
     9  C   -0.000015   0.000064  -0.000015   0.333579   0.550968  -1.053899
    10  C   -0.000001   0.000001  -0.000001  -0.080778  -1.301270  -2.816671
    11  C   -0.000001   0.000001  -0.000001  -0.004281  -0.446943  -3.875193
    12  C    0.000000  -0.000001   0.000000  -0.020826   0.323437   0.413032
    13  C    0.000010  -0.000017   0.000010  -0.024031   0.289982   0.263167
    14  H   -0.000000   0.000000  -0.000000  -0.000007  -0.000005   0.003499
    15  H   -0.000536  -0.000201   0.003783  -0.000034   0.000005  -0.000004
    16  H    0.003783  -0.000201  -0.000536  -0.000034   0.000005  -0.000004
    17  H   -0.008123  -0.003220   0.006148  -0.000000   0.000000   0.000000
    18  H    0.006147  -0.003220  -0.008124  -0.000000   0.000000   0.000000
    19  H    0.457007  -0.024928  -0.037693  -0.000000  -0.000000  -0.000000
    20  H   -0.024928   0.429635  -0.024928   0.000000   0.000000   0.000000
    21  H   -0.037693  -0.024928   0.457009  -0.000000  -0.000000  -0.000000
    22  H   -0.000000   0.000000  -0.000000   0.345679  -0.010116   0.012271
    23  Cl  -0.000000   0.000000  -0.000000  -0.010116  17.521238  -0.326677
    24  C   -0.000000   0.000000  -0.000000   0.012271  -0.326677  14.623871
    25  H    0.000000  -0.000000   0.000000   0.000053   0.000031  -0.020916
    26  H   -0.000000   0.000000  -0.000000  -0.000035   0.000209   0.024777
    27  F   -0.000000   0.000000  -0.000000   0.000015   0.011640   0.210446
    28  F   -0.000000   0.000000  -0.000000  -0.000014  -0.011256   0.105585
    29  F   -0.000000   0.000000  -0.000000  -0.000014  -0.011253   0.105453
              25         26         27         28         29
     1  C    0.054154   0.047651   0.017006   0.018297   0.018337
     2  N   -0.002910  -0.022131  -0.000148   0.000039   0.000039
     3  C    0.005014  -0.022620  -0.000990  -0.000203  -0.000202
     4  O   -0.000015   0.000098   0.000002  -0.000004  -0.000004
     5  O   -0.000014  -0.000672   0.000000   0.000000   0.000000
     6  C    0.000075  -0.001475  -0.000012   0.000001   0.000001
     7  C    0.000001  -0.000030   0.000000  -0.000000  -0.000000
     8  C    0.000000   0.000001  -0.000000   0.000000   0.000000
     9  C   -0.007969  -0.006948  -0.007571   0.016547   0.016600
    10  C   -0.006653  -0.008954  -0.102757  -0.114968  -0.114910
    11  C    0.156061   0.038604  -0.210392   0.147074   0.147115
    12  C    0.247864  -0.015513   0.089118  -0.009806  -0.009839
    13  C   -0.109762   0.290346   0.132063  -0.008394  -0.008415
    14  H    0.000007   0.007367   0.000000   0.000002   0.000002
    15  H    0.000000  -0.000000   0.000000  -0.000000  -0.000000
    16  H    0.000000  -0.000000   0.000000  -0.000000  -0.000000
    17  H   -0.000000  -0.000000  -0.000000  -0.000000   0.000000
    18  H   -0.000000  -0.000000  -0.000000   0.000000  -0.000000
    19  H    0.000000  -0.000000  -0.000000  -0.000000  -0.000000
    20  H   -0.000000   0.000000   0.000000   0.000000   0.000000
    21  H    0.000000  -0.000000  -0.000000  -0.000000  -0.000000
    22  H    0.000053  -0.000035   0.000015  -0.000014  -0.000014
    23  Cl   0.000031   0.000209   0.011640  -0.011256  -0.011253
    24  C   -0.020916   0.024777   0.210446   0.105585   0.105453
    25  H    0.395464  -0.004099   0.009691   0.000194   0.000194
    26  H   -0.004099   0.436312   0.000111   0.000040   0.000040
    27  F    0.009691   0.000111   9.060096  -0.037024  -0.037028
    28  F    0.000194   0.000040  -0.037024   8.985176  -0.050825
    29  F    0.000194   0.000040  -0.037028  -0.050825   8.985163
 Mulliken charges:
               1
     1  C   -0.852757
     2  N   -0.466668
     3  C    0.056278
     4  O   -0.286498
     5  O   -0.058368
     6  C   -0.318924
     7  C   -0.138774
     8  C   -1.026541
     9  C   -0.208564
    10  C    1.044044
    11  C   -1.229780
    12  C   -0.243595
    13  C   -0.233086
    14  H    0.402368
    15  H    0.269083
    16  H    0.269082
    17  H    0.258889
    18  H    0.258890
    19  H    0.260088
    20  H    0.274483
    21  H    0.260087
    22  H    0.332188
    23  Cl   0.460819
    24  C    0.611974
    25  H    0.283535
    26  H    0.236925
    27  F   -0.134267
    28  F   -0.040459
    29  F   -0.040453
 Sum of Mulliken charges =  -0.00000
 Mulliken charges with hydrogens summed into heavy atoms:
               1
     1  C   -0.852757
     2  N   -0.064301
     3  C    0.056278
     4  O   -0.286498
     5  O   -0.058368
     6  C    0.219240
     7  C    0.379005
     8  C   -0.231882
     9  C    0.123624
    10  C    1.044044
    11  C   -1.229780
    12  C    0.039940
    13  C    0.003839
    23  Cl   0.460819
    24  C    0.611974
    27  F   -0.134267
    28  F   -0.040459
    29  F   -0.040453
 Electronic spatial extent (au):  <R**2>=           8539.0238
 Charge=             -0.0000 electrons
 Dipole moment (field-independent basis, Debye):
    X=             -5.7136    Y=             -3.4883    Z=             -0.0001  Tot=              6.6943
 Quadrupole moment (field-independent basis, Debye-Ang):
   XX=           -107.7901   YY=           -106.7832   ZZ=           -113.3138
   XY=              1.1005   XZ=             -0.0005   YZ=             -0.0000
 Traceless Quadrupole moment (field-independent basis, Debye-Ang):
   XX=              1.5056   YY=              2.5125   ZZ=             -4.0181
   XY=              1.1005   XZ=             -0.0005   YZ=             -0.0000
 Octapole moment (field-independent basis, Debye-Ang**2):
  XXX=           -138.4922  YYY=            -18.3031  ZZZ=              0.0027  XYY=             26.8157
  XXY=             -1.6611  XXZ=              0.0011  XZZ=              9.8266  YZZ=              3.8159
  YYZ=             -0.0003  XYZ=              0.0003
 Hexadecapole moment (field-independent basis, Debye-Ang**3):
 XXXX=          -9030.3202 YYYY=           -966.3036 ZZZZ=           -203.3824 XXXY=             12.7943
 XXXZ=             -0.0038 YYYX=             21.6534 YYYZ=              0.0000 ZZZX=              0.0069
 ZZZY=             -0.0017 XXYY=          -1761.3260 XXZZ=          -1618.3372 YYZZ=           -214.0246
 XXYZ=             -0.0019 YYXZ=              0.0061 ZZXY=             -9.9826
 N-N= 1.439032832596D+03 E-N=-6.156850229552D+03  KE= 1.386778390432D+03
 Calling FoFJK, ICntrl=      2127 FMM=F ISym2X=0 I1Cent= 0 IOpClX= 0 NMat=1 NMatS=1 NMatT=0.
 ***** Axes restored to original set *****
 -------------------------------------------------------------------
 Center     Atomic                   Forces (Hartrees/Bohr)
 Number     Number              X              Y              Z
 -------------------------------------------------------------------
      1        6          -0.000001400    0.000001693    0.000001294
      2        7           0.000009628   -0.000001720   -0.000002208
      3        6          -0.000003595   -0.000001297   -0.000000546
      4        8           0.000000169    0.000003520    0.000000379
      5        8          -0.000000959    0.000004358    0.000001361
      6        6          -0.000004764   -0.000009452   -0.000000900
      7        6           0.000000203   -0.000001459    0.000000161
      8        6           0.000000972   -0.000002512    0.000000093
      9        6           0.000000080    0.000000175   -0.000000427
     10        6           0.000002394    0.000003125   -0.000000078
     11        6           0.000001018    0.000003078   -0.000000127
     12        6          -0.000000197    0.000002407   -0.000000114
     13        6          -0.000000991    0.000001135   -0.000000412
     14        1          -0.000000503   -0.000000068    0.000000691
     15        1          -0.000000784   -0.000002250   -0.000001035
     16        1          -0.000000102   -0.000002069    0.000001784
     17        1          -0.000000609   -0.000002104    0.000000802
     18        1          -0.000000650   -0.000001987   -0.000000730
     19        1          -0.000000574   -0.000003688    0.000000776
     20        1          -0.000001639   -0.000003273    0.000000123
     21        1          -0.000000320   -0.000003569   -0.000000139
     22        1           0.000000070    0.000000701   -0.000000026
     23       17           0.000001496    0.000000117   -0.000000375
     24        6           0.000006021    0.000000730    0.000000509
     25        1          -0.000000994    0.000002474   -0.000000094
     26        1          -0.000001291    0.000001234   -0.000000076
     27        9          -0.000003649   -0.000004534   -0.000000041
     28        9           0.000000207    0.000007985    0.000008586
     29        9           0.000000760    0.000007249   -0.000009230
 -------------------------------------------------------------------
 Cartesian Forces:  Max     0.000009628 RMS     0.000002915

 GradGradGradGradGradGradGradGradGradGradGradGradGradGradGradGradGradGrad
 Berny optimization.
 FormGI is forming the generalized inverse of G from B-inverse, IUseBI=4.
 GSVD:  received Info=                   1 from GESDD.
 Internal  Forces:  Max     0.000012341 RMS     0.000002356
 Search for a local minimum.
 Step number   1 out of a maximum of  149
 All quantities printed in internal units (Hartrees-Bohrs-Radians)
 Mixed Optimization -- En-DIIS/RFO-DIIS
 Second derivative matrix not updated -- first step.
 ITU=  0
     Eigenvalues ---    0.00418   0.00591   0.00717   0.01208   0.01579
     Eigenvalues ---    0.01732   0.01880   0.02007   0.02035   0.02134
     Eigenvalues ---    0.02169   0.02178   0.02191   0.02209   0.02215
     Eigenvalues ---    0.02241   0.02266   0.02449   0.03813   0.04969
     Eigenvalues ---    0.05388   0.05503   0.05537   0.05716   0.08119
     Eigenvalues ---    0.10608   0.10864   0.11294   0.12018   0.13618
     Eigenvalues ---    0.16000   0.16000   0.16000   0.16000   0.16000
     Eigenvalues ---    0.16000   0.16000   0.21882   0.21941   0.22000
     Eigenvalues ---    0.22371   0.23490   0.24613   0.25000   0.25000
     Eigenvalues ---    0.25000   0.25000   0.25000   0.25000   0.25000
     Eigenvalues ---    0.25000   0.25000   0.29767   0.31026   0.31776
     Eigenvalues ---    0.31990   0.34425   0.34425   0.34505   0.34505
     Eigenvalues ---    0.34505   0.34505   0.34741   0.35431   0.35708
     Eigenvalues ---    0.36101   0.40056   0.42439   0.42927   0.46082
     Eigenvalues ---    0.46122   0.46157   0.46491   0.47167   0.48332
     Eigenvalues ---    0.50199   0.56597   0.56646   0.57278   0.57278
     Eigenvalues ---    1.03467
 RFO step:  Lambda= 0.00000000D+00 EMin= 4.17922724D-03
 Linear search not attempted -- first point.
 Iteration  1 RMS(Cart)=  0.00008483 RMS(Int)=  0.00000000
 Iteration  2 RMS(Cart)=  0.00000000 RMS(Int)=  0.00000000
 Variable       Old X    -DE/DX   Delta X   Delta X   Delta X     New X
                                 (Linear)    (Quad)   (Total)
    R1        2.63994   0.00000   0.00000   0.00000   0.00000   2.63994
    R2        2.64018   0.00000   0.00000   0.00000   0.00000   2.64018
    R3        2.64330   0.00000   0.00000   0.00000   0.00000   2.64330
    R4        2.59665  -0.00001   0.00000  -0.00001  -0.00001   2.59663
    R5        1.90739   0.00000   0.00000   0.00000   0.00000   1.90739
    R6        2.27282   0.00000   0.00000   0.00000   0.00000   2.27282
    R7        2.53739  -0.00000   0.00000  -0.00000  -0.00000   2.53739
    R8        2.71478  -0.00001   0.00000  -0.00002  -0.00002   2.71476
    R9        2.85962   0.00000   0.00000   0.00000   0.00000   2.85963
   R10        2.06486  -0.00000   0.00000  -0.00000  -0.00000   2.06486
   R11        2.06486  -0.00000   0.00000  -0.00000  -0.00000   2.06486
   R12        2.88431  -0.00000   0.00000  -0.00000  -0.00000   2.88431
   R13        2.06618  -0.00000   0.00000  -0.00000  -0.00000   2.06618
   R14        2.06618  -0.00000   0.00000  -0.00000  -0.00000   2.06618
   R15        2.06486  -0.00000   0.00000  -0.00000  -0.00000   2.06485
   R16        2.06097  -0.00000   0.00000  -0.00000  -0.00000   2.06097
   R17        2.06486  -0.00000   0.00000  -0.00000  -0.00000   2.06485
   R18        2.62177  -0.00000   0.00000  -0.00000  -0.00000   2.62177
   R19        2.03923  -0.00000   0.00000  -0.00000  -0.00000   2.03923
   R20        2.63548  -0.00000   0.00000  -0.00000  -0.00000   2.63547
   R21        3.28256  -0.00000   0.00000  -0.00000  -0.00000   3.28255
   R22        2.63069  -0.00000   0.00000  -0.00000  -0.00000   2.63068
   R23        2.84163  -0.00000   0.00000  -0.00000  -0.00000   2.84163
   R24        2.61223  -0.00000   0.00000  -0.00000  -0.00000   2.61223
   R25        2.04540   0.00000   0.00000   0.00000   0.00000   2.04540
   R26        2.04981  -0.00000   0.00000  -0.00000  -0.00000   2.04981
   R27        2.53698   0.00001   0.00000   0.00001   0.00001   2.53699
   R28        2.53161   0.00001   0.00000   0.00002   0.00002   2.53163
   R29        2.53162   0.00001   0.00000   0.00002   0.00002   2.53163
    A1        2.14815   0.00000   0.00000   0.00000   0.00000   2.14815
    A2        2.04943  -0.00000   0.00000  -0.00000  -0.00000   2.04942
    A3        2.08561  -0.00000   0.00000  -0.00000  -0.00000   2.08561
    A4        2.22819   0.00000   0.00000   0.00001   0.00001   2.22820
    A5        2.04509  -0.00000   0.00000  -0.00000  -0.00000   2.04509
    A6        2.00990  -0.00000   0.00000  -0.00001  -0.00001   2.00989
    A7        2.20702   0.00001   0.00000   0.00002   0.00002   2.20704
    A8        1.89904  -0.00001   0.00000  -0.00005  -0.00005   1.89899
    A9        2.17712   0.00001   0.00000   0.00003   0.00003   2.17715
   A10        2.01345   0.00001   0.00000   0.00003   0.00003   2.01348
   A11        1.87958   0.00000   0.00000   0.00002   0.00002   1.87960
   A12        1.89870  -0.00000   0.00000  -0.00001  -0.00001   1.89869
   A13        1.89870  -0.00000   0.00000  -0.00000  -0.00000   1.89869
   A14        1.95149  -0.00000   0.00000   0.00000   0.00000   1.95150
   A15        1.95149  -0.00000   0.00000   0.00000   0.00000   1.95150
   A16        1.88279  -0.00000   0.00000  -0.00001  -0.00001   1.88278
   A17        1.93551   0.00000   0.00000   0.00000   0.00000   1.93551
   A18        1.90259   0.00000   0.00000   0.00000   0.00000   1.90259
   A19        1.90259   0.00000   0.00000   0.00000   0.00000   1.90259
   A20        1.92703  -0.00000   0.00000  -0.00000  -0.00000   1.92703
   A21        1.92703  -0.00000   0.00000  -0.00000  -0.00000   1.92703
   A22        1.86757  -0.00000   0.00000  -0.00000  -0.00000   1.86757
   A23        1.94255  -0.00000   0.00000  -0.00000  -0.00000   1.94255
   A24        1.93771  -0.00000   0.00000  -0.00000  -0.00000   1.93770
   A25        1.94255  -0.00000   0.00000   0.00000   0.00000   1.94255
   A26        1.87906   0.00000   0.00000   0.00000   0.00000   1.87907
   A27        1.88001   0.00000   0.00000   0.00000   0.00000   1.88001
   A28        1.87906   0.00000   0.00000   0.00000   0.00000   1.87907
   A29        2.08034   0.00000   0.00000   0.00000   0.00000   2.08035
   A30        2.10989   0.00000   0.00000   0.00000   0.00000   2.10990
   A31        2.09295  -0.00000   0.00000  -0.00001  -0.00001   2.09294
   A32        2.12618  -0.00000   0.00000  -0.00000  -0.00000   2.12618
   A33        2.04871   0.00000   0.00000   0.00000   0.00000   2.04871
   A34        2.10830  -0.00000   0.00000  -0.00000  -0.00000   2.10830
   A35        2.06329   0.00000   0.00000   0.00000   0.00000   2.06329
   A36        2.12700   0.00000   0.00000   0.00001   0.00001   2.12701
   A37        2.09289  -0.00000   0.00000  -0.00001  -0.00001   2.09289
   A38        2.11082   0.00000   0.00000   0.00000   0.00000   2.11082
   A39        2.08333  -0.00000   0.00000  -0.00000  -0.00000   2.08333
   A40        2.08903   0.00000   0.00000   0.00000   0.00000   2.08904
   A41        2.10012  -0.00000   0.00000  -0.00000  -0.00000   2.10012
   A42        2.09356   0.00000   0.00000   0.00000   0.00000   2.09357
   A43        2.08950  -0.00000   0.00000  -0.00000  -0.00000   2.08950
   A44        1.94085  -0.00000   0.00000  -0.00001  -0.00001   1.94083
   A45        1.95997  -0.00000   0.00000  -0.00000  -0.00000   1.95996
   A46        1.95997  -0.00000   0.00000  -0.00001  -0.00001   1.95996
   A47        1.86348   0.00000   0.00000   0.00001   0.00001   1.86349
   A48        1.86348   0.00000   0.00000   0.00001   0.00001   1.86349
   A49        1.87026   0.00000   0.00000   0.00002   0.00002   1.87027
    D1       -0.00021   0.00000   0.00000   0.00003   0.00003  -0.00018
    D2       -3.14157  -0.00000   0.00000  -0.00002  -0.00002  -3.14159
    D3        3.14140   0.00000   0.00000   0.00003   0.00003   3.14143
    D4        0.00004  -0.00000   0.00000  -0.00002  -0.00002   0.00002
    D5       -3.14159   0.00000   0.00000   0.00001   0.00001  -3.14158
    D6        0.00001   0.00000   0.00000   0.00000   0.00000   0.00002
    D7       -0.00001   0.00000   0.00000   0.00001   0.00001  -0.00000
    D8        3.14159   0.00000   0.00000   0.00001   0.00001  -3.14159
    D9        3.14159  -0.00000   0.00000  -0.00001  -0.00001   3.14158
   D10       -0.00001  -0.00000   0.00000  -0.00000  -0.00000  -0.00001
   D11        0.00001  -0.00000   0.00000  -0.00001  -0.00001   0.00000
   D12       -3.14159  -0.00000   0.00000  -0.00000  -0.00000  -3.14159
   D13        0.00016  -0.00000   0.00000  -0.00002  -0.00002   0.00014
   D14       -3.14144  -0.00000   0.00000  -0.00005  -0.00005  -3.14149
   D15        3.14152   0.00000   0.00000   0.00003   0.00003   3.14155
   D16       -0.00007  -0.00000   0.00000  -0.00000  -0.00000  -0.00007
   D17       -3.14155  -0.00000   0.00000   0.00000   0.00000  -3.14155
   D18        0.00004  -0.00000   0.00000  -0.00003  -0.00003   0.00001
   D19        3.14158  -0.00000   0.00000  -0.00000  -0.00000   3.14157
   D20        1.02336  -0.00000   0.00000  -0.00001  -0.00001   1.02335
   D21       -1.02340   0.00000   0.00000   0.00001   0.00001  -1.02340
   D22        3.14159   0.00000   0.00000   0.00001   0.00001   3.14159
   D23        1.01646   0.00000   0.00000   0.00001   0.00001   1.01646
   D24       -1.01647   0.00000   0.00000   0.00001   0.00001  -1.01646
   D25       -1.05666   0.00000   0.00000   0.00000   0.00000  -1.05666
   D26        3.10139   0.00000   0.00000   0.00000   0.00000   3.10140
   D27        1.06847   0.00000   0.00000   0.00000   0.00000   1.06847
   D28        1.05666  -0.00000   0.00000  -0.00000  -0.00000   1.05665
   D29       -1.06847  -0.00000   0.00000  -0.00001  -0.00001  -1.06848
   D30       -3.10140  -0.00000   0.00000  -0.00000  -0.00000  -3.10140
   D31       -1.04870  -0.00000   0.00000   0.00000   0.00000  -1.04869
   D32        3.14158   0.00000   0.00000   0.00001   0.00001   3.14159
   D33        1.04867   0.00000   0.00000   0.00001   0.00001   1.04868
   D34        1.06206   0.00000   0.00000   0.00001   0.00001   1.06206
   D35       -1.03085   0.00000   0.00000   0.00001   0.00001  -1.03084
   D36       -3.12376   0.00000   0.00000   0.00001   0.00001  -3.12375
   D37        3.12373  -0.00000   0.00000   0.00000   0.00000   3.12373
   D38        1.03082  -0.00000   0.00000   0.00000   0.00000   1.03083
   D39       -1.06208  -0.00000   0.00000   0.00000   0.00000  -1.06208
   D40        0.00001  -0.00000   0.00000  -0.00000  -0.00000   0.00001
   D41       -3.14159   0.00000   0.00000   0.00001   0.00001  -3.14158
   D42        3.14159   0.00000   0.00000   0.00000   0.00000  -3.14159
   D43       -0.00001   0.00000   0.00000   0.00001   0.00001   0.00001
   D44        0.00000  -0.00000   0.00000  -0.00001  -0.00001  -0.00000
   D45       -3.14159  -0.00000   0.00000  -0.00000  -0.00000  -3.14159
   D46       -3.14158  -0.00000   0.00000  -0.00002  -0.00002   3.14158
   D47        0.00001  -0.00000   0.00000  -0.00001  -0.00001  -0.00000
   D48       -0.00000   0.00000   0.00000   0.00001   0.00001   0.00000
   D49        3.14159   0.00000   0.00000   0.00000   0.00000  -3.14159
   D50        3.14159   0.00000   0.00000   0.00000   0.00000   3.14159
   D51       -0.00000  -0.00000   0.00000  -0.00000  -0.00000  -0.00001
   D52       -3.14155  -0.00000   0.00000  -0.00004  -0.00004   3.14159
   D53       -1.05457  -0.00000   0.00000  -0.00005  -0.00005  -1.05462
   D54        1.05465   0.00000   0.00000  -0.00004  -0.00004   1.05462
   D55        0.00004  -0.00000   0.00000  -0.00004  -0.00004   0.00001
   D56        2.08702  -0.00000   0.00000  -0.00004  -0.00004   2.08698
   D57       -2.08694   0.00000   0.00000  -0.00003  -0.00003  -2.08697
   D58       -0.00000   0.00000   0.00000   0.00000   0.00000  -0.00000
   D59       -3.14159  -0.00000   0.00000  -0.00000  -0.00000   3.14159
   D60        3.14159   0.00000   0.00000   0.00000   0.00000  -3.14159
   D61        0.00000  -0.00000   0.00000  -0.00000  -0.00000   0.00000
         Item               Value     Threshold  Converged?
 Maximum Force            0.000012     0.000450     YES
 RMS     Force            0.000002     0.000300     YES
 Maximum Displacement     0.000233     0.001800     YES
 RMS     Displacement     0.000085     0.001200     YES
 Predicted change in Energy=-1.258320D-09
 Optimization completed.
    -- Stationary point found.
                           ----------------------------
                           !   Optimized Parameters   !
                           ! (Angstroms and Degrees)  !
 --------------------------                            --------------------------
 ! Name  Definition              Value          Derivative Info.                !
 --------------------------------------------------------------------------------
 ! R1    R(1,2)                  1.397          -DE/DX =    0.0                 !
 ! R2    R(1,9)                  1.3971         -DE/DX =    0.0                 !
 ! R3    R(1,13)                 1.3988         -DE/DX =    0.0                 !
 ! R4    R(2,3)                  1.3741         -DE/DX =    0.0                 !
 ! R5    R(2,14)                 1.0093         -DE/DX =    0.0                 !
 ! R6    R(3,4)                  1.2027         -DE/DX =    0.0                 !
 ! R7    R(3,5)                  1.3427         -DE/DX =    0.0                 !
 ! R8    R(5,6)                  1.4366         -DE/DX =    0.0                 !
 ! R9    R(6,7)                  1.5132         -DE/DX =    0.0                 !
 ! R10   R(6,15)                 1.0927         -DE/DX =    0.0                 !
 ! R11   R(6,16)                 1.0927         -DE/DX =    0.0                 !
 ! R12   R(7,8)                  1.5263         -DE/DX =    0.0                 !
 ! R13   R(7,17)                 1.0934         -DE/DX =    0.0                 !
 ! R14   R(7,18)                 1.0934         -DE/DX =    0.0                 !
 ! R15   R(8,19)                 1.0927         -DE/DX =    0.0                 !
 ! R16   R(8,20)                 1.0906         -DE/DX =    0.0                 !
 ! R17   R(8,21)                 1.0927         -DE/DX =    0.0                 !
 ! R18   R(9,10)                 1.3874         -DE/DX =    0.0                 !
 ! R19   R(9,22)                 1.0791         -DE/DX =    0.0                 !
 ! R20   R(10,11)                1.3946         -DE/DX =    0.0                 !
 ! R21   R(10,23)                1.7371         -DE/DX =    0.0                 !
 ! R22   R(11,12)                1.3921         -DE/DX =    0.0                 !
 ! R23   R(11,24)                1.5037         -DE/DX =    0.0                 !
 ! R24   R(12,13)                1.3823         -DE/DX =    0.0                 !
 ! R25   R(12,25)                1.0824         -DE/DX =    0.0                 !
 ! R26   R(13,26)                1.0847         -DE/DX =    0.0                 !
 ! R27   R(24,27)                1.3425         -DE/DX =    0.0                 !
 ! R28   R(24,28)                1.3397         -DE/DX =    0.0                 !
 ! R29   R(24,29)                1.3397         -DE/DX =    0.0                 !
 ! A1    A(2,1,9)              123.0797         -DE/DX =    0.0                 !
 ! A2    A(2,1,13)             117.4234         -DE/DX =    0.0                 !
 ! A3    A(9,1,13)             119.4968         -DE/DX =    0.0                 !
 ! A4    A(1,2,3)              127.6661         -DE/DX =    0.0                 !
 ! A5    A(1,2,14)             117.1752         -DE/DX =    0.0                 !
 ! A6    A(3,2,14)             115.1587         -DE/DX =    0.0                 !
 ! A7    A(2,3,4)              126.4531         -DE/DX =    0.0                 !
 ! A8    A(2,3,5)              108.8069         -DE/DX =    0.0                 !
 ! A9    A(4,3,5)              124.74           -DE/DX =    0.0                 !
 ! A10   A(3,5,6)              115.3619         -DE/DX =    0.0                 !
 ! A11   A(5,6,7)              107.692          -DE/DX =    0.0                 !
 ! A12   A(5,6,15)             108.7878         -DE/DX =    0.0                 !
 ! A13   A(5,6,16)             108.7873         -DE/DX =    0.0                 !
 ! A14   A(7,6,15)             111.8124         -DE/DX =    0.0                 !
 ! A15   A(7,6,16)             111.8124         -DE/DX =    0.0                 !
 ! A16   A(15,6,16)            107.8758         -DE/DX =    0.0                 !
 ! A17   A(6,7,8)              110.8965         -DE/DX =    0.0                 !
 ! A18   A(6,7,17)             109.0103         -DE/DX =    0.0                 !
 ! A19   A(6,7,18)             109.0103         -DE/DX =    0.0                 !
 ! A20   A(8,7,17)             110.4109         -DE/DX =    0.0                 !
 ! A21   A(8,7,18)             110.4109         -DE/DX =    0.0                 !
 ! A22   A(17,7,18)            107.0041         -DE/DX =    0.0                 !
 ! A23   A(7,8,19)             111.2999         -DE/DX =    0.0                 !
 ! A24   A(7,8,20)             111.0225         -DE/DX =    0.0                 !
 ! A25   A(7,8,21)             111.2998         -DE/DX =    0.0                 !
 ! A26   A(19,8,20)            107.6625         -DE/DX =    0.0                 !
 ! A27   A(19,8,21)            107.7166         -DE/DX =    0.0                 !
 ! A28   A(20,8,21)            107.6624         -DE/DX =    0.0                 !
 ! A29   A(1,9,10)             119.195          -DE/DX =    0.0                 !
 ! A30   A(1,9,22)             120.8878         -DE/DX =    0.0                 !
 ! A31   A(10,9,22)            119.9172         -DE/DX =    0.0                 !
 ! A32   A(9,10,11)            121.8212         -DE/DX =    0.0                 !
 ! A33   A(9,10,23)            117.3823         -DE/DX =    0.0                 !
 ! A34   A(11,10,23)           120.7966         -DE/DX =    0.0                 !
 ! A35   A(10,11,12)           118.2178         -DE/DX =    0.0                 !
 ! A36   A(10,11,24)           121.8681         -DE/DX =    0.0                 !
 ! A37   A(12,11,24)           119.914          -DE/DX =    0.0                 !
 ! A38   A(11,12,13)           120.9411         -DE/DX =    0.0                 !
 ! A39   A(11,12,25)           119.366          -DE/DX =    0.0                 !
 ! A40   A(13,12,25)           119.6929         -DE/DX =    0.0                 !
 ! A41   A(1,13,12)            120.3281         -DE/DX =    0.0                 !
 ! A42   A(1,13,26)            119.9524         -DE/DX =    0.0                 !
 ! A43   A(12,13,26)           119.7195         -DE/DX =    0.0                 !
 ! A44   A(11,24,27)           111.2024         -DE/DX =    0.0                 !
 ! A45   A(11,24,28)           112.2978         -DE/DX =    0.0                 !
 ! A46   A(11,24,29)           112.2979         -DE/DX =    0.0                 !
 ! A47   A(27,24,28)           106.7696         -DE/DX =    0.0                 !
 ! A48   A(27,24,29)           106.7696         -DE/DX =    0.0                 !
 ! A49   A(28,24,29)           107.1578         -DE/DX =    0.0                 !
 ! D1    D(9,1,2,3)             -0.0119         -DE/DX =    0.0                 !
 ! D2    D(9,1,2,14)          -179.9989         -DE/DX =    0.0                 !
 ! D3    D(13,1,2,3)           179.9891         -DE/DX =    0.0                 !
 ! D4    D(13,1,2,14)            0.0022         -DE/DX =    0.0                 !
 ! D5    D(2,1,9,10)          -179.9997         -DE/DX =    0.0                 !
 ! D6    D(2,1,9,22)             0.0007         -DE/DX =    0.0                 !
 ! D7    D(13,1,9,10)           -0.0008         -DE/DX =    0.0                 !
 ! D8    D(13,1,9,22)         -180.0004         -DE/DX =    0.0                 !
 ! D9    D(2,1,13,12)          179.9997         -DE/DX =    0.0                 !
 ! D10   D(2,1,13,26)           -0.0006         -DE/DX =    0.0                 !
 ! D11   D(9,1,13,12)            0.0007         -DE/DX =    0.0                 !
 ! D12   D(9,1,13,26)         -179.9996         -DE/DX =    0.0                 !
 ! D13   D(1,2,3,4)              0.0089         -DE/DX =    0.0                 !
 ! D14   D(1,2,3,5)           -179.9912         -DE/DX =    0.0                 !
 ! D15   D(14,2,3,4)           179.9961         -DE/DX =    0.0                 !
 ! D16   D(14,2,3,5)            -0.004          -DE/DX =    0.0                 !
 ! D17   D(2,3,5,6)           -179.9974         -DE/DX =    0.0                 !
 ! D18   D(4,3,5,6)              0.0025         -DE/DX =    0.0                 !
 ! D19   D(3,5,6,7)            179.999          -DE/DX =    0.0                 !
 ! D20   D(3,5,6,15)            58.6345         -DE/DX =    0.0                 !
 ! D21   D(3,5,6,16)           -58.6367         -DE/DX =    0.0                 !
 ! D22   D(5,6,7,8)            179.9996         -DE/DX =    0.0                 !
 ! D23   D(5,6,7,17)            58.2386         -DE/DX =    0.0                 !
 ! D24   D(5,6,7,18)           -58.2393         -DE/DX =    0.0                 !
 ! D25   D(15,6,7,8)           -60.5423         -DE/DX =    0.0                 !
 ! D26   D(15,6,7,17)          177.6967         -DE/DX =    0.0                 !
 ! D27   D(15,6,7,18)           61.2188         -DE/DX =    0.0                 !
 ! D28   D(16,6,7,8)            60.5421         -DE/DX =    0.0                 !
 ! D29   D(16,6,7,17)          -61.2189         -DE/DX =    0.0                 !
 ! D30   D(16,6,7,18)         -177.6969         -DE/DX =    0.0                 !
 ! D31   D(6,7,8,19)           -60.0859         -DE/DX =    0.0                 !
 ! D32   D(6,7,8,20)           179.9992         -DE/DX =    0.0                 !
 ! D33   D(6,7,8,21)            60.0845         -DE/DX =    0.0                 !
 ! D34   D(17,7,8,19)           60.8514         -DE/DX =    0.0                 !
[...]
 0243,0.00000167,0.00000108,0.00000143,-0.00000448,0.00000283,-0.000014
 11,0.00000220,-0.00000008,0.00000142,-0.00000475,-0.00000233,0.0008026
 8,0.00151967,-0.00009310,0.05184127,0.00210442,0.00651765,-0.00004585,
 0.00181166,-0.00095086,0.00004209,-0.00339091,-0.00167070,0.00010390,0
 .00092112,0.00120603,-0.00006393,0.00177386,-0.00018103,0.00000324,-0.
 00071963,-0.00028084,0.00001729,0.00005483,0.00008997,-0.00000505,-0.0
 0000192,-0.00007994,0.00000439,0.01182065,-0.03439922,0.00207849,0.021
 65782,-0.17634303,0.00821864,0.00517635,-0.03557301,0.00213272,-0.0051
 5781,-0.00020115,0.00024990,-0.00095020,-0.00286595,0.00010623,0.00011
 136,0.00005081,-0.00001391,0.00007724,0.00003680,0.00001604,0.00007720
 ,0.00003481,-0.00002020,-0.00001388,-0.00000152,0.00001373,-0.00001384
 ,-0.00000312,-0.00001333,-0.00000059,0.00001504,-0.00001506,0.00004634
 ,-0.00000493,0.00000012,-0.00000046,0.00001663,0.00001336,-0.00088753,
 0.00059686,-0.00019281,-0.03571763,0.24715033,-0.00008609,-0.00003236,
 0.00578052,-0.00009872,0.00004338,-0.00007894,0.00018194,0.00009336,0.
 00005305,-0.00004919,-0.00006084,0.00008206,-0.00009495,0.00000816,-0.
 00002624,0.00003849,0.00001497,-0.00000197,-0.00000294,-0.00000481,0.0
 0000024,0.00000011,0.00000431,0.00000041,-0.00061486,0.00201436,0.0043
 8741,-0.00111939,0.00821675,-0.02427855,-0.00029433,0.00219623,0.00385
 775,0.00030357,0.00023422,0.00412505,0.00004290,0.00010087,-0.00096449
 ,-0.00000570,-0.00001369,-0.00019853,-0.00000473,-0.00000167,0.0000007
 5,-0.00000354,-0.00000197,0.00000272,-0.00000041,0.00000131,-0.0000002
 6,0.00000191,-0.00000101,0.00000132,-0.00000041,-0.00000117,0.00000094
 ,-0.00000248,0.00000025,-0.00000017,0.00000046,-0.00000051,-0.00000063
 ,0.00003754,-0.00019954,-0.00298964,0.00182942,-0.01262103,0.01351867,
 -0.00963595,0.00183454,-0.00007500,0.01314112,-0.00059954,-0.00000702,
 -0.01030669,-0.00420376,0.00025860,0.00224993,0.00272084,-0.00015504,0
 .00538374,-0.00147143,0.00006438,-0.00210401,-0.00059721,0.00003883,0.
 00010137,0.00029017,-0.00001602,0.00001251,-0.00024117,0.00001309,0.00
 291095,-0.00457985,0.00025500,-0.02549091,-0.00896920,0.00055240,-0.20
 289775,0.03743810,-0.00165068,-0.00589867,0.01902892,-0.00101440,0.008
 57550,-0.00138005,0.00006886,-0.00001189,0.00070286,-0.00003753,0.0002
 0989,0.00010948,-0.00000577,0.00020988,0.00010946,-0.00000744,-0.00002
 524,-0.00002589,-0.00000064,-0.00002524,-0.00002558,0.00000352,-0.0000
 2319,0.00005225,-0.00001582,0.00015976,-0.00003943,0.00000170,-0.00002
 315,0.00005361,0.00001016,0.00006540,0.00007024,-0.00000111,-0.0018985
 3,0.00640998,-0.00035077,0.61175571,0.00198946,-0.00395975,0.00016399,
 -0.00488761,-0.00011973,-0.00003086,0.00376461,0.00218490,-0.00012150,
 -0.00090283,-0.00136680,0.00006397,-0.00189638,0.00033060,-0.00000973,
 0.00074499,0.00026729,-0.00001262,-0.00004705,-0.00009100,0.00000586,0
 .00000063,0.00008344,-0.00000417,-0.00719428,-0.00277838,0.00045230,-0
 .01781062,0.02698391,-0.00152101,0.02822837,-0.10586109,0.00210809,0.0
 3016988,-0.00260322,0.00009995,-0.00104127,-0.00785780,0.00078189,0.00
 002486,-0.00018805,0.00002298,-0.00008274,-0.00003741,-0.00001395,-0.0
 0008236,-0.00003436,0.00001643,0.00001373,0.00000238,-0.00001504,0.000
 01353,0.00000557,0.00001345,0.00000151,-0.00001643,0.00001527,-0.00004
 794,0.00000729,0.00000004,0.00000081,-0.00001908,-0.00001416,-0.001296
 34,0.00086390,0.00001267,0.00129980,-0.00731106,0.00023385,-0.01731695
 ,0.55003866,-0.00008349,0.00016430,-0.00084724,0.00022622,-0.00004294,
 -0.00093975,-0.00017539,-0.00009886,0.00015622,0.00004207,0.00005375,-
 0.00024175,0.00008820,-0.00001115,0.00004987,-0.00003439,-0.00000879,0
 .00007573,0.00000232,0.00000491,0.00001411,-0.00000005,-0.00000349,0.0
 0000704,0.00039689,0.00044511,0.00516069,0.00103261,-0.00154517,-0.001
 85929,-0.00114998,0.00208205,-0.06569937,-0.00161937,0.00013058,0.0007
 7785,0.00005093,0.00078286,0.00644741,-0.00000065,0.00002105,0.0002348
 6,0.00000129,-0.00001216,-0.00001602,0.00000641,0.00001355,-0.00001909
 ,0.00000187,-0.00001572,-0.00000831,-0.00000327,0.00001435,-0.00001150
 ,0.00000567,0.00001007,-0.00000882,0.00000218,0.00000002,0.00000554,-0
 .00000571,-0.00000925,-0.00000621,0.00007307,0.00000885,0.00103006,-0.
 00007350,0.00021934,-0.00295154,0.00068360,-0.00158809,0.51996583,-0.0
 0361522,0.00261275,-0.00011127,-0.00107762,-0.00121648,0.00006932,0.00
 020008,0.00052743,-0.00002980,-0.00001927,-0.00017997,0.00000993,-0.00
 031878,-0.00002780,0.00000238,0.00006414,0.00005297,-0.00000302,-0.000
 01383,-0.00002302,0.00000131,-0.00000331,0.00001364,-0.00000073,-0.000
 33104,0.00098553,-0.00005543,0.00056910,0.00167339,-0.00007593,0.00910
 023,0.00391644,-0.00022587,-0.22114629,-0.14594290,0.00843166,-0.01592
 614,-0.01998005,0.00114029,-0.00000770,-0.00008323,0.00000470,-0.00000
 936,-0.00000507,-0.00000014,-0.00000936,-0.00000501,0.00000073,0.00000
 034,0.00000121,0.00000215,0.00000033,0.00000098,-0.00000228,0.00000110
 ,-0.00000099,-0.00000020,-0.00000643,-0.00000050,0.00000005,0.00000109
 ,-0.00000096,0.00000030,-0.00002809,-0.00006029,0.00000203,0.00026432,
 0.00086878,-0.00004728,0.00042801,0.00128911,-0.00007887,0.23504968,0.
 00304907,0.00015425,0.00038304,0.00032539,0.00060195,-0.00003091,0.000
 06719,-0.00016881,0.00000005,-0.00001811,0.00003523,-0.00000010,0.0001
 1041,0.00002862,-0.00000329,-0.00001054,-0.00002264,0.00000204,0.00000
 577,0.00000816,-0.00000010,0.00000162,-0.00000463,0.00000024,0.0008342
 4,-0.00034840,-0.00003894,0.00229227,-0.00377314,0.00051964,-0.0227696
 9,-0.01483140,0.00110462,-0.14427457,-0.18890131,0.00855676,0.00934576
 ,0.01142340,-0.00042784,-0.00001323,0.00001249,0.00000228,0.00000225,0
 .00000099,0.00000073,0.00000210,0.00000116,-0.00000104,-0.00000013,0.,
 -0.00000126,-0.00000020,0.00000030,0.00000109,-0.00000026,0.00000004,-
 0.00000002,0.00000205,0.00000051,0.,-0.00000034,-0.00000009,-0.0000000
 6,-0.00004866,0.00002630,-0.00002701,-0.00072581,-0.00148814,0.0000949
 7,-0.00353059,-0.00333866,0.00004197,0.15353149,0.19665733,-0.00013492
 ,0.00038415,0.00734509,-0.00001454,-0.00002657,0.00005161,-0.00000470,
 -0.00000132,-0.00016517,0.00000112,0.00000036,0.00003240,-0.00000516,-
 0.00000288,-0.00002572,0.00000043,0.00000186,0.00001426,-0.00000026,-0
 .00000002,0.00000665,-0.00000008,0.00000021,-0.00000012,-0.00004728,-0
 .00003929,-0.00102082,-0.00010956,0.00052135,0.00588800,0.00122302,0.0
 0103030,0.00428634,0.00834111,0.00856150,-0.03919094,-0.00045172,-0.00
 034622,0.00404176,0.00000089,0.00000247,0.00005376,0.00000126,-0.00000
 259,-0.00000159,-0.00000145,0.00000232,-0.00000175,0.00000073,-0.00000
 169,-0.00000133,-0.00000072,0.00000151,-0.00000162,0.00000076,0.000001
 15,-0.00000082,-0.00000009,0.,0.00000061,-0.00000074,-0.00000122,-0.00
 000068,0.00000139,-0.00002697,-0.00047211,0.00003929,0.00009055,0.0002
 1905,0.00018286,0.00002843,-0.00275028,-0.00891552,-0.00964712,0.02740
 011,0.00724979,-0.02264718,0.00122007,0.00221030,-0.00138169,0.0000589
 7,-0.00045440,-0.00058985,0.00003100,0.00004666,0.00051370,-0.00002746
 ,0.00022393,0.00009003,-0.00000543,-0.00010983,-0.00004318,0.00000294,
 0.00001156,0.00001296,-0.00000068,-0.00000081,-0.00001038,0.00000055,-
 0.00337690,-0.00291188,0.00018215,-0.00164992,-0.00054741,0.00003224,-
 0.00522860,0.00138786,-0.00004206,-0.00119684,0.03068436,-0.00165580,-
 0.06899963,0.05091949,-0.00266567,-0.00113478,0.00019708,-0.00000484,0
 .00001685,0.00000803,0.00000423,0.00001677,0.00000756,-0.00000522,-0.0
 0000480,0.00000049,0.00000423,-0.00000485,0.00000005,-0.00000426,0.000
 00072,0.00000302,-0.00000180,0.00000745,-0.00000134,0.00000006,0.00000
 071,0.00000318,0.00000145,0.00049763,-0.00104566,0.00005531,0.00018015
 ,0.00010868,-0.00000792,0.00126192,0.00114065,-0.00006389,0.00086578,-
 0.00027889,0.00000043,0.07073772,0.00799460,-0.01619069,0.00106642,0.0
 0174741,0.00155708,-0.00027957,-0.00070538,-0.00038811,-0.00002356,0.0
 0015433,0.00071272,-0.00002749,-0.00000259,0.00009502,-0.00000285,-0.0
 0007050,-0.00001193,0.00000620,0.00000273,-0.00000204,0.00000118,-0.00
 000382,-0.00000211,-0.00000021,-0.00383499,-0.00101868,0.00035060,-0.0
 0084669,0.00063207,-0.00007201,0.00169355,0.00185011,0.00025965,0.0002
 6747,-0.00556506,0.00043366,0.05042832,-0.33271681,0.01609594,-0.00174
 380,0.00000900,0.00005545,0.00001258,0.00000288,0.00000411,0.00001143,
 0.00000315,-0.00000545,-0.00000475,0.00000262,0.00000414,-0.00000525,0
 .00000272,-0.00000509,0.00000157,0.00000217,-0.00000274,0.00000358,-0.
 00000124,0.00000014,0.00000126,0.00000204,0.00000228,0.00065729,-0.000
 73559,0.00003702,0.00007987,-0.00007507,-0.00002566,-0.00074413,-0.000
 06732,0.00003596,0.00017178,0.00063002,-0.00027401,-0.05585926,0.35148
 868,-0.00044379,0.00115196,0.00380235,-0.00011089,-0.00027076,-0.00348
 563,0.00003725,-0.00002399,-0.00086002,-0.00000785,-0.00002844,0.00021
 732,-0.00000035,-0.00000307,0.00004259,0.00000444,0.00000611,0.0000980
 3,-0.00000012,0.00000116,0.00001988,0.00000019,-0.00000019,-0.00000609
 ,0.00023227,0.00034804,0.00522193,0.00004863,-0.00007283,-0.00073367,-
 0.00005866,0.00026036,0.00670511,-0.00000448,0.00034893,0.00241740,-0.
 00263887,0.01609454,-0.03451824,0.00010048,0.00004992,0.00093712,0.000
 00964,-0.00000796,-0.00000856,-0.00001109,0.00000664,-0.00000875,0.000
 00463,-0.00000598,-0.00000628,-0.00000409,0.00000501,-0.00000633,0.000
 00288,0.00000350,-0.00000203,-0.00000021,0.00000016,0.00000155,-0.0000
 0305,-0.00000396,-0.00000189,-0.00003715,0.00004180,-0.00002192,-0.000
 00637,-0.00002575,-0.00054223,0.00003841,0.00003070,0.00055531,-0.0000
 2404,-0.00027277,-0.00439331,0.00290076,-0.01765197,0.02443405,0.00204
 933,-0.00119139,0.00005932,-0.00289802,0.00023344,-0.00000442,0.002640
 81,0.00047474,-0.00003362,-0.00082993,-0.00032450,0.00002019,-0.001555
 45,0.00052610,-0.00002404,0.00061515,0.00016735,-0.00001095,-0.0000264
 4,-0.00008391,0.00000462,-0.00000521,0.00007101,-0.00000384,-0.0021721
 3,-0.00188144,0.00010669,-0.00507588,0.00877819,-0.00045698,-0.0367568
 7,-0.04047525,0.00232475,-0.00191783,-0.00213872,0.00012233,-0.0009773
 8,-0.00048762,0.00002956,-0.00001351,-0.00017631,0.00000958,-0.0000536
 5,-0.00003359,0.00000577,-0.00005367,-0.00003402,-0.00000177,0.0000060
 0,0.00000929,0.00000306,0.00000598,0.00000889,-0.00000407,0.00000827,-
 0.00001605,0.00000266,-0.00004905,0.00001339,-0.00000059,0.00000827,-0
 .00001624,-0.00000095,-0.00043221,0.00044811,-0.00002398,0.00053381,-0
 .00035347,0.00001843,-0.18467385,-0.09274901,0.00535189,-0.00415446,0.
 00152785,-0.00007243,-0.00018041,0.00017146,-0.00000880,0.21062494,0.0
 0114207,-0.00032245,0.00002028,-0.00066850,0.00047822,-0.00002176,0.00
 055810,-0.00017997,0.00000504,-0.00017282,0.00010239,-0.00000257,-0.00
 031570,0.00021104,-0.00001055,0.00011868,0.00000891,-0.00000198,-0.000
 00017,-0.00002065,0.00000090,-0.00000350,0.00001453,-0.00000077,-0.000
 02698,0.00007423,-0.00002981,-0.00017986,0.00028879,0.00008486,-0.0076
 4939,-0.00273683,0.00061978,0.00354168,-0.00649804,0.00035836,-0.00033
 983,0.00217567,-0.00010996,-0.00009568,-0.00007519,0.00000328,-0.00000
 858,-0.00000624,0.00000702,-0.00000872,-0.00000722,-0.00000597,-0.0000
 0092,0.00000415,0.00000652,-0.00000093,0.00000317,-0.00000672,0.000003
 88,-0.00000331,-0.00000320,-0.00001204,0.00000428,-0.00000024,0.000003
 98,-0.00000277,0.00000364,-0.00006357,0.00011123,-0.00002140,-0.000261
 39,0.00131851,-0.00005700,-0.10108061,-0.17209823,0.00566690,0.0028089
 9,0.00225214,-0.00015232,-0.00019815,0.00004693,-0.00000204,0.15472367
 ,0.28699701,-0.00006745,0.00002671,0.00010811,0.00004449,-0.00002422,0
 .00004509,-0.00003782,0.00000530,-0.00005873,0.00001184,-0.00000219,0.
 00004588,0.00002148,-0.00001294,0.00000052,-0.00000822,-0.00000209,-0.
 00002085,0.00000007,0.00000114,-0.00000408,0.00000020,-0.00000097,0.00
 000028,0.00000618,-0.00002445,-0.00047359,0.00002925,0.00005967,0.0018
 3750,0.00054130,0.00071145,0.00823604,-0.00018619,0.00037452,0.0002676
 5,0.00002160,-0.00010956,0.00013918,0.00000518,0.00000349,-0.00002009,
 0.00000155,0.00000311,0.00000197,-0.00000029,-0.00000192,0.00000297,-0
 .00000020,0.00000227,0.00000135,0.00000027,-0.00000252,0.00000235,-0.0
 0000097,-0.00000130,0.00000154,0.00000079,-0.00000031,-0.00000072,0.00
 000050,0.00000186,0.00000100,0.00000387,-0.00002281,-0.00028452,0.0000
 1343,-0.00005677,0.00025789,0.00580446,0.00564343,-0.07332445,-0.00014
 199,-0.00014880,-0.00040074,0.00001127,-0.00000308,-0.00000079,-0.0087
 6730,-0.01158667,0.08235640,0.00274971,0.00009178,0.00033234,-0.003579
 53,0.00003519,0.00008334,0.00280766,0.00119331,-0.00000589,-0.00062915
 ,-0.00077626,0.00001457,-0.00147466,0.00038388,-0.00004271,0.00057828,
 0.00016900,-0.00000685,-0.00002861,-0.00007854,0.00000429,-0.00000313,
 0.00006622,-0.00000235,-0.00018663,0.00058283,-0.00082481,0.00222614,0
 .00286041,-0.00063265,-0.00997969,0.02907271,0.02900791,-0.00309071,-0
 .00359856,0.00223008,-0.00235600,0.00058726,-0.00173565,0.00003908,-0.
 00018200,-0.00001193,-0.00005945,-0.00003011,0.00000029,-0.00005593,-0
 .00003026,0.00000254,0.00000764,0.00000518,-0.00000178,0.00000738,0.00
 000806,-0.00000031,0.00000630,-0.00001371,0.00000443,-0.00004349,0.000
 01078,0.,0.00000560,-0.00001587,-0.00000415,0.00002142,0.00000099,-0.0
 0000614,-0.00241683,-0.00280874,0.00184781,-0.10143786,0.04084549,0.04
 832121,0.00006276,0.00032893,0.00074177,-0.00049280,0.00019710,-0.0002
 5806,0.01256665,-0.02724290,-0.02128593,0.08959268,-0.00200548,0.00039
 901,-0.00026428,0.00299125,0.00008757,-0.00010094,-0.00218990,-0.00128
 506,0.00002683,0.00043958,0.00082596,-0.00002077,0.00107105,-0.0001974
 5,0.00003996,-0.00041825,-0.00013941,-0.00000312,0.00002518,0.00005435
 ,-0.00000676,0.00000022,-0.00004682,0.00000104,0.00109328,0.00008308,0
 .00095757,-0.00041917,-0.00739766,-0.00013177,0.01468614,-0.00922955,-
 0.02130176,0.00101769,0.00178629,-0.00081901,0.00164856,0.00067908,0.0
 0115985,-0.00004562,0.00012754,-0.00001566,0.00004973,0.00002145,0.000
 00570,0.00004436,0.00001913,-0.00000536,-0.00000742,-0.00000037,0.0000
 0636,-0.00000626,-0.00000562,-0.00000279,-0.00000299,0.00000810,-0.000
 00514,0.00002864,-0.00000527,-0.00000059,-0.00000136,0.00001178,0.0000
 0669,0.00024116,-0.00010805,0.00004949,-0.00299234,0.00237704,0.000814
 89,0.04057462,-0.14608180,-0.09224728,-0.00048022,0.00050340,-0.000738
 07,0.00023816,-0.00013515,0.00008371,-0.01444282,-0.06068040,-0.044230
 60,-0.03714944,0.19972673,-0.00125202,0.00024021,-0.00025457,0.0017463
 7,0.00008832,0.00005290,-0.00137999,-0.00065859,-0.00004802,0.00032551
 ,0.00043099,0.00005506,0.00072738,-0.00015795,0.00004124,-0.00028379,-
 0.00009292,-0.00002657,0.00001613,0.00003689,-0.00001064,0.00000066,-0
 .00003302,-0.00000105,0.00073663,-0.00000827,0.00031938,-0.00118755,-0
 .00299901,0.00072170,0.00748648,-0.01479030,-0.00597125,0.00294583,0.0
 0098285,-0.00091652,0.00077211,-0.00051120,0.00058804,-0.00004861,0.00
 006917,-0.00005032,0.00003387,0.00001932,0.00000557,0.00002582,0.00001
 178,0.00000232,-0.00000514,0.00000302,0.00000612,-0.00000310,-0.000008
 79,0.00000185,-0.00000385,0.00000358,-0.00000051,0.00002037,-0.0000043
 7,-0.00000156,0.00000008,0.00001094,0.00000558,0.00006858,-0.00004387,
 -0.00007636,0.00080886,0.00223797,-0.00031289,0.04981623,-0.08977978,-
 0.18361457,-0.00023723,0.00028677,-0.00043886,0.00034092,-0.00013363,0
 .00007513,-0.01248595,-0.03516241,-0.00464819,-0.05332163,0.15410864,0
 .28175168,0.00275545,0.00005277,-0.00035701,-0.00359074,0.00002655,-0.
 00006623,0.00281573,0.00119013,-0.00014036,-0.00063094,-0.00077572,0.0
 0007388,-0.00147892,0.00038768,0.00000961,0.00057999,0.00016911,-0.000
 01511,-0.00002870,-0.00007876,0.00000438,-0.00000314,0.00006629,-0.000
 00485,-0.00018675,0.00066908,0.00076007,0.00223534,0.00293109,0.000308
 54,-0.01019678,0.02584154,-0.03197866,-0.00311814,-0.00382449,-0.00181
 471,-0.00235137,0.00077525,0.00167849,0.00003947,-0.00018011,0.0000311
 3,-0.00005610,-0.00003041,0.00000109,-0.00005965,-0.00003006,0.0000033
 7,0.00000740,0.00000809,-0.00000060,0.00000768,0.00000533,0.00000120,0
 .00000563,-0.00001539,0.00000586,-0.00004362,0.00001076,-0.00000092,0.
 00000630,-0.00001413,-0.00000296,0.00002097,0.00000189,0.00000544,-0.0
 0242786,-0.00300369,-0.00151887,-0.10201275,0.03582795,-0.05299787,0.0
 0005997,0.00024465,-0.00077589,-0.00049335,0.00022484,0.00023831,0.012
 76675,-0.02457083,0.02397864,0.01516317,-0.00398836,0.00433704,0.09021
 497,-0.00185760,0.00039461,0.00020409,0.00278606,0.00008766,0.00008145
 ,-0.00202817,-0.00120219,0.00011072,0.00040185,0.00077282,-0.00005983,
 0.00098625,-0.00018238,-0.00002138,-0.00038518,-0.00012768,0.00001641,
 0.00002331,0.00005036,-0.00000002,0.00000016,-0.00004286,0.00000351,0.
 00100211,-0.00001694,-0.00092675,-0.00028558,-0.00696578,0.00097067,0.
 01390839,-0.00531534,0.02116105,0.00069671,0.00173765,0.00052652,0.001
 54950,0.00060758,-0.00117122,-0.00004007,0.00011976,-0.00000266,0.0000
 4134,0.00001823,0.00000339,0.00004575,0.00001857,-0.00000738,-0.000005
 87,-0.00000428,0.00000350,-0.00000685,-0.00000130,-0.00000551,-0.00000
 140,0.00000981,-0.00000715,0.00002628,-0.00000470,0.00000078,-0.000002
 54,0.00000817,0.00000421,0.00023200,-0.00010835,-0.00004732,-0.0030653
 8,0.00201908,-0.00105061,0.03541034,-0.12693779,0.08588728,-0.00044801
 ,0.00054093,0.00063411,0.00019956,-0.00012742,-0.00006281,-0.01274914,
 -0.05145989,0.04939827,-0.00451275,0.01860209,-0.01414632,-0.03192106,
 0.16750959,0.00144517,-0.00031156,-0.00025562,-0.00204003,-0.00009173,
 0.00006388,0.00159308,0.00077736,-0.00013913,-0.00036728,-0.00050482,0
 .00011005,-0.00083076,0.00018040,0.00003056,0.00032403,0.00010291,-0.0
 0004007,-0.00001866,-0.00004310,-0.00000655,-0.00000068,0.00003721,-0.
 00000500,-0.00084737,0.00004147,0.00041936,0.00121627,0.00381964,0.000
 28099,-0.00902791,0.01457645,-0.00966810,-0.00302626,-0.00124982,-0.00
 084027,-0.00092943,0.00050490,0.00065504,0.00005277,-0.00008672,-0.000
 04293,-0.00003015,-0.00001334,0.00000338,-0.00003868,-0.00002056,0.000
 00866,0.00000373,0.00000941,0.00000050,0.00000591,-0.00000224,0.000007
 02,0.00000007,-0.00001131,0.00000751,-0.00002312,0.00000465,-0.0000019
 9,0.00000411,-0.00000445,-0.00000058,-0.00009482,0.00004738,-0.0000756
 4,-0.00046644,-0.00247429,0.00005824,-0.05445488,0.08341760,-0.2021823
 4,0.00028475,-0.00039493,-0.00047380,-0.00036153,0.00015455,0.00006800
 ,0.01384083,0.04039876,-0.01406898,-0.00444973,0.00263317,-0.08725470,
 0.05823701,-0.14149701,0.31334252\\0.00000140,-0.00000170,-0.00000129,
 -0.00000962,0.00000172,0.00000221,0.00000359,0.00000130,0.00000055,-0.
 00000017,-0.00000352,-0.00000038,0.00000095,-0.00000436,-0.00000136,0.
 00000476,0.00000946,0.00000090,-0.00000021,0.00000146,-0.00000016,-0.0
 0000097,0.00000252,-0.00000009,-0.00000009,-0.00000018,0.00000043,-0.0
 0000238,-0.00000312,0.00000008,-0.00000102,-0.00000309,0.00000013,0.00
 000019,-0.00000240,0.00000011,0.00000101,-0.00000113,0.00000041,0.0000
 0050,0.00000007,-0.00000069,0.00000079,0.00000225,0.00000103,0.0000001
 0,0.00000207,-0.00000178,0.00000061,0.00000210,-0.00000080,0.00000065,
 0.00000199,0.00000073,0.00000057,0.00000369,-0.00000077,0.00000164,0.0
 0000327,-0.00000012,0.00000032,0.00000357,0.00000014,-0.00000007,-0.00
 000070,0.00000003,-0.00000150,-0.00000011,0.00000037,-0.00000602,-0.00
 000073,-0.00000051,0.00000099,-0.00000248,0.00000009,0.00000129,-0.000
 00124,0.00000008,0.00000365,0.00000453,0.00000004,-0.00000021,-0.00000
 799,-0.00000859,-0.00000076,-0.00000725,0.00000923\\\@


 HIGGLEDY-PIGGLEDY
 NIC'LAUS COPERNICUS
 LOOKED AT THE UNIVERSE,
 SPOKE TO THE THRONG;
 GIVE UP YOUR PTOLOMY,
 RISE UP AND FOLLOW ME,
 HELIOCENTRICALLY
 PTOLEMY'S WRONG.
   -- NANCY L. STARK
 Job cpu time:       0 days  4 hours  2 minutes 35.2 seconds.
 File lengths (MBytes):  RWF=    557 Int=      0 D2E=      0 Chk=     14 Scr=      1
 Normal termination of Gaussian 09 at Thu Nov 14 18:10:23 2019.
pbs_rusage has been removed.
Please contact help@nci.org.au if you require this functionality.
