Process 0 of 1 is on r4202 - thread support 0
initial socket setup ...start
initial socket setup ...done 
now start server 0 ... 
r4202 10.9.71
Q-Chem Developer Version! Running on 10.9.71.*
                  Welcome to Q-Chem
     A Quantum Leap Into The Future Of Chemistry


 Q-Chem 5.0, Q-Chem, Inc., Pleasanton, CA (2017)

 Yihan Shao,  Zhengting Gan,  E. Epifanovsky,  A. T. B. Gilbert,  M. Wormit,  
 J. Kussmann,  A. W. Lange,  A. Behn,  Jia Deng,  Xintian Feng,  D. Ghosh,  
 M. Goldey,  P. R. Horn,  L. D. Jacobson,  I. Kaliman,  T. Kus,  A. Landau,  
 Jie Liu,  E. I. Proynov,  R. M. Richard,  R. P. Steele,  E. J. Sundstrom,  
 H. L. Woodcock III,  P. M. Zimmerman,  D. Zuev,  B. Albrecht,  E. Alguire,  
 S. A. Baeppler,  Z. Benda,  Y. A. Bernard,  E. J. Berquist,  K. B. Bravaya,  
 D. Casanova,  Chun-Min Chang,  Yunqing Chen,  A. Chien,  K. D. Closser,  
 M. P. Coons,  S. Dasgupta,  M. Diedenhofen,  Hainam Do,  R. G. Edgar,  
 Po-Tung Fang,  S. Fatehi,  Qingguo Feng,  Qinghui Ge,  A. Ghysels,  
 J. Gomes,  J. Gonthier,  A. Gunina,  M. W. D. Hanson-Heine,  
 P. H. P. Harbach,  A. W. Hauser,  J. E. Herr,  E. G. Hohenstein,  
 Z. C. Holden,  Kerwin Hui,  T.-C. Jagau,  Hyunjun Ji,  B. Kaduk,  
 K. Khistyaev,  Jaehoon Kim,  P. Klunzinger,  K. Koh,  D. Kosenkov,  
 T. Kowalczyk,  C. M. Krauter,  A. Kunitsa,  Ka Un Lao,  A. Laurent,  
 K. V. Lawler,  Joonho Lee,  D. Lefrancois,  S. Lehtola,  D. S. Levine,  
 Yi-Pei Li,  You-Sheng Lin,  Fenglai Liu,  E. Livshits,  A. Luenser,  
 P. Manohar,  E. Mansoor,  S. F. Manzer,  Shan-Ping Mao,  Yuezhi Mao,  
 N. Mardirossian,  A. V. Marenich,  L. A. Martinez-Martinez,  S. A. Maurer,  
 N. J. Mayhall,  S. C. McKenzie,  J.-M. Mewes,  A. F. Morrison,  K. Nanda,  
 T. S. Nguyen-Beck,  R. Olivares-Amaya,  J. A. Parkhill,  T. M. Perrine,  
 F. Plasser,  S. Prager,  A. Prociuk,  D. R. Rehn,  F. Rob,  M. Schneider,  
 N. Sergueev,  S. M. Sharada,  S. Sharma,  D. W. Small,  T. Stauch,  
 T. Stein,  Yu-Chuan Su,  A. J. W. Thom,  T. Tsuchimochi,  L. Vogt,  
 O. Vydrov,  M. A. Watson,  J. Wenzel,  M. de Wergifosse,  T. A. Wesolowski,  
 A. White,  J. Witte,  A. Yamada,  Jun Yang,  K. Yao,  S. Yeganeh,  
 S. R. Yost,  Zhi-Qiang You,  A. Zech,  Igor Ying Zhang,  Xing Zhang,  
 Yan Zhao,  Ying Zhu,  B. R. Brooks,  G. K. L. Chan,  C. J. Cramer,  
 M. S. Gordon,  W. J. Hehre,  A. Klamt,  M. W. Schmidt,  C. D. Sherrill,  
 D. G. Truhlar,  A. Aspuru-Guzik,  R. Baer,  A. T. Bell,  N. A. Besley,  
 Jeng-Da Chai,  A. Dreuw,  B. D. Dunietz,  T. R. Furlani,  Chao-Ping Hsu,  
 Yousung Jung,  Jing Kong,  D. S. Lambrecht,  WanZhen Liang,  C. Ochsenfeld,  
 V. A. Rassolov,  L. V. Slipchenko,  J. E. Subotnik,  T. Van Voorhis,  
 J. M. Herbert,  A. I. Krylov,  P. M. W. Gill,  M. Head-Gordon

 Contributors to earlier versions of Q-Chem not listed above: 
 R. D. Adamson,  B. Austin,  J. Baker,  G. J. O. Beran,  K. Brandhorst,  
 S. T. Brown,  E. F. C. Byrd,  A. K. Chakraborty,  C.-L. Cheng,  
 Siu Hung Chien,  D. M. Chipman,  D. L. Crittenden,  H. Dachsel,  
 R. A. DiStasio Jr.,  R. J. Doerksen,  A. D. Dutoi,  L. Fusti-Molnar,  
 W. A. Goddard III,  A. Golubeva-Zadorozhnaya,  S. R. Gwaltney,  G. Hawkins,  
 A. Heyden,  S. Hirata,  G. Kedziora,  F. J. Keil,  C. Kelley,  Jihan Kim,  
 R. A. King,  R. Z. Khaliullin,  P. P. Korambath,  W. Kurlancheek,  
 A. M. Lee,  M. S. Lee,  S. V. Levchenko,  Ching Yeh Lin,  D. Liotard,  
 R. C. Lochan,  I. Lotan,  P. E. Maslen,  N. Nair,  D. P. O'Neill,  
 D. Neuhauser,  E. Neuscamman,  C. M. Oana,  R. Olson,  B. Peters,  
 R. Peverati,  P. A. Pieniazek,  Y. M. Rhee,  J. Ritchie,  M. A. Rohrdanz,  
 E. Rosta,  N. J. Russ,  H. F. Schaefer III,  N. E. Schultz,  N. Shenvi,  
 A. C. Simmonett,  A. Sodt,  D. Stuck,  K. S. Thanthiriwatte,  V. Vanovschi,  
 Tao Wang,  A. Warshel,  C. F. Williams,  Q. Wu,  X. Xu,  W. Zhang

 Please cite Q-Chem as follows:
 Y. Shao et al., Mol. Phys. 113, 184-215 (2015)
 DOI: 10.1080/00268976.2014.952696

 Q-Chem 5.0.0 for Intel X86 EM64T Linux

 Parts of Q-Chem use Armadillo 5.200.1 (Boston Tea Smuggler).
 http://arma.sourceforge.net/

 Q-Chem begins on Mon Dec  9 10:16:28 2019  

Host: r4202
0

     Scratch files written to /jobfs/local/4046364.r-man2/NM3.CCSD-T_6-31pGd.mo//
 Parallel job on  1  processors
Core orbitals will be frozen

Checking the input file for inconsistencies... 	...done.

--------------------------------------------------------------
User input:
--------------------------------------------------------------
$molecule
  0 1
    C     -6.0172036339    1.1872070518    0.1983959368
    N     -4.7587625677    0.5930489656    0.0579894263
    C     -3.5192462680    1.2216443173    0.1495818385
    O     -3.3759427487    2.3975115375    0.3995520635
    N     -2.4661513407    0.3623029774   -0.0439817964
    C     -1.1150815817    0.9078869651   -0.0939118235
    C     -0.0881682808   -0.2147593715   -0.0991538557
    C      1.3357328559    0.3304889140   -0.1462115899
    C     -6.2178063340    2.5735593582    0.2138962626
    C     -7.5118526204    3.0570830597    0.3268234319
    C     -8.6211165558    2.2230973444    0.4246094565
    C     -8.3969659865    0.8574148908    0.4066567910
    C     -7.1187161563    0.3328397602    0.2970709479
    H     -4.7550776509   -0.4157984814    0.0652564864
    H     -2.6300127440   -0.4738084885   -0.5863217496
    H     -0.9841349354    1.5436059956    0.7830940832
    H     -0.9897209083    1.5499389103   -0.9738742421
    H     -0.2593691538   -0.8659733321   -0.9646794663
    H     -0.2297407086   -0.8312330708    0.7934318835
    H      1.4998630818    0.9292699996   -1.0452451623
    H      2.0689899774   -0.4772463353   -0.1459043899
    H      1.5403421068    0.9665647032    0.7181337156
    H     -5.3783539209    3.2476789166    0.1493650524
    Cl    -9.7463194848   -0.2355593436    0.5256953527
    H     -6.9851051851   -0.7435640815    0.2881827441
    C     -7.7616830585    4.5411122719    0.3420995719
    H     -9.6237238277    2.6226348860    0.5125733089
    F     -8.5511706811    4.9127188941   -0.6796423089
    F     -8.3916044626    4.9192843091    1.4662130987
    F     -6.6376072260    5.2555184761    0.2554849325

$end

$rem

    JOBTYPE               sp
    METHOD                CCSD(T)
    BASIS                 6-31+G*
    CC_BACKEND            XM

    MEM_TOTAL             60000
$end
--------------------------------------------------------------
 ----------------------------------------------------------------
             Standard Nuclear Orientation (Angstroms)
    I     Atom           X                Y                Z
 ----------------------------------------------------------------
    1      C       0.1789021916    -0.7417974996     0.0533772817
    2      N      -1.1992514333    -0.9720028932     0.1174850009
    3      C      -2.2151571887    -0.0332460259    -0.0455885517
    4      O      -2.0204550764     1.1341569774    -0.3004336949
    5      N      -3.4707533795    -0.5735069346     0.0830182185
    6      C      -4.6244760147     0.3173629808     0.0543954343
    7      C      -5.9152555532    -0.4859887459    -0.0041484793
    8      C      -7.1388948116     0.4241925024    -0.0399483490
    9      C       0.7474984275     0.5384965000     0.0535035097
   10      C       2.1283641345     0.6529414195     0.0186356644
   11      C       2.9744754874    -0.4509084572    -0.0155957027
   12      C       2.3886979987    -1.7049092965    -0.0146114324
   13      C       1.0121037194    -1.8631875393     0.0177450382
   14      H      -1.4752034084    -1.9423565835     0.1072975916
   15      H      -3.5706820203    -1.4154469066     0.6318505409
   16      H      -4.5278043125     0.9529984483    -0.8271073761
   17      H      -4.6220747240     0.9811536991     0.9271244718
   18      H      -5.9767707896    -1.1475690824     0.8682340504
   19      H      -5.8944317297    -1.1297028288    -0.8884507036
   20      H      -7.1865535434     1.0570530589     0.8494081853
   21      H      -8.0619846537    -0.1553798647    -0.0858106263
   22      H      -7.1136473006     1.0802388390    -0.9131699301
   23      H       0.1193626139     1.4151108538     0.0700710785
   24      Cl      3.3967231191    -3.1232337243    -0.0565505979
   25      H       0.5920900980    -2.8632680153     0.0158158926
   26      C       2.7706711562     2.0139779997     0.0221610270
   27      H       4.0511130092    -0.3382621393    -0.0430125184
   28      F       3.5709317604     2.1721868010     1.0898180878
   29      F       3.5431472007     2.1928256534    -1.0616934667
   30      F       1.8786311226     3.0065557439     0.0440424778
 ----------------------------------------------------------------
 Molecular Point Group                 C1    NOp =  1
 Largest Abelian Subgroup              C1    NOp =  1
 Nuclear Repulsion Energy =  1418.7381086409 hartrees
 There are       72 alpha and       72 beta electrons
 Requested basis set is 6-31+G(d)
 There are 115 shells and 370 basis functions
 Total memory of 50485MB is distributed as follows: 
   QALLOC including MEM_STATIC uses 30062MB
   MEM_STATIC is set to 62MB
   CCMAN JOB total memory use is  50423MB
 Warning: actual memory use might exceed 50485MB

 Total QAlloc Memory Limit  30062 MB
 Mega-Array Size        61 MB
 MEM_STATIC part        62 MB
 A cutoff of  1.0D-14 yielded   4964 shell pairs
 There are     55104 function pairs
 
 -------------------------------------------------------
 OpenMP Integral Computing Module                       
 Release: version 1.0, May 2013, Q-Chem Inc. Pittsburgh 
 -------------------------------------------------------
 Integral Job Info:
 Integral job number is                      11
 Integral operator is                         1
 short-range coefficients                     0
 long-range coefficients              100000000
 Omega coefficients                           0
 if combine SR and LR in K                    0
 Integral screening is                        0
 Integral computing path is                   2
 max size of driver memory is            800000
 size of driver memory is                593474
 size of scratch memory is             15166112
 max col of scratch BK array               1296
 max len of scratch array in speh3          155
 max len of scratch index in speh4           18
 max int batch size is                      520
 min int batch size is                       52
 fixed nKL is                                52
 max L of basis functions is                  2
 order of int derivative is                   0
 number of shells is                        115
 number of basis is                         370
 number of cartesian basis is               370
 number of contracted shell pairs          4964
 number of primitive shell pairs          15947
 maxK2 (contraction) of shell pair           36
 max number of K2 of shell pair               1
 max number of CS2 of shell pair            689
 max number of PS2 of shell pair           3840
 mem total for path MDJ                  139560
 -------------------------------------------------------
 Smallest overlap matrix eigenvalue = 5.44E-07
 Linear dependence detected in AO basis
 Number of orthogonalized atomic orbitals = 369
 Maximum deviation from orthogonality = 2.485E-10

 Scale SEOQF with 1.000000e-02/1.000000e-01/1.000000e-01

 Standard Electronic Orientation quadrupole field applied
 Nucleus-field energy     =     0.0000000354 hartrees
 Guess from superposition of atomic densities
 Warning:  Energy on first SCF cycle will be non-variational
 A restricted Hartree-Fock SCF calculation will be
 performed using Pulay DIIS extrapolation
 SCF converges when DIIS error is below 1.0E-08
 -------------------------------------------------------
 OpenMP Integral computing Module                
 Release: version 1.0, May 2013, Q-Chem Inc. Pittsburgh 
 -------------------------------------------------------
 ---------------------------------------
  Cycle       Energy         DIIS Error
 ---------------------------------------
    1   -1371.4068825522      3.92E-02
    2   -1364.8100054026      4.52E-03
    3   -1365.0704967346      2.74E-03
    4   -1365.1620031249      5.32E-04
    5   -1365.1674475284      1.91E-04
    6   -1365.1681171147      4.72E-05
    7   -1365.1681832298      1.99E-05
    8   -1365.1682002427      6.73E-06
    9   -1365.1682028688      3.18E-06
   10   -1365.1682033953      1.33E-06
   11   -1365.1682035139      5.76E-07
   12   -1365.1682035440      2.35E-07
   13   -1365.1682035481      9.30E-08
   14   -1365.1682035487      3.60E-08
   15   -1365.1682035487      1.45E-08
   16   -1365.1682035488      4.29E-09 Convergence criterion met
 ---------------------------------------
 SCF time:  CPU 238.90 s  wall 61.11 s
 SCF   energy in the final basis set = -1365.1682035488
 Total energy in the final basis set = -1365.1682035488


 ------------------------------------------------------------------------------

   CCMAN2: suite of methods based on coupled cluster
           and equation of motion theories.

   Components:
   * libvmm-1.3-trunk
     by Evgeny Epifanovsky, Ilya Kaliman.
   * libtensor-2.5-release
     by Evgeny Epifanovsky, Michael Wormit, Dmitry Zuev, Sam Manzer, 
        Ilya Kaliman.
   * libcc-2.5-trunk
     by Evgeny Epifanovsky, Arik Landau, Tomasz Kus, Kirill Khistyaev, 
        Dmitry Zuev, Prashant Manohar, Xintian Feng, Anna Krylov, 
        Matthew Goldey, Alec White, Thomas Jagau, Kaushik Nanda, 
        Anastasia Gunina, Alexander Kunitsa, Joonho Lee.

   CCMAN original authors:
   Anna I. Krylov, C. David Sherrill, Steven R. Gwaltney,
   Edward F. C. Byrd (2000)
   Sergey V. Levchenko, Lyudmila V. Slipchenko, Tao Wang,
   Ana-Maria C. Cristian (2003)
   Piotr A. Pieniazek, C. Melania Oana, Evgeny Epifanovsky (2007)
   Prashant Manohar (2009)

 ------------------------------------------------------------------------------


================================================================================
This program uses libxm tensor contraction code.
See https://github.com/ilyak/libxm for more info.
libxm is (c) Ilya Kaliman 2014-2016.
================================================================================

 Calculation will run on 4 cores using libxm for tensor contractions

 
 Alpha MOs, Restricted
 -- Occupied --                  
-104.84  -26.35  -26.35  -26.35  -20.55  -15.63  -15.61  -11.52
  1 A     2 A     3 A     4 A     5 A     6 A     7 A     8 A                  
-11.408 -11.328 -11.325 -11.284 -11.275 -11.272 -11.268 -11.261
  9 A    10 A    11 A    12 A    13 A    14 A    15 A    16 A                  
-11.244 -11.231 -10.577  -8.046  -8.043  -8.043  -1.734  -1.638
 17 A    18 A    19 A    20 A    21 A    22 A    23 A    24 A                  
 -1.633  -1.426  -1.289  -1.248  -1.207  -1.143  -1.082  -1.063
 25 A    26 A    27 A    28 A    29 A    30 A    31 A    32 A                  
 -1.021  -0.975  -0.949  -0.883  -0.879  -0.834  -0.827  -0.821
 33 A    34 A    35 A    36 A    37 A    38 A    39 A    40 A                  
 -0.803  -0.799  -0.761  -0.718  -0.712  -0.708  -0.704  -0.677
 41 A    42 A    43 A    44 A    45 A    46 A    47 A    48 A                  
 -0.671  -0.660  -0.657  -0.646  -0.645  -0.631  -0.626  -0.612
 49 A    50 A    51 A    52 A    53 A    54 A    55 A    56 A                  
 -0.598  -0.585  -0.570  -0.560  -0.555  -0.536  -0.525  -0.509
 57 A    58 A    59 A    60 A    61 A    62 A    63 A    64 A                  
 -0.501  -0.494  -0.470  -0.460  -0.458  -0.416  -0.365  -0.330
 65 A    66 A    67 A    68 A    69 A    70 A    71 A    72 A                  
 -- Virtual --                   
  0.043   0.070   0.077   0.079   0.085   0.086   0.095   0.099
 73 A    74 A    75 A    76 A    77 A    78 A    79 A    80 A                  
  0.101   0.107   0.110   0.114   0.120   0.126   0.128   0.131
 81 A    82 A    83 A    84 A    85 A    86 A    87 A    88 A                  
  0.136   0.139   0.145   0.152   0.157   0.160   0.164   0.182
 89 A    90 A    91 A    92 A    93 A    94 A    95 A    96 A                  
  0.183   0.188   0.189   0.193   0.200   0.205   0.209   0.214
 97 A    98 A    99 A   100 A   101 A   102 A   103 A   104 A                  
  0.215   0.227   0.233   0.239   0.248   0.251   0.256   0.265
105 A   106 A   107 A   108 A   109 A   110 A   111 A   112 A                  
  0.268   0.273   0.276   0.285   0.291   0.304   0.306   0.314
113 A   114 A   115 A   116 A   117 A   118 A   119 A   120 A                  
  0.318   0.322   0.330   0.331   0.334   0.340   0.341   0.350
121 A   122 A   123 A   124 A   125 A   126 A   127 A   128 A                  
  0.358   0.360   0.362   0.371   0.376   0.381   0.386   0.396
129 A   130 A   131 A   132 A   133 A   134 A   135 A   136 A                  
  0.399   0.409   0.410   0.413   0.418   0.419   0.428   0.433
137 A   138 A   139 A   140 A   141 A   142 A   143 A   144 A                  
  0.436   0.447   0.449   0.453   0.457   0.461   0.470   0.477
145 A   146 A   147 A   148 A   149 A   150 A   151 A   152 A                  
  0.484   0.488   0.491   0.493   0.500   0.503   0.513   0.514
153 A   154 A   155 A   156 A   157 A   158 A   159 A   160 A                  
  0.520   0.537   0.553   0.570   0.570   0.575   0.583   0.589
161 A   162 A   163 A   164 A   165 A   166 A   167 A   168 A                  
  0.592   0.606   0.619   0.656   0.663   0.688   0.722   0.764
169 A   170 A   171 A   172 A   173 A   174 A   175 A   176 A                  
  0.785   0.808   0.825   0.846   0.851   0.855   0.888   0.897
177 A   178 A   179 A   180 A   181 A   182 A   183 A   184 A                  
  0.911   0.916   0.921   0.928   0.941   0.947   0.957   0.968
185 A   186 A   187 A   188 A   189 A   190 A   191 A   192 A                  
  0.970   0.974   0.998   1.009   1.016   1.024   1.039   1.057
193 A   194 A   195 A   196 A   197 A   198 A   199 A   200 A                  
  1.064   1.070   1.074   1.086   1.097   1.111   1.137   1.142
201 A   202 A   203 A   204 A   205 A   206 A   207 A   208 A                  
  1.154   1.169   1.172   1.188   1.188   1.204   1.215   1.224
209 A   210 A   211 A   212 A   213 A   214 A   215 A   216 A                  
  1.235   1.239   1.247   1.257   1.272   1.280   1.286   1.311
217 A   218 A   219 A   220 A   221 A   222 A   223 A   224 A                  
  1.335   1.341   1.358   1.363   1.370   1.382   1.394   1.414
225 A   226 A   227 A   228 A   229 A   230 A   231 A   232 A                  
  1.427   1.433   1.437   1.461   1.473   1.483   1.492   1.523
233 A   234 A   235 A   236 A   237 A   238 A   239 A   240 A                  
  1.543   1.571   1.585   1.600   1.602   1.621   1.635   1.640
241 A   242 A   243 A   244 A   245 A   246 A   247 A   248 A                  
  1.679   1.689   1.704   1.716   1.725   1.737   1.766   1.772
249 A   250 A   251 A   252 A   253 A   254 A   255 A   256 A                  
  1.789   1.805   1.816   1.880   1.891   1.898   1.921   1.927
257 A   258 A   259 A   260 A   261 A   262 A   263 A   264 A                  
  1.944   1.971   1.973   1.983   1.993   2.001   2.007   2.030
265 A   266 A   267 A   268 A   269 A   270 A   271 A   272 A                  
  2.050   2.057   2.071   2.094   2.105   2.118   2.122   2.131
273 A   274 A   275 A   276 A   277 A   278 A   279 A   280 A                  
  2.137   2.152   2.156   2.165   2.175   2.190   2.198   2.219
281 A   282 A   283 A   284 A   285 A   286 A   287 A   288 A                  
  2.233   2.256   2.264   2.285   2.307   2.310   2.324   2.335
289 A   290 A   291 A   292 A   293 A   294 A   295 A   296 A                  
  2.341   2.351   2.381   2.385   2.393   2.394   2.422   2.424
297 A   298 A   299 A   300 A   301 A   302 A   303 A   304 A                  
  2.438   2.451   2.494   2.501   2.519   2.530   2.555   2.577
305 A   306 A   307 A   308 A   309 A   310 A   311 A   312 A                  
  2.586   2.597   2.606   2.633   2.662   2.681   2.708   2.713
313 A   314 A   315 A   316 A   317 A   318 A   319 A   320 A                  
  2.745   2.747   2.795   2.809   2.817   2.881   2.942   2.947
321 A   322 A   323 A   324 A   325 A   326 A   327 A   328 A                  
  2.959   2.978   3.005   3.028   3.058   3.076   3.096   3.109
329 A   330 A   331 A   332 A   333 A   334 A   335 A   336 A                  
  3.114   3.131   3.170   3.189   3.258   3.307   3.336   3.469
337 A   338 A   339 A   340 A   341 A   342 A   343 A   344 A                  
  3.470   3.522   3.598   3.626   3.668   3.704   3.801   4.550
345 A   346 A   347 A   348 A   349 A   350 A   351 A   352 A                  
  4.653   4.658   4.705   4.726   4.762   4.788   4.803   4.841
353 A   354 A   355 A   356 A   357 A   358 A   359 A   360 A                  
  4.862   4.886   4.966   4.985   5.061   5.201   5.936   6.527
361 A   362 A   363 A   364 A   365 A   366 A   367 A   368 A                  
  7.351
369 A                                                                          
 
 Beta MOs, Restricted
 -- Occupied --                  
-104.84  -26.35  -26.35  -26.35  -20.55  -15.63  -15.61  -11.52
  1 A     2 A     3 A     4 A     5 A     6 A     7 A     8 A                  
-11.408 -11.328 -11.325 -11.284 -11.275 -11.272 -11.268 -11.261
  9 A    10 A    11 A    12 A    13 A    14 A    15 A    16 A                  
-11.244 -11.231 -10.577  -8.046  -8.043  -8.043  -1.734  -1.638
 17 A    18 A    19 A    20 A    21 A    22 A    23 A    24 A                  
 -1.633  -1.426  -1.289  -1.248  -1.207  -1.143  -1.082  -1.063
 25 A    26 A    27 A    28 A    29 A    30 A    31 A    32 A                  
 -1.021  -0.975  -0.949  -0.883  -0.879  -0.834  -0.827  -0.821
 33 A    34 A    35 A    36 A    37 A    38 A    39 A    40 A                  
 -0.803  -0.799  -0.761  -0.718  -0.712  -0.708  -0.704  -0.677
 41 A    42 A    43 A    44 A    45 A    46 A    47 A    48 A                  
 -0.671  -0.660  -0.657  -0.646  -0.645  -0.631  -0.626  -0.612
 49 A    50 A    51 A    52 A    53 A    54 A    55 A    56 A                  
 -0.598  -0.585  -0.570  -0.560  -0.555  -0.536  -0.525  -0.509
 57 A    58 A    59 A    60 A    61 A    62 A    63 A    64 A                  
 -0.501  -0.494  -0.470  -0.460  -0.458  -0.416  -0.365  -0.330
 65 A    66 A    67 A    68 A    69 A    70 A    71 A    72 A                  
 -- Virtual --                   
  0.043   0.070   0.077   0.079   0.085   0.086   0.095   0.099
 73 A    74 A    75 A    76 A    77 A    78 A    79 A    80 A                  
  0.101   0.107   0.110   0.114   0.120   0.126   0.128   0.131
 81 A    82 A    83 A    84 A    85 A    86 A    87 A    88 A                  
  0.136   0.139   0.145   0.152   0.157   0.160   0.164   0.182
 89 A    90 A    91 A    92 A    93 A    94 A    95 A    96 A                  
  0.183   0.188   0.189   0.193   0.200   0.205   0.209   0.214
 97 A    98 A    99 A   100 A   101 A   102 A   103 A   104 A                  
  0.215   0.227   0.233   0.239   0.248   0.251   0.256   0.265
105 A   106 A   107 A   108 A   109 A   110 A   111 A   112 A                  
  0.268   0.273   0.276   0.285   0.291   0.304   0.306   0.314
113 A   114 A   115 A   116 A   117 A   118 A   119 A   120 A                  
  0.318   0.322   0.330   0.331   0.334   0.340   0.341   0.350
121 A   122 A   123 A   124 A   125 A   126 A   127 A   128 A                  
  0.358   0.360   0.362   0.371   0.376   0.381   0.386   0.396
129 A   130 A   131 A   132 A   133 A   134 A   135 A   136 A                  
  0.399   0.409   0.410   0.413   0.418   0.419   0.428   0.433
137 A   138 A   139 A   140 A   141 A   142 A   143 A   144 A                  
  0.436   0.447   0.449   0.453   0.457   0.461   0.470   0.477
145 A   146 A   147 A   148 A   149 A   150 A   151 A   152 A                  
  0.484   0.488   0.491   0.493   0.500   0.503   0.513   0.514
153 A   154 A   155 A   156 A   157 A   158 A   159 A   160 A                  
  0.520   0.537   0.553   0.570   0.570   0.575   0.583   0.589
161 A   162 A   163 A   164 A   165 A   166 A   167 A   168 A                  
  0.592   0.606   0.619   0.656   0.663   0.688   0.722   0.764
169 A   170 A   171 A   172 A   173 A   174 A   175 A   176 A                  
  0.785   0.808   0.825   0.846   0.851   0.855   0.888   0.897
177 A   178 A   179 A   180 A   181 A   182 A   183 A   184 A                  
  0.911   0.916   0.921   0.928   0.941   0.947   0.957   0.968
185 A   186 A   187 A   188 A   189 A   190 A   191 A   192 A                  
  0.970   0.974   0.998   1.009   1.016   1.024   1.039   1.057
193 A   194 A   195 A   196 A   197 A   198 A   199 A   200 A                  
  1.064   1.070   1.074   1.086   1.097   1.111   1.137   1.142
201 A   202 A   203 A   204 A   205 A   206 A   207 A   208 A                  
  1.154   1.169   1.172   1.188   1.188   1.204   1.215   1.224
209 A   210 A   211 A   212 A   213 A   214 A   215 A   216 A                  
  1.235   1.239   1.247   1.257   1.272   1.280   1.286   1.311
217 A   218 A   219 A   220 A   221 A   222 A   223 A   224 A                  
  1.335   1.341   1.358   1.363   1.370   1.382   1.394   1.414
225 A   226 A   227 A   228 A   229 A   230 A   231 A   232 A                  
  1.427   1.433   1.437   1.461   1.473   1.483   1.492   1.523
233 A   234 A   235 A   236 A   237 A   238 A   239 A   240 A                  
  1.543   1.571   1.585   1.600   1.602   1.621   1.635   1.640
241 A   242 A   243 A   244 A   245 A   246 A   247 A   248 A                  
  1.679   1.689   1.704   1.716   1.725   1.737   1.766   1.772
249 A   250 A   251 A   252 A   253 A   254 A   255 A   256 A                  
  1.789   1.805   1.816   1.880   1.891   1.898   1.921   1.927
257 A   258 A   259 A   260 A   261 A   262 A   263 A   264 A                  
  1.944   1.971   1.973   1.983   1.993   2.001   2.007   2.030
265 A   266 A   267 A   268 A   269 A   270 A   271 A   272 A                  
  2.050   2.057   2.071   2.094   2.105   2.118   2.122   2.131
273 A   274 A   275 A   276 A   277 A   278 A   279 A   280 A                  
  2.137   2.152   2.156   2.165   2.175   2.190   2.198   2.219
281 A   282 A   283 A   284 A   285 A   286 A   287 A   288 A                  
  2.233   2.256   2.264   2.285   2.307   2.310   2.324   2.335
289 A   290 A   291 A   292 A   293 A   294 A   295 A   296 A                  
  2.341   2.351   2.381   2.385   2.393   2.394   2.422   2.424
297 A   298 A   299 A   300 A   301 A   302 A   303 A   304 A                  
  2.438   2.451   2.494   2.501   2.519   2.530   2.555   2.577
305 A   306 A   307 A   308 A   309 A   310 A   311 A   312 A                  
  2.586   2.597   2.606   2.633   2.662   2.681   2.708   2.713
313 A   314 A   315 A   316 A   317 A   318 A   319 A   320 A                  
  2.745   2.747   2.795   2.809   2.817   2.881   2.942   2.947
321 A   322 A   323 A   324 A   325 A   326 A   327 A   328 A                  
  2.959   2.978   3.005   3.028   3.058   3.076   3.096   3.109
329 A   330 A   331 A   332 A   333 A   334 A   335 A   336 A                  
  3.114   3.131   3.170   3.189   3.258   3.307   3.336   3.469
337 A   338 A   339 A   340 A   341 A   342 A   343 A   344 A                  
  3.470   3.522   3.598   3.626   3.668   3.704   3.801   4.550
345 A   346 A   347 A   348 A   349 A   350 A   351 A   352 A                  
  4.653   4.658   4.705   4.726   4.762   4.788   4.803   4.841
353 A   354 A   355 A   356 A   357 A   358 A   359 A   360 A                  
  4.862   4.886   4.966   4.985   5.061   5.201   5.936   6.527
361 A   362 A   363 A   364 A   365 A   366 A   367 A   368 A                  
  7.351
369 A                                                                          

 Occupation and symmetry of molecular orbitals

 Point group: C1 (1 irreducible representation).

                           A     All 
 -------------------------------------
 All molecular orbitals:
  - Alpha                  369   369 
  - Beta                   369   369 
 -------------------------------------
 Alpha orbitals:
  - Frozen occupied        22    22  
  - Active occupied        50    50  
  - Active virtual         297   297 
  - Frozen virtual         0     0   
 -------------------------------------
 Beta orbitals:
  - Frozen occupied        22    22  
  - Active occupied        50    50  
  - Active virtual         297   297 
  - Frozen virtual         0     0   
 -------------------------------------

 Import integrals:   CPU 0.00 s  wall 0.00 s

 Import integrals:   CPU 1648.34 s  wall 615.08 s

 MP2 amplitudes:   CPU 22.81 s  wall 48.00 s

           CCSD T amplitudes will be solved using DIIS.

           Start     Size      MaxIter   EConv     TConv     
           3         7         100       1.00e-06  1.00e-04  
 ------------------------------------------------------------------------------
           Energy (a.u.)   Ediff      Tdiff       Comment
 ------------------------------------------------------------------------------
         -1367.74650087                           
     1   -1367.74093129   5.57e-03   1.48e+00     Step took 44.00.
     2   -1367.81848975   7.76e-02   2.01e-01     
     3   -1367.81804618   4.44e-04   7.35e-02     
     4   -1367.82566981   7.62e-03   2.41e-02     Switched to DIIS steps.
     5   -1367.82828726   2.62e-03   1.65e-02     
     6   -1367.82843994   1.53e-04   3.36e-03     
     7   -1367.82842230   1.76e-05   1.69e-03     
     8   -1367.82841274   9.56e-06   4.33e-04     
     9   -1367.82841339   6.53e-07   1.71e-04     
    10   -1367.82841343   4.07e-08   5.08e-05     
 ------------------------------------------------------------------------------
         -1367.82841343                           CCSD T converged.


 ------------------------------------------------------------------------------
 == (T) code is based on LIBPT ==
 == Author: Ilya Kaliman, 2016 ==

 Starting (T) calculation...
 (T) calculation completed in 60366 sec
 ------------------------------------------------------------------------------

 SCF energy                 = -1365.16820355
 MP2 energy                 = -1367.74650087
 CCSD correlation energy     =    -2.66020989
 CCSD total energy           = -1367.82841343
 CCSD(T) correlation energy =    -0.09947660
 CCSD(T) total energy       = -1367.92789003

 CCSD  T1^2 = 0.0355  T2^2 = 0.8926  Leading amplitudes:

 Amplitude    Orbitals with energies
 -0.0182       54 (A) A                  ->    104 (A) A                  
              -0.6310                          0.2142                     
 -0.0182       54 (A) B                  ->    104 (A) B                  
              -0.6310                          0.2142                     
 -0.0152       64 (A) A                  ->    80 (A) A                   
              -0.5088                          0.0986                     
 -0.0152       64 (A) B                  ->    80 (A) B                   
              -0.5088                          0.0986                     

 Amplitude    Orbitals with energies
 -0.0405       72 (A) A      72 (A) B    ->    80 (A) A      80 (A) B     
              -0.3304       -0.3304            0.0986        0.0986       
  0.0405       72 (A) A      72 (A) B    ->    80 (A) B      80 (A) A     
              -0.3304       -0.3304            0.0986        0.0986       
  0.0405       72 (A) B      72 (A) A    ->    80 (A) A      80 (A) B     
              -0.3304       -0.3304            0.0986        0.0986       
 -0.0405       72 (A) B      72 (A) A    ->    80 (A) B      80 (A) A     
              -0.3304       -0.3304            0.0986        0.0986       

 CCSD calculation:   CPU 308583.14 s  wall 91302.40 s

 Total ccman2 time:   CPU 310273.73 s  wall 91984.24 s

 
 --------------------------------------------------------------
 
                    Orbital Energies (a.u.)
 --------------------------------------------------------------
 
 Alpha MOs
 -- Occupied --
******* -26.353 -26.349 -26.349 -20.550 -15.631 -15.608 -11.518
-11.408 -11.328 -11.325 -11.284 -11.275 -11.272 -11.268 -11.261
-11.244 -11.231 -10.577  -8.046  -8.043  -8.043  -1.734  -1.638
 -1.633  -1.426  -1.289  -1.248  -1.207  -1.143  -1.082  -1.063
 -1.021  -0.975  -0.949  -0.883  -0.879  -0.834  -0.827  -0.821
 -0.803  -0.799  -0.761  -0.718  -0.712  -0.708  -0.704  -0.677
 -0.671  -0.660  -0.657  -0.646  -0.645  -0.631  -0.626  -0.612
 -0.598  -0.585  -0.570  -0.560  -0.555  -0.536  -0.525  -0.509
 -0.501  -0.494  -0.470  -0.460  -0.458  -0.416  -0.365  -0.330
 -- Virtual --
  0.043   0.070   0.077   0.079   0.085   0.086   0.095   0.099
  0.101   0.107   0.110   0.114   0.120   0.126   0.128   0.131
  0.136   0.139   0.145   0.152   0.157   0.160   0.164   0.182
  0.183   0.188   0.189   0.193   0.200   0.205   0.209   0.214
  0.215   0.227   0.233   0.239   0.248   0.251   0.256   0.265
  0.268   0.273   0.276   0.285   0.291   0.304   0.306   0.314
  0.318   0.322   0.330   0.331   0.334   0.340   0.341   0.350
  0.358   0.360   0.362   0.371   0.376   0.381   0.386   0.396
  0.399   0.409   0.410   0.413   0.418   0.419   0.428   0.433
  0.436   0.447   0.449   0.453   0.457   0.461   0.470   0.477
  0.484   0.488   0.491   0.493   0.500   0.503   0.513   0.514
  0.520   0.537   0.553   0.570   0.570   0.575   0.583   0.589
  0.592   0.606   0.619   0.656   0.663   0.688   0.722   0.764
  0.785   0.808   0.825   0.846   0.851   0.855   0.888   0.897
  0.911   0.916   0.921   0.928   0.941   0.947   0.957   0.968
  0.970   0.974   0.998   1.009   1.016   1.024   1.039   1.057
  1.064   1.070   1.074   1.086   1.097   1.111   1.137   1.142
  1.154   1.169   1.172   1.188   1.188   1.204   1.215   1.224
  1.235   1.239   1.247   1.257   1.272   1.280   1.286   1.311
  1.335   1.341   1.358   1.363   1.370   1.382   1.394   1.414
  1.427   1.433   1.437   1.461   1.473   1.483   1.492   1.523
  1.543   1.571   1.585   1.600   1.602   1.621   1.635   1.640
  1.679   1.689   1.704   1.716   1.725   1.737   1.766   1.772
  1.789   1.805   1.816   1.880   1.891   1.898   1.921   1.927
  1.944   1.971   1.973   1.983   1.993   2.001   2.007   2.030
  2.050   2.057   2.071   2.094   2.105   2.118   2.122   2.131
  2.137   2.152   2.156   2.165   2.175   2.190   2.198   2.219
  2.233   2.256   2.264   2.285   2.307   2.310   2.324   2.335
  2.341   2.351   2.381   2.385   2.393   2.394   2.422   2.424
  2.438   2.451   2.494   2.501   2.519   2.530   2.555   2.577
  2.586   2.597   2.606   2.633   2.662   2.681   2.708   2.713
  2.745   2.747   2.795   2.809   2.817   2.881   2.942   2.947
  2.959   2.978   3.005   3.028   3.058   3.076   3.096   3.109
  3.114   3.131   3.170   3.189   3.258   3.307   3.336   3.469
  3.470   3.522   3.598   3.626   3.668   3.704   3.801   4.550
  4.653   4.658   4.705   4.726   4.762   4.788   4.803   4.841
  4.862   4.886   4.966   4.985   5.061   5.201   5.936   6.527
  7.351
 --------------------------------------------------------------
 
          Ground-State Mulliken Net Atomic Charges

     Atom                 Charge (a.u.)
  ----------------------------------------
      1 C                    -0.180528
      2 N                    -0.819059
      3 C                     0.662814
      4 O                    -0.631268
      5 N                    -0.676780
      6 C                    -0.067894
      7 C                    -0.275460
      8 C                    -0.673402
      9 C                     0.060637
     10 C                    -0.772802
     11 C                    -0.009500
     12 C                    -0.048829
     13 C                    -0.633076
     14 H                     0.459166
     15 H                     0.417732
     16 H                     0.226287
     17 H                     0.202844
     18 H                     0.180392
     19 H                     0.207429
     20 H                     0.197039
     21 H                     0.199886
     22 H                     0.198797
     23 H                     0.344190
     24 Cl                    0.260624
     25 H                     0.248649
     26 C                     1.812685
     27 H                     0.286126
     28 F                    -0.372231
     29 F                    -0.371703
     30 F                    -0.432763
  ----------------------------------------
  Sum of atomic charges =     0.000000

 -----------------------------------------------------------------
                    Cartesian Multipole Moments
 -----------------------------------------------------------------
    Charge (ESU x 10^10)
                -0.0000
    Dipole Moment (Debye)
         X      -5.0929      Y      -4.5563      Z       1.1705
       Tot       6.9331
    Quadrupole Moments (Debye-Ang)
        XX    -101.8986     XY       5.9296     YY    -116.7259
        XZ      -3.6544     YZ      -0.6452     ZZ    -115.5005
    Octopole Moments (Debye-Ang^2)
       XXX     -63.0234    XXY      -8.8764    XYY     -15.5382
       YYY      15.9738    XXZ       8.7625    XYZ       3.5454
       YYZ       3.5298    XZZ       4.6604    YZZ      14.6840
       ZZZ      -0.3706
    Hexadecapole Moments (Debye-Ang^3)
      XXXX   -7793.5389   XXXY     108.5715   XXYY   -1778.6122
      XYYY     130.7652   YYYY   -2016.3016   XXXZ     -27.9767
      XXYZ     -17.0147   XYYZ     -11.1101   YYYZ      -4.2134
      XXZZ   -1430.8667   XYZZ      29.7875   YYZZ    -380.9201
      XZZZ       0.2640   YZZZ      -0.3848   ZZZZ    -211.6304
 -----------------------------------------------------------------
Archival summary:
1\1\r4202\SP\ProcedureUnspecified\6-31+G*\l13121112\hio507\TueDec1011:50:342019TueDec1011:50:342019\0\\#,ProcedureUnspecified,6-31+G*,\\0,1\Cl\C,1,1.74055\C,2,1.38407,1,119.549\H,3,1.08286,2,121.002,1,0.0578938,0\C,2,1.38604,1,118.862,3,179.937,0\H,5,1.0847,2,119.329,1,-0.0292096,0\C,3,1.39124,2,117.481,1,-180,0\C,7,1.38604,3,122.752,2,0.0277803,0\H,8,1.07856,7,120.897,3,-179.414,0\C,5,1.3975,2,120.073,1,179.926,0\N,10,1.39872,5,117.164,2,-178.497,0\H,11,1.00888,10,115.299,5,-1.58875,0\C,11,1.39281,10,127.04,5,-169.25,0\O,13,1.21065,11,123.867,10,1.7048,0\N,13,1.37293,11,113.008,10,-179.667,0\H,15,1.00998,13,117.997,11,24.9646,0\C,15,1.45792,13,118.778,11,174.599,0\H,17,1.09107,15,107.562,13,50.5273,0\H,17,1.09649,15,110.644,13,-65.8632,0\C,7,1.50499,3,117.26,2,179.796,0\F,20,1.3347,7,112.789,3,179.446,0\F,20,1.34292,7,111.349,3,58.6483,0\F,20,1.34363,7,111.256,3,-59.9142,0\C,17,1.52148,15,110.455,13,171.308,0\H,24,1.09398,17,109.004,15,-57.763,0\H,24,1.0966,17,109.605,15,58.8072,0\C,24,1.52545,17,111.492,15,-179.801,0\H,27,1.09092,24,111.269,17,179.778,0\H,27,1.0925,24,111.009,17,59.7738,0\H,27,1.09258,24,111.192,17,-60.0895,0\\HF=-1365.1682\\@

 Total job time:  92046.15s(wall), 310513.74s(cpu) 
 Tue Dec 10 11:50:34 2019

        *************************************************************
        *                                                           *
        *  Thank you very much for using Q-Chem.  Have a nice day.  *
        *                                                           *
        *************************************************************


0 sent ACK to 0 
now end server 0 ... 
