 Entering Gaussian System, Link 0=/apps/gaussian/g16c01/g16/g16
 Initial command:
 /apps/gaussian/g16c01/g16/l1.exe "/jobfs/11546678.gadi-pbs/Gau-794537.inp" -scrdir="/jobfs/11546678.gadi-pbs/"
 Entering Link 1 = /apps/gaussian/g16c01/g16/l1.exe PID=    794538.
  
 Copyright (c) 1988-2019, Gaussian, Inc.  All Rights Reserved.
  
 This is part of the Gaussian(R) 16 program.  It is based on
 the Gaussian(R) 09 system (copyright 2009, Gaussian, Inc.),
 the Gaussian(R) 03 system (copyright 2003, Gaussian, Inc.),
 the Gaussian(R) 98 system (copyright 1998, Gaussian, Inc.),
 the Gaussian(R) 94 system (copyright 1995, Gaussian, Inc.),
 the Gaussian 92(TM) system (copyright 1992, Gaussian, Inc.),
 the Gaussian 90(TM) system (copyright 1990, Gaussian, Inc.),
 the Gaussian 88(TM) system (copyright 1988, Gaussian, Inc.),
 the Gaussian 86(TM) system (copyright 1986, Carnegie Mellon
 University), and the Gaussian 82(TM) system (copyright 1983,
 Carnegie Mellon University). Gaussian is a federally registered
 trademark of Gaussian, Inc.
  
 This software contains proprietary and confidential information,
 including trade secrets, belonging to Gaussian, Inc.
  
 This software is provided under written license and may be
 used, copied, transmitted, or stored only in accord with that
 written license.
  
 The following legend is applicable only to US Government
 contracts under FAR:
  
                    RESTRICTED RIGHTS LEGEND
  
 Use, reproduction and disclosure by the US Government is
 subject to restrictions as set forth in subparagraphs (a)
 and (c) of the Commercial Computer Software - Restricted
 Rights clause in FAR 52.227-19.
  
 Gaussian, Inc.
 340 Quinnipiac St., Bldg. 40, Wallingford CT 06492
  
  
 ---------------------------------------------------------------
 Warning -- This program may not be used in any manner that
 competes with the business of Gaussian, Inc. or will provide
 assistance to any competitor of Gaussian, Inc.  The licensee
 of this program is prohibited from giving any competitor of
 Gaussian, Inc. access to this program.  By using this program,
 the user acknowledges that Gaussian, Inc. is engaged in the
 business of creating and licensing software in the field of
 computational chemistry and represents and warrants to the
 licensee that it is not a competitor of Gaussian, Inc. and that
 it will not use this program in any manner prohibited above.
 ---------------------------------------------------------------
  

 Cite this work as:
 Gaussian 16, Revision C.01,
 M. J. Frisch, G. W. Trucks, H. B. Schlegel, G. E. Scuseria, 
 M. A. Robb, J. R. Cheeseman, G. Scalmani, V. Barone, 
 G. A. Petersson, H. Nakatsuji, X. Li, M. Caricato, A. V. Marenich, 
 J. Bloino, B. G. Janesko, R. Gomperts, B. Mennucci, H. P. Hratchian, 
 J. V. Ortiz, A. F. Izmaylov, J. L. Sonnenberg, D. Williams-Young, 
 F. Ding, F. Lipparini, F. Egidi, J. Goings, B. Peng, A. Petrone, 
 T. Henderson, D. Ranasinghe, V. G. Zakrzewski, J. Gao, N. Rega, 
 G. Zheng, W. Liang, M. Hada, M. Ehara, K. Toyota, R. Fukuda, 
 J. Hasegawa, M. Ishida, T. Nakajima, Y. Honda, O. Kitao, H. Nakai, 
 T. Vreven, K. Throssell, J. A. Montgomery, Jr., J. E. Peralta, 
 F. Ogliaro, M. J. Bearpark, J. J. Heyd, E. N. Brothers, K. N. Kudin, 
 V. N. Staroverov, T. A. Keith, R. Kobayashi, J. Normand, 
 K. Raghavachari, A. P. Rendell, J. C. Burant, S. S. Iyengar, 
 J. Tomasi, M. Cossi, J. M. Millam, M. Klene, C. Adamo, R. Cammi, 
 J. W. Ochterski, R. L. Martin, K. Morokuma, O. Farkas, 
 J. B. Foresman, and D. J. Fox, Gaussian, Inc., Wallingford CT, 2019.
 
 ******************************************
 Gaussian 16:  ES64L-G16RevC.01  3-Jul-2019
                21-Sep-2020 
 ******************************************
 %NprocShared=6
 Will use up to    6 processors via shared memory.
 %Mem=1194000MB
 %chk=NM3.DSDPBEP86_AUG-cc-PVTZ.chk
 ----------------------------------------------------------------------
 # DSDPBEP86/AUG-cc-PVTZ SCF=Tight INT(grid=ultrafine) MaxDisk=1400000M
 B
 ----------------------------------------------------------------------
 1/38=1,172=1/1;
 2/12=2,17=6,18=5,40=1/2;
 3/5=16,6=1,7=10,11=9,25=1,30=1,74=-77,75=-5/1,2,3;
 4//1;
 5/5=2,32=2,38=5/2;
 8/10=1/1;
 9/16=-3/6;
 6/7=2,8=2,9=2,10=2/1;
 99/5=1,9=1/99;
 -------------------------
 NM3.DSDPBEP86_AUG-cc-PVTZ
 -------------------------
 Symbolic Z-matrix:
 Charge =  0 Multiplicity = 1
 C                    -6.0172    1.18721   0.1984 
 N                    -4.75876   0.59305   0.05799 
 C                    -3.51925   1.22164   0.14958 
 O                    -3.37594   2.39751   0.39955 
 N                    -2.46615   0.3623   -0.04398 
 C                    -1.11508   0.90789  -0.09391 
 C                    -0.08817  -0.21476  -0.09915 
 C                     1.33573   0.33049  -0.14621 
 C                    -6.21781   2.57356   0.2139 
 C                    -7.51185   3.05708   0.32682 
 C                    -8.62112   2.2231    0.42461 
 C                    -8.39697   0.85741   0.40666 
 C                    -7.11872   0.33284   0.29707 
 H                    -4.75508  -0.4158    0.06526 
 H                    -2.63001  -0.47381  -0.58632 
 H                    -0.98413   1.54361   0.78309 
 H                    -0.98972   1.54994  -0.97387 
 H                    -0.25937  -0.86597  -0.96468 
 H                    -0.22974  -0.83123   0.79343 
 H                     1.49986   0.92927  -1.04525 
 H                     2.06899  -0.47725  -0.1459 
 H                     1.54034   0.96656   0.71813 
 H                    -5.37835   3.24768   0.14937 
 Cl                   -9.74632  -0.23556   0.5257 
 H                    -6.98511  -0.74356   0.28818 
 C                    -7.76168   4.54111   0.3421 
 H                    -9.62372   2.62263   0.51257 
 F                    -8.55117   4.91272  -0.67964 
 F                    -8.3916    4.91928   1.46621 
 F                    -6.63761   5.25552   0.25548 
 
                          Input orientation:                          
 ---------------------------------------------------------------------
 Center     Atomic      Atomic             Coordinates (Angstroms)
 Number     Number       Type             X           Y           Z
 ---------------------------------------------------------------------
      1          6           0       -6.017204    1.187207    0.198396
      2          7           0       -4.758763    0.593049    0.057989
      3          6           0       -3.519246    1.221644    0.149582
      4          8           0       -3.375943    2.397512    0.399552
      5          7           0       -2.466151    0.362303   -0.043982
      6          6           0       -1.115082    0.907887   -0.093912
      7          6           0       -0.088168   -0.214759   -0.099154
      8          6           0        1.335733    0.330489   -0.146212
      9          6           0       -6.217806    2.573559    0.213896
     10          6           0       -7.511853    3.057083    0.326823
     11          6           0       -8.621117    2.223097    0.424609
     12          6           0       -8.396966    0.857415    0.406657
     13          6           0       -7.118716    0.332840    0.297071
     14          1           0       -4.755078   -0.415798    0.065256
     15          1           0       -2.630013   -0.473808   -0.586322
     16          1           0       -0.984135    1.543606    0.783094
     17          1           0       -0.989721    1.549939   -0.973874
     18          1           0       -0.259369   -0.865973   -0.964679
     19          1           0       -0.229741   -0.831233    0.793432
     20          1           0        1.499863    0.929270   -1.045245
     21          1           0        2.068990   -0.477246   -0.145904
     22          1           0        1.540342    0.966565    0.718134
     23          1           0       -5.378354    3.247679    0.149365
     24         17           0       -9.746319   -0.235559    0.525695
     25          1           0       -6.985105   -0.743564    0.288183
     26          6           0       -7.761683    4.541112    0.342100
     27          1           0       -9.623724    2.622635    0.512573
     28          9           0       -8.551171    4.912719   -0.679642
     29          9           0       -8.391604    4.919284    1.466213
     30          9           0       -6.637607    5.255518    0.255485
 ---------------------------------------------------------------------
                    Distance matrix (angstroms):
                    1          2          3          4          5
     1  C    0.000000
     2  N    1.398718   0.000000
     3  C    2.498672   1.392811   0.000000
     4  O    2.912312   2.298900   1.210655   0.000000
     5  N    3.653654   2.306449   1.372932   2.272997   0.000000
     6  C    4.918767   3.660411   2.436748   2.752087   1.457925
     7  C    6.099796   4.742541   3.727925   4.228727   2.447621
     8  C    7.410695   6.103565   4.944944   5.174005   3.803391
     9  C    1.400876   2.464860   3.018946   2.853358   4.362462
    10  C    2.397270   3.704489   4.397858   4.188803   5.732228
    11  C    2.811513   4.208236   5.206499   5.248133   6.447149
    12  C    2.411515   3.664421   4.898051   5.251916   5.968482
    13  C    1.397501   2.386263   3.710513   4.275713   4.665141
    14  H    2.044582   1.008880   2.053195   3.150949   2.420033
    15  H    3.853286   2.466759   2.051061   3.126154   1.009983
    16  H    5.079436   3.959438   2.632829   2.568463   2.067826
    17  H    5.175072   4.023190   2.787190   2.880752   2.110693
    18  H    6.222616   4.839332   4.028216   4.714286   2.688166
    19  H    6.158157   4.804320   3.930610   4.525320   2.669705
    20  H    7.623612   6.364006   5.167645   5.293076   4.129558
    21  H    8.262897   6.914138   5.848241   6.181347   4.613322
    22  H    7.578609   6.344606   5.097818   5.130201   4.122856
    23  H    2.157795   2.727509   2.749745   2.189755   4.104108
    24  Cl   4.004709   5.077506   6.406352   6.894249   7.326856
    25  H    2.161660   2.606938   3.986657   4.785897   4.664142
    26  C    3.783192   4.968446   5.390195   4.881910   6.756786
    27  H    3.894374   5.290909   6.273690   6.252857   7.526599
    28  F    4.590357   5.795344   6.295388   5.854393   7.624815
    29  F    4.601472   5.822108   6.256671   5.714365   7.626124
    30  F    4.115740   5.030674   5.099758   4.339057   6.436947
                    6          7          8          9         10
     6  C    0.000000
     7  C    1.521484   0.000000
     8  C    2.518455   1.525452   0.000000
     9  C    5.376524   6.741304   7.887775   0.000000
    10  C    6.761268   8.123884   9.270267   1.386039   0.000000
    11  C    7.638010   8.889808  10.151190   2.437852   1.391244
    12  C    7.299244   8.392945   9.762620   2.780476   2.372412
    13  C    6.043772   7.062964   8.466062   2.416481   2.752625
    14  H    3.876474   4.674130   6.140003   3.331355   4.441749
    15  H    2.108688   2.601041   4.070348   4.774836   6.093717
    16  H    1.091066   2.161705   2.777958   5.364337   6.716390
    17  H    1.096485   2.166124   2.753147   5.458157   6.819201
    18  H    2.153383   1.096597   2.155403   6.980143   8.346069
    19  H    2.143769   1.093980   2.164078   6.912699   8.268366
    20  H    2.782702   2.173876   1.092584   7.990716   9.360619
    21  H    3.472695   2.173572   1.090918   8.837865  10.222891
    22  H    2.777433   2.171527   1.092497   7.938864   9.298689
    23  H    4.869220   6.327425   7.326413   1.078555   2.149334
    24  Cl   8.728668   9.678365  11.116823   4.520926   3.984205
    25  H    6.109866   6.928016   8.401109   3.405521   3.837170
    26  C    7.587341   9.038576  10.036472   2.504248   1.504989
    27  H    8.700872   9.967539  11.215954   3.419341   2.164081
    28  F    8.466238   9.912134  10.910190   3.422670   2.352985
    29  F    8.454176   9.887155  10.875571   3.434548   2.353713
    30  F    7.037206   8.540776   9.380375   2.714934   2.366963
                   11         12         13         14         15
    11  C    0.000000
    12  C    1.384072   0.000000
    13  C    2.417963   1.386041   0.000000
    14  H    4.694589   3.873109   2.490178   0.000000
    15  H    6.647451   6.001326   4.645376   2.223470   0.000000
    16  H    7.675527   7.454034   6.271783   4.309822   2.941798
    17  H    7.787625   7.566554   6.376615   4.372851   2.633687
    18  H    9.021713   8.430368   7.076709   4.634093   2.432468
    19  H    8.937570   8.348934   7.004243   4.602336   2.791555
    20  H   10.308671  10.003020   8.742851   6.493590   4.385785
    21  H   11.040639  10.565173   9.233981   6.827610   4.719598
    22  H   10.243060   9.942788   8.692421   6.478386   4.600885
    23  H    3.411896   3.858961   3.398083   3.717071   4.684451
    24  Cl   2.705789   1.740551   2.698082   5.015674   7.206606
    25  H    3.390608   2.137878   1.084701   2.264983   4.450209
    26  C    2.473586   3.738633   4.257346   5.804075   7.235015
    27  H    1.082862   2.152244   3.400686   5.756378   7.727065
    28  F    2.908321   4.201109   4.897059   6.584702   8.005217
    29  F    2.899489   4.197794   4.901287   6.606823   8.154403
    30  F    3.627463   4.739358   4.946308   5.978624   7.042346
                   16         17         18         19         20
    16  H    0.000000
    17  H    1.756989   0.000000
    18  H    3.063669   2.523912   0.000000
    19  H    2.491802   3.061196   1.758704   0.000000
    20  H    3.144913   2.566779   2.514814   3.077602   0.000000
    21  H    3.777361   3.761745   2.498551   2.508350   1.763805
    22  H    2.590402   3.099102   3.070670   2.524072   1.764238
    23  H    4.755485   4.837777   6.660873   6.600043   7.356085
    24  Cl   8.944695   9.061718   9.623973   9.538961  11.414960
    25  H    6.441097   6.541986   6.842527   6.774800   8.750491
    26  C    7.423926   7.519201   9.339645   9.262610  10.037249
    27  H    8.710912   8.826449  10.101673  10.012742  11.359070
    28  F    8.411335   8.280724  10.110811  10.218079  10.817801
    29  F    8.168994   8.490842  10.271889  10.006853  10.957589
    30  F    6.783687   6.865950   8.924314   8.854303   9.307349
                   21         22         23         24         25
    21  H    0.000000
    22  H    1.763695   0.000000
    23  H    8.332178   7.307211   0.000000
    24  Cl  11.836849  11.352130   5.599437   0.000000
    25  H    9.068406   8.705897   4.304758   2.817585   0.000000
    26  C   11.048267   9.972285   2.718524   5.175817   5.341702
    27  H   12.114554  11.288100   4.306480   2.860852   4.282984
    28  F   11.921594  10.925408   3.677822   5.420884   5.948343
    29  F   11.880467  10.715744   3.688907   5.412231   5.952634
    30  F   10.432188   9.245973   2.372425   6.315777   6.009228
                   26         27         28         29         30
    26  C    0.000000
    27  H    2.678957   0.000000
    28  F    1.343629   2.795753   0.000000
    29  F    1.342925   2.775274   2.151790   0.000000
    30  F    1.334700   3.989369   2.157244   2.157643   0.000000
 Stoichiometry    C11H12ClF3N2O
 Framework group  C1[X(C11H12ClF3N2O)]
 Deg. of freedom    84
 Full point group                 C1      NOp   1
 Largest Abelian subgroup         C1      NOp   1
 Largest concise Abelian subgroup C1      NOp   1
                         Standard orientation:                         
 ---------------------------------------------------------------------
 Center     Atomic      Atomic             Coordinates (Angstroms)
 Number     Number       Type             X           Y           Z
 ---------------------------------------------------------------------
      1          6           0       -0.178902    0.741797    0.053377
      2          7           0        1.199251    0.972003    0.117485
      3          6           0        2.215157    0.033246   -0.045589
      4          8           0        2.020455   -1.134157   -0.300434
      5          7           0        3.470753    0.573507    0.083018
      6          6           0        4.624476   -0.317363    0.054395
      7          6           0        5.915256    0.485989   -0.004148
      8          6           0        7.138895   -0.424193   -0.039948
      9          6           0       -0.747498   -0.538496    0.053504
     10          6           0       -2.128364   -0.652941    0.018636
     11          6           0       -2.974475    0.450908   -0.015596
     12          6           0       -2.388698    1.704909   -0.014611
     13          6           0       -1.012104    1.863188    0.017745
     14          1           0        1.475203    1.942357    0.107298
     15          1           0        3.570682    1.415447    0.631851
     16          1           0        4.527804   -0.952998   -0.827107
     17          1           0        4.622075   -0.981154    0.927124
     18          1           0        5.976771    1.147569    0.868234
     19          1           0        5.894432    1.129703   -0.888451
     20          1           0        7.186554   -1.057053    0.849408
     21          1           0        8.061985    0.155380   -0.085811
     22          1           0        7.113647   -1.080239   -0.913170
     23          1           0       -0.119363   -1.415111    0.070071
     24         17           0       -3.396723    3.123234   -0.056551
     25          1           0       -0.592090    2.863268    0.015816
     26          6           0       -2.770671   -2.013978    0.022161
     27          1           0       -4.051113    0.338262   -0.043013
     28          9           0       -3.570932   -2.172187    1.089818
     29          9           0       -3.543147   -2.192826   -1.061693
     30          9           0       -1.878631   -3.006556    0.044042
 ---------------------------------------------------------------------
 Rotational constants (GHZ):           0.5290879           0.1556570           0.1232730
 Standard basis: Aug-CC-pVTZ (5D, 7F)
 There are  1294 symmetry adapted cartesian basis functions of A   symmetry.
 There are  1108 symmetry adapted basis functions of A   symmetry.
  1108 basis functions,  1662 primitive gaussians,  1294 cartesian basis functions
    72 alpha electrons       72 beta electrons
       nuclear repulsion energy      1418.7381089626 Hartrees.
 NAtoms=   30 NActive=   30 NUniq=   30 SFac= 1.00D+00 NAtFMM=   60 NAOKFM=F Big=F
 Integral buffers will be    131072 words long.
 Regular integral format.
 Two-electron integral symmetry is turned on.
 Nuclear repulsion after empirical dispersion term =     1418.7155187956 Hartrees.
 One-electron integrals computed using PRISM.
 NBasis=  1108 RedAO= T EigKep=  1.08D-06  NBF=  1108
 NBsUse=  1106 1.00D-06 EigRej=  6.31D-07 NBFU=  1106
 ExpMin= 2.53D-02 ExpMax= 4.56D+05 ExpMxC= 1.44D+03 IAcc=3 IRadAn=         5 AccDes= 0.00D+00
 Harris functional with IExCor= 1004 and IRadAn=       5 diagonalized for initial guess.
 HarFok:  IExCor= 1004 AccDes= 0.00D+00 IRadAn=         5 IDoV= 1 UseB2=F ITyADJ=14
 ICtDFT=  3500011 ScaDFX=  1.000000  1.000000  1.000000  1.000000
 FoFCou: FMM=F IPFlag=           0 FMFlag=      100000 FMFlg1=           0
         NFxFlg=           0 DoJE=T BraDBF=F KetDBF=T FulRan=T
         wScrn=  0.000000 ICntrl=       500 IOpCl=  0 I1Cent=   200000004 NGrid=           0
         NMat0=    1 NMatS0=      1 NMatT0=    0 NMatD0=    1 NMtDS0=    0 NMtDT0=    0
 Petite list used in FoFCou.
 Requested convergence on RMS density matrix=1.00D-08 within 128 cycles.
 Requested convergence on MAX density matrix=1.00D-06.
 Requested convergence on             energy=1.00D-06.
 No special actions if energy rises.
 SCF Done:  E(RDSDPBEP86) =  -1367.77116433     A.U. after   13 cycles
            NFock= 13  Conv=0.78D-08     -V/T= 2.0025
 DoSCS=T DFT=T ScalE2(SS,OS)=  0.220000  0.520000
 ExpMin= 2.53D-02 ExpMax= 4.56D+05 ExpMxC= 1.44D+03 IAcc=3 IRadAn=         5 AccDes= 0.00D+00
 HarFok:  IExCor=  205 AccDes= 0.00D+00 IRadAn=         5 IDoV=-2 UseB2=F ITyADJ=14
 ICtDFT= 12500011 ScaDFX=  1.000000  1.000000  1.000000  1.000000
 GSVD:  LWork=        -660 too small for GESVD, short by        2750 words or        2750 for optimal perf.
 Range of M.O.s used for correlation:    23  1106
 NBasis=  1108 NAE=    72 NBE=    72 NFC=    22 NFV=     0
 NROrb=   1084 NOA=    50 NOB=    50 NVA=  1034 NVB=  1034

 **** Warning!!: The largest alpha MO coefficient is  0.13378681D+03

 DoSCS=T DFT=T ScalE2(SS,OS)=  0.220000  0.520000
 Fully direct method using O(OVN) memory.
 JobTyp=1 Pass  1:  I=   1 to  50 NPSUse=  6 ParTrn=T ParDer=T DoDerP=F.
 Spin components of T(2) and E(2):
     alpha-alpha T2 =       0.1748878813D+00 E2=     -0.1096446812D+00
     alpha-beta  T2 =       0.9076225919D+00 E2=     -0.1475787073D+01
     beta-beta   T2 =       0.1748878813D+00 E2=     -0.1096446812D+00
 E2(DSDPBEP86) =    -0.1695076435D+01 E(DSDPBEP86) =    -0.13694662407674D+04

 **********************************************************************

            Population analysis using the SCF Density.

 **********************************************************************

 Orbital symmetries:
       Occupied  (A) (A) (A) (A) (A) (A) (A) (A) (A) (A) (A) (A)
                 (A) (A) (A) (A) (A) (A) (A) (A) (A) (A) (A) (A)
                 (A) (A) (A) (A) (A) (A) (A) (A) (A) (A) (A) (A)
                 (A) (A) (A) (A) (A) (A) (A) (A) (A) (A) (A) (A)
                 (A) (A) (A) (A) (A) (A) (A) (A) (A) (A) (A) (A)
                 (A) (A) (A) (A) (A) (A) (A) (A) (A) (A) (A) (A)
       Virtual   (A) (A) (A) (A) (A) (A) (A) (A) (A) (A) (A) (A)
                 (A) (A) (A) (A) (A) (A) (A) (A) (A) (A) (A) (A)
                 (A) (A) (A) (A) (A) (A) (A) (A) (A) (A) (A) (A)
                 (A) (A) (A) (A) (A) (A) (A) (A) (A) (A) (A) (A)
                 (A) (A) (A) (A) (A) (A) (A) (A) (A) (A) (A) (A)
                 (A) (A) (A) (A) (A) (A) (A) (A) (A) (A) (A) (A)
                 (A) (A) (A) (A) (A) (A) (A) (A) (A) (A) (A) (A)
                 (A) (A) (A) (A) (A) (A) (A) (A) (A) (A) (A) (A)
                 (A) (A) (A) (A) (A) (A) (A) (A) (A) (A) (A) (A)
                 (A) (A) (A) (A) (A) (A) (A) (A) (A) (A) (A) (A)
                 (A) (A) (A) (A) (A) (A) (A) (A) (A) (A) (A) (A)
                 (A) (A) (A) (A) (A) (A) (A) (A) (A) (A) (A) (A)
                 (A) (A) (A) (A) (A) (A) (A) (A) (A) (A) (A) (A)
                 (A) (A) (A) (A) (A) (A) (A) (A) (A) (A) (A) (A)
                 (A) (A) (A) (A) (A) (A) (A) (A) (A) (A) (A) (A)
                 (A) (A) (A) (A) (A) (A) (A) (A) (A) (A) (A) (A)
                 (A) (A) (A) (A) (A) (A) (A) (A) (A) (A) (A) (A)
                 (A) (A) (A) (A) (A) (A) (A) (A) (A) (A) (A) (A)
                 (A) (A) (A) (A) (A) (A) (A) (A) (A) (A) (A) (A)
                 (A) (A) (A) (A) (A) (A) (A) (A) (A) (A) (A) (A)
                 (A) (A) (A) (A) (A) (A) (A) (A) (A) (A) (A) (A)
                 (A) (A) (A) (A) (A) (A) (A) (A) (A) (A) (A) (A)
                 (A) (A) (A) (A) (A) (A) (A) (A) (A) (A) (A) (A)
                 (A) (A) (A) (A) (A) (A) (A) (A) (A) (A) (A) (A)
                 (A) (A) (A) (A) (A) (A) (A) (A) (A) (A) (A) (A)
                 (A) (A) (A) (A) (A) (A) (A) (A) (A) (A) (A) (A)
                 (A) (A) (A) (A) (A) (A) (A) (A) (A) (A) (A) (A)
                 (A) (A) (A) (A) (A) (A) (A) (A) (A) (A) (A) (A)
                 (A) (A) (A) (A) (A) (A) (A) (A) (A) (A) (A) (A)
                 (A) (A) (A) (A) (A) (A) (A) (A) (A) (A) (A) (A)
                 (A) (A) (A) (A) (A) (A) (A) (A) (A) (A) (A) (A)
                 (A) (A) (A) (A) (A) (A) (A) (A) (A) (A) (A) (A)
                 (A) (A) (A) (A) (A) (A) (A) (A) (A) (A) (A) (A)
                 (A) (A) (A) (A) (A) (A) (A) (A) (A) (A) (A) (A)
                 (A) (A) (A) (A) (A) (A) (A) (A) (A) (A) (A) (A)
                 (A) (A) (A) (A) (A) (A) (A) (A) (A) (A) (A) (A)
                 (A) (A) (A) (A) (A) (A) (A) (A) (A) (A) (A) (A)
                 (A) (A) (A) (A) (A) (A) (A) (A) (A) (A) (A) (A)
                 (A) (A) (A) (A) (A) (A) (A) (A) (A) (A) (A) (A)
                 (A) (A) (A) (A) (A) (A) (A) (A) (A) (A) (A) (A)
                 (A) (A) (A) (A) (A) (A) (A) (A) (A) (A) (A) (A)
                 (A) (A) (A) (A) (A) (A) (A) (A) (A) (A) (A) (A)
                 (A) (A) (A) (A) (A) (A) (A) (A) (A) (A) (A) (A)
                 (A) (A) (A) (A) (A) (A) (A) (A) (A) (A) (A) (A)
                 (A) (A) (A) (A) (A) (A) (A) (A) (A) (A) (A) (A)
                 (A) (A) (A) (A) (A) (A) (A) (A) (A) (A) (A) (A)
                 (A) (A) (A) (A) (A) (A) (A) (A) (A) (A) (A) (A)
                 (A) (A) (A) (A) (A) (A) (A) (A) (A) (A) (A) (A)
                 (A) (A) (A) (A) (A) (A) (A) (A) (A) (A) (A) (A)
                 (A) (A) (A) (A) (A) (A) (A) (A) (A) (A) (A) (A)
                 (A) (A) (A) (A) (A) (A) (A) (A) (A) (A) (A) (A)
                 (A) (A) (A) (A) (A) (A) (A) (A) (A) (A) (A) (A)
                 (A) (A) (A) (A) (A) (A) (A) (A) (A) (A) (A) (A)
                 (A) (A) (A) (A) (A) (A) (A) (A) (A) (A) (A) (A)
                 (A) (A) (A) (A) (A) (A) (A) (A) (A) (A) (A) (A)
                 (A) (A) (A) (A) (A) (A) (A) (A) (A) (A) (A) (A)
                 (A) (A) (A) (A) (A) (A) (A) (A) (A) (A) (A) (A)
                 (A) (A) (A) (A) (A) (A) (A) (A) (A) (A) (A) (A)
                 (A) (A) (A) (A) (A) (A) (A) (A) (A) (A) (A) (A)
                 (A) (A) (A) (A) (A) (A) (A) (A) (A) (A) (A) (A)
                 (A) (A) (A) (A) (A) (A) (A) (A) (A) (A) (A) (A)
                 (A) (A) (A) (A) (A) (A) (A) (A) (A) (A) (A) (A)
                 (A) (A) (A) (A) (A) (A) (A) (A) (A) (A) (A) (A)
                 (A) (A) (A) (A) (A) (A) (A) (A) (A) (A) (A) (A)
                 (A) (A) (A) (A) (A) (A) (A) (A) (A) (A) (A) (A)
                 (A) (A) (A) (A) (A) (A) (A) (A) (A) (A) (A) (A)
                 (A) (A) (A) (A) (A) (A) (A) (A) (A) (A) (A) (A)
                 (A) (A) (A) (A) (A) (A) (A) (A) (A) (A) (A) (A)
                 (A) (A) (A) (A) (A) (A) (A) (A) (A) (A) (A) (A)
                 (A) (A) (A) (A) (A) (A) (A) (A) (A) (A) (A) (A)
                 (A) (A) (A) (A) (A) (A) (A) (A) (A) (A) (A) (A)
                 (A) (A) (A) (A) (A) (A) (A) (A) (A) (A) (A) (A)
                 (A) (A) (A) (A) (A) (A) (A) (A) (A) (A) (A) (A)
                 (A) (A) (A) (A) (A) (A) (A) (A) (A) (A) (A) (A)
                 (A) (A) (A) (A) (A) (A) (A) (A) (A) (A) (A) (A)
                 (A) (A) (A) (A) (A) (A) (A) (A) (A) (A) (A) (A)
                 (A) (A) (A) (A) (A) (A) (A) (A) (A) (A) (A) (A)
                 (A) (A) (A) (A) (A) (A) (A) (A) (A) (A) (A) (A)
                 (A) (A) (A) (A) (A) (A) (A) (A) (A) (A) (A) (A)
                 (A) (A) (A) (A) (A) (A) (A) (A) (A) (A) (A) (A)
                 (A) (A) (A) (A) (A) (A) (A) (A) (A) (A) (A) (A)
                 (A) (A) (A) (A) (A) (A) (A) (A) (A) (A) (A) (A)
                 (A) (A) (A) (A) (A) (A) (A) (A) (A) (A) (A) (A)
                 (A) (A) (A) (A) (A) (A) (A) (A) (A) (A) (A) (A)
                 (A) (A) (A) (A) (A) (A) (A) (A) (A) (A) (A) (A)
                 (A) (A) (A) (A) (A) (A) (A) (A) (A) (A) (A) (A)
                 (A) (A)
 The electronic state is 1-A.
 Alpha  occ. eigenvalues -- -103.58212 -25.70945 -25.70572 -25.70567 -19.98204
 Alpha  occ. eigenvalues --  -15.13779 -15.11595 -11.08427 -10.97561 -10.90739
 Alpha  occ. eigenvalues --  -10.90317 -10.86376 -10.85938 -10.85203 -10.84734
 Alpha  occ. eigenvalues --  -10.84117 -10.83054 -10.81693 -10.15708  -7.73387
 Alpha  occ. eigenvalues --   -7.72914  -7.72902  -1.57368  -1.48086  -1.47609
 Alpha  occ. eigenvalues --   -1.29166  -1.16709  -1.13062  -1.09304  -1.03514
 Alpha  occ. eigenvalues --   -0.97769  -0.95909  -0.92074  -0.87663  -0.85702
 Alpha  occ. eigenvalues --   -0.79347  -0.79260  -0.75215  -0.74233  -0.73453
 Alpha  occ. eigenvalues --   -0.72132  -0.71671  -0.68493  -0.64334  -0.63806
 Alpha  occ. eigenvalues --   -0.61929  -0.61765  -0.61034  -0.59794  -0.58307
 Alpha  occ. eigenvalues --   -0.57422  -0.57366  -0.56821  -0.55772  -0.55520
 Alpha  occ. eigenvalues --   -0.54775  -0.53018  -0.52624  -0.51291  -0.49923
 Alpha  occ. eigenvalues --   -0.49674  -0.47585  -0.47015  -0.45604  -0.44711
 Alpha  occ. eigenvalues --   -0.44036  -0.41709  -0.41023  -0.39624  -0.36495
 Alpha  occ. eigenvalues --   -0.33200  -0.30023
 Alpha virt. eigenvalues --    0.00198   0.01534   0.02344   0.02570   0.02813
 Alpha virt. eigenvalues --    0.03197   0.03480   0.04336   0.04631   0.04724
 Alpha virt. eigenvalues --    0.04855   0.05146   0.05932   0.06680   0.06735
 Alpha virt. eigenvalues --    0.07097   0.07253   0.07609   0.08397   0.08823
 Alpha virt. eigenvalues --    0.09265   0.09349   0.09730   0.09843   0.10203
 Alpha virt. eigenvalues --    0.10622   0.10745   0.11228   0.11380   0.11695
 Alpha virt. eigenvalues --    0.11898   0.12206   0.12469   0.13063   0.13148
 Alpha virt. eigenvalues --    0.13641   0.13787   0.13844   0.14241   0.14648
 Alpha virt. eigenvalues --    0.14865   0.14992   0.15437   0.15605   0.15904
 Alpha virt. eigenvalues --    0.16274   0.16589   0.17435   0.17723   0.17957
 Alpha virt. eigenvalues --    0.18033   0.18538   0.18921   0.19228   0.19600
 Alpha virt. eigenvalues --    0.19712   0.19892   0.20297   0.20994   0.21657
 Alpha virt. eigenvalues --    0.21942   0.22260   0.22378   0.23146   0.23229
 Alpha virt. eigenvalues --    0.23422   0.23629   0.24035   0.24110   0.24392
 Alpha virt. eigenvalues --    0.24814   0.25074   0.25328   0.25652   0.25858
 Alpha virt. eigenvalues --    0.26381   0.26597   0.26781   0.27303   0.27582
 Alpha virt. eigenvalues --    0.28044   0.28482   0.28874   0.29132   0.29258
 Alpha virt. eigenvalues --    0.29600   0.29659   0.30286   0.30507   0.30721
 Alpha virt. eigenvalues --    0.30876   0.31180   0.31501   0.31687   0.31783
 Alpha virt. eigenvalues --    0.32044   0.32354   0.33090   0.33319   0.33342
 Alpha virt. eigenvalues --    0.33410   0.33892   0.34090   0.34367   0.34445
 Alpha virt. eigenvalues --    0.34980   0.35120   0.35711   0.36136   0.36279
 Alpha virt. eigenvalues --    0.36537   0.36821   0.36916   0.37447   0.37936
 Alpha virt. eigenvalues --    0.38053   0.38096   0.38357   0.38509   0.39153
 Alpha virt. eigenvalues --    0.39369   0.39481   0.39996   0.40214   0.40503
 Alpha virt. eigenvalues --    0.40866   0.41073   0.41150   0.41429   0.41758
 Alpha virt. eigenvalues --    0.41919   0.42474   0.42992   0.43220   0.43497
 Alpha virt. eigenvalues --    0.43754   0.44034   0.44230   0.44769   0.45060
 Alpha virt. eigenvalues --    0.45407   0.45685   0.46006   0.46217   0.46500
 Alpha virt. eigenvalues --    0.46705   0.46977   0.47191   0.47612   0.47746
 Alpha virt. eigenvalues --    0.48005   0.48502   0.48746   0.48885   0.49525
 Alpha virt. eigenvalues --    0.50010   0.50064   0.50577   0.50690   0.50794
 Alpha virt. eigenvalues --    0.51331   0.51585   0.52144   0.52201   0.52575
 Alpha virt. eigenvalues --    0.52946   0.53004   0.53579   0.54119   0.54335
 Alpha virt. eigenvalues --    0.55093   0.55363   0.55681   0.56237   0.56478
 Alpha virt. eigenvalues --    0.57048   0.57555   0.57813   0.58188   0.58614
 Alpha virt. eigenvalues --    0.58651   0.59611   0.60011   0.60361   0.60651
 Alpha virt. eigenvalues --    0.61191   0.61548   0.61630   0.62130   0.62866
 Alpha virt. eigenvalues --    0.62880   0.63600   0.63879   0.64833   0.65152
 Alpha virt. eigenvalues --    0.65306   0.65660   0.66354   0.66407   0.67190
 Alpha virt. eigenvalues --    0.67392   0.68295   0.68407   0.68806   0.69080
 Alpha virt. eigenvalues --    0.70032   0.70529   0.71079   0.71178   0.71494
 Alpha virt. eigenvalues --    0.71995   0.72557   0.72926   0.73220   0.74089
 Alpha virt. eigenvalues --    0.74192   0.74508   0.75271   0.76094   0.76626
 Alpha virt. eigenvalues --    0.76774   0.77165   0.77371   0.78123   0.78443
 Alpha virt. eigenvalues --    0.79306   0.79677   0.79951   0.80178   0.80266
 Alpha virt. eigenvalues --    0.80852   0.81420   0.81995   0.82143   0.82327
 Alpha virt. eigenvalues --    0.82626   0.82935   0.83170   0.83837   0.83972
 Alpha virt. eigenvalues --    0.84401   0.84757   0.85031   0.85294   0.85672
 Alpha virt. eigenvalues --    0.86010   0.86302   0.86418   0.86967   0.87158
 Alpha virt. eigenvalues --    0.87628   0.87781   0.88437   0.88706   0.89323
 Alpha virt. eigenvalues --    0.90092   0.90210   0.90383   0.90854   0.91137
 Alpha virt. eigenvalues --    0.91308   0.91803   0.91926   0.92318   0.92597
 Alpha virt. eigenvalues --    0.93569   0.93705   0.93950   0.94306   0.94687
 Alpha virt. eigenvalues --    0.95525   0.95882   0.96282   0.96580   0.96990
 Alpha virt. eigenvalues --    0.97387   0.97787   0.98212   0.98842   0.99339
 Alpha virt. eigenvalues --    0.99812   1.00046   1.00361   1.00983   1.01296
 Alpha virt. eigenvalues --    1.01428   1.01811   1.03132   1.03345   1.03653
 Alpha virt. eigenvalues --    1.03939   1.04304   1.04644   1.05052   1.05336
 Alpha virt. eigenvalues --    1.05583   1.06027   1.06581   1.06670   1.07380
 Alpha virt. eigenvalues --    1.07407   1.07584   1.07889   1.08453   1.08570
 Alpha virt. eigenvalues --    1.09323   1.09550   1.09839   1.10155   1.10756
 Alpha virt. eigenvalues --    1.11011   1.11104   1.11302   1.11933   1.12325
 Alpha virt. eigenvalues --    1.12372   1.12884   1.13133   1.14091   1.14287
 Alpha virt. eigenvalues --    1.14557   1.15129   1.15670   1.16291   1.16611
 Alpha virt. eigenvalues --    1.17067   1.17225   1.17511   1.17820   1.17962
 Alpha virt. eigenvalues --    1.18332   1.18908   1.19290   1.19874   1.20206
 Alpha virt. eigenvalues --    1.20607   1.21109   1.21516   1.21921   1.22468
 Alpha virt. eigenvalues --    1.22816   1.23285   1.24634   1.24924   1.25167
 Alpha virt. eigenvalues --    1.25828   1.26054   1.26499   1.27004   1.27583
 Alpha virt. eigenvalues --    1.28126   1.28257   1.28764   1.28927   1.29520
 Alpha virt. eigenvalues --    1.30226   1.30420   1.30837   1.31461   1.31826
 Alpha virt. eigenvalues --    1.32309   1.32442   1.33213   1.33417   1.34555
 Alpha virt. eigenvalues --    1.34882   1.34895   1.35234   1.35945   1.36435
 Alpha virt. eigenvalues --    1.37096   1.37410   1.37943   1.38396   1.38786
 Alpha virt. eigenvalues --    1.39567   1.40180   1.40487   1.40855   1.41656
 Alpha virt. eigenvalues --    1.42210   1.43160   1.43727   1.44188   1.45222
 Alpha virt. eigenvalues --    1.45426   1.45594   1.46105   1.46402   1.46812
 Alpha virt. eigenvalues --    1.47263   1.48293   1.48653   1.49509   1.50164
 Alpha virt. eigenvalues --    1.51031   1.51156   1.51193   1.51835   1.52878
 Alpha virt. eigenvalues --    1.53388   1.53774   1.54561   1.54994   1.55594
 Alpha virt. eigenvalues --    1.56222   1.56875   1.57210   1.57401   1.58070
 Alpha virt. eigenvalues --    1.58409   1.58507   1.59590   1.59900   1.60654
 Alpha virt. eigenvalues --    1.61030   1.61590   1.61830   1.62027   1.62571
 Alpha virt. eigenvalues --    1.62819   1.63217   1.63764   1.64413   1.64766
 Alpha virt. eigenvalues --    1.65329   1.65674   1.65813   1.66584   1.66917
 Alpha virt. eigenvalues --    1.67853   1.68357   1.68742   1.68950   1.69487
 Alpha virt. eigenvalues --    1.70144   1.70455   1.70597   1.71564   1.72337
 Alpha virt. eigenvalues --    1.73004   1.73480   1.73862   1.74411   1.74740
 Alpha virt. eigenvalues --    1.75371   1.76245   1.76545   1.76660   1.77470
 Alpha virt. eigenvalues --    1.77736   1.78291   1.79023   1.79361   1.79861
 Alpha virt. eigenvalues --    1.80268   1.80851   1.81346   1.81839   1.83165
 Alpha virt. eigenvalues --    1.83504   1.83935   1.84630   1.85237   1.85563
 Alpha virt. eigenvalues --    1.85939   1.86678   1.87137   1.87921   1.88285
 Alpha virt. eigenvalues --    1.88959   1.90267   1.90834   1.91334   1.91526
 Alpha virt. eigenvalues --    1.92058   1.92475   1.92773   1.93317   1.94044
 Alpha virt. eigenvalues --    1.94561   1.95190   1.96022   1.96507   1.97001
 Alpha virt. eigenvalues --    1.97330   1.97718   1.98641   1.99863   2.00208
 Alpha virt. eigenvalues --    2.00789   2.01998   2.02504   2.02801   2.03768
 Alpha virt. eigenvalues --    2.04091   2.04482   2.05625   2.07087   2.07450
 Alpha virt. eigenvalues --    2.08585   2.08792   2.09497   2.10658   2.11179
 Alpha virt. eigenvalues --    2.11884   2.13269   2.13384   2.14454   2.15113
 Alpha virt. eigenvalues --    2.15856   2.16865   2.17430   2.18216   2.18759
 Alpha virt. eigenvalues --    2.19210   2.19584   2.20113   2.20626   2.21458
 Alpha virt. eigenvalues --    2.21888   2.22707   2.23981   2.24862   2.25313
 Alpha virt. eigenvalues --    2.26624   2.27145   2.28466   2.29205   2.29389
 Alpha virt. eigenvalues --    2.30839   2.31634   2.33368   2.33742   2.34175
 Alpha virt. eigenvalues --    2.34494   2.35798   2.36810   2.37172   2.37399
 Alpha virt. eigenvalues --    2.38980   2.39163   2.39515   2.40631   2.40848
 Alpha virt. eigenvalues --    2.42355   2.43183   2.43195   2.44984   2.46141
 Alpha virt. eigenvalues --    2.46813   2.47701   2.48710   2.49217   2.50108
 Alpha virt. eigenvalues --    2.50637   2.51309   2.53395   2.53760   2.54773
 Alpha virt. eigenvalues --    2.55662   2.56597   2.57046   2.58163   2.58644
 Alpha virt. eigenvalues --    2.61078   2.61619   2.61901   2.63616   2.63887
 Alpha virt. eigenvalues --    2.65242   2.66285   2.67545   2.67868   2.69446
 Alpha virt. eigenvalues --    2.69828   2.69964   2.70988   2.71988   2.74652
 Alpha virt. eigenvalues --    2.75027   2.76363   2.76675   2.77779   2.77866
 Alpha virt. eigenvalues --    2.78561   2.80985   2.82898   2.83267   2.84621
 Alpha virt. eigenvalues --    2.84788   2.86510   2.86946   2.89517   2.90065
 Alpha virt. eigenvalues --    2.90872   2.92035   2.92501   2.92629   2.93112
 Alpha virt. eigenvalues --    2.94036   2.95225   2.96251   2.96884   2.97677
 Alpha virt. eigenvalues --    2.98170   2.99190   3.00211   3.01103   3.01608
 Alpha virt. eigenvalues --    3.03287   3.04164   3.06424   3.07514   3.08490
 Alpha virt. eigenvalues --    3.09158   3.10320   3.10726   3.11821   3.12861
 Alpha virt. eigenvalues --    3.13070   3.13678   3.14225   3.14726   3.16143
 Alpha virt. eigenvalues --    3.16300   3.17653   3.18723   3.20296   3.21080
 Alpha virt. eigenvalues --    3.22027   3.22431   3.23408   3.23642   3.24381
 Alpha virt. eigenvalues --    3.25666   3.26230   3.28258   3.29014   3.29763
 Alpha virt. eigenvalues --    3.30007   3.30514   3.31479   3.32619   3.32956
 Alpha virt. eigenvalues --    3.33448   3.34376   3.34627   3.35871   3.36164
 Alpha virt. eigenvalues --    3.36850   3.37479   3.38276   3.39226   3.39682
 Alpha virt. eigenvalues --    3.39921   3.40137   3.41819   3.42093   3.42909
 Alpha virt. eigenvalues --    3.44229   3.45019   3.46016   3.46337   3.47257
 Alpha virt. eigenvalues --    3.47363   3.48706   3.49269   3.50352   3.50722
 Alpha virt. eigenvalues --    3.51284   3.52270   3.52626   3.53670   3.54662
 Alpha virt. eigenvalues --    3.56785   3.57096   3.57806   3.58240   3.58769
 Alpha virt. eigenvalues --    3.59614   3.60407   3.60495   3.61312   3.62489
 Alpha virt. eigenvalues --    3.63005   3.63251   3.63830   3.64572   3.64739
 Alpha virt. eigenvalues --    3.66141   3.66483   3.66637   3.67742   3.68772
 Alpha virt. eigenvalues --    3.69053   3.69376   3.70948   3.71625   3.72504
 Alpha virt. eigenvalues --    3.73188   3.73874   3.74666   3.75331   3.75626
 Alpha virt. eigenvalues --    3.75752   3.76678   3.77821   3.78117   3.78974
 Alpha virt. eigenvalues --    3.80117   3.81348   3.81455   3.81785   3.82063
 Alpha virt. eigenvalues --    3.82748   3.83328   3.84126   3.84273   3.85091
 Alpha virt. eigenvalues --    3.85640   3.86613   3.87272   3.87586   3.87880
 Alpha virt. eigenvalues --    3.88172   3.89154   3.89690   3.91228   3.91688
 Alpha virt. eigenvalues --    3.93676   3.94376   3.95061   3.95517   3.96317
 Alpha virt. eigenvalues --    3.98268   3.98849   3.99389   4.00554   4.00686
 Alpha virt. eigenvalues --    4.01400   4.02321   4.02754   4.04614   4.05499
 Alpha virt. eigenvalues --    4.05862   4.06191   4.07153   4.07549   4.08139
 Alpha virt. eigenvalues --    4.09299   4.09513   4.10189   4.10779   4.11006
 Alpha virt. eigenvalues --    4.11678   4.11973   4.13073   4.13966   4.15210
 Alpha virt. eigenvalues --    4.15542   4.16345   4.16705   4.17963   4.19320
 Alpha virt. eigenvalues --    4.20216   4.21057   4.21533   4.22870   4.23026
 Alpha virt. eigenvalues --    4.23810   4.24504   4.24869   4.26053   4.26655
 Alpha virt. eigenvalues --    4.26763   4.28207   4.29052   4.29804   4.31038
 Alpha virt. eigenvalues --    4.31325   4.32425   4.32801   4.34007   4.34191
 Alpha virt. eigenvalues --    4.34459   4.35880   4.36817   4.37606   4.38477
 Alpha virt. eigenvalues --    4.39288   4.39809   4.40880   4.43198   4.43699
 Alpha virt. eigenvalues --    4.44754   4.46182   4.46784   4.47392   4.49885
 Alpha virt. eigenvalues --    4.50848   4.51789   4.51986   4.52454   4.53137
 Alpha virt. eigenvalues --    4.53852   4.55572   4.56035   4.56816   4.57576
 Alpha virt. eigenvalues --    4.58653   4.59924   4.60688   4.61324   4.61721
 Alpha virt. eigenvalues --    4.62955   4.63275   4.65070   4.65905   4.65993
 Alpha virt. eigenvalues --    4.67191   4.69257   4.69966   4.70532   4.70796
 Alpha virt. eigenvalues --    4.71738   4.72537   4.74137   4.74805   4.75517
 Alpha virt. eigenvalues --    4.75904   4.77321   4.79326   4.80763   4.81059
 Alpha virt. eigenvalues --    4.81786   4.83531   4.83911   4.85562   4.86277
 Alpha virt. eigenvalues --    4.87115   4.87687   4.89012   4.89823   4.90683
 Alpha virt. eigenvalues --    4.91805   4.92858   4.94250   4.94643   4.95554
 Alpha virt. eigenvalues --    4.97328   4.98735   4.99376   5.00228   5.00972
 Alpha virt. eigenvalues --    5.03244   5.03789   5.04150   5.05151   5.06229
 Alpha virt. eigenvalues --    5.07409   5.07928   5.09198   5.11530   5.11872
 Alpha virt. eigenvalues --    5.12186   5.13725   5.13925   5.14642   5.15556
 Alpha virt. eigenvalues --    5.15824   5.16652   5.17936   5.21669   5.22785
 Alpha virt. eigenvalues --    5.22987   5.24293   5.25221   5.27816   5.29312
 Alpha virt. eigenvalues --    5.31140   5.32162   5.34126   5.34829   5.36987
 Alpha virt. eigenvalues --    5.38427   5.40151   5.41336   5.43554   5.44683
 Alpha virt. eigenvalues --    5.45248   5.46807   5.48283   5.48775   5.50518
 Alpha virt. eigenvalues --    5.51755   5.53672   5.54374   5.57604   5.58154
 Alpha virt. eigenvalues --    5.58697   5.58813   5.60208   5.60521   5.61531
 Alpha virt. eigenvalues --    5.64962   5.65171   5.66587   5.68444   5.69148
 Alpha virt. eigenvalues --    5.70955   5.71583   5.72420   5.74338   5.76687
 Alpha virt. eigenvalues --    5.78561   5.79154   5.79573   5.82489   5.85496
 Alpha virt. eigenvalues --    5.87215   5.91720   5.93490   5.96755   5.97142
 Alpha virt. eigenvalues --    5.98808   5.99792   6.00245   6.01690   6.03239
 Alpha virt. eigenvalues --    6.04791   6.06311   6.08625   6.11161   6.12618
 Alpha virt. eigenvalues --    6.14376   6.17610   6.21095   6.21668   6.23586
 Alpha virt. eigenvalues --    6.25589   6.27718   6.30579   6.38431   6.40961
 Alpha virt. eigenvalues --    6.47978   6.50667   6.54047   6.57539   6.58556
 Alpha virt. eigenvalues --    6.59918   6.62047   6.63439   6.66660   6.67656
 Alpha virt. eigenvalues --    6.69879   6.71775   6.76396   6.81048   6.82552
 Alpha virt. eigenvalues --    6.84500   6.88637   6.90610   6.90857   7.03948
 Alpha virt. eigenvalues --    7.07273   7.10966   7.11606   7.14623   7.19569
 Alpha virt. eigenvalues --    7.23930   7.29803   7.32490   7.44943   7.52421
 Alpha virt. eigenvalues --    7.53403   7.61204   7.78435   7.80814   7.93329
 Alpha virt. eigenvalues --    8.37754   8.72399   8.75666   8.78480   8.80414
 Alpha virt. eigenvalues --    8.82107   8.87564   8.96622   8.98186   9.08938
 Alpha virt. eigenvalues --    9.11777   9.13334   9.13882   9.14934   9.17121
 Alpha virt. eigenvalues --    9.19590   9.20024   9.21712   9.22819   9.28930
 Alpha virt. eigenvalues --    9.29453   9.29955   9.30441   9.34563   9.37693
 Alpha virt. eigenvalues --    9.38734   9.39552   9.46690   9.48258   9.49872
 Alpha virt. eigenvalues --    9.51944   9.60677   9.70800   9.73206   9.79288
 Alpha virt. eigenvalues --    9.93070   9.99968  15.72023  15.75041  15.95953
 Alpha virt. eigenvalues --   16.28906  16.47003  16.64322  17.19530  17.37794
 Alpha virt. eigenvalues --   17.64804  18.05746  18.37463  18.92062  19.32883
 Alpha virt. eigenvalues --   19.79967  20.74446  21.00786  21.50546
          Condensed to atoms (all electrons):
               1          2          3          4          5          6
     1  C    9.237087  -0.235723  -0.921651   0.123840  -0.079309  -0.074011
     2  N   -0.235723   8.598804   0.252124  -0.031521  -0.495031  -0.182964
     3  C   -0.921651   0.252124   6.512649   0.239528   0.258644  -0.213786
     4  O    0.123840  -0.031521   0.239528   8.904858  -0.243919  -0.058896
     5  N   -0.079309  -0.495031   0.258644  -0.243919   7.493969   0.218696
     6  C   -0.074011  -0.182964  -0.213786  -0.058896   0.218696   5.716845
     7  C   -0.021762  -0.051264   0.045872  -0.012543  -0.122218   0.084684
     8  C    0.000800   0.005119  -0.005711   0.000930  -0.008198  -0.025584
     9  C   -1.194274  -0.299732  -0.214767  -0.136172  -0.014840  -0.038051
    10  C    0.345131   0.117182   0.047843   0.032478   0.023473   0.005763
    11  C   -0.243011  -0.029064  -0.050021   0.015361  -0.021029  -0.005208
    12  C   -0.344313   0.219413   0.098890  -0.008965   0.045729   0.006455
    13  C   -0.359520  -0.482194   0.071254   0.019621  -0.106051  -0.006644
    14  H    0.098299   0.187563  -0.125334   0.023226   0.130498   0.005704
    15  H   -0.037810   0.086161  -0.059551   0.007195   0.182098   0.007052
    16  H    0.002830  -0.002390  -0.075212   0.001125  -0.022477   0.431480
    17  H   -0.019562   0.016239   0.013782   0.011560  -0.081174   0.310493
    18  H   -0.001317  -0.011720   0.002736  -0.000126  -0.009934   0.028355
    19  H   -0.004539  -0.001438   0.021536   0.003006  -0.052541  -0.028366
    20  H    0.000600   0.000062   0.002619  -0.000209   0.002534  -0.006106
    21  H   -0.000008  -0.000416   0.000649  -0.000119  -0.001230  -0.003654
    22  H   -0.000043   0.000475   0.003344   0.000067   0.003309  -0.006863
    23  H   -0.742621  -0.142546  -0.034364  -0.121169   0.059920  -0.022051
    24  Cl   0.012674  -0.045638  -0.008646   0.000067  -0.002886  -0.000198
    25  H   -0.272911  -0.079849  -0.031267   0.001627  -0.025866  -0.005769
    26  C    0.052190  -0.023970  -0.007088   0.003556   0.000141  -0.000272
    27  H    0.012556   0.016874   0.002330   0.000336  -0.000138  -0.000056
    28  F    0.003025  -0.000718   0.000788  -0.000207   0.000046   0.000044
    29  F   -0.010964  -0.007219  -0.002810   0.000605  -0.000336  -0.000182
    30  F   -0.030580   0.006655   0.003001  -0.001280   0.001350  -0.000220
               7          8          9         10         11         12
     1  C   -0.021762   0.000800  -1.194274   0.345131  -0.243011  -0.344313
     2  N   -0.051264   0.005119  -0.299732   0.117182  -0.029064   0.219413
     3  C    0.045872  -0.005711  -0.214767   0.047843  -0.050021   0.098890
     4  O   -0.012543   0.000930  -0.136172   0.032478   0.015361  -0.008965
     5  N   -0.122218  -0.008198  -0.014840   0.023473  -0.021029   0.045729
     6  C    0.084684  -0.025584  -0.038051   0.005763  -0.005208   0.006455
     7  C    5.516856   0.119725  -0.002715   0.000202  -0.000481   0.000937
     8  C    0.119725   5.751409   0.000210  -0.000002   0.000039  -0.000077
     9  C   -0.002715   0.000210  10.053709  -1.285152   0.334083  -0.181782
    10  C    0.000202  -0.000002  -1.285152   8.773272  -1.262553   0.041044
    11  C   -0.000481   0.000039   0.334083  -1.262553   7.985603  -0.176950
    12  C    0.000937  -0.000077  -0.181782   0.041044  -0.176950   6.545162
    13  C    0.002096  -0.000075  -0.248775  -0.403224   0.105774  -0.128508
    14  H    0.003286  -0.000312  -0.066069   0.014432  -0.000954  -0.014824
    15  H   -0.017790   0.003698   0.001438   0.001941  -0.000581   0.001968
    16  H   -0.019339  -0.007199  -0.001494  -0.000384  -0.000246   0.000313
    17  H    0.005289  -0.005491   0.004221  -0.001162  -0.000354   0.000283
    18  H    0.427669  -0.024435  -0.000340   0.000047  -0.000023  -0.000034
    19  H    0.420790  -0.020015   0.000162   0.000106  -0.000071   0.000134
    20  H    0.032844   0.372208  -0.000052   0.000062   0.000011  -0.000014
    21  H   -0.028842   0.447657  -0.000001  -0.000009  -0.000002   0.000008
    22  H    0.029130   0.374136   0.000277  -0.000008   0.000008  -0.000006
    23  H    0.000580  -0.000163   0.468915  -0.562152  -0.120145   0.086214
    24  Cl  -0.000016   0.000001   0.057074  -0.098218  -0.050539  -0.086792
    25  H   -0.000370  -0.000009   0.122247  -0.056571   0.068460  -0.401470
    26  C   -0.000013  -0.000004  -0.416756  -0.676669   0.033904  -0.030350
    27  H   -0.000016   0.000002  -0.005867   0.016754   0.130591  -0.125235
    28  F    0.000001  -0.000000  -0.029172   0.021493  -0.000400  -0.007364
    29  F   -0.000002   0.000000  -0.009238  -0.040196   0.036671  -0.011125
    30  F    0.000011  -0.000004  -0.036165   0.051827   0.013766  -0.007425
              13         14         15         16         17         18
     1  C   -0.359520   0.098299  -0.037810   0.002830  -0.019562  -0.001317
     2  N   -0.482194   0.187563   0.086161  -0.002390   0.016239  -0.011720
     3  C    0.071254  -0.125334  -0.059551  -0.075212   0.013782   0.002736
     4  O    0.019621   0.023226   0.007195   0.001125   0.011560  -0.000126
     5  N   -0.106051   0.130498   0.182098  -0.022477  -0.081174  -0.009934
     6  C   -0.006644   0.005704   0.007052   0.431480   0.310493   0.028355
     7  C    0.002096   0.003286  -0.017790  -0.019339   0.005289   0.427669
     8  C   -0.000075  -0.000312   0.003698  -0.007199  -0.005491  -0.024435
     9  C   -0.248775  -0.066069   0.001438  -0.001494   0.004221  -0.000340
    10  C   -0.403224   0.014432   0.001941  -0.000384  -0.001162   0.000047
    11  C    0.105774  -0.000954  -0.000581  -0.000246  -0.000354  -0.000023
    12  C   -0.128508  -0.014824   0.001968   0.000313   0.000283  -0.000034
    13  C    7.994098  -0.013079   0.007458  -0.000522   0.001738  -0.000197
    14  H   -0.013079   0.855451  -0.031458   0.001224  -0.001063  -0.000030
    15  H    0.007458  -0.031458   0.770935  -0.010065   0.029547  -0.009522
    16  H   -0.000522   0.001224  -0.010065   0.394443   0.027929   0.003526
    17  H    0.001738  -0.001063   0.029547   0.027929   0.410842  -0.006282
    18  H   -0.000197  -0.000030  -0.009522   0.003526  -0.006282   0.367837
    19  H    0.000541  -0.000453   0.013810  -0.014116   0.014213   0.000534
    20  H   -0.000011   0.000021  -0.000141  -0.006913  -0.011295   0.003024
    21  H   -0.000028  -0.000014   0.000554   0.000855   0.000757  -0.003378
    22  H    0.000031  -0.000092  -0.000086  -0.009099  -0.007482   0.000625
    23  H   -0.225746  -0.025973   0.000598  -0.004227  -0.000735  -0.000076
    24  Cl   0.121136   0.000762  -0.000147  -0.000008  -0.000010   0.000006
    25  H    0.339308  -0.065440  -0.002419   0.000060  -0.000332  -0.000040
    26  C    0.070893   0.000916   0.000065  -0.000242  -0.000148  -0.000004
    27  H   -0.055801  -0.000254   0.000022  -0.000008  -0.000007  -0.000002
    28  F    0.001889   0.000104  -0.000033   0.000003   0.000004   0.000002
    29  F    0.014532   0.000229  -0.000004  -0.000015  -0.000025  -0.000000
    30  F   -0.002800   0.000265  -0.000081  -0.000022  -0.000014   0.000001
              19         20         21         22         23         24
     1  C   -0.004539   0.000600  -0.000008  -0.000043  -0.742621   0.012674
     2  N   -0.001438   0.000062  -0.000416   0.000475  -0.142546  -0.045638
     3  C    0.021536   0.002619   0.000649   0.003344  -0.034364  -0.008646
     4  O    0.003006  -0.000209  -0.000119   0.000067  -0.121169   0.000067
     5  N   -0.052541   0.002534  -0.001230   0.003309   0.059920  -0.002886
     6  C   -0.028366  -0.006106  -0.003654  -0.006863  -0.022051  -0.000198
     7  C    0.420790   0.032844  -0.028842   0.029130   0.000580  -0.000016
     8  C   -0.020015   0.372208   0.447657   0.374136  -0.000163   0.000001
     9  C    0.000162  -0.000052  -0.000001   0.000277   0.468915   0.057074
    10  C    0.000106   0.000062  -0.000009  -0.000008  -0.562152  -0.098218
    11  C   -0.000071   0.000011  -0.000002   0.000008  -0.120145  -0.050539
    12  C    0.000134  -0.000014   0.000008  -0.000006   0.086214  -0.086792
    13  C    0.000541  -0.000011  -0.000028   0.000031  -0.225746   0.121136
    14  H   -0.000453   0.000021  -0.000014  -0.000092  -0.025973   0.000762
    15  H    0.013810  -0.000141   0.000554  -0.000086   0.000598  -0.000147
    16  H   -0.014116  -0.006913   0.000855  -0.009099  -0.004227  -0.000008
    17  H    0.014213  -0.011295   0.000757  -0.007482  -0.000735  -0.000010
    18  H    0.000534   0.003024  -0.003378   0.000625  -0.000076   0.000006
    19  H    0.398091  -0.002579   0.001229  -0.001279   0.000090  -0.000007
    20  H   -0.002579   0.316824  -0.001933   0.023155   0.000038  -0.000000
    21  H    0.001229  -0.001933   0.311538  -0.000887  -0.000005  -0.000000
    22  H   -0.001279   0.023155  -0.000887   0.313033   0.000106   0.000000
    23  H    0.000090   0.000038  -0.000005   0.000106   2.118562  -0.002806
    24  Cl  -0.000007  -0.000000  -0.000000   0.000000  -0.002806  17.593245
    25  H   -0.000063   0.000009  -0.000005  -0.000004  -0.001274  -0.030815
    26  C    0.000009   0.000006  -0.000001   0.000004  -0.150589   0.000035
    27  H   -0.000000   0.000000   0.000000   0.000000  -0.005963  -0.036949
    28  F   -0.000000  -0.000000  -0.000000  -0.000000  -0.006128  -0.000075
    29  F   -0.000001   0.000000  -0.000000   0.000000  -0.001207   0.000128
    30  F    0.000001   0.000000  -0.000000  -0.000000   0.017026   0.000003
              25         26         27         28         29         30
     1  C   -0.272911   0.052190   0.012556   0.003025  -0.010964  -0.030580
     2  N   -0.079849  -0.023970   0.016874  -0.000718  -0.007219   0.006655
     3  C   -0.031267  -0.007088   0.002330   0.000788  -0.002810   0.003001
     4  O    0.001627   0.003556   0.000336  -0.000207   0.000605  -0.001280
     5  N   -0.025866   0.000141  -0.000138   0.000046  -0.000336   0.001350
     6  C   -0.005769  -0.000272  -0.000056   0.000044  -0.000182  -0.000220
     7  C   -0.000370  -0.000013  -0.000016   0.000001  -0.000002   0.000011
     8  C   -0.000009  -0.000004   0.000002  -0.000000   0.000000  -0.000004
     9  C    0.122247  -0.416756  -0.005867  -0.029172  -0.009238  -0.036165
    10  C   -0.056571  -0.676669   0.016754   0.021493  -0.040196   0.051827
    11  C    0.068460   0.033904   0.130591  -0.000400   0.036671   0.013766
    12  C   -0.401470  -0.030350  -0.125235  -0.007364  -0.011125  -0.007425
    13  C    0.339308   0.070893  -0.055801   0.001889   0.014532  -0.002800
    14  H   -0.065440   0.000916  -0.000254   0.000104   0.000229   0.000265
    15  H   -0.002419   0.000065   0.000022  -0.000033  -0.000004  -0.000081
    16  H    0.000060  -0.000242  -0.000008   0.000003  -0.000015  -0.000022
    17  H   -0.000332  -0.000148  -0.000007   0.000004  -0.000025  -0.000014
    18  H   -0.000040  -0.000004  -0.000002   0.000002  -0.000000   0.000001
    19  H   -0.000063   0.000009  -0.000000  -0.000000  -0.000001   0.000001
    20  H    0.000009   0.000006   0.000000  -0.000000   0.000000   0.000000
    21  H   -0.000005  -0.000001   0.000000  -0.000000  -0.000000  -0.000000
    22  H   -0.000004   0.000004   0.000000  -0.000000   0.000000  -0.000000
    23  H   -0.001274  -0.150589  -0.005963  -0.006128  -0.001207   0.017026
    24  Cl  -0.030815   0.000035  -0.036949  -0.000075   0.000128   0.000003
    25  H    0.993819  -0.002317  -0.010383  -0.000023   0.000096   0.000107
    26  C   -0.002317   5.443339  -0.075064   0.207592   0.222712   0.173423
    27  H   -0.010383  -0.075064   0.666372  -0.010333  -0.008788   0.004992
    28  F   -0.000023   0.207592  -0.010333   9.296172  -0.011007  -0.056860
    29  F    0.000096   0.222712  -0.008788  -0.011007   9.298364  -0.059218
    30  F    0.000107   0.173423   0.004992  -0.056860  -0.059218   9.301426
 Mulliken charges:
               1
     1  C    0.704897
     2  N   -0.383273
     3  C    0.172619
     4  O   -0.773860
     5  N   -0.133230
     6  C   -0.136689
     7  C   -0.412604
     8  C   -0.978655
     9  C   -0.860921
    10  C    0.893250
    11  C   -0.762638
    12  C    0.478685
    13  C   -0.717191
    14  H    0.023373
    15  H    0.055149
    16  H    0.310188
    17  H    0.288238
    18  H    0.233098
    19  H    0.251216
    20  H    0.275235
    21  H    0.277285
    22  H    0.278147
    23  H    0.417891
    24  Cl  -0.421382
    25  H    0.461465
    26  C    1.174703
    27  H    0.484034
    28  F   -0.408842
    29  F   -0.410998
    30  F   -0.379187
 Sum of Mulliken charges =  -0.00000
 Mulliken charges with hydrogens summed into heavy atoms:
               1
     1  C    0.704897
     2  N   -0.359901
     3  C    0.172619
     4  O   -0.773860
     5  N   -0.078081
     6  C    0.461737
     7  C    0.071710
     8  C   -0.147989
     9  C   -0.443030
    10  C    0.893250
    11  C   -0.278604
    12  C    0.478685
    13  C   -0.255726
    24  Cl  -0.421382
    26  C    1.174703
    28  F   -0.408842
    29  F   -0.410998
    30  F   -0.379187
 Electronic spatial extent (au):  <R**2>=           8151.8061
 Charge=             -0.0000 electrons
 Dipole moment (field-independent basis, Debye):
    X=              5.0422    Y=              4.3123    Z=              1.0802  Tot=              6.7221
 Quadrupole moment (field-independent basis, Debye-Ang):
   XX=           -100.2197   YY=           -115.2546   ZZ=           -113.9043
   XY=              5.5357   XZ=              3.3694   YZ=              0.5957
 Traceless Quadrupole moment (field-independent basis, Debye-Ang):
   XX=              9.5731   YY=             -5.4617   ZZ=             -4.1114
   XY=              5.5357   XZ=              3.3694   YZ=              0.5957
 Octapole moment (field-independent basis, Debye-Ang**2):
  XXX=             65.0658  YYY=            -16.9692  ZZZ=             -0.3785  XYY=             13.7589
  XXY=              8.5233  XXZ=              7.9168  XZZ=             -4.7856  YZZ=            -14.4289
  YYZ=              3.2439  XYZ=              3.2295
 Hexadecapole moment (field-independent basis, Debye-Ang**3):
 XXXX=          -7691.0067 YYYY=          -2002.3612 ZZZZ=           -209.1763 XXXY=            108.3295
 XXXZ=             24.8460 YYYX=            125.3330 YYYZ=              3.8188 ZZZX=             -0.4382
 ZZZY=              0.2661 XXYY=          -1756.5938 XXZZ=          -1412.7571 YYZZ=           -376.8824
 XXYZ=             15.4225 YYXZ=             10.4727 ZZXY=             29.4183
 N-N= 1.418715518796D+03 E-N=-6.065309589309D+03  KE= 1.364301054009D+03
 Unable to Open any file for archive entry.
 1\1\GINC-GADI-HMEM-CLX-0025\SP\RDSDPBEP86-FC\Aug-CC-pVTZ\C11H12Cl1F3N2
 O1\HIO507\21-Sep-2020\0\\# DSDPBEP86/AUG-cc-PVTZ SCF=Tight INT(grid=ul
 trafine) MaxDisk=1400000MB\\NM3.DSDPBEP86_AUG-cc-PVTZ\\0,1\C,0,-6.0172
 036339,1.1872070518,0.1983959368\N,0,-4.7587625677,0.5930489656,0.0579
 894263\C,0,-3.519246268,1.2216443173,0.1495818385\O,0,-3.3759427487,2.
 3975115375,0.3995520635\N,0,-2.4661513407,0.3623029774,-0.0439817964\C
 ,0,-1.1150815817,0.9078869651,-0.0939118235\C,0,-0.0881682808,-0.21475
 93715,-0.0991538557\C,0,1.3357328559,0.330488914,-0.1462115899\C,0,-6.
 217806334,2.5735593582,0.2138962626\C,0,-7.5118526204,3.0570830597,0.3
 268234319\C,0,-8.6211165558,2.2230973444,0.4246094565\C,0,-8.396965986
 5,0.8574148908,0.406656791\C,0,-7.1187161563,0.3328397602,0.2970709479
 \H,0,-4.7550776509,-0.4157984814,0.0652564864\H,0,-2.630012744,-0.4738
 084885,-0.5863217496\H,0,-0.9841349354,1.5436059956,0.7830940832\H,0,-
 0.9897209083,1.5499389103,-0.9738742421\H,0,-0.2593691538,-0.865973332
 1,-0.9646794663\H,0,-0.2297407086,-0.8312330708,0.7934318835\H,0,1.499
 8630818,0.9292699996,-1.0452451623\H,0,2.0689899774,-0.4772463353,-0.1
 459043899\H,0,1.5403421068,0.9665647032,0.7181337156\H,0,-5.3783539209
 ,3.2476789166,0.1493650524\Cl,0,-9.7463194848,-0.2355593436,0.52569535
 27\H,0,-6.9851051851,-0.7435640815,0.2881827441\C,0,-7.7616830585,4.54
 11122719,0.3420995719\H,0,-9.6237238277,2.622634886,0.5125733089\F,0,-
 8.5511706811,4.9127188941,-0.6796423089\F,0,-8.3916044626,4.9192843091
 ,1.4662130987\F,0,-6.637607226,5.2555184761,0.2554849325\\Version=ES64
 L-G16RevC.01\State=1-A\HF=-1367.7711643\MP2=-1369.4662408\RMSD=7.785e-
 09\PG=C01 [X(C11H12Cl1F3N2O1)]\\@
 The archive entry for this job was punched.


 THE MORE PROGRESS PHYSICAL SCIENCES MAKE, THE MORE THEY TEND TO ENTER
 THE DOMAIN OF MATHEMATICS, WHICH IS A KIND OF CENTRE TO WHICH THEY ALL
 CONVERGE.  WE MAY EVEN JUDGE THE DEGREE OF PERFECTION TO WHICH A 
 SCIENCE HAS ARRIVED BY THE FACILITY WITH WHICH IT MAY BE SUBMITTED
 TO CALCULATION.

                               -- ADOLPHE QUETELET, 1796-1874
 Job cpu time:       1 days  7 hours 25 minutes  6.2 seconds.
 Elapsed time:       0 days  5 hours 14 minutes 16.2 seconds.
 File lengths (MBytes):  RWF=    635 Int=      0 D2E=      0 Chk=     81 Scr=      1
 Normal termination of Gaussian 16 at Mon Sep 21 21:32:39 2020.
