 Entering Gaussian System, Link 0=/apps/gaussian/g16c01/g16/g16
 Initial command:
 /apps/gaussian/g16c01/g16/l1.exe "/jobfs/11271736.gadi-pbs/Gau-2383473.inp" -scrdir="/jobfs/11271736.gadi-pbs/"
 Entering Link 1 = /apps/gaussian/g16c01/g16/l1.exe PID=   2383474.
  
 Copyright (c) 1988-2019, Gaussian, Inc.  All Rights Reserved.
  
 This is part of the Gaussian(R) 16 program.  It is based on
 the Gaussian(R) 09 system (copyright 2009, Gaussian, Inc.),
 the Gaussian(R) 03 system (copyright 2003, Gaussian, Inc.),
 the Gaussian(R) 98 system (copyright 1998, Gaussian, Inc.),
 the Gaussian(R) 94 system (copyright 1995, Gaussian, Inc.),
 the Gaussian 92(TM) system (copyright 1992, Gaussian, Inc.),
 the Gaussian 90(TM) system (copyright 1990, Gaussian, Inc.),
 the Gaussian 88(TM) system (copyright 1988, Gaussian, Inc.),
 the Gaussian 86(TM) system (copyright 1986, Carnegie Mellon
 University), and the Gaussian 82(TM) system (copyright 1983,
 Carnegie Mellon University). Gaussian is a federally registered
 trademark of Gaussian, Inc.
  
 This software contains proprietary and confidential information,
 including trade secrets, belonging to Gaussian, Inc.
  
 This software is provided under written license and may be
 used, copied, transmitted, or stored only in accord with that
 written license.
  
 The following legend is applicable only to US Government
 contracts under FAR:
  
                    RESTRICTED RIGHTS LEGEND
  
 Use, reproduction and disclosure by the US Government is
 subject to restrictions as set forth in subparagraphs (a)
 and (c) of the Commercial Computer Software - Restricted
 Rights clause in FAR 52.227-19.
  
 Gaussian, Inc.
 340 Quinnipiac St., Bldg. 40, Wallingford CT 06492
  
  
 ---------------------------------------------------------------
 Warning -- This program may not be used in any manner that
 competes with the business of Gaussian, Inc. or will provide
 assistance to any competitor of Gaussian, Inc.  The licensee
 of this program is prohibited from giving any competitor of
 Gaussian, Inc. access to this program.  By using this program,
 the user acknowledges that Gaussian, Inc. is engaged in the
 business of creating and licensing software in the field of
 computational chemistry and represents and warrants to the
 licensee that it is not a competitor of Gaussian, Inc. and that
 it will not use this program in any manner prohibited above.
 ---------------------------------------------------------------
  

 Cite this work as:
 Gaussian 16, Revision C.01,
 M. J. Frisch, G. W. Trucks, H. B. Schlegel, G. E. Scuseria, 
 M. A. Robb, J. R. Cheeseman, G. Scalmani, V. Barone, 
 G. A. Petersson, H. Nakatsuji, X. Li, M. Caricato, A. V. Marenich, 
 J. Bloino, B. G. Janesko, R. Gomperts, B. Mennucci, H. P. Hratchian, 
 J. V. Ortiz, A. F. Izmaylov, J. L. Sonnenberg, D. Williams-Young, 
 F. Ding, F. Lipparini, F. Egidi, J. Goings, B. Peng, A. Petrone, 
 T. Henderson, D. Ranasinghe, V. G. Zakrzewski, J. Gao, N. Rega, 
 G. Zheng, W. Liang, M. Hada, M. Ehara, K. Toyota, R. Fukuda, 
 J. Hasegawa, M. Ishida, T. Nakajima, Y. Honda, O. Kitao, H. Nakai, 
 T. Vreven, K. Throssell, J. A. Montgomery, Jr., J. E. Peralta, 
 F. Ogliaro, M. J. Bearpark, J. J. Heyd, E. N. Brothers, K. N. Kudin, 
 V. N. Staroverov, T. A. Keith, R. Kobayashi, J. Normand, 
 K. Raghavachari, A. P. Rendell, J. C. Burant, S. S. Iyengar, 
 J. Tomasi, M. Cossi, J. M. Millam, M. Klene, C. Adamo, R. Cammi, 
 J. W. Ochterski, R. L. Martin, K. Morokuma, O. Farkas, 
 J. B. Foresman, and D. J. Fox, Gaussian, Inc., Wallingford CT, 2019.
 
 ******************************************
 Gaussian 16:  ES64L-G16RevC.01  3-Jul-2019
                15-Sep-2020 
 ******************************************
 %NprocShared=6
 Will use up to    6 processors via shared memory.
 %Mem=16000MB
 %chk=NM3.M062X_6-311pGd_opt_water_GD3.chk
 ----------------------------------------------------------------------
 # M062X/6-311+G* SCF=Tight INT(grid=ultrafine) OPT IOP(2/17=4) Empiric
 alDispersion=GD3 SCRF=(SMD,Solvent=h2o) MaxDisk=10000MB
 ----------------------------------------------------------------------
 1/18=20,19=15,26=6,38=1/1,3;
 2/9=110,12=2,17=4,18=5,40=1/2;
 3/5=4,6=6,7=11,11=2,25=1,30=1,70=32201,71=1,72=1,74=-55,75=-5,124=31/1,2,3;
 4//1;
 5/5=2,32=2,38=5,53=1/2;
 6/7=2,8=2,9=2,10=2,28=1/1;
 7//1,2,3,16;
 1/18=20,19=15,26=6/3(2);
 2/9=110,17=4/2;
 99//99;
 2/9=110,17=4/2;
 3/5=4,6=6,7=11,11=2,25=1,30=1,70=32205,71=1,72=1,74=-55,75=-5,124=31/1,2,3;
 4/5=5,16=3,69=1/1;
 5/5=2,32=2,38=5,53=1/2;
 7//1,2,3,16;
 1/18=20,19=15,26=6/3(-5);
 2/9=110,17=4/2;
 6/7=2,8=2,9=2,10=2,19=2,28=1/1;
 99/9=1/99;
 --------------------------------
 NM3.M062X_6-311pGd_opt_water_GD3
 --------------------------------
 Symbolic Z-matrix:
 Charge =  0 Multiplicity = 1
 C                    -6.01209   1.19409   0.11635 
 N                    -4.76398   0.6165   -0.13317 
 C                    -3.53698   1.20394   0.12882 
 O                    -3.42522   2.35613   0.55378 
 N                    -2.47309   0.41502  -0.11529 
 C                    -1.11345   0.9009    0.08665 
 C                    -0.10816  -0.18104  -0.27018 
 C                     1.32047   0.31074  -0.07304 
 C                    -6.23634   2.57339   0.03998 
 C                    -7.5131    3.05895   0.27639 
 C                    -8.59069   2.22691   0.56565 
 C                    -8.34295   0.86521   0.61288 
 C                    -7.07897   0.33775   0.40114 
 H                    -4.7684   -0.38699  -0.27212 
 H                    -2.60451  -0.50783  -0.50683 
 H                    -0.98844   1.20209   1.13038 
 H                    -0.94752   1.78814  -0.53152 
 H                    -0.25981  -0.48527  -1.31061 
 H                    -0.29117  -1.06279   0.35166 
 H                     1.52733   1.17868  -0.70438 
 H                     2.04234  -0.46736  -0.32769 
 H                     1.49534   0.6027    0.96566 
 H                    -5.42985   3.24529  -0.20909 
 Cl                   -9.65881  -0.22509   0.96845 
 H                    -6.91337  -0.73228   0.45755 
 C                    -7.78052   4.53306   0.18617 
 H                    -9.58266   2.62518   0.74218 
 F                    -8.5879    4.83167  -0.84934 
 F                    -8.39675   4.99928   1.28693 
 F                    -6.66648   5.25752   0.02784 
 

 GradGradGradGradGradGradGradGradGradGradGradGradGradGradGradGradGradGrad
 Berny optimization.
 Initialization pass.
                           ----------------------------
                           !    Initial Parameters    !
                           ! (Angstroms and Degrees)  !
 --------------------------                            --------------------------
 ! Name  Definition              Value          Derivative Info.                !
 --------------------------------------------------------------------------------
 ! R1    R(1,2)                  1.3977         estimate D2E/DX2                !
 ! R2    R(1,9)                  1.3995         estimate D2E/DX2                !
 ! R3    R(1,13)                 1.3974         estimate D2E/DX2                !
 ! R4    R(2,3)                  1.3854         estimate D2E/DX2                !
 ! R5    R(2,14)                 1.0131         estimate D2E/DX2                !
 ! R6    R(3,4)                  1.2331         estimate D2E/DX2                !
 ! R7    R(3,5)                  1.3468         estimate D2E/DX2                !
 ! R8    R(5,6)                  1.4579         estimate D2E/DX2                !
 ! R9    R(5,15)                 1.011          estimate D2E/DX2                !
 ! R10   R(6,7)                  1.5194         estimate D2E/DX2                !
 ! R11   R(6,16)                 1.0935         estimate D2E/DX2                !
 ! R12   R(6,17)                 1.094          estimate D2E/DX2                !
 ! R13   R(7,8)                  1.5237         estimate D2E/DX2                !
 ! R14   R(7,18)                 1.0946         estimate D2E/DX2                !
 ! R15   R(7,19)                 1.0944         estimate D2E/DX2                !
 ! R16   R(8,20)                 1.093          estimate D2E/DX2                !
 ! R17   R(8,21)                 1.0915         estimate D2E/DX2                !
 ! R18   R(8,22)                 1.093          estimate D2E/DX2                !
 ! R19   R(9,10)                 1.3863         estimate D2E/DX2                !
 ! R20   R(9,23)                 1.0789         estimate D2E/DX2                !
 ! R21   R(10,11)                1.3918         estimate D2E/DX2                !
 ! R22   R(10,26)                1.5009         estimate D2E/DX2                !
 ! R23   R(11,12)                1.3849         estimate D2E/DX2                !
 ! R24   R(11,27)                1.0834         estimate D2E/DX2                !
 ! R25   R(12,13)                1.3859         estimate D2E/DX2                !
 ! R26   R(12,24)                1.7455         estimate D2E/DX2                !
 ! R27   R(13,25)                1.0842         estimate D2E/DX2                !
 ! R28   R(26,28)                1.3466         estimate D2E/DX2                !
 ! R29   R(26,29)                1.3449         estimate D2E/DX2                !
 ! R30   R(26,30)                1.3383         estimate D2E/DX2                !
 ! A1    A(2,1,9)              122.725          estimate D2E/DX2                !
 ! A2    A(2,1,13)             117.7042         estimate D2E/DX2                !
 ! A3    A(9,1,13)             119.5225         estimate D2E/DX2                !
 ! A4    A(1,2,3)              125.5839         estimate D2E/DX2                !
 ! A5    A(1,2,14)             115.4621         estimate D2E/DX2                !
 ! A6    A(3,2,14)             116.7318         estimate D2E/DX2                !
 ! A7    A(2,3,4)              122.795          estimate D2E/DX2                !
 ! A8    A(2,3,5)              114.6437         estimate D2E/DX2                !
 ! A9    A(4,3,5)              122.5612         estimate D2E/DX2                !
 ! A10   A(3,5,6)              121.0889         estimate D2E/DX2                !
 ! A11   A(3,5,15)             120.1453         estimate D2E/DX2                !
 ! A12   A(6,5,15)             118.624          estimate D2E/DX2                !
 ! A13   A(5,6,7)              110.3158         estimate D2E/DX2                !
 ! A14   A(5,6,16)             109.3067         estimate D2E/DX2                !
 ! A15   A(5,6,17)             109.4792         estimate D2E/DX2                !
 ! A16   A(7,6,16)             110.1613         estimate D2E/DX2                !
 ! A17   A(7,6,17)             110.1481         estimate D2E/DX2                !
 ! A18   A(16,6,17)            107.3746         estimate D2E/DX2                !
 ! A19   A(6,7,8)              111.1085         estimate D2E/DX2                !
 ! A20   A(6,7,18)             109.2378         estimate D2E/DX2                !
 ! A21   A(6,7,19)             109.2476         estimate D2E/DX2                !
 ! A22   A(8,7,18)             110.0351         estimate D2E/DX2                !
 ! A23   A(8,7,19)             110.0792         estimate D2E/DX2                !
 ! A24   A(18,7,19)            107.0382         estimate D2E/DX2                !
 ! A25   A(7,8,20)             111.0395         estimate D2E/DX2                !
 ! A26   A(7,8,21)             111.0888         estimate D2E/DX2                !
 ! A27   A(7,8,22)             111.0491         estimate D2E/DX2                !
 ! A28   A(20,8,21)            107.8268         estimate D2E/DX2                !
 ! A29   A(20,8,22)            107.8493         estimate D2E/DX2                !
 ! A30   A(21,8,22)            107.837          estimate D2E/DX2                !
 ! A31   A(1,9,10)             118.9126         estimate D2E/DX2                !
 ! A32   A(1,9,23)             120.4393         estimate D2E/DX2                !
 ! A33   A(10,9,23)            120.6451         estimate D2E/DX2                !
 ! A34   A(9,10,11)            122.6234         estimate D2E/DX2                !
 ! A35   A(9,10,26)            119.8585         estimate D2E/DX2                !
 ! A36   A(11,10,26)           117.4963         estimate D2E/DX2                !
 ! A37   A(10,11,12)           117.155          estimate D2E/DX2                !
 ! A38   A(10,11,27)           121.5328         estimate D2E/DX2                !
 ! A39   A(12,11,27)           121.3116         estimate D2E/DX2                !
 ! A40   A(11,12,13)           122.1522         estimate D2E/DX2                !
 ! A41   A(11,12,24)           119.0968         estimate D2E/DX2                !
 ! A42   A(13,12,24)           118.7473         estimate D2E/DX2                !
 ! A43   A(1,13,12)            119.619          estimate D2E/DX2                !
 ! A44   A(1,13,25)            119.9196         estimate D2E/DX2                !
 ! A45   A(12,13,25)           120.4613         estimate D2E/DX2                !
 ! A46   A(10,26,28)           111.7679         estimate D2E/DX2                !
 ! A47   A(10,26,29)           111.8957         estimate D2E/DX2                !
 ! A48   A(10,26,30)           112.9839         estimate D2E/DX2                !
 ! A49   A(28,26,29)           106.1288         estimate D2E/DX2                !
 ! A50   A(28,26,30)           106.7431         estimate D2E/DX2                !
 ! A51   A(29,26,30)           106.8936         estimate D2E/DX2                !
 ! D1    D(9,1,2,3)             31.9945         estimate D2E/DX2                !
 ! D2    D(9,1,2,14)          -165.5851         estimate D2E/DX2                !
 ! D3    D(13,1,2,3)          -150.5501         estimate D2E/DX2                !
 ! D4    D(13,1,2,14)           11.8703         estimate D2E/DX2                !
 ! D5    D(2,1,9,10)           178.682          estimate D2E/DX2                !
 ! D6    D(2,1,9,23)            -0.683          estimate D2E/DX2                !
 ! D7    D(13,1,9,10)            1.2711         estimate D2E/DX2                !
 ! D8    D(13,1,9,23)         -178.0939         estimate D2E/DX2                !
 ! D9    D(2,1,13,12)         -177.9608         estimate D2E/DX2                !
 ! D10   D(2,1,13,25)            2.1932         estimate D2E/DX2                !
 ! D11   D(9,1,13,12)           -0.4209         estimate D2E/DX2                !
 ! D12   D(9,1,13,25)          179.7331         estimate D2E/DX2                !
 ! D13   D(1,2,3,4)             -4.1211         estimate D2E/DX2                !
 ! D14   D(1,2,3,5)            175.7611         estimate D2E/DX2                !
 ! D15   D(14,2,3,4)          -166.3432         estimate D2E/DX2                !
 ! D16   D(14,2,3,5)            13.539          estimate D2E/DX2                !
 ! D17   D(2,3,5,6)            178.7732         estimate D2E/DX2                !
 ! D18   D(2,3,5,15)             3.161          estimate D2E/DX2                !
 ! D19   D(4,3,5,6)             -1.3443         estimate D2E/DX2                !
 ! D20   D(4,3,5,15)          -176.9565         estimate D2E/DX2                !
 ! D21   D(3,5,6,7)           -179.6035         estimate D2E/DX2                !
 ! D22   D(3,5,6,16)            59.1228         estimate D2E/DX2                !
 ! D23   D(3,5,6,17)           -58.2344         estimate D2E/DX2                !
 ! D24   D(15,5,6,7)            -3.926          estimate D2E/DX2                !
 ! D25   D(15,5,6,16)         -125.1997         estimate D2E/DX2                !
 ! D26   D(15,5,6,17)          117.4431         estimate D2E/DX2                !
 ! D27   D(5,6,7,8)            179.6781         estimate D2E/DX2                !
 ! D28   D(5,6,7,18)            58.099          estimate D2E/DX2                !
 ! D29   D(5,6,7,19)           -58.681          estimate D2E/DX2                !
 ! D30   D(16,6,7,8)           -59.558          estimate D2E/DX2                !
 ! D31   D(16,6,7,18)          178.8628         estimate D2E/DX2                !
 ! D32   D(16,6,7,19)           62.0829         estimate D2E/DX2                !
 ! D33   D(17,6,7,8)            58.7074         estimate D2E/DX2                !
 ! D34   D(17,6,7,18)          -62.8717         estimate D2E/DX2                !
 ! D35   D(17,6,7,19)         -179.6517         estimate D2E/DX2                !
 ! D36   D(6,7,8,20)           -60.1128         estimate D2E/DX2                !
 ! D37   D(6,7,8,21)           179.8943         estimate D2E/DX2                !
 ! D38   D(6,7,8,22)            59.8822         estimate D2E/DX2                !
 ! D39   D(18,7,8,20)           60.9993         estimate D2E/DX2                !
 ! D40   D(18,7,8,21)          -58.9936         estimate D2E/DX2                !
 ! D41   D(18,7,8,22)         -179.0058         estimate D2E/DX2                !
 ! D42   D(19,7,8,20)          178.7332         estimate D2E/DX2                !
 ! D43   D(19,7,8,21)           58.7403         estimate D2E/DX2                !
 ! D44   D(19,7,8,22)          -61.2719         estimate D2E/DX2                !
 ! D45   D(1,9,10,11)           -1.1125         estimate D2E/DX2                !
 ! D46   D(1,9,10,26)         -179.3704         estimate D2E/DX2                !
 ! D47   D(23,9,10,11)         178.2512         estimate D2E/DX2                !
 ! D48   D(23,9,10,26)          -0.0067         estimate D2E/DX2                !
 ! D49   D(9,10,11,12)           0.0687         estimate D2E/DX2                !
 ! D50   D(9,10,11,27)        -179.6597         estimate D2E/DX2                !
 ! D51   D(26,10,11,12)        178.3654         estimate D2E/DX2                !
 ! D52   D(26,10,11,27)         -1.3629         estimate D2E/DX2                !
 ! D53   D(9,10,26,28)         112.9542         estimate D2E/DX2                !
 ! D54   D(9,10,26,29)        -128.1726         estimate D2E/DX2                !
 ! D55   D(9,10,26,30)          -7.4647         estimate D2E/DX2                !
 ! D56   D(11,10,26,28)        -65.3918         estimate D2E/DX2                !
 ! D57   D(11,10,26,29)         53.4815         estimate D2E/DX2                !
 ! D58   D(11,10,26,30)        174.1893         estimate D2E/DX2                !
 ! D59   D(10,11,12,13)          0.8314         estimate D2E/DX2                !
 ! D60   D(10,11,12,24)       -179.8869         estimate D2E/DX2                !
 ! D61   D(27,11,12,13)       -179.4395         estimate D2E/DX2                !
 ! D62   D(27,11,12,24)         -0.1579         estimate D2E/DX2                !
 ! D63   D(11,12,13,1)          -0.6594         estimate D2E/DX2                !
 ! D64   D(11,12,13,25)        179.1858         estimate D2E/DX2                !
 ! D65   D(24,12,13,1)        -179.9435         estimate D2E/DX2                !
 ! D66   D(24,12,13,25)         -0.0983         estimate D2E/DX2                !
 --------------------------------------------------------------------------------
 Trust Radius=3.00D-01 FncErr=5.00D-06 GrdErr=5.00D-06 EigMax=2.50D+02 EigMin=1.00D-04
 Number of steps in this run=    157 maximum allowed number of steps=    180.
 GradGradGradGradGradGradGradGradGradGradGradGradGradGradGradGradGradGrad

                          Input orientation:                          
 ---------------------------------------------------------------------
 Center     Atomic      Atomic             Coordinates (Angstroms)
 Number     Number       Type             X           Y           Z
 ---------------------------------------------------------------------
      1          6           0       -6.012095    1.194089    0.116348
      2          7           0       -4.763983    0.616503   -0.133175
      3          6           0       -3.536976    1.203940    0.128820
      4          8           0       -3.425217    2.356127    0.553780
      5          7           0       -2.473091    0.415016   -0.115292
      6          6           0       -1.113447    0.900897    0.086651
      7          6           0       -0.108161   -0.181043   -0.270179
      8          6           0        1.320465    0.310745   -0.073040
      9          6           0       -6.236337    2.573386    0.039984
     10          6           0       -7.513104    3.058948    0.276388
     11          6           0       -8.590686    2.226910    0.565647
     12          6           0       -8.342950    0.865205    0.612880
     13          6           0       -7.078974    0.337747    0.401138
     14          1           0       -4.768401   -0.386991   -0.272123
     15          1           0       -2.604506   -0.507827   -0.506835
     16          1           0       -0.988440    1.202086    1.130375
     17          1           0       -0.947515    1.788137   -0.531519
     18          1           0       -0.259812   -0.485267   -1.310613
     19          1           0       -0.291165   -1.062790    0.351662
     20          1           0        1.527333    1.178678   -0.704376
     21          1           0        2.042339   -0.467360   -0.327695
     22          1           0        1.495340    0.602700    0.965657
     23          1           0       -5.429845    3.245288   -0.209091
     24         17           0       -9.658808   -0.225087    0.968454
     25          1           0       -6.913375   -0.732280    0.457547
     26          6           0       -7.780519    4.533057    0.186174
     27          1           0       -9.582661    2.625183    0.742179
     28          9           0       -8.587896    4.831671   -0.849343
     29          9           0       -8.396748    4.999283    1.286934
     30          9           0       -6.666476    5.257517    0.027839
 ---------------------------------------------------------------------
                    Distance matrix (angstroms):
                    1          2          3          4          5
     1  C    0.000000
     2  N    1.397731   0.000000
     3  C    2.475169   1.385377   0.000000
     4  O    2.869428   2.300107   1.233133   0.000000
     5  N    3.631138   2.299805   1.346790   2.263208   0.000000
     6  C    4.907504   3.668190   2.442766   2.771314   1.457907
     7  C    6.074276   4.725625   3.719429   4.256641   2.443802
     8  C    7.388004   6.092423   4.943003   5.205573   3.795224
     9  C    1.399491   2.455036   3.028171   2.865935   4.341047
    10  C    2.399237   3.700128   4.390037   4.157129   5.704868
    11  C    2.813844   4.210157   5.174675   5.167099   6.416510
    12  C    2.405742   3.664349   4.842152   5.139109   5.931960
    13  C    1.397376   2.392150   3.656528   4.176973   4.635389
    14  H    2.048780   1.013077   2.051395   3.164009   2.436444
    15  H    3.859604   2.463145   2.050294   3.162389   1.011047
    16  H    5.124980   4.024201   2.738276   2.757201   2.091735
    17  H    5.140291   4.012086   2.735442   2.763963   2.094299
    18  H    6.159968   4.784121   3.957927   4.644272   2.671685
    19  H    6.154504   4.802207   3.965226   4.642427   2.676333
    20  H    7.583982   6.342158   5.132453   5.243766   4.115044
    21  H    8.235987   6.894825   5.842123   6.216369   4.605736
    22  H    7.578433   6.355057   5.136730   5.239850   4.117295
    23  H    2.156929   2.712867   2.804326   2.321878   4.094098
    24  Cl   4.004830   5.087354   6.342233   6.759606   7.295119
    25  H    2.153978   2.605389   3.906030   4.659910   4.621748
    26  C    3.779009   4.953874   5.393883   4.882911   6.724428
    27  H    3.897260   5.293458   6.240709   6.166198   7.494403
    28  F    4.560627   5.736101   6.295160   5.894941   7.578688
    29  F    4.640726   5.867065   6.274013   5.678020   7.620463
    30  F    4.116733   5.018408   5.122056   4.381831   6.407400
                    6          7          8          9         10
     6  C    0.000000
     7  C    1.519382   0.000000
     8  C    2.509524   1.523710   0.000000
     9  C    5.389193   6.725892   7.889079   0.000000
    10  C    6.756389   8.101201   9.257789   1.386287   0.000000
    11  C    7.608998   8.857204  10.114866   2.437073   1.391812
    12  C    7.248717   8.347824   9.703582   2.771986   2.369468
    13  C    6.000297   7.022254   8.412857   2.416309   2.758435
    14  H    3.891794   4.664789   6.131945   3.319048   4.439454
    15  H    2.135412   2.528741   4.032820   4.794067   6.117978
    16  H    1.093482   2.156267   2.752043   5.532616   6.837286
    17  H    1.094012   2.156498   2.745291   5.377255   6.736069
    18  H    2.145341   1.094556   2.159282   6.848234   8.227410
    19  H    2.145332   1.094375   2.159704   6.975958   8.315696
    20  H    2.770668   2.170762   1.093018   7.922995   9.285839
    21  H    3.464505   2.170238   1.091512   8.827106  10.203247
    22  H    2.768997   2.170889   1.093028   8.032391   9.362708
    23  H    4.920866   6.329597   7.361844   1.078851   2.147179
    24  Cl   8.664214   9.630732  11.041569   4.517390   3.983452
    25  H    6.036886   6.866177   8.316582   3.400024   3.842643
    26  C    7.592914   9.016434  10.036086   2.499236   1.500882
    27  H    8.667783   9.933072  11.175838   3.419597   2.165221
    28  F    8.496732   9.867555  10.918656   3.379436   2.359024
    29  F    8.442981   9.897528  10.874565   3.479546   2.359434
    30  F    7.058309   8.525153   9.395316   2.718405   2.369021
                   11         12         13         14         15
    11  C    0.000000
    12  C    1.384863   0.000000
    13  C    2.425133   1.385886   0.000000
    14  H    4.705763   3.889553   2.513419   0.000000
    15  H    6.668085   6.005724   4.643305   2.179939   0.000000
    16  H    7.691770   7.380387   6.194633   4.333621   2.866344
    17  H    7.733974   7.540153   6.369323   4.404275   2.831550
    18  H    8.959894   8.417880   7.078730   4.627687   2.478741
    19  H    8.930283   8.283516   6.930967   4.570717   2.529139
    20  H   10.251148   9.962725   8.717674   6.501878   4.467148
    21  H   11.005379  10.512594   9.185736   6.811440   4.650472
    22  H   10.223795   9.848112   8.596962   6.461117   4.495580
    23  H    3.410019   3.850534   3.397912   3.692551   4.707130
    24  Cl   2.704704   1.745466   2.700772   5.047903   7.212461
    25  H    3.403214   2.149365   1.084234   2.291846   4.421172
    26  C    2.473597   3.735176   4.258990   5.787034   7.258229
    27  H    1.083420   2.156646   3.408389   5.768804   7.750512
    28  F    2.964285   4.234495   4.902642   6.492778   8.026738
    29  F    2.871222   4.189014   4.924538   6.678885   8.191211
    30  F    3.629931   4.737641   4.951125   5.962645   7.072812
                   16         17         18         19         20
    16  H    0.000000
    17  H    1.762675   0.000000
    18  H    3.055565   2.499657   0.000000
    19  H    2.494444   3.055911   1.760021   0.000000
    20  H    3.113835   2.554641   2.515973   3.073489   0.000000
    21  H    3.754815   3.750738   2.503267   2.502260   1.765379
    22  H    2.560382   3.100700   3.073375   2.518422   1.766857
    23  H    5.069017   4.724249   6.469902   6.729043   7.274511
    24  Cl   8.788533   9.065848   9.674862   9.425227  11.397309
    25  H    6.268917   6.551506   6.888926   6.631298   8.731974
    26  C    7.623597   7.398623   9.164332   9.350472   9.933833
    27  H    8.719893   8.768620  10.040137  10.004276  11.296763
    28  F    8.651296   8.230403   9.891389  10.248065  10.755614
    29  F    8.326239   8.313201  10.150727  10.164839  10.818952
    30  F    7.064149   6.712376   8.707259   8.983080   9.182133
                   21         22         23         24         25
    21  H    0.000000
    22  H    1.765502   0.000000
    23  H    8.344541   7.504765   0.000000
    24  Cl  11.775208  11.184822   5.595913   0.000000
    25  H    8.993975   8.529175   4.297245   2.838252   0.000000
    26  C   11.034345  10.104299   2.709290   5.174926   5.343160
    27  H   12.076799  11.263325   4.305267   2.860251   4.298681
    28  F   11.889228  11.083776   3.591632   5.479237   5.955631
    29  F   11.893938  10.829893   3.757273   5.384075   5.978218
    30  F   10.428043   9.442567   2.373701   6.316466   6.010264
                   26         27         28         29         30
    26  C    0.000000
    27  H    2.682693   0.000000
    28  F    1.346597   2.896738   0.000000
    29  F    1.344908   2.709151   2.151351   0.000000
    30  F    1.338284   3.992944   2.154681   2.155423   0.000000
 Stoichiometry    C11H12ClF3N2O
 Framework group  C1[X(C11H12ClF3N2O)]
 Deg. of freedom    84
 Full point group                 C1      NOp   1
 Largest Abelian subgroup         C1      NOp   1
 Largest concise Abelian subgroup C1      NOp   1
                         Standard orientation:                         
 ---------------------------------------------------------------------
 Center     Atomic      Atomic             Coordinates (Angstroms)
 Number     Number       Type             X           Y           Z
 ---------------------------------------------------------------------
      1          6           0        0.168512    0.720382   -0.217717
      2          7           0       -1.203788    0.912480   -0.400863
      3          6           0       -2.201807    0.047636    0.017792
      4          8           0       -1.964025   -1.041674    0.544555
      5          7           0       -3.455368    0.492153   -0.193944
      6          6           0       -4.612447   -0.317283    0.168651
      7          6           0       -5.897833    0.411882   -0.184368
      8          6           0       -7.119749   -0.422232    0.180143
      9          6           0        0.759159   -0.548238   -0.200007
     10          6           0        2.132719   -0.645875   -0.040039
     11          6           0        2.955181    0.470313    0.081719
     12          6           0        2.344992    1.712754    0.038655
     13          6           0        0.973719    1.856507   -0.101436
     14          1           0       -1.485230    1.860256   -0.621854
     15          1           0       -3.608903    1.370575   -0.670408
     16          1           0       -4.582572   -0.530950    1.240638
     17          1           0       -4.566353   -1.275683   -0.356902
     18          1           0       -5.902782    0.635952   -1.255732
     19          1           0       -5.925804    1.369988    0.343748
     20          1           0       -7.119082   -1.374502   -0.356392
     21          1           0       -8.042983    0.102666   -0.071886
     22          1           0       -7.140569   -0.640969    1.250858
     23          1           0        0.155091   -1.434106   -0.319424
     24         17           0        3.328980    3.147126    0.183552
     25          1           0        0.523347    2.842626   -0.118738
     26          6           0        2.790041   -1.995138   -0.032141
     27          1           0        4.027700    0.373585    0.200650
     28          9           0        3.580584   -2.171803   -1.107853
     29          9           0        3.579988   -2.161903    1.043475
     30          9           0        1.911302   -3.004502   -0.029540
 ---------------------------------------------------------------------
 Rotational constants (GHZ):           0.5269067           0.1563479           0.1242006
 Standard basis: 6-311+G(d) (5D, 7F)
 There are   458 symmetry adapted cartesian basis functions of A   symmetry.
 There are   440 symmetry adapted basis functions of A   symmetry.
   440 basis functions,   725 primitive gaussians,   458 cartesian basis functions
    72 alpha electrons       72 beta electrons
       nuclear repulsion energy      1419.6105269285 Hartrees.
 NAtoms=   30 NActive=   30 NUniq=   30 SFac= 1.00D+00 NAtFMM=   60 NAOKFM=F Big=F
 Integral buffers will be    131072 words long.
 Raffenetti 2 integral format.
 Two-electron integral symmetry is turned on.
 Nuclear repulsion after empirical dispersion term =     1419.6091632698 Hartrees.
 ------------------------------------------------------------------------------
 Polarizable Continuum Model (PCM)
 =================================
 Model                : PCM.
 Atomic radii         : SMD-Coulomb.
 Polarization charges : Total charges.
 Charge compensation  : None.
 Solution method      : On-the-fly selection.
 Cavity type          : VdW (van der Waals Surface) (Alpha=1.000).
 Cavity algorithm     : GePol (No added spheres)
                        Default sphere list used, NSphG=   30.
                        Lebedev-Laikov grids with approx.  5.0 points / Ang**2.
                        Smoothing algorithm: York/Karplus (Gamma=1.0000).
                        Polarization charges: spherical gaussians, with
                                              point-specific exponents (IZeta= 3).
                        Self-potential: point-specific (ISelfS= 7).
                        Self-field    : sphere-specific E.n sum rule (ISelfD= 2).
 1st derivatives      : Analytical E(r).r(x)/FMM algorithm (CHGder, D1EAlg=3).
                        Cavity 1st derivative terms included.
 Solvent              : Water, Eps=  78.355300 Eps(inf)=   1.777849
 ------------------------------------------------------------------------------
 ------------------------------------------------------------------------------
 Atomic radii for non-electrostatic terms: SMD-CDS.
 ------------------------------------------------------------------------------
 Nuclear repulsion after PCM non-electrostatic terms =     1419.6200400989 Hartrees.
 One-electron integrals computed using PRISM.
 NBasis=   440 RedAO= T EigKep=  1.35D-06  NBF=   440
 NBsUse=   439 1.00D-06 EigRej=  7.30D-07 NBFU=   439
 ExpMin= 4.38D-02 ExpMax= 1.06D+05 ExpMxC= 3.62D+03 IAcc=3 IRadAn=         5 AccDes= 0.00D+00
 Harris functional with IExCor= 1009 and IRadAn=       5 diagonalized for initial guess.
 HarFok:  IExCor= 1009 AccDes= 0.00D+00 IRadAn=         5 IDoV= 1 UseB2=F ITyADJ=14
 ICtDFT=  3500011 ScaDFX=  1.000000  1.000000  1.000000  1.000000
 FoFCou: FMM=F IPFlag=           0 FMFlag=      100000 FMFlg1=           0
         NFxFlg=           0 DoJE=T BraDBF=F KetDBF=T FulRan=T
         wScrn=  0.000000 ICntrl=       500 IOpCl=  0 I1Cent=   200000004 NGrid=           0
         NMat0=    1 NMatS0=      1 NMatT0=    0 NMatD0=    1 NMtDS0=    0 NMtDT0=    0
 Petite list used in FoFCou.
 Requested convergence on RMS density matrix=1.00D-08 within 128 cycles.
 Requested convergence on MAX density matrix=1.00D-06.
 Requested convergence on             energy=1.00D-06.
 No special actions if energy rises.
 Inv3:  Mode=1 IEnd=    18007500.
 Iteration    1 A*A^-1 deviation from unit magnitude is 4.88D-15 for   2441.
 Iteration    1 A*A^-1 deviation from orthogonality  is 2.05D-15 for   2036    351.
 Iteration    1 A^-1*A deviation from unit magnitude is 4.66D-15 for   2441.
 Iteration    1 A^-1*A deviation from orthogonality  is 1.93D-15 for   2446    189.
 Error on total polarization charges =  0.04282
 SCF Done:  E(RM062X) =  -1370.81802138     A.U. after   15 cycles
            NFock= 15  Conv=0.57D-08     -V/T= 2.0029
 SMD-CDS (non-electrostatic) energy       (kcal/mol) =       6.83
 (included in total energy above)

 **********************************************************************

            Population analysis using the SCF Density.

 **********************************************************************

 Orbital symmetries:
       Occupied  (A) (A) (A) (A) (A) (A) (A) (A) (A) (A) (A) (A)
                 (A) (A) (A) (A) (A) (A) (A) (A) (A) (A) (A) (A)
                 (A) (A) (A) (A) (A) (A) (A) (A) (A) (A) (A) (A)
                 (A) (A) (A) (A) (A) (A) (A) (A) (A) (A) (A) (A)
                 (A) (A) (A) (A) (A) (A) (A) (A) (A) (A) (A) (A)
                 (A) (A) (A) (A) (A) (A) (A) (A) (A) (A) (A) (A)
       Virtual   (A) (A) (A) (A) (A) (A) (A) (A) (A) (A) (A) (A)
                 (A) (A) (A) (A) (A) (A) (A) (A) (A) (A) (A) (A)
                 (A) (A) (A) (A) (A) (A) (A) (A) (A) (A) (A) (A)
                 (A) (A) (A) (A) (A) (A) (A) (A) (A) (A) (A) (A)
                 (A) (A) (A) (A) (A) (A) (A) (A) (A) (A) (A) (A)
                 (A) (A) (A) (A) (A) (A) (A) (A) (A) (A) (A) (A)
                 (A) (A) (A) (A) (A) (A) (A) (A) (A) (A) (A) (A)
                 (A) (A) (A) (A) (A) (A) (A) (A) (A) (A) (A) (A)
                 (A) (A) (A) (A) (A) (A) (A) (A) (A) (A) (A) (A)
                 (A) (A) (A) (A) (A) (A) (A) (A) (A) (A) (A) (A)
                 (A) (A) (A) (A) (A) (A) (A) (A) (A) (A) (A) (A)
                 (A) (A) (A) (A) (A) (A) (A) (A) (A) (A) (A) (A)
                 (A) (A) (A) (A) (A) (A) (A) (A) (A) (A) (A) (A)
                 (A) (A) (A) (A) (A) (A) (A) (A) (A) (A) (A) (A)
                 (A) (A) (A) (A) (A) (A) (A) (A) (A) (A) (A) (A)
                 (A) (A) (A) (A) (A) (A) (A) (A) (A) (A) (A) (A)
                 (A) (A) (A) (A) (A) (A) (A) (A) (A) (A) (A) (A)
                 (A) (A) (A) (A) (A) (A) (A) (A) (A) (A) (A) (A)
                 (A) (A) (A) (A) (A) (A) (A) (A) (A) (A) (A) (A)
                 (A) (A) (A) (A) (A) (A) (A) (A) (A) (A) (A) (A)
                 (A) (A) (A) (A) (A) (A) (A) (A) (A) (A) (A) (A)
                 (A) (A) (A) (A) (A) (A) (A) (A) (A) (A) (A) (A)
                 (A) (A) (A) (A) (A) (A) (A) (A) (A) (A) (A) (A)
                 (A) (A) (A) (A) (A) (A) (A) (A) (A) (A) (A) (A)
                 (A) (A) (A) (A) (A) (A) (A) (A) (A) (A) (A) (A)
                 (A) (A) (A) (A) (A) (A) (A) (A) (A) (A) (A) (A)
                 (A) (A) (A) (A) (A) (A) (A) (A) (A) (A) (A) (A)
                 (A) (A) (A) (A) (A) (A) (A) (A) (A) (A) (A) (A)
                 (A) (A) (A) (A) (A) (A) (A) (A) (A) (A) (A) (A)
                 (A) (A) (A) (A) (A) (A) (A) (A) (A) (A) (A) (A)
                 (A) (A) (A) (A) (A) (A) (A)
 The electronic state is 1-A.
 Alpha  occ. eigenvalues -- -102.68665 -25.28743 -25.28396 -25.28311 -19.60084
 Alpha  occ. eigenvalues --  -14.78901 -14.77138 -10.81066 -10.68614 -10.62337
 Alpha  occ. eigenvalues --  -10.61535 -10.58573 -10.56818 -10.56692 -10.56667
 Alpha  occ. eigenvalues --  -10.56454 -10.53058 -10.51753  -9.82936  -7.55444
 Alpha  occ. eigenvalues --   -7.54778  -7.54763  -1.47880  -1.38586  -1.38128
 Alpha  occ. eigenvalues --   -1.18885  -1.06900  -1.03751  -1.00917  -0.95932
 Alpha  occ. eigenvalues --   -0.89818  -0.87737  -0.84872  -0.82116  -0.78328
 Alpha  occ. eigenvalues --   -0.74382  -0.72862  -0.70232  -0.70213  -0.68709
 Alpha  occ. eigenvalues --   -0.66851  -0.66553  -0.63443  -0.59844  -0.59034
 Alpha  occ. eigenvalues --   -0.58452  -0.58199  -0.56371  -0.55712  -0.54173
 Alpha  occ. eigenvalues --   -0.53995  -0.53728  -0.52409  -0.52170  -0.51669
 Alpha  occ. eigenvalues --   -0.51180  -0.49458  -0.48783  -0.46795  -0.45921
 Alpha  occ. eigenvalues --   -0.45887  -0.44250  -0.42457  -0.42086  -0.40007
 Alpha  occ. eigenvalues --   -0.39376  -0.39110  -0.38395  -0.36664  -0.33181
 Alpha  occ. eigenvalues --   -0.32173  -0.28708
 Alpha virt. eigenvalues --   -0.01256   0.00012   0.01019   0.02225   0.02609
 Alpha virt. eigenvalues --    0.03180   0.03552   0.03613   0.04619   0.04922
 Alpha virt. eigenvalues --    0.05072   0.05362   0.06068   0.06339   0.06977
 Alpha virt. eigenvalues --    0.07223   0.07754   0.08053   0.08190   0.09177
 Alpha virt. eigenvalues --    0.09240   0.09425   0.10186   0.10472   0.11484
 Alpha virt. eigenvalues --    0.11613   0.11888   0.12235   0.12829   0.13292
 Alpha virt. eigenvalues --    0.13647   0.14275   0.14625   0.15416   0.15888
 Alpha virt. eigenvalues --    0.16646   0.17464   0.17592   0.17910   0.18148
 Alpha virt. eigenvalues --    0.18591   0.19345   0.19734   0.20020   0.20749
 Alpha virt. eigenvalues --    0.20835   0.21261   0.21629   0.21756   0.22317
 Alpha virt. eigenvalues --    0.22537   0.22817   0.23099   0.23794   0.24188
 Alpha virt. eigenvalues --    0.24457   0.24987   0.25692   0.25909   0.26118
 Alpha virt. eigenvalues --    0.26477   0.26710   0.27485   0.27880   0.27941
 Alpha virt. eigenvalues --    0.27987   0.28416   0.28772   0.29083   0.29720
 Alpha virt. eigenvalues --    0.30316   0.30448   0.30695   0.31726   0.32102
 Alpha virt. eigenvalues --    0.32172   0.32965   0.32979   0.33203   0.34232
 Alpha virt. eigenvalues --    0.34610   0.35081   0.35849   0.36200   0.36703
 Alpha virt. eigenvalues --    0.37211   0.37714   0.38109   0.38711   0.39867
 Alpha virt. eigenvalues --    0.40366   0.40738   0.41293   0.42666   0.43572
 Alpha virt. eigenvalues --    0.43598   0.44846   0.45166   0.45788   0.46359
 Alpha virt. eigenvalues --    0.47475   0.48290   0.48554   0.48729   0.49674
 Alpha virt. eigenvalues --    0.50160   0.51270   0.51968   0.53941   0.54172
 Alpha virt. eigenvalues --    0.56473   0.56861   0.58606   0.59125   0.60623
 Alpha virt. eigenvalues --    0.60769   0.62502   0.63553   0.63953   0.65064
 Alpha virt. eigenvalues --    0.65762   0.66284   0.67069   0.68604   0.68770
 Alpha virt. eigenvalues --    0.68901   0.69801   0.70077   0.70537   0.71183
 Alpha virt. eigenvalues --    0.71983   0.72438   0.73368   0.73664   0.74495
 Alpha virt. eigenvalues --    0.74694   0.75028   0.76369   0.76759   0.77810
 Alpha virt. eigenvalues --    0.78799   0.79158   0.79853   0.80365   0.81703
 Alpha virt. eigenvalues --    0.82627   0.83860   0.85558   0.87641   0.89600
 Alpha virt. eigenvalues --    0.90429   0.90841   0.91702   0.92068   0.93231
 Alpha virt. eigenvalues --    0.93904   0.95559   0.96142   0.96608   0.96942
 Alpha virt. eigenvalues --    0.98346   0.98680   0.99536   1.01832   1.02926
 Alpha virt. eigenvalues --    1.03648   1.05292   1.05989   1.08408   1.09365
 Alpha virt. eigenvalues --    1.11000   1.11331   1.12306   1.15152   1.18837
 Alpha virt. eigenvalues --    1.21916   1.22374   1.23212   1.23965   1.25043
 Alpha virt. eigenvalues --    1.26208   1.26663   1.29893   1.31172   1.32916
 Alpha virt. eigenvalues --    1.33871   1.35584   1.38301   1.39717   1.41499
 Alpha virt. eigenvalues --    1.44205   1.45923   1.46094   1.46526   1.48664
 Alpha virt. eigenvalues --    1.49749   1.49830   1.50563   1.52695   1.53592
 Alpha virt. eigenvalues --    1.53917   1.55502   1.55677   1.56929   1.58753
 Alpha virt. eigenvalues --    1.60223   1.60881   1.61675   1.62195   1.63648
 Alpha virt. eigenvalues --    1.63960   1.64635   1.68681   1.73071   1.74022
 Alpha virt. eigenvalues --    1.75689   1.77496   1.78289   1.79023   1.80015
 Alpha virt. eigenvalues --    1.80687   1.82329   1.85209   1.85675   1.86675
 Alpha virt. eigenvalues --    1.87892   1.88851   1.92063   1.93229   1.95446
 Alpha virt. eigenvalues --    1.96919   1.97554   1.99484   2.00649   2.05402
 Alpha virt. eigenvalues --    2.07379   2.07988   2.10365   2.11030   2.13590
 Alpha virt. eigenvalues --    2.15764   2.17828   2.20550   2.23535   2.25884
 Alpha virt. eigenvalues --    2.28794   2.30203   2.31717   2.32813   2.35117
 Alpha virt. eigenvalues --    2.36170   2.38903   2.41393   2.47120   2.49462
 Alpha virt. eigenvalues --    2.52363   2.55729   2.56122   2.57319   2.57913
 Alpha virt. eigenvalues --    2.60246   2.60691   2.63707   2.65231   2.66567
 Alpha virt. eigenvalues --    2.69573   2.72382   2.74309   2.77529   2.79618
 Alpha virt. eigenvalues --    2.82309   2.83090   2.87819   2.87883   2.91647
 Alpha virt. eigenvalues --    2.94367   2.96292   2.98159   3.00224   3.00633
 Alpha virt. eigenvalues --    3.03088   3.03850   3.07101   3.10512   3.12334
 Alpha virt. eigenvalues --    3.13592   3.18414   3.21377   3.24934   3.26145
 Alpha virt. eigenvalues --    3.26606   3.29987   3.30474   3.35289   3.37307
 Alpha virt. eigenvalues --    3.39113   3.41111   3.41466   3.45648   3.51019
 Alpha virt. eigenvalues --    3.56420   3.64722   3.66429   3.69106   3.75077
 Alpha virt. eigenvalues --    3.79845   3.80134   3.82195   3.83546   3.83827
 Alpha virt. eigenvalues --    3.86051   3.86567   3.87654   3.95876   3.98882
 Alpha virt. eigenvalues --    3.99758   4.00444   4.01656   4.03865   4.06581
 Alpha virt. eigenvalues --    4.07743   4.10480   4.22072   4.26829   4.30339
 Alpha virt. eigenvalues --    4.54808   4.58397   4.75927   4.79337   4.89888
 Alpha virt. eigenvalues --    4.97661   5.01187   5.19440   5.20227   5.40081
 Alpha virt. eigenvalues --    5.87938   6.44935   6.48401   6.49633   6.51971
 Alpha virt. eigenvalues --    6.52664   6.57040   6.62183   6.86331   6.90670
 Alpha virt. eigenvalues --    9.96762  23.44112  23.59347  23.64691  23.74434
 Alpha virt. eigenvalues --   23.82286  23.92196  23.92601  23.96952  24.09596
 Alpha virt. eigenvalues --   24.11361  24.20052  25.93410  26.22981  26.72821
 Alpha virt. eigenvalues --   35.60293  35.70000  50.12738  66.87936  66.90913
 Alpha virt. eigenvalues --   66.96269 216.06941
          Condensed to atoms (all electrons):
               1          2          3          4          5          6
     1  C   17.871398   0.003438  -0.712214   0.011307  -0.282984  -0.507067
     2  N    0.003438   7.560427   0.350000  -0.126650  -0.391888  -0.325696
     3  C   -0.712214   0.350000   7.343316   0.614461   0.330235  -0.915891
     4  O    0.011307  -0.126650   0.614461   8.316292  -0.198368  -0.102397
     5  N   -0.282984  -0.391888   0.330235  -0.198368   7.504786   0.397379
     6  C   -0.507067  -0.325696  -0.915891  -0.102397   0.397379   8.071426
     7  C   -0.008625   0.017720   0.158427   0.016467  -0.106976  -0.848064
     8  C   -0.016960  -0.012740  -0.236632  -0.002754  -0.000879   0.384104
     9  C    0.577330   0.101832  -0.169375   0.106434  -0.013422  -0.152090
    10  C   -3.868367   0.075930  -0.908802  -0.032461   0.013502  -0.044626
    11  C   -2.767999   0.102565   0.916860   0.000168   0.008411   0.037228
    12  C    2.082777  -0.095753  -0.089342   0.020722   0.047641   0.021898
    13  C   -3.764613  -0.259233  -0.746767  -0.070841  -0.118054  -0.030517
    14  H    0.050037   0.254827  -0.031655  -0.000733   0.045794   0.011199
    15  H   -0.005468   0.048440   0.010643  -0.001712   0.274792  -0.050159
    16  H   -0.000419   0.009952   0.068002   0.001406  -0.050399   0.319290
    17  H    0.006580   0.002466   0.026735   0.000350  -0.064266   0.401999
    18  H   -0.000096  -0.001031   0.005489  -0.000118   0.006454  -0.069306
    19  H   -0.000345  -0.000767  -0.001317  -0.000147   0.007839  -0.071825
    20  H   -0.000005   0.000006  -0.000143  -0.000047   0.000606  -0.053140
    21  H    0.000097   0.000013   0.005576   0.000021  -0.001230   0.083293
    22  H   -0.000098  -0.000088  -0.002598  -0.000040  -0.000668  -0.041992
    23  H   -0.040109  -0.009520   0.044127  -0.007492   0.000162   0.004350
    24  Cl   0.177786  -0.008796  -0.037131  -0.000052   0.000368  -0.000920
    25  H    0.065640  -0.014609   0.011802  -0.000115  -0.000223   0.000173
    26  C   -2.104654   0.030873  -0.051835  -0.018346   0.004996   0.000737
    27  H   -0.001869   0.000348   0.000099   0.000005   0.000003   0.000004
    28  F   -0.005471   0.000636  -0.001687  -0.000013   0.000017  -0.000008
    29  F    0.039790   0.000383   0.002225   0.000064  -0.000011   0.000034
    30  F    0.134444   0.000595   0.004466  -0.001079  -0.000068   0.000075
               7          8          9         10         11         12
     1  C   -0.008625  -0.016960   0.577330  -3.868367  -2.767999   2.082777
     2  N    0.017720  -0.012740   0.101832   0.075930   0.102565  -0.095753
     3  C    0.158427  -0.236632  -0.169375  -0.908802   0.916860  -0.089342
     4  O    0.016467  -0.002754   0.106434  -0.032461   0.000168   0.020722
     5  N   -0.106976  -0.000879  -0.013422   0.013502   0.008411   0.047641
     6  C   -0.848064   0.384104  -0.152090  -0.044626   0.037228   0.021898
     7  C    6.376906  -0.210750   0.000057  -0.002560  -0.000354  -0.003649
     8  C   -0.210750   6.133009  -0.006957  -0.000575   0.000235   0.000244
     9  C    0.000057  -0.006957  11.963443   0.746161   1.345373  -0.446527
    10  C   -0.002560  -0.000575   0.746161  23.503857 -14.874325   4.516131
    11  C   -0.000354   0.000235   1.345373 -14.874325  46.102354 -14.698193
    12  C   -0.003649   0.000244  -0.446527   4.516131 -14.698193  24.672520
    13  C    0.007480   0.001389  -6.727304   1.737752 -13.631058  -6.097986
    14  H   -0.002071  -0.000025   0.065851   0.008949   0.000422   0.047917
    15  H   -0.015780   0.003073   0.003849  -0.000962   0.001050  -0.000715
    16  H   -0.005934  -0.025271   0.012411   0.001374  -0.000114  -0.000089
    17  H   -0.032742  -0.011776  -0.008743  -0.000951   0.000178   0.000021
    18  H    0.453259  -0.049933   0.001555   0.000109  -0.000001  -0.000005
    19  H    0.460145  -0.046371  -0.000899  -0.000062   0.000007   0.000023
    20  H    0.021099   0.377187  -0.000040  -0.000003  -0.000000  -0.000001
    21  H   -0.120800   0.382819   0.000004  -0.000000  -0.000000   0.000000
    22  H    0.008642   0.381444   0.000049   0.000002   0.000000   0.000000
    23  H   -0.000170   0.000026   0.343272  -0.067147   0.007105  -0.018744
    24  Cl  -0.000055  -0.000003   0.120329   0.182172  -0.509557  -0.886346
    25  H    0.000026   0.000002  -0.000417  -0.012609   0.092766   0.166024
    26  C   -0.000290  -0.000016  -1.516879  -4.352345   4.366860  -3.974823
    27  H    0.000000   0.000000  -0.049628   0.080477   0.011197   0.149931
    28  F   -0.000000  -0.000000   0.006285   0.301624  -0.339729   0.033800
    29  F   -0.000000  -0.000000   0.080606   0.158785  -0.351697   0.107000
    30  F    0.000005  -0.000000   0.048756  -0.259182   0.014750   0.050581
              13         14         15         16         17         18
     1  C   -3.764613   0.050037  -0.005468  -0.000419   0.006580  -0.000096
     2  N   -0.259233   0.254827   0.048440   0.009952   0.002466  -0.001031
     3  C   -0.746767  -0.031655   0.010643   0.068002   0.026735   0.005489
     4  O   -0.070841  -0.000733  -0.001712   0.001406   0.000350  -0.000118
     5  N   -0.118054   0.045794   0.274792  -0.050399  -0.064266   0.006454
     6  C   -0.030517   0.011199  -0.050159   0.319290   0.401999  -0.069306
     7  C    0.007480  -0.002071  -0.015780  -0.005934  -0.032742   0.453259
     8  C    0.001389  -0.000025   0.003073  -0.025271  -0.011776  -0.049933
     9  C   -6.727304   0.065851   0.003849   0.012411  -0.008743   0.001555
    10  C    1.737752   0.008949  -0.000962   0.001374  -0.000951   0.000109
    11  C  -13.631058   0.000422   0.001050  -0.000114   0.000178  -0.000001
    12  C   -6.097986   0.047917  -0.000715  -0.000089   0.000021  -0.000005
    13  C   34.300796  -0.166158   0.000629  -0.002129   0.000699  -0.000809
    14  H   -0.166158   0.281532   0.002153  -0.000015   0.000084   0.000039
    15  H    0.000629   0.002153   0.275818   0.001982   0.002029  -0.000803
    16  H   -0.002129  -0.000015   0.001982   0.436475  -0.043937   0.005379
    17  H    0.000699   0.000084   0.002029  -0.043937   0.442704  -0.007983
    18  H   -0.000809   0.000039  -0.000803   0.005379  -0.007983   0.436922
    19  H    0.000748  -0.000001  -0.000998  -0.008273   0.005552  -0.041125
    20  H    0.000026  -0.000000   0.000002  -0.000483   0.003230  -0.008349
    21  H   -0.000001   0.000000  -0.000028  -0.000079  -0.000039  -0.003237
    22  H   -0.000030   0.000000  -0.000051   0.003649  -0.000469   0.005932
    23  H    0.009550   0.000009   0.000021  -0.000010   0.000024  -0.000000
    24  Cl   0.214385   0.000714  -0.000011   0.000001   0.000000  -0.000000
    25  H    0.022012   0.004772   0.000027   0.000000  -0.000000  -0.000000
    26  C    1.196497   0.000245   0.000028   0.000092  -0.000150   0.000004
    27  H    0.074684  -0.000003  -0.000000   0.000000  -0.000000   0.000000
    28  F    0.000469   0.000002   0.000000   0.000000   0.000000   0.000000
    29  F   -0.013976   0.000002  -0.000000   0.000000  -0.000000  -0.000000
    30  F    0.021879   0.000001   0.000000   0.000000  -0.000000   0.000000
              19         20         21         22         23         24
     1  C   -0.000345  -0.000005   0.000097  -0.000098  -0.040109   0.177786
     2  N   -0.000767   0.000006   0.000013  -0.000088  -0.009520  -0.008796
     3  C   -0.001317  -0.000143   0.005576  -0.002598   0.044127  -0.037131
     4  O   -0.000147  -0.000047   0.000021  -0.000040  -0.007492  -0.000052
     5  N    0.007839   0.000606  -0.001230  -0.000668   0.000162   0.000368
     6  C   -0.071825  -0.053140   0.083293  -0.041992   0.004350  -0.000920
     7  C    0.460145   0.021099  -0.120800   0.008642  -0.000170  -0.000055
     8  C   -0.046371   0.377187   0.382819   0.381444   0.000026  -0.000003
     9  C   -0.000899  -0.000040   0.000004   0.000049   0.343272   0.120329
    10  C   -0.000062  -0.000003  -0.000000   0.000002  -0.067147   0.182172
    11  C    0.000007  -0.000000  -0.000000   0.000000   0.007105  -0.509557
    12  C    0.000023  -0.000001   0.000000   0.000000  -0.018744  -0.886346
    13  C    0.000748   0.000026  -0.000001  -0.000030   0.009550   0.214385
    14  H   -0.000001  -0.000000   0.000000   0.000000   0.000009   0.000714
    15  H   -0.000998   0.000002  -0.000028  -0.000051   0.000021  -0.000011
    16  H   -0.008273  -0.000483  -0.000079   0.003649  -0.000010   0.000001
    17  H    0.005552   0.003230  -0.000039  -0.000469   0.000024   0.000000
    18  H   -0.041125  -0.008349  -0.003237   0.005932  -0.000000  -0.000000
    19  H    0.435043   0.005839  -0.003170  -0.008162   0.000000   0.000000
    20  H    0.005839   0.445578  -0.024285  -0.036470  -0.000000   0.000000
    21  H   -0.003170  -0.024285   0.425060  -0.024331   0.000000  -0.000000
    22  H   -0.008162  -0.036470  -0.024331   0.445292  -0.000000  -0.000000
    23  H    0.000000  -0.000000   0.000000  -0.000000   0.347645   0.000383
    24  Cl   0.000000   0.000000  -0.000000  -0.000000   0.000383  17.572720
    25  H   -0.000000   0.000000  -0.000000  -0.000000  -0.000000  -0.015444
    26  C   -0.000001   0.000000   0.000000  -0.000000   0.050830  -0.171234
    27  H    0.000000   0.000000  -0.000000  -0.000000  -0.000163  -0.017588
    28  F    0.000000   0.000000   0.000000  -0.000000  -0.000075  -0.000596
    29  F   -0.000000   0.000000   0.000000  -0.000000   0.000138  -0.000579
    30  F   -0.000000  -0.000000  -0.000000   0.000000   0.009922  -0.000139
              25         26         27         28         29         30
     1  C    0.065640  -2.104654  -0.001869  -0.005471   0.039790   0.134444
     2  N   -0.014609   0.030873   0.000348   0.000636   0.000383   0.000595
     3  C    0.011802  -0.051835   0.000099  -0.001687   0.002225   0.004466
     4  O   -0.000115  -0.018346   0.000005  -0.000013   0.000064  -0.001079
     5  N   -0.000223   0.004996   0.000003   0.000017  -0.000011  -0.000068
     6  C    0.000173   0.000737   0.000004  -0.000008   0.000034   0.000075
     7  C    0.000026  -0.000290   0.000000  -0.000000  -0.000000   0.000005
     8  C    0.000002  -0.000016   0.000000  -0.000000  -0.000000  -0.000000
     9  C   -0.000417  -1.516879  -0.049628   0.006285   0.080606   0.048756
    10  C   -0.012609  -4.352345   0.080477   0.301624   0.158785  -0.259182
    11  C    0.092766   4.366860   0.011197  -0.339729  -0.351697   0.014750
    12  C    0.166024  -3.974823   0.149931   0.033800   0.107000   0.050581
    13  C    0.022012   1.196497   0.074684   0.000469  -0.013976   0.021879
    14  H    0.004772   0.000245  -0.000003   0.000002   0.000002   0.000001
    15  H    0.000027   0.000028  -0.000000   0.000000  -0.000000   0.000000
    16  H    0.000000   0.000092   0.000000   0.000000   0.000000   0.000000
    17  H   -0.000000  -0.000150  -0.000000   0.000000  -0.000000  -0.000000
    18  H   -0.000000   0.000004   0.000000   0.000000  -0.000000   0.000000
    19  H   -0.000000  -0.000001   0.000000   0.000000  -0.000000  -0.000000
    20  H    0.000000   0.000000   0.000000   0.000000   0.000000  -0.000000
    21  H   -0.000000   0.000000  -0.000000   0.000000   0.000000  -0.000000
    22  H   -0.000000  -0.000000  -0.000000  -0.000000  -0.000000   0.000000
    23  H   -0.000000   0.050830  -0.000163  -0.000075   0.000138   0.009922
    24  Cl  -0.015444  -0.171234  -0.017588  -0.000596  -0.000579  -0.000139
    25  H    0.360345   0.002227  -0.000228  -0.000000  -0.000000  -0.000006
    26  C    0.002227  11.232675   0.060980   0.181164   0.145318   0.140219
    27  H   -0.000228   0.060980   0.351180  -0.001119   0.001041   0.000472
    28  F   -0.000000   0.181164  -0.001119   8.983818  -0.051390  -0.033832
    29  F   -0.000000   0.145318   0.001041  -0.051390   8.993187  -0.024011
    30  F   -0.000006   0.140219   0.000472  -0.033832  -0.024011   9.034150
 Mulliken charges:
               1
     1  C   -0.933259
     2  N   -0.313680
     3  C    0.012925
     4  O   -0.524333
     5  N   -0.413550
     6  C   -0.519490
     7  C   -0.161413
     8  C   -1.041891
     9  C   -0.431316
    10  C   -0.901846
    11  C    0.165500
    12  C    0.394941
    13  C    0.040478
    14  H    0.426111
    15  H    0.452154
    16  H    0.277141
    17  H    0.278405
    18  H    0.267655
    19  H    0.268268
    20  H    0.269393
    21  H    0.280316
    22  H    0.269985
    23  H    0.325869
    24  Cl   0.379594
    25  H    0.317837
    26  C    0.776829
    27  H    0.340177
    28  F   -0.073894
    29  F   -0.086908
    30  F   -0.141997
 Sum of Mulliken charges =  -0.00000
 Mulliken charges with hydrogens summed into heavy atoms:
               1
     1  C   -0.933259
     2  N    0.112431
     3  C    0.012925
     4  O   -0.524333
     5  N    0.038604
     6  C    0.036055
     7  C    0.374510
     8  C   -0.222196
     9  C   -0.105447
    10  C   -0.901846
    11  C    0.505677
    12  C    0.394941
    13  C    0.358315
    24  Cl   0.379594
    26  C    0.776829
    28  F   -0.073894
    29  F   -0.086908
    30  F   -0.141997
 Electronic spatial extent (au):  <R**2>=           8110.3352
 Charge=             -0.0000 electrons
 Dipole moment (field-independent basis, Debye):
    X=             -6.7176    Y=              7.0144    Z=             -2.6521  Tot=             10.0678
 Quadrupole moment (field-independent basis, Debye-Ang):
   XX=            -95.2535   YY=           -114.6482   ZZ=           -115.7377
   XY=             -9.8077   XZ=              6.2173   YZ=             -0.7283
 Traceless Quadrupole moment (field-independent basis, Debye-Ang):
   XX=             13.2930   YY=             -6.1017   ZZ=             -7.1912
   XY=             -9.8077   XZ=              6.2173   YZ=             -0.7283
 Octapole moment (field-independent basis, Debye-Ang**2):
  XXX=           -106.0267  YYY=             -3.1526  ZZZ=              0.5658  XYY=            -24.3001
  XXY=             29.5332  XXZ=            -12.7111  XZZ=              3.8864  YZZ=             -9.7226
  YYZ=             -9.9664  XYZ=              1.8663
 Hexadecapole moment (field-independent basis, Debye-Ang**3):
 XXXX=          -7513.1355 YYYY=          -2004.9501 ZZZZ=           -240.2140 XXXY=           -171.2028
 XXXZ=             69.6034 YYYX=           -130.4474 YYYZ=             -6.5208 ZZZX=             -0.3522
 ZZZY=             -0.8886 XXYY=          -1753.1430 XXZZ=          -1418.6369 YYZZ=           -383.4327
 XXYZ=            -10.7488 YYXZ=             23.7177 ZZXY=            -36.0094
 N-N= 1.419620040099D+03 E-N=-6.070006396992D+03  KE= 1.366857900798D+03
 D1PCM: PCM CHGder 1st derivatives, ID1Alg=3 FixD1E=F DoIter=F DoCFld=F I1PDM=0.
 Calling FoFJK, ICntrl=      2127 FMM=F ISym2X=0 I1Cent= 0 IOpClX= 0 NMat=1 NMatS=1 NMatT=0.
 ***** Axes restored to original set *****
 -------------------------------------------------------------------
 Center     Atomic                   Forces (Hartrees/Bohr)
 Number     Number              X              Y              Z
 -------------------------------------------------------------------
      1        6          -0.000003184   -0.000007973    0.000009784
      2        7          -0.000018277   -0.000004686   -0.000004245
      3        6           0.000017631    0.000016134   -0.000001377
      4        8          -0.000005546   -0.000007794    0.000001623
      5        7          -0.000010222   -0.000003105    0.000018591
      6        6           0.000009217   -0.000005842   -0.000003279
      7        6          -0.000003422    0.000002472    0.000009712
      8        6          -0.000001221   -0.000005256    0.000002575
      9        6           0.000000096    0.000008890   -0.000001388
     10        6           0.000005139   -0.000007942   -0.000006756
     11        6           0.000002033   -0.000000468   -0.000003807
     12        6          -0.000002056    0.000006183   -0.000002128
     13        6           0.000007688    0.000004131   -0.000005696
     14        1           0.000002767   -0.000002055    0.000002282
     15        1           0.000000621   -0.000002369   -0.000011481
     16        1          -0.000005620    0.000002781    0.000002037
     17        1           0.000002454    0.000000832   -0.000002500
     18        1           0.000001227   -0.000003726    0.000000591
     19        1          -0.000000237   -0.000004038    0.000004164
     20        1          -0.000000521   -0.000000225    0.000002546
     21        1           0.000001414   -0.000003984    0.000004898
     22        1          -0.000000720   -0.000001053    0.000006306
     23        1           0.000001574   -0.000001594   -0.000000623
     24       17          -0.000003604    0.000000585   -0.000001468
     25        1          -0.000000882    0.000001438   -0.000001629
     26        6          -0.000006158    0.000006092    0.000002053
     27        1          -0.000000571    0.000001176   -0.000003891
     28        9           0.000002446    0.000002525   -0.000000758
     29        9           0.000005330    0.000001959   -0.000012432
     30        9           0.000002606    0.000006912   -0.000003702
 -------------------------------------------------------------------
 Cartesian Forces:  Max     0.000018591 RMS     0.000005850

 GradGradGradGradGradGradGradGradGradGradGradGradGradGradGradGradGradGrad
 Berny optimization.
 FormGI is forming the generalized inverse of G from B-inverse, IUseBI=4.
 Internal  Forces:  Max     0.000011427 RMS     0.000003021
 Search for a local minimum.
 Step number   1 out of a maximum of  157
 All quantities printed in internal units (Hartrees-Bohrs-Radians)
 Mixed Optimization -- En-DIIS/RFO-DIIS
 Second derivative matrix not updated -- first step.
 ITU=  0
     Eigenvalues ---    0.00452   0.00510   0.00754   0.00926   0.01534
     Eigenvalues ---    0.01667   0.01722   0.01885   0.01977   0.02001
     Eigenvalues ---    0.02129   0.02140   0.02179   0.02201   0.02227
     Eigenvalues ---    0.02249   0.02260   0.02283   0.02396   0.03778
     Eigenvalues ---    0.04492   0.04958   0.05560   0.05568   0.05573
     Eigenvalues ---    0.08133   0.09166   0.10520   0.10817   0.12037
     Eigenvalues ---    0.12644   0.15662   0.15969   0.15999   0.16000
     Eigenvalues ---    0.16000   0.16000   0.16000   0.16000   0.21889
     Eigenvalues ---    0.21917   0.22007   0.22124   0.23478   0.23502
     Eigenvalues ---    0.23508   0.24974   0.24990   0.24998   0.25000
     Eigenvalues ---    0.25000   0.25000   0.25000   0.25000   0.30012
     Eigenvalues ---    0.30426   0.30931   0.32285   0.34291   0.34312
     Eigenvalues ---    0.34353   0.34413   0.34465   0.34466   0.34639
     Eigenvalues ---    0.35488   0.35584   0.36133   0.37228   0.42529
     Eigenvalues ---    0.43035   0.45461   0.45798   0.45999   0.46362
     Eigenvalues ---    0.46746   0.47902   0.48011   0.48132   0.55710
     Eigenvalues ---    0.55752   0.56119   0.57591   0.89793
 RFO step:  Lambda=-2.06109018D-08 EMin= 4.52315487D-03
 Linear search not attempted -- first point.
 Iteration  1 RMS(Cart)=  0.00028010 RMS(Int)=  0.00000004
 Iteration  2 RMS(Cart)=  0.00000006 RMS(Int)=  0.00000000
 Variable       Old X    -DE/DX   Delta X   Delta X   Delta X     New X
                                 (Linear)    (Quad)   (Total)
    R1        2.64133  -0.00000   0.00000  -0.00001  -0.00001   2.64132
    R2        2.64465   0.00001   0.00000   0.00001   0.00001   2.64467
    R3        2.64066  -0.00001   0.00000  -0.00002  -0.00002   2.64064
    R4        2.61798   0.00001   0.00000   0.00002   0.00002   2.61800
    R5        1.91444   0.00000   0.00000   0.00000   0.00000   1.91444
    R6        2.33028  -0.00001   0.00000  -0.00001  -0.00001   2.33028
    R7        2.54506  -0.00000   0.00000  -0.00000  -0.00000   2.54506
    R8        2.75505   0.00000   0.00000   0.00001   0.00001   2.75506
    R9        1.91060   0.00001   0.00000   0.00001   0.00001   1.91061
   R10        2.87122  -0.00000   0.00000  -0.00000  -0.00000   2.87121
   R11        2.06638   0.00000   0.00000   0.00000   0.00000   2.06638
   R12        2.06738   0.00000   0.00000   0.00001   0.00001   2.06740
   R13        2.87939  -0.00000   0.00000  -0.00000  -0.00000   2.87939
   R14        2.06841   0.00000   0.00000   0.00001   0.00001   2.06842
   R15        2.06807   0.00000   0.00000   0.00001   0.00001   2.06808
   R16        2.06550   0.00000   0.00000   0.00001   0.00001   2.06551
   R17        2.06266   0.00000   0.00000   0.00001   0.00001   2.06266
   R18        2.06552   0.00000   0.00000   0.00001   0.00001   2.06553
   R19        2.61970  -0.00000   0.00000  -0.00001  -0.00001   2.61970
   R20        2.03873  -0.00000   0.00000  -0.00000  -0.00000   2.03873
   R21        2.63014   0.00000   0.00000   0.00001   0.00001   2.63015
   R22        2.83626   0.00001   0.00000   0.00004   0.00004   2.83629
   R23        2.61701  -0.00000   0.00000  -0.00000  -0.00000   2.61701
   R24        2.04737   0.00000   0.00000   0.00000   0.00000   2.04737
   R25        2.61895   0.00000   0.00000   0.00000   0.00000   2.61895
   R26        3.29845   0.00000   0.00000   0.00001   0.00001   3.29846
   R27        2.04891  -0.00000   0.00000  -0.00000  -0.00000   2.04890
   R28        2.54470  -0.00000   0.00000  -0.00000  -0.00000   2.54470
   R29        2.54151  -0.00001   0.00000  -0.00002  -0.00002   2.54149
   R30        2.52899   0.00000   0.00000   0.00001   0.00001   2.52900
    A1        2.14196  -0.00000   0.00000  -0.00002  -0.00002   2.14193
    A2        2.05433   0.00000   0.00000   0.00000   0.00000   2.05433
    A3        2.08606   0.00000   0.00000   0.00001   0.00001   2.08607
    A4        2.19185  -0.00001   0.00000  -0.00004  -0.00004   2.19182
    A5        2.01519   0.00001   0.00000   0.00003   0.00003   2.01523
    A6        2.03735   0.00000   0.00000  -0.00001  -0.00001   2.03735
    A7        2.14318  -0.00001   0.00000  -0.00002  -0.00002   2.14315
    A8        2.00091   0.00000   0.00000   0.00000   0.00000   2.00091
    A9        2.13910   0.00001   0.00000   0.00002   0.00002   2.13912
   A10        2.11340  -0.00000   0.00000  -0.00002  -0.00002   2.11338
   A11        2.09693   0.00000   0.00000   0.00001   0.00001   2.09695
   A12        2.07038  -0.00000   0.00000  -0.00001  -0.00001   2.07037
   A13        1.92537   0.00001   0.00000   0.00003   0.00003   1.92540
   A14        1.90776  -0.00001   0.00000  -0.00005  -0.00005   1.90771
   A15        1.91077  -0.00000   0.00000   0.00001   0.00001   1.91079
   A16        1.92268   0.00000   0.00000  -0.00000  -0.00000   1.92268
   A17        1.92245  -0.00000   0.00000   0.00002   0.00002   1.92247
   A18        1.87404   0.00000   0.00000  -0.00001  -0.00001   1.87403
   A19        1.93921  -0.00000   0.00000  -0.00001  -0.00001   1.93920
   A20        1.90656   0.00000   0.00000   0.00001   0.00001   1.90657
   A21        1.90673   0.00000   0.00000   0.00002   0.00002   1.90675
   A22        1.92048  -0.00000   0.00000  -0.00001  -0.00001   1.92047
   A23        1.92124  -0.00000   0.00000  -0.00001  -0.00001   1.92124
   A24        1.86817  -0.00000   0.00000  -0.00000  -0.00000   1.86817
   A25        1.93801  -0.00000   0.00000  -0.00001  -0.00001   1.93799
   A26        1.93886   0.00000   0.00000   0.00001   0.00001   1.93888
   A27        1.93817  -0.00000   0.00000  -0.00000  -0.00000   1.93817
   A28        1.88193   0.00000   0.00000   0.00001   0.00001   1.88194
   A29        1.88233   0.00000   0.00000  -0.00000  -0.00000   1.88232
   A30        1.88211  -0.00000   0.00000  -0.00000  -0.00000   1.88211
   A31        2.07542  -0.00000   0.00000  -0.00001  -0.00001   2.07541
   A32        2.10206  -0.00000   0.00000  -0.00001  -0.00001   2.10205
   A33        2.10565   0.00000   0.00000   0.00001   0.00001   2.10567
   A34        2.14018  -0.00000   0.00000  -0.00001  -0.00001   2.14017
   A35        2.09192   0.00000   0.00000   0.00001   0.00001   2.09194
   A36        2.05070  -0.00000   0.00000  -0.00000  -0.00000   2.05069
   A37        2.04474   0.00000   0.00000   0.00001   0.00001   2.04475
   A38        2.12115   0.00000   0.00000   0.00000   0.00000   2.12115
   A39        2.11729  -0.00000   0.00000  -0.00001  -0.00001   2.11727
   A40        2.13196  -0.00000   0.00000  -0.00000  -0.00000   2.13195
   A41        2.07863   0.00000   0.00000   0.00000   0.00000   2.07863
   A42        2.07253   0.00000   0.00000   0.00000   0.00000   2.07253
   A43        2.08774  -0.00000   0.00000  -0.00001  -0.00001   2.08774
   A44        2.09299   0.00000   0.00000   0.00000   0.00000   2.09299
   A45        2.10245   0.00000   0.00000   0.00001   0.00001   2.10245
   A46        1.95072   0.00000   0.00000   0.00000   0.00000   1.95072
   A47        1.95295   0.00000   0.00000   0.00001   0.00001   1.95296
   A48        1.97194   0.00001   0.00000   0.00003   0.00003   1.97197
   A49        1.85230  -0.00000   0.00000  -0.00002  -0.00002   1.85228
   A50        1.86302  -0.00000   0.00000  -0.00001  -0.00001   1.86301
   A51        1.86565  -0.00000   0.00000  -0.00002  -0.00002   1.86563
    D1        0.55841   0.00000   0.00000   0.00001   0.00001   0.55842
    D2       -2.89000  -0.00000   0.00000  -0.00003  -0.00003  -2.89004
    D3       -2.62760  -0.00000   0.00000  -0.00007  -0.00007  -2.62767
    D4        0.20718  -0.00000   0.00000  -0.00012  -0.00012   0.20706
    D5        3.11859  -0.00000   0.00000  -0.00009  -0.00009   3.11850
    D6       -0.01192  -0.00000   0.00000  -0.00008  -0.00008  -0.01200
    D7        0.02218   0.00000   0.00000   0.00000   0.00000   0.02219
    D8       -3.10833   0.00000   0.00000   0.00001   0.00001  -3.10831
    D9       -3.10600   0.00000   0.00000   0.00005   0.00005  -3.10595
   D10        0.03828   0.00000   0.00000   0.00005   0.00005   0.03833
   D11       -0.00735  -0.00000   0.00000  -0.00004  -0.00004  -0.00738
   D12        3.13693  -0.00000   0.00000  -0.00004  -0.00004   3.13690
   D13       -0.07193   0.00000   0.00000   0.00010   0.00010  -0.07182
   D14        3.06761  -0.00000   0.00000  -0.00009  -0.00009   3.06752
   D15       -2.90324   0.00000   0.00000   0.00014   0.00014  -2.90309
   D16        0.23630  -0.00000   0.00000  -0.00006  -0.00006   0.23624
   D17        3.12018   0.00000   0.00000   0.00004   0.00004   3.12022
   D18        0.05517   0.00000   0.00000   0.00019   0.00019   0.05536
   D19       -0.02346  -0.00000   0.00000  -0.00015  -0.00015  -0.02362
   D20       -3.08847  -0.00000   0.00000  -0.00000  -0.00000  -3.08848
   D21       -3.13467  -0.00000   0.00000  -0.00042  -0.00042  -3.13509
   D22        1.03189  -0.00000   0.00000  -0.00040  -0.00040   1.03149
   D23       -1.01638  -0.00000   0.00000  -0.00037  -0.00037  -1.01675
   D24       -0.06852  -0.00001   0.00000  -0.00057  -0.00057  -0.06909
   D25       -2.18515  -0.00001   0.00000  -0.00055  -0.00055  -2.18570
   D26        2.04977  -0.00000   0.00000  -0.00051  -0.00051   2.04925
   D27        3.13597   0.00000   0.00000   0.00005   0.00005   3.13602
   D28        1.01402   0.00000   0.00000   0.00006   0.00006   1.01407
   D29       -1.02418   0.00000   0.00000   0.00004   0.00004  -1.02413
   D30       -1.03948  -0.00000   0.00000   0.00000   0.00000  -1.03948
   D31        3.12175  -0.00000   0.00000   0.00001   0.00001   3.12175
   D32        1.08355  -0.00000   0.00000  -0.00000  -0.00000   1.08355
   D33        1.02464  -0.00000   0.00000   0.00000   0.00000   1.02464
   D34       -1.09732  -0.00000   0.00000   0.00001   0.00001  -1.09731
   D35       -3.13551  -0.00000   0.00000  -0.00000  -0.00000  -3.13552
   D36       -1.04917   0.00000   0.00000   0.00002   0.00002  -1.04915
   D37        3.13975  -0.00000   0.00000   0.00000   0.00000   3.13975
   D38        1.04514  -0.00000   0.00000  -0.00000  -0.00000   1.04514
   D39        1.06464   0.00000   0.00000   0.00002   0.00002   1.06466
   D40       -1.02963   0.00000   0.00000   0.00001   0.00001  -1.02962
   D41       -3.12424   0.00000   0.00000   0.00000   0.00000  -3.12424
   D42        3.11948   0.00000   0.00000   0.00001   0.00001   3.11949
   D43        1.02521  -0.00000   0.00000  -0.00000  -0.00000   1.02521
   D44       -1.06940  -0.00000   0.00000  -0.00001  -0.00001  -1.06941
   D45       -0.01942   0.00000   0.00000   0.00003   0.00003  -0.01939
   D46       -3.13060   0.00000   0.00000  -0.00000  -0.00000  -3.13061
   D47        3.11107   0.00000   0.00000   0.00002   0.00002   3.11109
   D48       -0.00012  -0.00000   0.00000  -0.00001  -0.00001  -0.00013
   D49        0.00120  -0.00000   0.00000  -0.00003  -0.00003   0.00117
   D50       -3.13565  -0.00000   0.00000  -0.00002  -0.00002  -3.13567
   D51        3.11306   0.00000   0.00000   0.00000   0.00000   3.11307
   D52       -0.02379   0.00000   0.00000   0.00001   0.00001  -0.02378
   D53        1.97142   0.00000   0.00000   0.00013   0.00013   1.97155
   D54       -2.23703   0.00000   0.00000   0.00012   0.00012  -2.23692
   D55       -0.13028   0.00000   0.00000   0.00012   0.00012  -0.13016
   D56       -1.14130   0.00000   0.00000   0.00010   0.00010  -1.14120
   D57        0.93343  -0.00000   0.00000   0.00009   0.00009   0.93352
   D58        3.04018   0.00000   0.00000   0.00009   0.00009   3.04027
   D59        0.01451  -0.00000   0.00000  -0.00001  -0.00001   0.01450
   D60       -3.13962  -0.00000   0.00000  -0.00000  -0.00000  -3.13962
   D61       -3.13181  -0.00000   0.00000  -0.00002  -0.00002  -3.13183
   D62       -0.00276  -0.00000   0.00000  -0.00001  -0.00001  -0.00276
   D63       -0.01151   0.00000   0.00000   0.00004   0.00004  -0.01147
   D64        3.12738   0.00000   0.00000   0.00004   0.00004   3.12742
   D65       -3.14061   0.00000   0.00000   0.00003   0.00003  -3.14058
   D66       -0.00172   0.00000   0.00000   0.00003   0.00003  -0.00168
         Item               Value     Threshold  Converged?
 Maximum Force            0.000011     0.000450     YES
 RMS     Force            0.000003     0.000300     YES
 Maximum Displacement     0.001236     0.001800     YES
 RMS     Displacement     0.000280     0.001200     YES
 Predicted change in Energy=-1.030544D-08
 Optimization completed.
    -- Stationary point found.
                           ----------------------------
                           !   Optimized Parameters   !
                           ! (Angstroms and Degrees)  !
 --------------------------                            --------------------------
 ! Name  Definition              Value          Derivative Info.                !
 --------------------------------------------------------------------------------
 ! R1    R(1,2)                  1.3977         -DE/DX =    0.0                 !
 ! R2    R(1,9)                  1.3995         -DE/DX =    0.0                 !
 ! R3    R(1,13)                 1.3974         -DE/DX =    0.0                 !
 ! R4    R(2,3)                  1.3854         -DE/DX =    0.0                 !
 ! R5    R(2,14)                 1.0131         -DE/DX =    0.0                 !
 ! R6    R(3,4)                  1.2331         -DE/DX =    0.0                 !
 ! R7    R(3,5)                  1.3468         -DE/DX =    0.0                 !
 ! R8    R(5,6)                  1.4579         -DE/DX =    0.0                 !
 ! R9    R(5,15)                 1.011          -DE/DX =    0.0                 !
 ! R10   R(6,7)                  1.5194         -DE/DX =    0.0                 !
 ! R11   R(6,16)                 1.0935         -DE/DX =    0.0                 !
 ! R12   R(6,17)                 1.094          -DE/DX =    0.0                 !
 ! R13   R(7,8)                  1.5237         -DE/DX =    0.0                 !
 ! R14   R(7,18)                 1.0946         -DE/DX =    0.0                 !
 ! R15   R(7,19)                 1.0944         -DE/DX =    0.0                 !
 ! R16   R(8,20)                 1.093          -DE/DX =    0.0                 !
 ! R17   R(8,21)                 1.0915         -DE/DX =    0.0                 !
 ! R18   R(8,22)                 1.093          -DE/DX =    0.0                 !
 ! R19   R(9,10)                 1.3863         -DE/DX =    0.0                 !
 ! R20   R(9,23)                 1.0789         -DE/DX =    0.0                 !
 ! R21   R(10,11)                1.3918         -DE/DX =    0.0                 !
 ! R22   R(10,26)                1.5009         -DE/DX =    0.0                 !
 ! R23   R(11,12)                1.3849         -DE/DX =    0.0                 !
 ! R24   R(11,27)                1.0834         -DE/DX =    0.0                 !
 ! R25   R(12,13)                1.3859         -DE/DX =    0.0                 !
 ! R26   R(12,24)                1.7455         -DE/DX =    0.0                 !
 ! R27   R(13,25)                1.0842         -DE/DX =    0.0                 !
 ! R28   R(26,28)                1.3466         -DE/DX =    0.0                 !
 ! R29   R(26,29)                1.3449         -DE/DX =    0.0                 !
 ! R30   R(26,30)                1.3383         -DE/DX =    0.0                 !
 ! A1    A(2,1,9)              122.725          -DE/DX =    0.0                 !
 ! A2    A(2,1,13)             117.7042         -DE/DX =    0.0                 !
 ! A3    A(9,1,13)             119.5225         -DE/DX =    0.0                 !
 ! A4    A(1,2,3)              125.5839         -DE/DX =    0.0                 !
 ! A5    A(1,2,14)             115.4621         -DE/DX =    0.0                 !
 ! A6    A(3,2,14)             116.7318         -DE/DX =    0.0                 !
 ! A7    A(2,3,4)              122.795          -DE/DX =    0.0                 !
 ! A8    A(2,3,5)              114.6437         -DE/DX =    0.0                 !
 ! A9    A(4,3,5)              122.5612         -DE/DX =    0.0                 !
 ! A10   A(3,5,6)              121.0889         -DE/DX =    0.0                 !
 ! A11   A(3,5,15)             120.1453         -DE/DX =    0.0                 !
 ! A12   A(6,5,15)             118.624          -DE/DX =    0.0                 !
 ! A13   A(5,6,7)              110.3158         -DE/DX =    0.0                 !
 ! A14   A(5,6,16)             109.3067         -DE/DX =    0.0                 !
 ! A15   A(5,6,17)             109.4792         -DE/DX =    0.0                 !
 ! A16   A(7,6,16)             110.1613         -DE/DX =    0.0                 !
 ! A17   A(7,6,17)             110.1481         -DE/DX =    0.0                 !
 ! A18   A(16,6,17)            107.3746         -DE/DX =    0.0                 !
 ! A19   A(6,7,8)              111.1085         -DE/DX =    0.0                 !
 ! A20   A(6,7,18)             109.2378         -DE/DX =    0.0                 !
 ! A21   A(6,7,19)             109.2476         -DE/DX =    0.0                 !
 ! A22   A(8,7,18)             110.0351         -DE/DX =    0.0                 !
[...]
 ,0.00000409,-0.00004986,-0.00000831,-0.00003274,-0.00000828,-0.0000084
 1,-0.00003053,-0.00001267,0.00000019,0.00000020,0.00000243,0.00000268,
 0.00000017,0.00000424,-0.00000053,-0.00000036,-0.00000114,0.,-0.000010
 26,-0.00000165,-0.00000056,-0.00000074,-0.00000091,-0.00000106,0.00002
 231,0.00010396,-0.00006528,0.09535961,0.11823368,0.00063853,-0.0009012
 0,0.00522694,0.00081202,0.00037287,-0.00012925,-0.00049276,-0.00025769
 ,-0.00025401,0.00019482,0.00012374,0.00007831,0.00024291,-0.00004008,0
 .00000329,-0.00004196,-0.00004048,-0.00000107,0.00000698,0.00001981,0.
 00000641,0.00000334,-0.00001000,-0.00000340,0.00019312,0.00031243,-0.0
 0103772,0.00031693,0.00087084,0.00475767,0.00519572,0.00391132,0.00292
 797,0.02291526,0.01741172,-0.02936876,0.00799993,0.00660879,0.00196464
 ,0.00001544,0.00004091,0.00005890,-0.00000765,0.00002872,-0.00000216,0
 .00001595,0.00000550,0.00000383,0.00001370,0.00000351,0.00000022,0.000
 00031,-0.00000150,-0.00000121,0.00000129,-0.00000296,0.00000043,-0.000
 00019,0.00000091,-0.00000010,0.00000460,0.00000076,0.00000031,0.000000
 13,0.00000015,0.00000015,-0.00013486,-0.00003561,-0.00051922,-0.036782
 67,-0.02791665,0.02104777,0.00711477,-0.02289544,0.00153648,0.00090211
 ,-0.00109250,-0.00087509,-0.00013865,-0.00013013,-0.00024421,-0.000050
 82,0.00013811,0.00005976,0.00005324,-0.00002570,0.00003711,-0.00001481
 ,-0.00001260,0.00000561,0.00000143,0.00000414,0.00000269,0.00000088,-0
 .00000156,-0.00000045,-0.00339764,-0.00271133,0.00212147,-0.00126814,-
 0.00039806,0.00013090,-0.00468886,0.00150073,0.00197298,-0.00118947,0.
 02769599,-0.00155783,-0.06396850,0.04353712,0.00203619,-0.00065607,0.0
 0024042,0.00046803,-0.00000624,0.00000673,0.00000524,0.00000777,0.0000
 0032,0.00000058,0.00000255,0.00000398,-0.00000222,-0.00000066,-0.00000
 058,-0.00000029,-0.00000014,0.00000047,-0.00000030,0.00000046,0.000000
 47,-0.00000023,0.00000116,0.00000007,-0.00000007,-0.00000003,-0.000000
 02,0.00000020,0.00042161,-0.00110235,-0.00005226,0.00041114,0.00119393
 ,-0.00070063,0.06626024,0.00494836,-0.01304238,0.00047504,0.00199012,0
 .00127045,-0.00068492,-0.00051072,-0.00001440,-0.00026372,0.00007929,0
 .00027722,0.00012645,0.00006904,-0.00008162,0.00001264,-0.00001503,-0.
 00000301,0.00001128,-0.00000078,0.00000228,0.00000168,0.00000063,-0.00
 000111,-0.00000048,-0.00273136,-0.00064019,0.00102138,-0.00060369,0.00
 060785,0.00004703,0.00157804,0.00133107,0.00004670,-0.00096519,-0.0066
 6338,0.00081450,0.04454832,-0.34190574,0.01683715,-0.00088261,0.000183
 65,0.00031202,0.00000015,0.00000810,0.00000159,0.00001059,-0.00000043,
 -0.00000117,0.00000491,0.00000281,-0.00000175,-0.00000071,0.00000011,0
 .00000005,-0.00000003,0.00000054,-0.00000025,0.00000048,0.00000005,0.,
 0.00000098,0.00000026,0.00000001,0.00000007,-0.00000003,-0.00000020,0.
 00040352,-0.00055264,-0.00007928,-0.00064705,0.00087703,-0.00014719,-0
 .04724159,0.35858543,0.00036764,0.00574148,0.00471508,-0.00097859,0.00
 042328,-0.00312083,-0.00071720,0.00002461,-0.00068214,0.00003650,0.000
 08204,0.00009616,0.00011901,-0.00017850,0.00005307,-0.00003325,-0.0000
 1625,0.00008499,-0.00000370,0.00000245,0.00000475,0.00000065,-0.000000
 82,-0.00000105,0.00190971,0.00081630,0.00529407,-0.00006196,-0.0000198
 0,-0.00067644,0.00209548,0.00024892,0.00527275,0.00082094,-0.00491701,
 0.00273953,0.00129720,0.01695190,-0.03793669,0.00054783,-0.00005945,-0
 .00010411,0.00000571,0.00002869,-0.00002532,0.00002853,0.00000069,-0.0
 0000462,-0.00000265,0.00000428,-0.00000541,-0.00000063,-0.00000158,-0.
 00000196,0.00000012,-0.00000025,0.,0.00000093,0.00000065,-0.00000012,0
 .00000138,0.00000005,-0.00000030,-0.00000035,-0.00000048,-0.00000052,-
 0.00008317,0.00016897,-0.00024357,-0.00046313,-0.00049389,-0.00244480,
 -0.00479461,-0.01858717,0.02716924,-0.00552634,0.00386638,0.00248160,0
 .00100877,0.00102543,-0.00001844,-0.00065583,0.00012878,0.00006401,0.0
 0059704,-0.00021367,0.00012829,0.00034163,-0.00021562,-0.00005603,-0.0
 0007832,-0.00004089,-0.00001465,0.00000383,0.00002417,0.00000803,0.000
 00505,-0.00001220,-0.00000552,0.00113723,0.02614778,-0.00314460,-0.095
 00146,0.02104788,0.00397920,0.01109734,-0.02253590,0.00023852,-0.00033
 755,-0.00537279,0.00190971,-0.00373155,-0.00125251,0.00067105,-0.00024
 267,0.00011368,-0.00003166,0.00001400,0.00002825,0.00000062,0.00002141
 ,0.00000681,0.00000188,0.00001914,0.00000607,0.00000280,0.00000109,-0.
 00000227,-0.00000272,0.00000057,-0.00000447,0.00000163,-0.00000071,0.0
 0000087,0.00000145,0.00000799,-0.00000042,0.00000003,-0.00000002,0.000
 00172,0.00000001,-0.00233744,0.00026152,-0.00040771,-0.00124331,-0.002
 10535,0.00038340,-0.00013475,-0.00007343,-0.00007179,0.51616105,0.0041
 9610,-0.00055888,-0.00037745,-0.00518034,0.00159560,0.00041420,0.00456
 628,0.00191704,0.00059619,-0.00191185,-0.00092109,-0.00060603,-0.00190
 274,0.00056909,0.00012760,0.00039039,0.00026364,0.00011588,-0.00005370
 ,-0.00013046,-0.00004576,-0.00002023,0.00006422,0.00002295,0.01307451,
 -0.00808177,-0.00196408,0.02485512,-0.21773585,0.01127878,-0.00557245,
 -0.02126487,0.00268274,-0.00577977,-0.00037340,0.00147610,-0.00042197,
 0.00422720,-0.00046887,-0.00044957,-0.00028673,-0.00002674,0.00001881,
 -0.00017348,-0.00004667,-0.00011358,-0.00002870,-0.00003184,-0.0001278
 1,-0.00004208,0.00000537,0.00000160,0.00000964,0.00000733,0.00000165,0
 .00001178,0.00000009,-0.00000373,-0.00000500,0.00000264,-0.00003407,-0
 .00000603,-0.00000290,-0.00000344,-0.00000194,-0.00000463,-0.00150905,
 -0.00019723,0.00002615,0.00248385,0.00253447,-0.00059542,-0.00000764,0
 .00003164,-0.00002829,-0.00519237,0.60774993,0.00225366,-0.00083221,0.
 00662777,0.00023284,-0.00010895,0.00009171,-0.00027154,-0.00018995,-0.
 00010709,-0.00001702,0.00017303,-0.00000902,0.00011556,0.00000906,-0.0
 0001211,-0.00000981,-0.00001978,0.00002230,0.00000336,0.00000868,0.000
 00536,0.00000188,-0.00000431,-0.00000116,-0.00102087,-0.00483858,0.003
 19134,0.00473509,0.01007778,-0.06730135,-0.00252769,0.00568615,-0.0009
 6933,0.00193171,0.00186974,0.00577534,0.00081449,-0.00031166,-0.001179
 53,0.00002625,0.00000067,-0.00010619,-0.00001256,0.00000837,0.00000664
 ,0.00000365,0.00000122,-0.00000142,0.00000896,0.00000450,-0.00000024,0
 .00000120,-0.00000318,-0.00000349,-0.00000102,0.00000173,0.00000016,0.
 00000078,0.00000190,-0.00000007,0.00000202,0.00000005,0.00000025,-0.00
 000138,-0.00000043,-0.00000168,-0.00033553,-0.00043485,-0.00390844,0.0
 0002803,0.00017130,0.00027652,-0.00003876,-0.00001658,-0.00042172,-0.0
 1053270,-0.00919043,0.46733030,0.00007090,-0.00028445,-0.00018504,0.00
 026825,0.00009373,-0.00018406,-0.00008134,-0.00017430,-0.00000764,-0.0
 0009000,0.00012149,-0.00002995,0.00000008,0.00001293,0.00001858,0.0000
 0218,0.00000324,0.00000337,-0.00000034,0.00000062,-0.00000031,0.000000
 21,-0.00000003,-0.00000002,-0.00055242,-0.00352799,0.00175426,-0.01497
 742,0.00907604,0.00298483,-0.30347585,0.09986110,0.04860618,-0.0000642
 5,-0.00128035,0.00057353,0.00141844,-0.00000050,0.00094609,-0.00001634
 ,0.00000943,-0.00003099,-0.00000275,0.00000055,0.00000442,0.00000251,-
 0.00000156,-0.00000158,0.00000087,0.00000028,-0.00000088,-0.00000016,-
 0.00000003,-0.00000005,-0.00000001,0.00000028,0.00000005,0.00000004,-0
 .00000006,0.00000002,-0.00000010,0.00000004,0.00000003,-0.00000009,-0.
 00000009,-0.00000014,-0.00049249,0.00058700,0.00020043,0.00042799,-0.0
 0056011,-0.00067802,0.00014494,-0.00004415,0.00004313,-0.00170690,0.00
 094728,-0.00023372,0.31831100,-0.00049329,-0.00105086,0.00013326,0.000
 05304,0.00029410,-0.00004806,0.00005545,-0.00011270,-0.00007942,-0.000
 11477,0.00010701,-0.00002741,-0.00002346,0.00003523,0.00002462,0.00000
 916,0.00000050,0.00000474,0.00000005,-0.00000119,-0.00000019,-0.000000
 16,0.00000056,0.00000023,-0.00288624,-0.00267567,0.00138988,-0.0179333
 8,0.01224128,0.00290781,0.09795629,-0.09799651,-0.01573842,0.02747541,
 -0.00722654,-0.00500078,-0.00028379,-0.00525153,0.00083974,-0.00009403
 ,0.00000161,0.00002766,-0.00000284,-0.00000138,0.00000073,-0.00000116,
 -0.00000066,-0.00000072,-0.00000252,-0.00000046,-0.00000039,-0.0000001
 5,0.00000018,0.00000007,0.00000012,0.00000032,-0.00000001,0.00000005,-
 0.00000003,-0.00000003,-0.00000049,-0.00000003,-0.00000006,-0.00000008
 ,-0.00000010,-0.00000005,-0.00078924,0.00058806,0.00022442,0.00107613,
 0.00038290,-0.00037895,0.00130508,-0.00015844,-0.00023476,-0.00089557,
 0.00023379,0.00006867,-0.10413381,0.10182511,-0.00019629,-0.00000083,-
 0.00094683,-0.00018126,0.00024704,-0.00058994,-0.00001319,0.00014866,-
 0.00000519,0.00024829,-0.00009214,0.00002256,-0.00002886,-0.00001393,0
 .00004666,0.00000246,-0.00000625,0.00001628,-0.00000109,0.00000016,-0.
 00000068,0.00000002,-0.00000019,-0.00000063,0.00191291,0.00121484,0.00
 549795,0.00480449,-0.00284887,0.00207571,0.04895922,-0.01614938,-0.042
 35634,-0.00128037,0.00094008,0.00262582,0.00053170,0.00088337,0.005498
 39,0.00002137,-0.00003942,-0.00001092,-0.00000301,-0.00000977,0.000010
 88,0.00000481,-0.00000388,-0.00000650,-0.00000480,0.00000371,-0.000001
 77,0.00000055,-0.00000088,-0.00000075,0.00000016,0.00000034,0.,0.00000
 019,0.00000026,-0.00000002,0.00000015,-0.00000004,0.,-0.00000029,-0.00
 000003,-0.00000013,0.00022689,-0.00006836,0.00050540,-0.00086701,-0.00
 004470,-0.00235361,-0.00004722,0.00008612,0.00031378,-0.00050652,-0.00
 048313,-0.00298696,-0.05341769,0.01631396,0.03319899,0.00083101,-0.000
 43480,0.00107478,-0.00076223,0.00038753,0.00003786,0.00079163,0.000234
 88,0.00009172,-0.00037863,-0.00008711,-0.00009574,-0.00034952,0.000124
 64,0.00003078,0.00007204,0.00004737,0.00002511,-0.00000910,-0.00002464
 ,-0.00000914,-0.00000423,0.00001236,0.00000428,0.00127288,0.00136073,-
 0.00065635,-0.00654885,0.01055573,-0.01983621,-0.00190786,-0.00031891,
 0.00019452,-0.00076329,0.00089186,0.00136302,0.00042020,0.00071945,-0.
 00037440,-0.00011197,-0.00004095,-0.00005409,0.00000146,-0.00003278,-0
 .00001167,-0.00001833,-0.00000687,-0.00000404,-0.00002237,-0.00000823,
 -0.00000132,-0.00000035,0.00000214,0.00000214,-0.00000006,0.00000261,-
 0.00000042,-0.00000028,-0.00000104,-0.00000014,-0.00000684,-0.00000062
 ,-0.00000047,-0.00000011,-0.00000077,-0.00000026,0.00019615,-0.0002675
 7,-0.00065472,0.00045861,0.00050141,-0.00012162,0.00001500,0.00001978,
 -0.00010507,-0.12905357,0.03903082,-0.07879026,0.00005624,-0.00018722,
 -0.00058409,0.18991378,-0.00108446,-0.00079600,-0.00159943,0.00121113,
 -0.00065435,-0.00024039,-0.00126089,-0.00052064,-0.00016062,0.00050587
 ,0.00025402,0.00016157,0.00051955,-0.00015329,-0.00003177,-0.00010782,
 -0.00007374,-0.00003649,0.00001489,0.00003634,0.00001300,0.00000588,-0
 .00001813,-0.00000591,-0.00296944,-0.00258446,0.00251740,0.02892503,-0
 .01116101,0.03103122,0.00188202,-0.00031093,-0.00014785,0.00072508,0.0
 0113701,-0.00106692,0.00098845,-0.00104057,0.00013725,0.00019707,0.000
 07541,0.00003004,-0.00000515,0.00004996,0.00001326,0.00003085,0.000008
 51,0.00000833,0.00003439,0.00001164,-0.00000099,-0.00000051,-0.0000025
 8,-0.00000239,-0.00000011,-0.00000328,0.00000005,0.00000089,0.00000144
 ,-0.00000063,0.00000960,0.00000151,0.00000077,0.00000061,0.00000071,0.
 00000121,0.00014748,0.00023681,0.00082791,-0.00056081,-0.00059255,0.00
 017281,-0.00000540,-0.00001478,0.00003516,0.03445025,-0.09555374,0.044
 19243,-0.00022969,-0.00003640,0.00048961,-0.03575519,0.08476653,0.0001
 2095,0.00020300,0.00062471,-0.00079542,0.00056966,0.00016959,0.0008645
 5,0.00031070,0.00009619,-0.00034871,-0.00014120,-0.00011349,-0.0003648
 6,0.00011454,0.00003282,0.00007202,0.00005037,0.00001889,-0.00000981,-
 0.00002469,-0.00000947,-0.00000475,0.00001308,0.00000414,0.00169316,0.
 00293041,-0.00177563,-0.01774692,0.00878135,-0.00904218,-0.00121139,-0
 .00045858,0.00121487,-0.00042640,-0.00029626,0.00041581,-0.00030967,0.
 00045901,-0.00013028,-0.00016607,-0.00004832,0.00000105,0.00000414,-0.
 00003469,-0.00001191,-0.00002011,-0.00000605,-0.00000446,-0.00002390,-
 0.00000909,-0.00000037,-0.00000036,0.00000272,0.00000278,-0.00000009,0
 .00000199,-0.00000020,-0.00000075,-0.00000132,0.00000001,-0.00000682,-
 0.00000078,-0.00000058,-0.00000006,-0.00000047,0.00000009,0.00020674,-
 0.00014140,-0.00035013,0.00041724,0.00047027,-0.00014623,0.00002647,0.
 00003094,-0.00002609,-0.07777649,0.04972753,-0.16232054,0.00028027,-0.
 00004114,-0.00036012,0.14460371,-0.04798043,0.26543530,0.00027940,-0.0
 0010788,-0.00101959,-0.00057722,0.00023838,-0.00002439,0.00062797,0.00
 018855,0.00009679,-0.00031284,-0.00008151,-0.00009151,-0.00027644,0.00
 009032,0.00001554,0.00005720,0.00003993,0.00001674,-0.00000755,-0.0000
 1887,-0.00000672,-0.00000308,0.00000901,0.00000403,0.00161400,0.001254
 29,-0.00001068,-0.00194488,0.01130773,0.01792063,-0.00175251,0.0002052
 7,0.00011488,-0.00079254,0.00021174,-0.00099058,0.00011321,0.00060766,
 0.00011086,-0.00007285,-0.00003418,-0.00000329,0.00000244,-0.00002586,
 -0.00000456,-0.00001578,-0.00000508,-0.00000462,-0.00001636,-0.0000057
 7,-0.00000058,-0.00000004,0.00000127,0.00000103,-0.00000018,0.00000264
 ,-0.00000034,-0.00000005,-0.00000053,-0.00000007,-0.00000538,-0.000000
 61,-0.00000030,-0.00000047,-0.00000067,-0.00000066,0.00043496,-0.00019
 574,0.00043308,0.00037228,0.00038135,-0.00007050,0.00005731,0.00002271
 ,0.00007168,-0.10502806,0.04105384,0.06486931,0.00053417,-0.00029440,0
 .00047813,0.01635486,-0.00592316,-0.01594009,0.14471009,0.00013081,-0.
 00042923,0.00165432,0.00149793,-0.00066341,0.00009469,-0.00137575,-0.0
 0060695,-0.00022400,0.00055807,0.00030658,0.00020118,0.00058067,-0.000
 15371,-0.00003354,-0.00011556,-0.00007829,-0.00004085,0.00001677,0.000
 03919,0.00001436,0.00000609,-0.00001897,-0.00000735,-0.00429239,-0.004
 90390,-0.00061982,0.02626927,-0.01675147,-0.03624265,0.00155085,-0.001
 15515,-0.00005605,0.00091196,0.00159923,0.00023609,0.00099909,-0.00103
 148,-0.00030173,0.00018826,0.00006693,0.00003610,-0.00000944,0.0000525
 1,0.00001308,0.00003264,0.00000934,0.00001041,0.00003826,0.00001235,-0
 .00000047,-0.00000021,-0.00000282,-0.00000196,-0.00000079,-0.00000393,
 0.00000012,0.00000072,0.00000134,-0.00000064,0.00001039,0.00000172,0.0
 0000084,0.00000111,0.00000074,0.00000157,-0.00023362,0.00018972,-0.000
 66860,-0.00061827,-0.00062639,0.00011367,-0.00001672,-0.00002379,0.000
 01366,0.03680550,-0.11484318,-0.06085727,-0.00042520,-0.00153665,-0.00
 047586,-0.00424539,0.01464501,-0.00428149,-0.04588428,0.10944550,0.000
 35391,0.00049569,0.00022672,0.00071715,-0.00049192,0.00005690,-0.00074
 119,-0.00027137,-0.00011827,0.00033845,0.00012400,0.00012517,0.0003164
 7,-0.00009293,-0.00001224,-0.00006378,-0.00004277,-0.00002719,0.000008
 94,0.00002107,0.00000727,0.00000361,-0.00001071,-0.00000431,-0.0017697
 8,-0.00348665,-0.00016383,0.01253805,-0.00902455,-0.00920706,0.0015618
 9,0.00104135,0.00083793,0.00057562,-0.00011598,0.00032696,-0.00023997,
 -0.00042674,-0.00002155,0.00013839,0.00003040,0.00001772,-0.00000493,0
 .00003016,0.00000492,0.00001884,0.00000514,0.00000642,0.00001924,0.000
 00656,0.00000063,-0.00000032,-0.00000070,-0.00000023,-0.00000005,-0.00
 000323,0.00000018,0.00000003,0.00000022,-0.00000008,0.00000573,0.00000
 095,0.00000034,0.00000109,0.00000065,0.00000130,-0.00036653,0.00013482
 ,-0.00007508,-0.00038232,-0.00043350,0.00007184,-0.00005863,-0.0000356
 6,-0.00001647,0.06487031,-0.06885442,-0.17300163,-0.00060648,-0.000297
 95,-0.00028365,-0.00297884,-0.01187737,-0.09224283,-0.11924932,0.08570
 996,0.29467898,0.00068388,-0.00002410,-0.00002289,0.00047342,-0.000184
 24,-0.00002996,-0.00030785,-0.00030168,-0.00006910,0.00002512,0.000148
 36,0.00001585,0.00012014,-0.00000819,-0.00000078,-0.00002225,-0.000018
 83,-0.00000731,0.00000564,0.00000693,0.00000387,0.00000114,-0.00000344
 ,-0.00000135,-0.00350221,0.00301747,0.00085994,-0.00920607,-0.00908173
 ,0.00241850,0.00243827,-0.00247385,-0.00012662,-0.00050728,0.00046159,
 0.00008118,0.00032051,-0.00006894,-0.00006380,0.00002666,0.00002793,-0
 .00000205,-0.00000467,0.00001081,0.00000472,0.00000788,0.00000069,0.00
 000398,0.00001018,0.00000375,-0.00000227,-0.00000038,-0.00000057,0.000
 00049,-0.00000097,0.00000074,-0.00000082,0.00000107,0.00000019,-0.0000
 0097,0.00000123,0.00000106,0.00000041,0.00000053,-0.00000066,0.0000004
 8,0.00167211,0.00217633,-0.00066762,-0.00028342,-0.00054683,0.00007646
 ,0.00012016,0.00003935,-0.00003033,-0.18533764,-0.10233594,0.01876409,
 0.00022265,0.00020584,-0.00005966,-0.07044630,-0.02174640,-0.03313656,
 -0.05435165,-0.01238077,0.04499446,0.31784007,-0.00207321,0.00120600,0
 .00056977,0.00169468,-0.00032691,-0.00014995,-0.00139965,-0.00063008,-
 0.00017003,0.00056557,0.00033065,0.00020385,0.00056464,-0.00015740,-0.
 00003347,-0.00011460,-0.00007950,-0.00003120,0.00001635,0.00003932,0.0
 0001241,0.00000592,-0.00001890,-0.00000615,-0.00106091,-0.00147794,-0.
 00018073,-0.04411030,-0.02594332,0.00716391,0.00613018,-0.00781904,-0.
 00094860,-0.00116823,0.00008213,0.00058822,0.00008342,-0.00098885,0.00
 006507,0.00011053,0.00010283,-0.00001764,-0.00000812,0.00004999,0.0000
 1476,0.00003482,0.00000723,0.00000924,0.00003853,0.00001247,-0.0000032
 5,-0.00000105,-0.00000283,-0.00000221,-0.00000063,-0.00000316,-0.00000
 034,0.00000134,0.00000160,-0.00000116,0.00000968,0.00000212,0.00000093
 ,0.00000106,0.00000022,0.00000151,0.00018334,-0.00297090,0.00010086,-0
 .00102789,-0.00167909,0.00032929,0.00001408,-0.00007652,-0.00000485,-0
 .08599760,-0.15900360,0.01453288,-0.00005169,0.00033849,-0.00009048,-0
 .01247920,0.01229154,-0.01019966,-0.00303616,0.01645915,0.00786548,0.1
 4307513,0.17025430,0.00000473,-0.00022119,0.00007977,-0.00017602,0.000
 05685,0.00005042,0.00014784,0.00007437,0.00000418,-0.00004693,-0.00004
 632,-0.00000635,-0.00005734,0.00001136,0.00000864,0.00001160,0.0000082
 2,0.00000083,-0.00000071,-0.00000394,-0.00000135,-0.00000056,0.0000022
 2,0.00000056,0.00053532,-0.00014306,-0.00040135,0.00544024,0.00374657,
 0.00776321,-0.00040792,0.00070913,0.00160749,-0.00013900,0.00005424,-0
 .00043682,0.00009204,0.00010459,-0.00003865,-0.00001292,-0.00001093,0.
 00000819,0.00000170,-0.00000476,-0.00000278,-0.00000337,-0.00000096,-0
 .00000028,-0.00000426,-0.00000154,0.00000047,-0.00000033,0.00000080,0.
 00000054,-0.00000002,-0.00000042,0.00000023,-0.00000043,-0.00000041,0.
 00000009,-0.00000102,-0.00000016,-0.00000015,-0.00000010,-0.00000002,0
 .00000028,-0.00035819,-0.00026140,0.00027934,0.00008519,0.00016438,-0.
 00016368,-0.00003090,-0.00000618,-0.00003125,0.01782627,0.01624310,-0.
 07099570,-0.00003860,-0.00008746,0.00009161,-0.04314907,-0.01648082,-0
 .00148173,0.05328510,0.01571223,-0.02118886,-0.03300234,-0.01961847,0.
 08485308\\0.00000319,0.00000797,-0.00000979,0.00001827,0.00000469,0.00
 000425,-0.00001763,-0.00001613,0.00000138,0.00000555,0.00000779,-0.000
 00162,0.00001022,0.00000311,-0.00001859,-0.00000921,0.00000584,0.00000
 328,0.00000342,-0.00000247,-0.00000971,0.00000122,0.00000526,-0.000002
 58,-0.00000009,-0.00000889,0.00000139,-0.00000514,0.00000794,0.0000067
 6,-0.00000203,0.00000048,0.00000381,0.00000206,-0.00000619,0.00000213,
 -0.00000769,-0.00000412,0.00000569,-0.00000277,0.00000206,-0.00000228,
 -0.00000062,0.00000237,0.00001148,0.00000562,-0.00000278,-0.00000204,-
 0.00000246,-0.00000083,0.00000250,-0.00000123,0.00000373,-0.00000059,0
 .00000024,0.00000404,-0.00000416,0.00000052,0.00000022,-0.00000255,-0.
 00000141,0.00000398,-0.00000490,0.00000072,0.00000105,-0.00000631,-0.0
 0000157,0.00000160,0.00000062,0.00000360,-0.00000059,0.00000147,0.0000
 0088,-0.00000144,0.00000163,0.00000616,-0.00000609,-0.00000205,0.00000
 057,-0.00000118,0.00000389,-0.00000245,-0.00000252,0.00000076,-0.00000
 533,-0.00000196,0.00001243,-0.00000261,-0.00000691,0.00000370\\\@


 TOWERING GENIUS DISDAINS A BEATEN PATH.  IT SEEKS 
 REGIONS HITHERTO UNEXPLORED.

                                -- ABRAHAM LINCOLN
 Job cpu time:       0 days  3 hours 32 minutes  4.3 seconds.
 Elapsed time:       0 days  3 hours 32 minutes 17.2 seconds.
 File lengths (MBytes):  RWF=    693 Int=      0 D2E=      0 Chk=     25 Scr=      1
 Normal termination of Gaussian 16 at Tue Sep 15 14:23:52 2020.
