 Entering Gaussian System, Link 0=/apps/gaussian/g16c01/g16/g16
 Initial command:
 /apps/gaussian/g16c01/g16/l1.exe "/jobfs/11271682.gadi-pbs/Gau-2346742.inp" -scrdir="/jobfs/11271682.gadi-pbs/"
 Entering Link 1 = /apps/gaussian/g16c01/g16/l1.exe PID=   2346743.
  
 Copyright (c) 1988-2019, Gaussian, Inc.  All Rights Reserved.
  
 This is part of the Gaussian(R) 16 program.  It is based on
 the Gaussian(R) 09 system (copyright 2009, Gaussian, Inc.),
 the Gaussian(R) 03 system (copyright 2003, Gaussian, Inc.),
 the Gaussian(R) 98 system (copyright 1998, Gaussian, Inc.),
 the Gaussian(R) 94 system (copyright 1995, Gaussian, Inc.),
 the Gaussian 92(TM) system (copyright 1992, Gaussian, Inc.),
 the Gaussian 90(TM) system (copyright 1990, Gaussian, Inc.),
 the Gaussian 88(TM) system (copyright 1988, Gaussian, Inc.),
 the Gaussian 86(TM) system (copyright 1986, Carnegie Mellon
 University), and the Gaussian 82(TM) system (copyright 1983,
 Carnegie Mellon University). Gaussian is a federally registered
 trademark of Gaussian, Inc.
  
 This software contains proprietary and confidential information,
 including trade secrets, belonging to Gaussian, Inc.
  
 This software is provided under written license and may be
 used, copied, transmitted, or stored only in accord with that
 written license.
  
 The following legend is applicable only to US Government
 contracts under FAR:
  
                    RESTRICTED RIGHTS LEGEND
  
 Use, reproduction and disclosure by the US Government is
 subject to restrictions as set forth in subparagraphs (a)
 and (c) of the Commercial Computer Software - Restricted
 Rights clause in FAR 52.227-19.
  
 Gaussian, Inc.
 340 Quinnipiac St., Bldg. 40, Wallingford CT 06492
  
  
 ---------------------------------------------------------------
 Warning -- This program may not be used in any manner that
 competes with the business of Gaussian, Inc. or will provide
 assistance to any competitor of Gaussian, Inc.  The licensee
 of this program is prohibited from giving any competitor of
 Gaussian, Inc. access to this program.  By using this program,
 the user acknowledges that Gaussian, Inc. is engaged in the
 business of creating and licensing software in the field of
 computational chemistry and represents and warrants to the
 licensee that it is not a competitor of Gaussian, Inc. and that
 it will not use this program in any manner prohibited above.
 ---------------------------------------------------------------
  

 Cite this work as:
 Gaussian 16, Revision C.01,
 M. J. Frisch, G. W. Trucks, H. B. Schlegel, G. E. Scuseria, 
 M. A. Robb, J. R. Cheeseman, G. Scalmani, V. Barone, 
 G. A. Petersson, H. Nakatsuji, X. Li, M. Caricato, A. V. Marenich, 
 J. Bloino, B. G. Janesko, R. Gomperts, B. Mennucci, H. P. Hratchian, 
 J. V. Ortiz, A. F. Izmaylov, J. L. Sonnenberg, D. Williams-Young, 
 F. Ding, F. Lipparini, F. Egidi, J. Goings, B. Peng, A. Petrone, 
 T. Henderson, D. Ranasinghe, V. G. Zakrzewski, J. Gao, N. Rega, 
 G. Zheng, W. Liang, M. Hada, M. Ehara, K. Toyota, R. Fukuda, 
 J. Hasegawa, M. Ishida, T. Nakajima, Y. Honda, O. Kitao, H. Nakai, 
 T. Vreven, K. Throssell, J. A. Montgomery, Jr., J. E. Peralta, 
 F. Ogliaro, M. J. Bearpark, J. J. Heyd, E. N. Brothers, K. N. Kudin, 
 V. N. Staroverov, T. A. Keith, R. Kobayashi, J. Normand, 
 K. Raghavachari, A. P. Rendell, J. C. Burant, S. S. Iyengar, 
 J. Tomasi, M. Cossi, J. M. Millam, M. Klene, C. Adamo, R. Cammi, 
 J. W. Ochterski, R. L. Martin, K. Morokuma, O. Farkas, 
 J. B. Foresman, and D. J. Fox, Gaussian, Inc., Wallingford CT, 2019.
 
 ******************************************
 Gaussian 16:  ES64L-G16RevC.01  3-Jul-2019
                15-Sep-2020 
 ******************************************
 %NprocShared=6
 Will use up to    6 processors via shared memory.
 %Mem=16000MB
 %chk=NM3_c2.M062X_6-311pGd_opt_Pentadecane_GD3.chk
 ----------------------------------------------------------------------
 # M062X/6-311+G* SCF=Tight INT(grid=ultrafine) OPT IOP(2/17=4) Empiric
 alDispersion=GD3 SCRF=(SMD,Solvent=n-Pentadecane) MaxDisk=10000MB
 ----------------------------------------------------------------------
 1/18=20,19=15,26=6,38=1/1,3;
 2/9=110,12=2,17=4,18=5,40=1/2;
 3/5=4,6=6,7=11,11=2,25=1,30=1,70=32201,71=1,72=151,74=-55,75=-5,124=31/1,2,3;
 4//1;
 5/5=2,32=2,38=5,53=151/2;
 6/7=2,8=2,9=2,10=2,28=1/1;
 7//1,2,3,16;
 1/18=20,19=15,26=6/3(2);
 2/9=110,17=4/2;
 99//99;
 2/9=110,17=4/2;
 3/5=4,6=6,7=11,11=2,25=1,30=1,70=32205,71=1,72=151,74=-55,75=-5,124=31/1,2,3;
 4/5=5,16=3,69=1/1;
 5/5=2,32=2,38=5,53=151/2;
 7//1,2,3,16;
 1/18=20,19=15,26=6/3(-5);
 2/9=110,17=4/2;
 6/7=2,8=2,9=2,10=2,19=2,28=1/1;
 99/9=1/99;
 -----------------------------------------
 NM3_c2.M062X_6-311pGd_opt_Pentadecane_GD3
 -----------------------------------------
 Symbolic Z-matrix:
 Charge =  0 Multiplicity = 1
 C                    -5.98644   1.41713   0.23777 
 N                    -4.7565    0.77089   0.10978 
 C                    -3.48932   1.34289   0.12527 
 O                    -3.29081   2.53099   0.28922 
 N                    -2.48361   0.43605  -0.03844 
 C                    -1.10334   0.88676  -0.1558 
 C                    -0.15041  -0.29616  -0.06661 
 C                     1.30286   0.14851  -0.18501 
 C                    -7.13143   0.6106    0.23147 
 C                    -8.38531   1.18445   0.34993 
 C                    -8.55127   2.55923   0.47324 
 C                    -7.40446   3.33712   0.47694 
 C                    -6.12804   2.80364   0.36334 
 H                    -4.80391  -0.23731   0.06644 
 H                    -2.70102  -0.48281  -0.3967 
 H                    -0.9106    1.59345   0.65318 
 H                    -0.95493   1.42717  -1.0979 
 H                    -0.38143  -1.01314  -0.86313 
 H                    -0.31162  -0.81317   0.88427 
 H                     1.48756   0.64844  -1.13925 
 H                     1.98303  -0.70258  -0.11917 
 H                     1.56649   0.84737   0.61283 
 H                    -7.03398  -0.46541   0.1378 
 Cl                   -7.56699   5.06621   0.63664 
 H                    -5.26135   3.44603   0.37732 
 C                    -9.60152   0.30652   0.27577 
 H                    -9.5321    3.00657   0.56858 
 F                    -10.62011   0.79083   0.99791 
 F                    -10.04928   0.18413  -0.987 
 F                    -9.35787  -0.93737   0.71542 
 

 GradGradGradGradGradGradGradGradGradGradGradGradGradGradGradGradGradGrad
 Berny optimization.
 Initialization pass.
                           ----------------------------
                           !    Initial Parameters    !
                           ! (Angstroms and Degrees)  !
 --------------------------                            --------------------------
 ! Name  Definition              Value          Derivative Info.                !
 --------------------------------------------------------------------------------
 ! R1    R(1,2)                  1.3953         estimate D2E/DX2                !
 ! R2    R(1,9)                  1.4005         estimate D2E/DX2                !
 ! R3    R(1,13)                 1.3994         estimate D2E/DX2                !
 ! R4    R(2,3)                  1.3904         estimate D2E/DX2                !
 ! R5    R(2,14)                 1.0102         estimate D2E/DX2                !
 ! R6    R(3,4)                  1.2157         estimate D2E/DX2                !
 ! R7    R(3,5)                  1.364          estimate D2E/DX2                !
 ! R8    R(5,6)                  1.4567         estimate D2E/DX2                !
 ! R9    R(5,15)                 1.0099         estimate D2E/DX2                !
 ! R10   R(6,7)                  1.5216         estimate D2E/DX2                !
 ! R11   R(6,16)                 1.0913         estimate D2E/DX2                !
 ! R12   R(6,17)                 1.0962         estimate D2E/DX2                !
 ! R13   R(7,8)                  1.5244         estimate D2E/DX2                !
 ! R14   R(7,18)                 1.0963         estimate D2E/DX2                !
 ! R15   R(7,19)                 1.0943         estimate D2E/DX2                !
 ! R16   R(8,20)                 1.093          estimate D2E/DX2                !
 ! R17   R(8,21)                 1.0915         estimate D2E/DX2                !
 ! R18   R(8,22)                 1.0929         estimate D2E/DX2                !
 ! R19   R(9,10)                 1.384          estimate D2E/DX2                !
 ! R20   R(9,23)                 1.0845         estimate D2E/DX2                !
 ! R21   R(10,11)                1.3902         estimate D2E/DX2                !
 ! R22   R(10,26)                1.5018         estimate D2E/DX2                !
 ! R23   R(11,12)                1.3858         estimate D2E/DX2                !
 ! R24   R(11,27)                1.0822         estimate D2E/DX2                !
 ! R25   R(12,13)                1.3881         estimate D2E/DX2                !
 ! R26   R(12,24)                1.744          estimate D2E/DX2                !
 ! R27   R(13,25)                1.0789         estimate D2E/DX2                !
 ! R28   R(26,28)                1.3392         estimate D2E/DX2                !
 ! R29   R(26,29)                1.3454         estimate D2E/DX2                !
 ! R30   R(26,30)                1.3416         estimate D2E/DX2                !
 ! A1    A(2,1,9)              116.9698         estimate D2E/DX2                !
 ! A2    A(2,1,13)             123.8039         estimate D2E/DX2                !
 ! A3    A(9,1,13)             119.2256         estimate D2E/DX2                !
 ! A4    A(1,2,3)              127.7216         estimate D2E/DX2                !
 ! A5    A(1,2,14)             115.1384         estimate D2E/DX2                !
 ! A6    A(3,2,14)             116.9884         estimate D2E/DX2                !
 ! A7    A(2,3,4)              123.5309         estimate D2E/DX2                !
 ! A8    A(2,3,5)              113.3985         estimate D2E/DX2                !
 ! A9    A(4,3,5)              123.0612         estimate D2E/DX2                !
 ! A10   A(3,5,6)              120.1706         estimate D2E/DX2                !
 ! A11   A(3,5,15)             119.2574         estimate D2E/DX2                !
 ! A12   A(6,5,15)             117.1873         estimate D2E/DX2                !
 ! A13   A(5,6,7)              110.3737         estimate D2E/DX2                !
 ! A14   A(5,6,16)             107.9373         estimate D2E/DX2                !
 ! A15   A(5,6,17)             110.4908         estimate D2E/DX2                !
 ! A16   A(7,6,16)             110.4475         estimate D2E/DX2                !
 ! A17   A(7,6,17)             110.4164         estimate D2E/DX2                !
 ! A18   A(16,6,17)            107.0933         estimate D2E/DX2                !
 ! A19   A(6,7,8)              111.4522         estimate D2E/DX2                !
 ! A20   A(6,7,18)             109.504          estimate D2E/DX2                !
 ! A21   A(6,7,19)             109.0245         estimate D2E/DX2                !
 ! A22   A(8,7,18)             109.5868         estimate D2E/DX2                !
 ! A23   A(8,7,19)             110.2281         estimate D2E/DX2                !
 ! A24   A(18,7,19)            106.9355         estimate D2E/DX2                !
 ! A25   A(7,8,20)             111.244          estimate D2E/DX2                !
 ! A26   A(7,8,21)             111.2201         estimate D2E/DX2                !
 ! A27   A(7,8,22)             111.0873         estimate D2E/DX2                !
 ! A28   A(20,8,21)            107.6991         estimate D2E/DX2                !
 ! A29   A(20,8,22)            107.7041         estimate D2E/DX2                !
 ! A30   A(21,8,22)            107.7138         estimate D2E/DX2                !
 ! A31   A(1,9,10)             120.0995         estimate D2E/DX2                !
 ! A32   A(1,9,23)             119.8878         estimate D2E/DX2                !
 ! A33   A(10,9,23)            120.0121         estimate D2E/DX2                !
 ! A34   A(9,10,11)            121.7185         estimate D2E/DX2                !
 ! A35   A(9,10,26)            119.1483         estimate D2E/DX2                !
 ! A36   A(11,10,26)           119.0641         estimate D2E/DX2                !
 ! A37   A(10,11,12)           117.1651         estimate D2E/DX2                !
 ! A38   A(10,11,27)           121.6521         estimate D2E/DX2                !
 ! A39   A(12,11,27)           121.1817         estimate D2E/DX2                !
 ! A40   A(11,12,13)           123.0272         estimate D2E/DX2                !
 ! A41   A(11,12,24)           118.6634         estimate D2E/DX2                !
 ! A42   A(13,12,24)           118.3091         estimate D2E/DX2                !
 ! A43   A(1,13,12)            118.7637         estimate D2E/DX2                !
 ! A44   A(1,13,25)            120.6518         estimate D2E/DX2                !
 ! A45   A(12,13,25)           120.5835         estimate D2E/DX2                !
 ! A46   A(10,26,28)           112.2038         estimate D2E/DX2                !
 ! A47   A(10,26,29)           111.6569         estimate D2E/DX2                !
 ! A48   A(10,26,30)           112.2561         estimate D2E/DX2                !
 ! A49   A(28,26,29)           106.6112         estimate D2E/DX2                !
 ! A50   A(28,26,30)           107.2605         estimate D2E/DX2                !
 ! A51   A(29,26,30)           106.4801         estimate D2E/DX2                !
 ! D1    D(9,1,2,3)           -178.0783         estimate D2E/DX2                !
 ! D2    D(9,1,2,14)            -2.7279         estimate D2E/DX2                !
 ! D3    D(13,1,2,3)             2.2191         estimate D2E/DX2                !
 ! D4    D(13,1,2,14)          177.5695         estimate D2E/DX2                !
 ! D5    D(2,1,9,10)          -179.7879         estimate D2E/DX2                !
 ! D6    D(2,1,9,23)             0.4709         estimate D2E/DX2                !
 ! D7    D(13,1,9,10)           -0.0711         estimate D2E/DX2                !
 ! D8    D(13,1,9,23)         -179.8123         estimate D2E/DX2                !
 ! D9    D(2,1,13,12)          179.6423         estimate D2E/DX2                !
 ! D10   D(2,1,13,25)           -0.7035         estimate D2E/DX2                !
 ! D11   D(9,1,13,12)           -0.054          estimate D2E/DX2                !
 ! D12   D(9,1,13,25)          179.6003         estimate D2E/DX2                !
 ! D13   D(1,2,3,4)              1.7249         estimate D2E/DX2                !
 ! D14   D(1,2,3,5)           -179.3641         estimate D2E/DX2                !
 ! D15   D(14,2,3,4)          -173.5513         estimate D2E/DX2                !
 ! D16   D(14,2,3,5)             5.3597         estimate D2E/DX2                !
 ! D17   D(2,3,5,6)            174.9478         estimate D2E/DX2                !
 ! D18   D(2,3,5,15)            16.289          estimate D2E/DX2                !
 ! D19   D(4,3,5,6)             -6.1353         estimate D2E/DX2                !
 ! D20   D(4,3,5,15)          -164.7941         estimate D2E/DX2                !
 ! D21   D(3,5,6,7)            169.3826         estimate D2E/DX2                !
 ! D22   D(3,5,6,16)            48.5909         estimate D2E/DX2                !
 ! D23   D(3,5,6,17)           -68.2031         estimate D2E/DX2                !
 ! D24   D(15,5,6,7)           -31.5292         estimate D2E/DX2                !
 ! D25   D(15,5,6,16)         -152.3209         estimate D2E/DX2                !
 ! D26   D(15,5,6,17)           90.8851         estimate D2E/DX2                !
 ! D27   D(5,6,7,8)           -179.9294         estimate D2E/DX2                !
 ! D28   D(5,6,7,18)            58.6515         estimate D2E/DX2                !
 ! D29   D(5,6,7,19)           -58.0287         estimate D2E/DX2                !
 ! D30   D(16,6,7,8)           -60.6491         estimate D2E/DX2                !
 ! D31   D(16,6,7,18)          177.9318         estimate D2E/DX2                !
 ! D32   D(16,6,7,19)           61.2516         estimate D2E/DX2                !
 ! D33   D(17,6,7,8)            57.6126         estimate D2E/DX2                !
 ! D34   D(17,6,7,18)          -63.8065         estimate D2E/DX2                !
 ! D35   D(17,6,7,19)          179.5133         estimate D2E/DX2                !
 ! D36   D(6,7,8,20)           -60.0224         estimate D2E/DX2                !
 ! D37   D(6,7,8,21)           179.9211         estimate D2E/DX2                !
 ! D38   D(6,7,8,22)            59.9512         estimate D2E/DX2                !
 ! D39   D(18,7,8,20)           61.3485         estimate D2E/DX2                !
 ! D40   D(18,7,8,21)          -58.708          estimate D2E/DX2                !
 ! D41   D(18,7,8,22)         -178.6779         estimate D2E/DX2                !
 ! D42   D(19,7,8,20)          178.776          estimate D2E/DX2                !
 ! D43   D(19,7,8,21)           58.7194         estimate D2E/DX2                !
 ! D44   D(19,7,8,22)          -61.2505         estimate D2E/DX2                !
 ! D45   D(1,9,10,11)            0.1982         estimate D2E/DX2                !
 ! D46   D(1,9,10,26)          177.146          estimate D2E/DX2                !
 ! D47   D(23,9,10,11)         179.9391         estimate D2E/DX2                !
 ! D48   D(23,9,10,26)          -3.1131         estimate D2E/DX2                !
 ! D49   D(9,10,11,12)          -0.1892         estimate D2E/DX2                !
 ! D50   D(9,10,11,27)        -179.8261         estimate D2E/DX2                !
 ! D51   D(26,10,11,12)       -177.1396         estimate D2E/DX2                !
 ! D52   D(26,10,11,27)          3.2236         estimate D2E/DX2                !
 ! D53   D(9,10,26,28)         150.1146         estimate D2E/DX2                !
 ! D54   D(9,10,26,29)         -90.2619         estimate D2E/DX2                !
 ! D55   D(9,10,26,30)          29.2297         estimate D2E/DX2                !
 ! D56   D(11,10,26,28)        -32.8557         estimate D2E/DX2                !
 ! D57   D(11,10,26,29)         86.7678         estimate D2E/DX2                !
 ! D58   D(11,10,26,30)       -153.7406         estimate D2E/DX2                !
 ! D59   D(10,11,12,13)          0.0596         estimate D2E/DX2                !
 ! D60   D(10,11,12,24)       -179.7363         estimate D2E/DX2                !
 ! D61   D(27,11,12,13)        179.6983         estimate D2E/DX2                !
 ! D62   D(27,11,12,24)         -0.0977         estimate D2E/DX2                !
 ! D63   D(11,12,13,1)           0.0598         estimate D2E/DX2                !
 ! D64   D(11,12,13,25)       -179.5947         estimate D2E/DX2                !
 ! D65   D(24,12,13,1)         179.8565         estimate D2E/DX2                !
 ! D66   D(24,12,13,25)          0.2019         estimate D2E/DX2                !
 --------------------------------------------------------------------------------
 Trust Radius=3.00D-01 FncErr=5.00D-06 GrdErr=5.00D-06 EigMax=2.50D+02 EigMin=1.00D-04
 Number of steps in this run=    157 maximum allowed number of steps=    180.
 GradGradGradGradGradGradGradGradGradGradGradGradGradGradGradGradGradGrad

                          Input orientation:                          
 ---------------------------------------------------------------------
 Center     Atomic      Atomic             Coordinates (Angstroms)
 Number     Number       Type             X           Y           Z
 ---------------------------------------------------------------------
      1          6           0       -5.986435    1.417133    0.237772
      2          7           0       -4.756504    0.770886    0.109778
      3          6           0       -3.489316    1.342890    0.125272
      4          8           0       -3.290813    2.530988    0.289222
      5          7           0       -2.483607    0.436048   -0.038443
      6          6           0       -1.103344    0.886756   -0.155802
      7          6           0       -0.150412   -0.296156   -0.066611
      8          6           0        1.302863    0.148511   -0.185013
      9          6           0       -7.131426    0.610603    0.231474
     10          6           0       -8.385311    1.184447    0.349932
     11          6           0       -8.551272    2.559228    0.473238
     12          6           0       -7.404463    3.337125    0.476941
     13          6           0       -6.128043    2.803642    0.363335
     14          1           0       -4.803909   -0.237313    0.066441
     15          1           0       -2.701016   -0.482807   -0.396700
     16          1           0       -0.910598    1.593446    0.653176
     17          1           0       -0.954929    1.427167   -1.097902
     18          1           0       -0.381426   -1.013143   -0.863126
     19          1           0       -0.311621   -0.813172    0.884272
     20          1           0        1.487564    0.648441   -1.139255
     21          1           0        1.983034   -0.702581   -0.119173
     22          1           0        1.566490    0.847371    0.612829
     23          1           0       -7.033979   -0.465407    0.137803
     24         17           0       -7.566993    5.066206    0.636642
     25          1           0       -5.261355    3.446035    0.377322
     26          6           0       -9.601519    0.306518    0.275768
     27          1           0       -9.532096    3.006572    0.568582
     28          9           0      -10.620108    0.790833    0.997906
     29          9           0      -10.049276    0.184131   -0.987004
     30          9           0       -9.357871   -0.937367    0.715420
 ---------------------------------------------------------------------
                    Distance matrix (angstroms):
                    1          2          3          4          5
     1  C    0.000000
     2  N    1.395260   0.000000
     3  C    2.500754   1.390393   0.000000
     4  O    2.917139   2.297479   1.215673   0.000000
     5  N    3.648099   2.302204   1.364044   2.268859   0.000000
     6  C    4.927553   3.664633   2.445389   2.772466   1.456722
     7  C    6.089924   4.731361   3.724456   4.240458   2.445551
     8  C    7.410939   6.098375   4.948515   5.196437   3.800199
     9  C    1.400547   2.383434   3.716515   4.294359   4.658921
    10  C    2.412743   3.660185   4.903707   5.269798   5.961631
    11  C    2.817484   4.210765   5.217658   5.263752   6.448742
    12  C    2.398828   3.705682   4.407836   4.196095   5.735564
    13  C    1.399367   2.465261   3.025450   2.851264   4.364498
    14  H    2.040812   1.010243   2.056370   3.162686   2.418309
    15  H    3.847897   2.460345   2.055977   3.146635   1.009906
    16  H    5.095858   3.970249   2.644097   2.583964   2.071778
    17  H    5.205783   4.042421   2.815382   2.932386   2.107517
    18  H    6.207603   4.823961   4.023282   4.727927   2.683173
    19  H    6.131536   4.781847   3.914387   4.518083   2.670108
    20  H    7.638570   6.368945   5.181759   5.330799   4.126391
    21  H    8.254274   6.902528   5.847249   6.199695   4.610193
    22  H    7.583665   6.343434   5.103374   5.150989   4.122697
    23  H    2.156686   2.591543   3.979287   4.797145   4.642151
    24  Cl   3.996623   5.160059   5.545451   4.983347   6.909046
    25  H    2.159088   2.735485   2.761679   2.174421   4.116887
    26  C    3.782028   4.870047   6.201269   6.691297   7.126021
    27  H    3.899675   5.292927   6.283276   6.265608   7.527103
    28  F    4.737191   5.930517   7.205169   7.566303   8.209905
    29  F    4.418942   5.436971   6.753736   7.267277   7.629061
    30  F    4.139854   4.945453   6.323589   7.001451   7.050537
                    6          7          8          9         10
     6  C    0.000000
     7  C    1.521616   0.000000
     8  C    2.517079   1.524386   0.000000
     9  C    6.046819   7.045966   8.457199   0.000000
    10  C    7.305576   8.377307   9.758076   1.384037   0.000000
    11  C    7.659275   8.889270  10.166063   2.423128   1.390241
    12  C    6.790345   8.131263   9.296396   2.751131   2.369011
    13  C    5.402921   6.747272   7.910042   2.415281   2.777990
    14  H    3.873901   4.655771   6.124112   2.482647   3.863704
    15  H    2.118087   2.578639   4.058869   4.606375   5.970629
    16  H    1.091333   2.160225   2.773050   6.312093   7.492034
    17  H    1.096186   2.163481   2.750628   6.370489   7.574016
    18  H    2.151996   1.096300   2.155483   7.028314   8.388271
    19  H    2.144372   1.094290   2.162119   6.997358   8.334295
    20  H    2.781506   2.173889   1.092988   8.727389   9.998932
    21  H    3.471752   2.172449   1.091478   9.215248  10.549100
    22  H    2.778553   2.171875   1.092912   8.709491   9.960978
    23  H    6.089908   6.888681   8.365646   1.084467   2.143156
    24  Cl   7.737863   9.179061  10.175126   4.495139   3.977424
    25  H    4.911536   6.350024   7.367417   3.399722   3.856764
    26  C    8.528887   9.476490  10.915256   2.489134   1.501806
    27  H    8.721366   9.966318  11.230884   3.408449   2.164038
    28  F    9.586921  10.579664  11.998713   3.576423   2.359899
    29  F    9.011897   9.953156  11.380488   3.190676   2.357288
    30  F    8.498451   9.262830  10.753657   2.754537   2.362531
                   11         12         13         14         15
    11  C    0.000000
    12  C    1.385752   0.000000
    13  C    2.438003   1.388077   0.000000
    14  H    4.693491   4.439369   3.329998   0.000000
    15  H    6.651036   6.121891   4.808630   2.167240   0.000000
    16  H    7.703572   6.726200   5.363797   4.342097   2.935756
    17  H    7.839290   6.908297   5.548964   4.352107   2.681139
    18  H    9.016323   8.369209   7.006829   4.585233   2.424727
    19  H    8.912569   8.227958   6.869023   4.602294   2.731160
    20  H   10.345505   9.429171   8.056062   6.466908   4.401739
    21  H   11.043639  10.237171   8.849632   6.805404   4.697408
    22  H   10.262507   9.311034   7.943242   6.485142   4.582590
    23  H    3.400457   3.835560   3.399744   2.242839   4.365841
    24  Cl   2.698230   1.744031   2.695268   6.007252   7.452320
    25  H    3.408692   2.148185   1.078894   3.724642   4.752920
    26  C    2.493334   3.748613   4.278823   4.832870   6.977979
    27  H    1.082231   2.155107   3.416268   5.755927   7.731184
    28  F    2.771747   4.134656   4.963137   5.979372   8.141199
    29  F    3.165029   4.368013   4.905234   5.366678   7.402040
    30  F    3.596586   4.705737   4.954887   4.652936   6.764404
                   16         17         18         19         20
    16  H    0.000000
    17  H    1.759513   0.000000
    18  H    3.061617   2.517764   0.000000
    19  H    2.490781   3.059735   1.760187   0.000000
    20  H    3.139590   2.563961   2.515995   3.077018   0.000000
    21  H    3.773774   3.758372   2.498117   2.506905   1.763893
    22  H    2.587320   3.101664   3.071536   2.521584   1.765106
    23  H    6.480762   6.485649   6.749691   6.772610   8.688396
    24  Cl   7.507858   7.744071   9.531010   9.341778  10.230125
    25  H    4.736799   4.979700   6.725821   6.549634   7.461531
    26  C    8.793789   8.826457   9.383426   9.376896  11.184228
    27  H    8.736951   8.879160  10.096665   9.985353  11.397824
    28  F    9.748724   9.910248  10.561646  10.433152  12.295668
    29  F    9.391049   9.179574   9.742491   9.965852  11.547183
    30  F    8.818464   8.915637   9.114499   9.048678  11.116567
                   21         22         23         24         25
    21  H    0.000000
    22  H    1.763997   0.000000
    23  H    9.023791   8.713042   0.000000
    24  Cl  11.182717  10.060798   5.579577   0.000000
    25  H    8.362935   7.309445   4.301039   2.829871   0.000000
    26  C   11.635124  11.186177   2.684616   5.188849   5.357602
    27  H   12.117304  11.306756   4.298930   2.847518   4.297551
    28  F   12.740383  12.192812   3.895926   5.266008   6.012609
    29  F   12.096110  11.744164   3.283155   5.712497   5.951940
    30  F   11.373996  11.069665   2.440669   6.265489   6.009157
                   26         27         28         29         30
    26  C    0.000000
    27  H    2.716772   0.000000
    28  F    1.339242   2.505511   0.000000
    29  F    1.345384   3.263969   2.152627   0.000000
    30  F    1.341607   3.950515   2.158638   2.152684   0.000000
 Stoichiometry    C11H12ClF3N2O
 Framework group  C1[X(C11H12ClF3N2O)]
 Deg. of freedom    84
 Full point group                 C1      NOp   1
 Largest Abelian subgroup         C1      NOp   1
 Largest concise Abelian subgroup C1      NOp   1
                         Standard orientation:                         
 ---------------------------------------------------------------------
 Center     Atomic      Atomic             Coordinates (Angstroms)
 Number     Number       Type             X           Y           Z
 ---------------------------------------------------------------------
      1          6           0        0.131945   -0.043264   -0.008379
      2          7           0       -1.167517   -0.551117    0.006888
      3          6           0       -2.360264    0.163288   -0.006291
      4          8           0       -2.415880    1.376288   -0.064588
      5          7           0       -3.468208   -0.631590    0.028958
      6          6           0       -4.793611   -0.035952    0.131736
      7          6           0       -5.866973   -1.087348   -0.108632
      8          6           0       -7.265559   -0.489298   -0.008396
      9          6           0        1.177671   -0.974633   -0.031668
     10          6           0        2.492312   -0.542037   -0.043346
     11          6           0        2.817158    0.809637   -0.028476
     12          6           0        1.766292    1.712663   -0.005402
     13          6           0        0.434053    1.323044    0.004360
     14          1           0       -1.235483   -1.557791   -0.043895
     15          1           0       -3.373770   -1.597895    0.306890
     16          1           0       -4.863983    0.758064   -0.613645
     17          1           0       -4.929197    0.431310    1.114032
     18          1           0       -5.759130   -1.894877    0.624949
     19          1           0       -5.715618   -1.532167   -1.096913
     20          1           0       -7.442311   -0.058952    0.980636
     21          1           0       -8.032334   -1.246248   -0.182772
     22          1           0       -7.407725    0.304208   -0.746361
     23          1           0        0.955766   -2.036073   -0.044794
     24         17           0        2.129245    3.418464    0.006806
     25          1           0       -0.353453    2.060414    0.015850
     26          6           0        3.597213   -1.558395   -0.002992
     27          1           0        3.845475    1.146750   -0.040425
     28          9           0        4.699575   -1.132856   -0.633295
     29          9           0        3.962527   -1.844782    1.259778
     30          9           0        3.239042   -2.721053   -0.568546
 ---------------------------------------------------------------------
 Rotational constants (GHZ):           0.5771059           0.1450044           0.1185668
 Standard basis: 6-311+G(d) (5D, 7F)
 There are   458 symmetry adapted cartesian basis functions of A   symmetry.
 There are   440 symmetry adapted basis functions of A   symmetry.
   440 basis functions,   725 primitive gaussians,   458 cartesian basis functions
    72 alpha electrons       72 beta electrons
       nuclear repulsion energy      1411.2370912726 Hartrees.
 NAtoms=   30 NActive=   30 NUniq=   30 SFac= 1.00D+00 NAtFMM=   60 NAOKFM=F Big=F
 Integral buffers will be    131072 words long.
 Raffenetti 2 integral format.
 Two-electron integral symmetry is turned on.
 Nuclear repulsion after empirical dispersion term =     1411.2357519422 Hartrees.
 ------------------------------------------------------------------------------
 Polarizable Continuum Model (PCM)
 =================================
 Model                : PCM.
 Atomic radii         : SMD-Coulomb.
 Polarization charges : Total charges.
 Charge compensation  : None.
 Solution method      : On-the-fly selection.
 Cavity type          : VdW (van der Waals Surface) (Alpha=1.000).
 Cavity algorithm     : GePol (No added spheres)
                        Default sphere list used, NSphG=   30.
                        Lebedev-Laikov grids with approx.  5.0 points / Ang**2.
                        Smoothing algorithm: York/Karplus (Gamma=1.0000).
                        Polarization charges: spherical gaussians, with
                                              point-specific exponents (IZeta= 3).
                        Self-potential: point-specific (ISelfS= 7).
                        Self-field    : sphere-specific E.n sum rule (ISelfD= 2).
 1st derivatives      : Analytical E(r).r(x)/FMM algorithm (CHGder, D1EAlg=3).
                        Cavity 1st derivative terms included.
 Solvent              : n-Pentadecane, Eps=   2.033300 Eps(inf)=   2.049192
 ------------------------------------------------------------------------------
 ------------------------------------------------------------------------------
 Atomic radii for non-electrostatic terms: SMD-CDS.
 ------------------------------------------------------------------------------
 Nuclear repulsion after PCM non-electrostatic terms =     1411.2284154254 Hartrees.
 One-electron integrals computed using PRISM.
 NBasis=   440 RedAO= T EigKep=  1.45D-06  NBF=   440
 NBsUse=   438 1.00D-06 EigRej=  8.42D-07 NBFU=   438
 ExpMin= 4.38D-02 ExpMax= 1.06D+05 ExpMxC= 3.62D+03 IAcc=3 IRadAn=         5 AccDes= 0.00D+00
 Harris functional with IExCor= 1009 and IRadAn=       5 diagonalized for initial guess.
 HarFok:  IExCor= 1009 AccDes= 0.00D+00 IRadAn=         5 IDoV= 1 UseB2=F ITyADJ=14
 ICtDFT=  3500011 ScaDFX=  1.000000  1.000000  1.000000  1.000000
 FoFCou: FMM=F IPFlag=           0 FMFlag=      100000 FMFlg1=           0
         NFxFlg=           0 DoJE=T BraDBF=F KetDBF=T FulRan=T
         wScrn=  0.000000 ICntrl=       500 IOpCl=  0 I1Cent=   200000004 NGrid=           0
         NMat0=    1 NMatS0=      1 NMatT0=    0 NMatD0=    1 NMtDS0=    0 NMtDT0=    0
 Petite list used in FoFCou.
 Requested convergence on RMS density matrix=1.00D-08 within 128 cycles.
 Requested convergence on MAX density matrix=1.00D-06.
 Requested convergence on             energy=1.00D-06.
 No special actions if energy rises.
 Inv3:  Mode=1 IEnd=    18690048.
 Iteration    1 A*A^-1 deviation from unit magnitude is 5.77D-15 for   2483.
 Iteration    1 A*A^-1 deviation from orthogonality  is 2.19D-15 for   1681    462.
 Iteration    1 A^-1*A deviation from unit magnitude is 5.77D-15 for   2483.
 Iteration    1 A^-1*A deviation from orthogonality  is 1.49D-15 for   1393    966.
 Error on total polarization charges =  0.02655
 SCF Done:  E(RM062X) =  -1370.81539743     A.U. after   15 cycles
            NFock= 15  Conv=0.54D-08     -V/T= 2.0029
 SMD-CDS (non-electrostatic) energy       (kcal/mol) =      -4.60
 (included in total energy above)

 **********************************************************************

            Population analysis using the SCF Density.

 **********************************************************************

 Orbital symmetries:
       Occupied  (A) (A) (A) (A) (A) (A) (A) (A) (A) (A) (A) (A)
                 (A) (A) (A) (A) (A) (A) (A) (A) (A) (A) (A) (A)
                 (A) (A) (A) (A) (A) (A) (A) (A) (A) (A) (A) (A)
                 (A) (A) (A) (A) (A) (A) (A) (A) (A) (A) (A) (A)
                 (A) (A) (A) (A) (A) (A) (A) (A) (A) (A) (A) (A)
                 (A) (A) (A) (A) (A) (A) (A) (A) (A) (A) (A) (A)
       Virtual   (A) (A) (A) (A) (A) (A) (A) (A) (A) (A) (A) (A)
                 (A) (A) (A) (A) (A) (A) (A) (A) (A) (A) (A) (A)
                 (A) (A) (A) (A) (A) (A) (A) (A) (A) (A) (A) (A)
                 (A) (A) (A) (A) (A) (A) (A) (A) (A) (A) (A) (A)
                 (A) (A) (A) (A) (A) (A) (A) (A) (A) (A) (A) (A)
                 (A) (A) (A) (A) (A) (A) (A) (A) (A) (A) (A) (A)
                 (A) (A) (A) (A) (A) (A) (A) (A) (A) (A) (A) (A)
                 (A) (A) (A) (A) (A) (A) (A) (A) (A) (A) (A) (A)
                 (A) (A) (A) (A) (A) (A) (A) (A) (A) (A) (A) (A)
                 (A) (A) (A) (A) (A) (A) (A) (A) (A) (A) (A) (A)
                 (A) (A) (A) (A) (A) (A) (A) (A) (A) (A) (A) (A)
                 (A) (A) (A) (A) (A) (A) (A) (A) (A) (A) (A) (A)
                 (A) (A) (A) (A) (A) (A) (A) (A) (A) (A) (A) (A)
                 (A) (A) (A) (A) (A) (A) (A) (A) (A) (A) (A) (A)
                 (A) (A) (A) (A) (A) (A) (A) (A) (A) (A) (A) (A)
                 (A) (A) (A) (A) (A) (A) (A) (A) (A) (A) (A) (A)
                 (A) (A) (A) (A) (A) (A) (A) (A) (A) (A) (A) (A)
                 (A) (A) (A) (A) (A) (A) (A) (A) (A) (A) (A) (A)
                 (A) (A) (A) (A) (A) (A) (A) (A) (A) (A) (A) (A)
                 (A) (A) (A) (A) (A) (A) (A) (A) (A) (A) (A) (A)
                 (A) (A) (A) (A) (A) (A) (A) (A) (A) (A) (A) (A)
                 (A) (A) (A) (A) (A) (A) (A) (A) (A) (A) (A) (A)
                 (A) (A) (A) (A) (A) (A) (A) (A) (A) (A) (A) (A)
                 (A) (A) (A) (A) (A) (A) (A) (A) (A) (A) (A) (A)
                 (A) (A) (A) (A) (A) (A) (A) (A) (A) (A) (A) (A)
                 (A) (A) (A) (A) (A) (A) (A) (A) (A) (A) (A) (A)
                 (A) (A) (A) (A) (A) (A) (A) (A) (A) (A) (A) (A)
                 (A) (A) (A) (A) (A) (A) (A) (A) (A) (A) (A) (A)
                 (A) (A) (A) (A) (A) (A) (A) (A) (A) (A) (A) (A)
                 (A) (A) (A) (A) (A) (A) (A) (A) (A) (A) (A) (A)
                 (A) (A) (A) (A) (A) (A)
 The electronic state is 1-A.
 Alpha  occ. eigenvalues -- -102.68145 -25.28538 -25.28435 -25.28045 -19.59835
 Alpha  occ. eigenvalues --  -14.79922 -14.77687 -10.81018 -10.68650 -10.62205
 Alpha  occ. eigenvalues --  -10.62095 -10.58800 -10.57423 -10.57147 -10.56844
 Alpha  occ. eigenvalues --  -10.56261 -10.54303 -10.52870  -9.82416  -7.54927
 Alpha  occ. eigenvalues --   -7.54256  -7.54240  -1.47780  -1.38500  -1.38011
 Alpha  occ. eigenvalues --   -1.19236  -1.07624  -1.04201  -1.00900  -0.95885
 Alpha  occ. eigenvalues --   -0.90108  -0.88316  -0.85196  -0.82009  -0.78988
 Alpha  occ. eigenvalues --   -0.74691  -0.72726  -0.70098  -0.70067  -0.69477
 Alpha  occ. eigenvalues --   -0.69295  -0.65603  -0.64060  -0.60063  -0.59602
 Alpha  occ. eigenvalues --   -0.58334  -0.57961  -0.56673  -0.55709  -0.54342
 Alpha  occ. eigenvalues --   -0.54020  -0.53567  -0.53278  -0.52054  -0.51435
 Alpha  occ. eigenvalues --   -0.51399  -0.49424  -0.49141  -0.47715  -0.46380
 Alpha  occ. eigenvalues --   -0.46224  -0.44202  -0.43217  -0.42797  -0.41098
 Alpha  occ. eigenvalues --   -0.40411  -0.38664  -0.38565  -0.35997  -0.33402
 Alpha  occ. eigenvalues --   -0.32024  -0.28835
 Alpha virt. eigenvalues --   -0.01213  -0.00301  -0.00026   0.01847   0.02176
 Alpha virt. eigenvalues --    0.03057   0.03261   0.03451   0.04158   0.04720
 Alpha virt. eigenvalues --    0.05095   0.05362   0.05716   0.06465   0.06678
 Alpha virt. eigenvalues --    0.07069   0.07239   0.07798   0.08185   0.08965
 Alpha virt. eigenvalues --    0.09072   0.09538   0.09788   0.10183   0.11332
 Alpha virt. eigenvalues --    0.11710   0.11995   0.12331   0.12900   0.13094
 Alpha virt. eigenvalues --    0.13555   0.13949   0.14493   0.15254   0.15677
 Alpha virt. eigenvalues --    0.16509   0.16932   0.17148   0.17833   0.18157
 Alpha virt. eigenvalues --    0.18385   0.18824   0.19375   0.19635   0.20205
 Alpha virt. eigenvalues --    0.20415   0.20929   0.21043   0.21782   0.22109
 Alpha virt. eigenvalues --    0.22639   0.22797   0.23052   0.23456   0.24126
 Alpha virt. eigenvalues --    0.24385   0.24732   0.25043   0.25142   0.25659
 Alpha virt. eigenvalues --    0.26538   0.26789   0.26988   0.27230   0.27840
 Alpha virt. eigenvalues --    0.28454   0.28493   0.28847   0.29210   0.29451
 Alpha virt. eigenvalues --    0.29851   0.30263   0.30522   0.30851   0.32093
 Alpha virt. eigenvalues --    0.32488   0.32528   0.33193   0.33505   0.34751
 Alpha virt. eigenvalues --    0.35090   0.35996   0.36383   0.36832   0.36866
 Alpha virt. eigenvalues --    0.37675   0.38567   0.39034   0.39753   0.40736
 Alpha virt. eigenvalues --    0.41739   0.42262   0.43034   0.43698   0.43997
 Alpha virt. eigenvalues --    0.44997   0.45681   0.46901   0.47258   0.47941
 Alpha virt. eigenvalues --    0.48246   0.48677   0.49188   0.49425   0.49975
 Alpha virt. eigenvalues --    0.51603   0.52088   0.52688   0.53333   0.54023
 Alpha virt. eigenvalues --    0.57039   0.57978   0.58714   0.59973   0.61298
 Alpha virt. eigenvalues --    0.61900   0.62905   0.63602   0.64059   0.64530
 Alpha virt. eigenvalues --    0.65642   0.66318   0.66911   0.67324   0.67747
 Alpha virt. eigenvalues --    0.68538   0.69249   0.70078   0.71376   0.71771
 Alpha virt. eigenvalues --    0.72233   0.72889   0.73512   0.73892   0.74266
 Alpha virt. eigenvalues --    0.75078   0.76459   0.76905   0.77297   0.77913
 Alpha virt. eigenvalues --    0.78374   0.79286   0.80222   0.81778   0.82158
 Alpha virt. eigenvalues --    0.84804   0.86568   0.87907   0.89027   0.90243
 Alpha virt. eigenvalues --    0.90519   0.91281   0.91989   0.93577   0.93800
 Alpha virt. eigenvalues --    0.94655   0.95443   0.96402   0.97368   0.98535
 Alpha virt. eigenvalues --    0.99572   1.00465   1.02432   1.04113   1.05331
 Alpha virt. eigenvalues --    1.06236   1.07010   1.07833   1.09340   1.10697
 Alpha virt. eigenvalues --    1.12912   1.14556   1.16525   1.18455   1.20549
 Alpha virt. eigenvalues --    1.21703   1.23182   1.24137   1.24596   1.26015
 Alpha virt. eigenvalues --    1.27467   1.28079   1.30286   1.32477   1.33921
 Alpha virt. eigenvalues --    1.35830   1.38639   1.39684   1.43214   1.43903
 Alpha virt. eigenvalues --    1.44812   1.46410   1.46822   1.47960   1.48545
 Alpha virt. eigenvalues --    1.49106   1.50181   1.52875   1.53726   1.54277
 Alpha virt. eigenvalues --    1.55076   1.56317   1.57822   1.57956   1.58801
 Alpha virt. eigenvalues --    1.59915   1.61395   1.61969   1.62368   1.63620
 Alpha virt. eigenvalues --    1.65481   1.67925   1.72208   1.75129   1.75492
 Alpha virt. eigenvalues --    1.76458   1.77600   1.78214   1.78587   1.79507
 Alpha virt. eigenvalues --    1.81665   1.84526   1.85557   1.86326   1.88114
 Alpha virt. eigenvalues --    1.90261   1.91557   1.92201   1.93518   1.95668
 Alpha virt. eigenvalues --    1.98057   1.99940   2.00845   2.04742   2.05840
 Alpha virt. eigenvalues --    2.08176   2.09517   2.11028   2.12914   2.15178
 Alpha virt. eigenvalues --    2.18738   2.20676   2.22444   2.23576   2.28503
 Alpha virt. eigenvalues --    2.30624   2.31888   2.33151   2.33773   2.36462
 Alpha virt. eigenvalues --    2.38059   2.41275   2.46177   2.47404   2.51832
 Alpha virt. eigenvalues --    2.54499   2.54695   2.55765   2.57351   2.59668
 Alpha virt. eigenvalues --    2.59798   2.62421   2.64614   2.65101   2.68145
 Alpha virt. eigenvalues --    2.71276   2.73137   2.78135   2.79218   2.82177
 Alpha virt. eigenvalues --    2.83232   2.84708   2.86927   2.90697   2.93039
 Alpha virt. eigenvalues --    2.94979   2.97391   3.00229   3.01113   3.02257
 Alpha virt. eigenvalues --    3.04167   3.05925   3.08763   3.11837   3.12110
 Alpha virt. eigenvalues --    3.17555   3.21571   3.24554   3.25266   3.26773
 Alpha virt. eigenvalues --    3.28815   3.31111   3.35428   3.37246   3.40711
 Alpha virt. eigenvalues --    3.41955   3.43619   3.45703   3.50861   3.56685
 Alpha virt. eigenvalues --    3.65869   3.67341   3.70937   3.75680   3.78614
 Alpha virt. eigenvalues --    3.80529   3.81567   3.83904   3.84561   3.86322
 Alpha virt. eigenvalues --    3.87139   3.87567   3.96431   3.98395   3.99933
 Alpha virt. eigenvalues --    4.00901   4.01757   4.02554   4.06185   4.07222
 Alpha virt. eigenvalues --    4.11582   4.21874   4.27638   4.30493   4.54267
 Alpha virt. eigenvalues --    4.58491   4.75193   4.79897   4.89115   4.98572
 Alpha virt. eigenvalues --    5.01349   5.17950   5.20989   5.42265   5.90510
 Alpha virt. eigenvalues --    6.46435   6.48329   6.50737   6.52420   6.53581
 Alpha virt. eigenvalues --    6.54811   6.60888   6.87919   6.89185   9.97154
 Alpha virt. eigenvalues --   23.45091  23.58296  23.64235  23.73563  23.80710
 Alpha virt. eigenvalues --   23.91871  23.93833  23.96969  24.09177  24.11396
 Alpha virt. eigenvalues --   24.20003  25.93892  26.24106  26.71608  35.58928
 Alpha virt. eigenvalues --   35.69302  50.14371  66.89005  66.90179  66.95269
 Alpha virt. eigenvalues --  216.07274
          Condensed to atoms (all electrons):
               1          2          3          4          5          6
     1  C   30.125846  -0.338575  -1.335517  -0.260638  -0.334831  -0.744476
     2  N   -0.338575   7.963057   0.254051  -0.064055  -0.674768  -0.426531
     3  C   -1.335517   0.254051   8.465210   0.640517   0.082134  -1.035381
     4  O   -0.260638  -0.064055   0.640517   8.083317  -0.196693  -0.125576
     5  N   -0.334831  -0.674768   0.082134  -0.196693   7.845878   0.664623
     6  C   -0.744476  -0.426531  -1.035381  -0.125576   0.664623   8.346677
     7  C    0.010184   0.026773   0.225913   0.014858  -0.162981  -0.856468
     8  C   -0.017655  -0.008636  -0.209052  -0.001877   0.007923   0.356028
     9  C   -1.820276   0.283880  -0.382905  -0.137521  -0.189391  -0.143081
    10  C   -2.848611   0.162546  -1.292199   0.024578   0.026964  -0.116913
    11  C  -12.998881   0.157726  -0.522586  -0.059790  -0.049528  -0.032003
    12  C    0.026481   0.013349   0.315578   0.114828   0.076330   0.059693
    13  C    0.428179  -0.250859   0.597217   0.340564   0.040090   0.069079
    14  H   -0.032079   0.229490  -0.030735  -0.001994   0.071252   0.020280
    15  H   -0.031851   0.091633   0.036180  -0.002338   0.226896  -0.075614
    16  H    0.005220   0.010860   0.037519   0.000084  -0.047001   0.357070
    17  H    0.008788   0.007291   0.078181  -0.003285  -0.089227   0.367139
    18  H   -0.004548  -0.000723  -0.024002  -0.000261   0.002909  -0.052305
    19  H    0.005005  -0.000383   0.035070  -0.000074   0.003891  -0.094823
    20  H    0.000275   0.000036   0.010181  -0.000026   0.000268  -0.040161
    21  H    0.000052  -0.000006   0.003620   0.000022  -0.001298   0.073315
    22  H   -0.000358  -0.000083  -0.010318  -0.000087  -0.000071  -0.048534
    23  H    0.109512  -0.021979  -0.006285  -0.000036  -0.001676  -0.000875
    24  Cl  -0.002295   0.000456   0.048897   0.000420   0.003709   0.004904
    25  H    0.009073  -0.026045   0.073925   0.004819   0.002968   0.006787
    26  C   -3.580313   0.011908  -0.236078  -0.001409   0.001079  -0.008902
    27  H    0.052766   0.000643   0.002041   0.000008   0.000007   0.000017
    28  F    0.045027   0.000696  -0.000917   0.000003   0.000010  -0.000007
    29  F   -0.040497   0.000896  -0.001566  -0.000001   0.000007  -0.000009
    30  F    0.146705   0.001006   0.000292  -0.000000   0.000009   0.000013
               7          8          9         10         11         12
     1  C    0.010184  -0.017655  -1.820276  -2.848611 -12.998881   0.026481
     2  N    0.026773  -0.008636   0.283880   0.162546   0.157726   0.013349
     3  C    0.225913  -0.209052  -0.382905  -1.292199  -0.522586   0.315578
     4  O    0.014858  -0.001877  -0.137521   0.024578  -0.059790   0.114828
     5  N   -0.162981   0.007923  -0.189391   0.026964  -0.049528   0.076330
     6  C   -0.856468   0.356028  -0.143081  -0.116913  -0.032003   0.059693
     7  C    6.298892  -0.185009   0.014356   0.003059   0.001849  -0.005857
     8  C   -0.185009   6.062438  -0.002819  -0.001363  -0.000076   0.000741
     9  C    0.014356  -0.002819  19.255634  -0.823119   0.663544  -7.111751
    10  C    0.003059  -0.001363  -0.823119  25.994454  -6.632374   0.921366
    11  C    0.001849  -0.000076   0.663544  -6.632374  35.687378 -10.938953
    12  C   -0.005857   0.000741  -7.111751   0.921366 -10.938953  22.633053
    13  C   -0.006544  -0.000462  -3.602434  -3.808548  -4.056598   3.037239
    14  H   -0.002848   0.000137  -0.066327  -0.019771  -0.025489   0.033339
    15  H    0.003524   0.005041   0.003311  -0.005808   0.001097   0.000204
    16  H   -0.001320  -0.022231   0.003485   0.000123   0.000267  -0.000588
    17  H   -0.056643  -0.008546   0.000295   0.000134   0.000117   0.000380
    18  H    0.451441  -0.032469   0.000273  -0.000095   0.000008   0.000019
    19  H    0.449751  -0.055890  -0.000070   0.000112  -0.000003  -0.000013
    20  H    0.011700   0.364182  -0.000006   0.000002  -0.000000  -0.000001
    21  H   -0.114368   0.389290  -0.000009   0.000000  -0.000000   0.000001
    22  H    0.010649   0.393888   0.000021  -0.000003   0.000001  -0.000001
    23  H    0.000035  -0.000001   0.298408  -0.043555  -0.084021   0.010308
    24  Cl  -0.000254   0.000028  -0.032828  -0.095100  -0.262578  -0.715632
    25  H   -0.000319   0.000053   0.013961  -0.006950   0.025672  -0.110238
    26  C    0.000331  -0.000045   0.249687  -4.752483   5.667143  -3.384356
    27  H   -0.000000   0.000000  -0.048539   0.089207   0.104399   0.127814
    28  F    0.000000  -0.000000   0.024084  -0.028651  -0.248700   0.194108
    29  F   -0.000000   0.000000  -0.134025   0.432190  -0.218764   0.003812
    30  F    0.000002   0.000000  -0.014778  -0.124053  -0.076544   0.060897
              13         14         15         16         17         18
     1  C    0.428179  -0.032079  -0.031851   0.005220   0.008788  -0.004548
     2  N   -0.250859   0.229490   0.091633   0.010860   0.007291  -0.000723
     3  C    0.597217  -0.030735   0.036180   0.037519   0.078181  -0.024002
     4  O    0.340564  -0.001994  -0.002338   0.000084  -0.003285  -0.000261
     5  N    0.040090   0.071252   0.226896  -0.047001  -0.089227   0.002909
     6  C    0.069079   0.020280  -0.075614   0.357070   0.367139  -0.052305
     7  C   -0.006544  -0.002848   0.003524  -0.001320  -0.056643   0.451441
     8  C   -0.000462   0.000137   0.005041  -0.022231  -0.008546  -0.032469
     9  C   -3.602434  -0.066327   0.003311   0.003485   0.000295   0.000273
    10  C   -3.808548  -0.019771  -0.005808   0.000123   0.000134  -0.000095
    11  C   -4.056598  -0.025489   0.001097   0.000267   0.000117   0.000008
    12  C    3.037239   0.033339   0.000204  -0.000588   0.000380   0.000019
    13  C   13.074577   0.091051   0.018590  -0.006486   0.002056   0.000063
    14  H    0.091051   0.338858   0.002134  -0.000006   0.000184   0.000054
    15  H    0.018590   0.002134   0.364231   0.002056   0.002134   0.003359
    16  H   -0.006486  -0.000006   0.002056   0.427000  -0.038283   0.005148
    17  H    0.002056   0.000184   0.002134  -0.038283   0.460112  -0.009140
    18  H    0.000063   0.000054   0.003359   0.005148  -0.009140   0.466917
    19  H    0.000006  -0.000001  -0.001002  -0.007839   0.006073  -0.044098
    20  H    0.000038  -0.000000   0.000035  -0.000193   0.003227  -0.008328
    21  H    0.000023   0.000000  -0.000022  -0.000200  -0.000088  -0.003382
    22  H   -0.000049   0.000000  -0.000022   0.003441  -0.000776   0.006431
    23  H    0.014567   0.007351   0.000012  -0.000000   0.000000  -0.000000
    24  Cl   0.335250   0.000546   0.000000  -0.000008  -0.000002   0.000000
    25  H    0.332198   0.000088  -0.000039  -0.000006  -0.000002  -0.000000
    26  C   -0.363256   0.003516  -0.000061   0.000005   0.000009  -0.000002
    27  H    0.003903  -0.000004   0.000000  -0.000000  -0.000000  -0.000000
    28  F    0.012122  -0.000008  -0.000000   0.000000  -0.000000   0.000000
    29  F   -0.003004   0.000006   0.000000   0.000000   0.000000   0.000000
    30  F    0.003496   0.000034   0.000001  -0.000000   0.000000   0.000000
              19         20         21         22         23         24
     1  C    0.005005   0.000275   0.000052  -0.000358   0.109512  -0.002295
     2  N   -0.000383   0.000036  -0.000006  -0.000083  -0.021979   0.000456
     3  C    0.035070   0.010181   0.003620  -0.010318  -0.006285   0.048897
     4  O   -0.000074  -0.000026   0.000022  -0.000087  -0.000036   0.000420
     5  N    0.003891   0.000268  -0.001298  -0.000071  -0.001676   0.003709
     6  C   -0.094823  -0.040161   0.073315  -0.048534  -0.000875   0.004904
     7  C    0.449751   0.011700  -0.114368   0.010649   0.000035  -0.000254
     8  C   -0.055890   0.364182   0.389290   0.393888  -0.000001   0.000028
     9  C   -0.000070  -0.000006  -0.000009   0.000021   0.298408  -0.032828
    10  C    0.000112   0.000002   0.000000  -0.000003  -0.043555  -0.095100
    11  C   -0.000003  -0.000000  -0.000000   0.000001  -0.084021  -0.262578
    12  C   -0.000013  -0.000001   0.000001  -0.000001   0.010308  -0.715632
    13  C    0.000006   0.000038   0.000023  -0.000049   0.014567   0.335250
    14  H   -0.000001  -0.000000   0.000000   0.000000   0.007351   0.000546
    15  H   -0.001002   0.000035  -0.000022  -0.000022   0.000012   0.000000
    16  H   -0.007839  -0.000193  -0.000200   0.003441  -0.000000  -0.000008
    17  H    0.006073   0.003227  -0.000088  -0.000776   0.000000  -0.000002
    18  H   -0.044098  -0.008328  -0.003382   0.006431  -0.000000   0.000000
    19  H    0.444028   0.005922  -0.003388  -0.008428   0.000000   0.000000
    20  H    0.005922   0.449618  -0.025521  -0.035652   0.000000   0.000000
    21  H   -0.003388  -0.025521   0.432466  -0.023878   0.000000   0.000000
    22  H   -0.008428  -0.035652  -0.023878   0.447535  -0.000000  -0.000000
    23  H    0.000000   0.000000   0.000000  -0.000000   0.392628   0.000465
    24  Cl   0.000000   0.000000   0.000000  -0.000000   0.000465  17.429152
    25  H   -0.000000  -0.000000   0.000000  -0.000000  -0.000026  -0.009140
    26  C    0.000003   0.000000   0.000000  -0.000000   0.041484  -0.110234
    27  H    0.000000   0.000000   0.000000  -0.000000  -0.000200  -0.013074
    28  F   -0.000000   0.000000   0.000000  -0.000000   0.000351  -0.000144
    29  F   -0.000000  -0.000000  -0.000000   0.000000  -0.000942  -0.000682
    30  F    0.000000  -0.000000  -0.000000   0.000000   0.006472  -0.000278
              25         26         27         28         29         30
     1  C    0.009073  -3.580313   0.052766   0.045027  -0.040497   0.146705
     2  N   -0.026045   0.011908   0.000643   0.000696   0.000896   0.001006
     3  C    0.073925  -0.236078   0.002041  -0.000917  -0.001566   0.000292
     4  O    0.004819  -0.001409   0.000008   0.000003  -0.000001  -0.000000
     5  N    0.002968   0.001079   0.000007   0.000010   0.000007   0.000009
     6  C    0.006787  -0.008902   0.000017  -0.000007  -0.000009   0.000013
     7  C   -0.000319   0.000331  -0.000000   0.000000  -0.000000   0.000002
     8  C    0.000053  -0.000045   0.000000  -0.000000   0.000000   0.000000
     9  C    0.013961   0.249687  -0.048539   0.024084  -0.134025  -0.014778
    10  C   -0.006950  -4.752483   0.089207  -0.028651   0.432190  -0.124053
    11  C    0.025672   5.667143   0.104399  -0.248700  -0.218764  -0.076544
    12  C   -0.110238  -3.384356   0.127814   0.194108   0.003812   0.060897
    13  C    0.332198  -0.363256   0.003903   0.012122  -0.003004   0.003496
    14  H    0.000088   0.003516  -0.000004  -0.000008   0.000006   0.000034
    15  H   -0.000039  -0.000061   0.000000  -0.000000   0.000000   0.000001
    16  H   -0.000006   0.000005  -0.000000   0.000000   0.000000  -0.000000
    17  H   -0.000002   0.000009  -0.000000  -0.000000   0.000000   0.000000
    18  H   -0.000000  -0.000002  -0.000000   0.000000   0.000000   0.000000
    19  H   -0.000000   0.000003   0.000000  -0.000000  -0.000000   0.000000
    20  H   -0.000000   0.000000   0.000000   0.000000  -0.000000  -0.000000
    21  H    0.000000   0.000000   0.000000   0.000000  -0.000000  -0.000000
    22  H   -0.000000  -0.000000  -0.000000  -0.000000   0.000000   0.000000
    23  H   -0.000026   0.041484  -0.000200   0.000351  -0.000942   0.006472
    24  Cl  -0.009140  -0.110234  -0.013074  -0.000144  -0.000682  -0.000278
    25  H    0.342750   0.001308  -0.000250  -0.000008   0.000002   0.000000
    26  C    0.001308  11.386408  -0.008630   0.155119   0.144096   0.155374
    27  H   -0.000250  -0.008630   0.368437   0.005223  -0.000411   0.000530
    28  F   -0.000008   0.155119   0.005223   9.015157  -0.048927  -0.023000
    29  F    0.000002   0.144096  -0.000411  -0.048927   8.972447  -0.045579
    30  F    0.000000   0.155374   0.000530  -0.023000  -0.045579   9.027828
 Mulliken charges:
               1
     1  C   -0.581713
     2  N   -0.403655
     3  C    0.181016
     4  O   -0.368358
     5  N   -0.309482
     6  C   -0.523966
     7  C   -0.130705
     8  C   -1.033617
     9  C   -0.301062
    10  C   -1.055138
    11  C   -0.102313
    12  C    0.637851
    13  C   -0.302065
    14  H    0.380942
    15  H    0.356317
    16  H    0.271884
    17  H    0.269870
    18  H    0.242733
    19  H    0.266150
    20  H    0.264405
    21  H    0.273370
    22  H    0.266297
    23  H    0.278003
    24  Cl   0.418420
    25  H    0.339417
    26  C    0.628298
    27  H    0.316114
    28  F   -0.101539
    29  F   -0.059048
    30  F   -0.118425
 Sum of Mulliken charges =  -0.00000
 Mulliken charges with hydrogens summed into heavy atoms:
               1
     1  C   -0.581713
     2  N   -0.022714
     3  C    0.181016
     4  O   -0.368358
     5  N    0.046834
     6  C    0.017788
     7  C    0.378179
     8  C   -0.229545
     9  C   -0.023059
    10  C   -1.055138
    11  C    0.213800
    12  C    0.637851
    13  C    0.037352
    24  Cl   0.418420
    26  C    0.628298
    28  F   -0.101539
    29  F   -0.059048
    30  F   -0.118425
 Electronic spatial extent (au):  <R**2>=           8441.6073
 Charge=              0.0000 electrons
 Dipole moment (field-independent basis, Debye):
    X=             -5.1829    Y=             -4.3231    Z=              0.4389  Tot=              6.7634
 Quadrupole moment (field-independent basis, Debye-Ang):
   XX=           -104.8795   YY=           -115.5798   ZZ=           -115.4962
   XY=             15.7470   XZ=             -2.2416   YZ=             -0.5227
 Traceless Quadrupole moment (field-independent basis, Debye-Ang):
   XX=              7.1057   YY=             -3.5947   ZZ=             -3.5110
   XY=             15.7470   XZ=             -2.2416   YZ=             -0.5227
 Octapole moment (field-independent basis, Debye-Ang**2):
  XXX=            -82.2171  YYY=            -44.6869  ZZZ=             -0.5184  XYY=             -2.5483
  XXY=            -16.0821  XXZ=              4.7604  XZZ=             10.4503  YZZ=             -6.9341
  YYZ=              2.1385  XYZ=              3.9408
 Hexadecapole moment (field-independent basis, Debye-Ang**3):
 XXXX=          -8189.0590 YYYY=          -1905.3380 ZZZZ=           -209.8214 XXXY=            122.9154
 XXXZ=             -6.2330 YYYX=            -59.2933 YYYZ=             -7.4576 ZZZX=             -7.4870
 ZZZY=              2.3082 XXYY=          -1794.9622 XXZZ=          -1487.6059 YYZZ=           -363.0287
 XXYZ=             -6.1621 YYXZ=             -3.3589 ZZXY=            -37.8516
 N-N= 1.411228415425D+03 E-N=-6.052783102611D+03  KE= 1.366887676496D+03
 D1PCM: PCM CHGder 1st derivatives, ID1Alg=3 FixD1E=F DoIter=F DoCFld=F I1PDM=0.
 Calling FoFJK, ICntrl=      2127 FMM=F ISym2X=0 I1Cent= 0 IOpClX= 0 NMat=1 NMatS=1 NMatT=0.
 ***** Axes restored to original set *****
 -------------------------------------------------------------------
 Center     Atomic                   Forces (Hartrees/Bohr)
 Number     Number              X              Y              Z
 -------------------------------------------------------------------
      1        6           0.000050468   -0.000022200   -0.000006695
      2        7           0.000047830    0.000045042    0.000003681
      3        6          -0.000003641   -0.000085352   -0.000016137
      4        8           0.000007316    0.000061596    0.000007441
      5        7           0.000009889   -0.000004381   -0.000010036
      6        6          -0.000020924   -0.000008170    0.000007973
      7        6           0.000037120   -0.000016289    0.000004996
      8        6           0.000004527   -0.000015560    0.000001163
      9        6          -0.000027984    0.000013861    0.000001423
     10        6           0.000013945   -0.000000500    0.000006139
     11        6          -0.000002781    0.000019578    0.000004113
     12        6           0.000000361   -0.000022921   -0.000001692
     13        6          -0.000002183    0.000013277    0.000003256
     14        1          -0.000043789    0.000003282   -0.000001307
     15        1          -0.000042957    0.000016134    0.000028871
     16        1           0.000004602   -0.000003713    0.000001706
     17        1           0.000007074   -0.000010692   -0.000012375
     18        1          -0.000034100    0.000011391   -0.000002770
     19        1          -0.000000638   -0.000004694    0.000002123
     20        1          -0.000011098   -0.000002747   -0.000002701
     21        1          -0.000001537   -0.000008055    0.000000435
     22        1           0.000001683   -0.000006218    0.000001561
     23        1          -0.000013412   -0.000038458   -0.000007029
     24       17           0.000002092    0.000024305    0.000003574
     25        1           0.000005313   -0.000000296   -0.000001065
     26        6           0.000040244    0.000007505   -0.000007761
     27        1           0.000006462    0.000013404   -0.000002809
     28        9          -0.000020358    0.000012051    0.000004502
     29        9          -0.000013791    0.000004520   -0.000008798
     30        9           0.000000266    0.000004300   -0.000001783
 -------------------------------------------------------------------
 Cartesian Forces:  Max     0.000085352 RMS     0.000019982

 GradGradGradGradGradGradGradGradGradGradGradGradGradGradGradGradGradGrad
 Berny optimization.
 FormGI is forming the generalized inverse of G from B-inverse, IUseBI=4.
 Internal  Forces:  Max     0.000069016 RMS     0.000017216
 Search for a local minimum.
 Step number   1 out of a maximum of  157
 All quantities printed in internal units (Hartrees-Bohrs-Radians)
 Mixed Optimization -- En-DIIS/RFO-DIIS
 Second derivative matrix not updated -- first step.
 ITU=  0
     Eigenvalues ---    0.00443   0.00480   0.00742   0.00941   0.01670
     Eigenvalues ---    0.01674   0.01754   0.01799   0.01819   0.01993
     Eigenvalues ---    0.01995   0.02112   0.02167   0.02168   0.02191
     Eigenvalues ---    0.02236   0.02247   0.02261   0.02263   0.03728
     Eigenvalues ---    0.04453   0.04936   0.05522   0.05534   0.05550
     Eigenvalues ---    0.08180   0.09209   0.10627   0.10809   0.12076
     Eigenvalues ---    0.12660   0.15295   0.15977   0.16000   0.16000
     Eigenvalues ---    0.16000   0.16000   0.16000   0.16000   0.21893
     Eigenvalues ---    0.21905   0.22009   0.22158   0.23482   0.23491
     Eigenvalues ---    0.23512   0.24966   0.24996   0.25000   0.25000
     Eigenvalues ---    0.25000   0.25000   0.25000   0.25000   0.29948
     Eigenvalues ---    0.30211   0.31073   0.32189   0.34095   0.34107
     Eigenvalues ---    0.34322   0.34470   0.34478   0.34642   0.34659
     Eigenvalues ---    0.35460   0.35726   0.36128   0.37378   0.42426
     Eigenvalues ---    0.42946   0.45932   0.45988   0.46189   0.46415
     Eigenvalues ---    0.46782   0.47250   0.47754   0.48135   0.52139
     Eigenvalues ---    0.56015   0.56846   0.57375   0.97326
 RFO step:  Lambda=-4.85675143D-07 EMin= 4.43363146D-03
 Linear search not attempted -- first point.
 Iteration  1 RMS(Cart)=  0.00253439 RMS(Int)=  0.00000196
 Iteration  2 RMS(Cart)=  0.00000419 RMS(Int)=  0.00000003
 Iteration  3 RMS(Cart)=  0.00000000 RMS(Int)=  0.00000003
 Variable       Old X    -DE/DX   Delta X   Delta X   Delta X     New X
                                 (Linear)    (Quad)   (Total)
    R1        2.63666  -0.00005   0.00000  -0.00010  -0.00010   2.63656
    R2        2.64665   0.00003   0.00000   0.00007   0.00007   2.64672
    R3        2.64442   0.00001   0.00000   0.00002   0.00002   2.64444
    R4        2.62746  -0.00003   0.00000  -0.00006  -0.00006   2.62740
    R5        1.90908  -0.00000   0.00000  -0.00000  -0.00000   1.90908
    R6        2.29729   0.00006   0.00000   0.00007   0.00007   2.29735
    R7        2.57767  -0.00004   0.00000  -0.00008  -0.00008   2.57759
    R8        2.75281  -0.00000   0.00000  -0.00000  -0.00000   2.75280
    R9        1.90845  -0.00002   0.00000  -0.00004  -0.00004   1.90841
   R10        2.87544  -0.00000   0.00000  -0.00001  -0.00001   2.87543
   R11        2.06232   0.00000   0.00000   0.00001   0.00001   2.06233
   R12        2.07149   0.00001   0.00000   0.00003   0.00003   2.07152
   R13        2.88067  -0.00000   0.00000  -0.00000  -0.00000   2.88067
   R14        2.07171  -0.00000   0.00000  -0.00001  -0.00001   2.07170
   R15        2.06791   0.00000   0.00000   0.00000   0.00000   2.06791
   R16        2.06545   0.00000   0.00000   0.00001   0.00001   2.06546
   R17        2.06259  -0.00000   0.00000  -0.00000  -0.00000   2.06259
   R18        2.06530   0.00000   0.00000   0.00001   0.00001   2.06531
   R19        2.61545  -0.00002   0.00000  -0.00004  -0.00004   2.61541
   R20        2.04934   0.00004   0.00000   0.00012   0.00012   2.04946
   R21        2.62717   0.00001   0.00000   0.00003   0.00003   2.62720
   R22        2.83800  -0.00001   0.00000  -0.00002  -0.00002   2.83798
   R23        2.61869  -0.00000   0.00000  -0.00001  -0.00001   2.61868
   R24        2.04512  -0.00000   0.00000  -0.00000  -0.00000   2.04512
   R25        2.62309   0.00000   0.00000   0.00001   0.00001   2.62310
   R26        3.29574   0.00002   0.00000   0.00006   0.00006   3.29580
   R27        2.03881   0.00000   0.00000   0.00000   0.00000   2.03882
   R28        2.53080   0.00002   0.00000   0.00003   0.00003   2.53083
   R29        2.54241   0.00001   0.00000   0.00002   0.00002   2.54243
   R30        2.53527   0.00000   0.00000   0.00001   0.00001   2.53528
    A1        2.04151  -0.00002   0.00000  -0.00009  -0.00009   2.04142
    A2        2.16079   0.00002   0.00000   0.00009   0.00009   2.16088
    A3        2.08088  -0.00000   0.00000  -0.00000  -0.00000   2.08088
    A4        2.22916   0.00006   0.00000   0.00027   0.00027   2.22943
    A5        2.00954  -0.00007   0.00000  -0.00037  -0.00037   2.00918
    A6        2.04183   0.00001   0.00000   0.00015   0.00014   2.04198
    A7        2.15602   0.00002   0.00000   0.00010   0.00010   2.15612
    A8        1.97918  -0.00006   0.00000  -0.00023  -0.00023   1.97894
    A9        2.14782   0.00004   0.00000   0.00015   0.00015   2.14797
   A10        2.09737   0.00002   0.00000   0.00005   0.00005   2.09743
   A11        2.08143  -0.00005   0.00000  -0.00038  -0.00038   2.08106
   A12        2.04531   0.00003   0.00000   0.00014   0.00014   2.04545
   A13        1.92638   0.00001   0.00000   0.00005   0.00005   1.92643
   A14        1.88386   0.00001   0.00000   0.00019   0.00019   1.88405
   A15        1.92843  -0.00001   0.00000  -0.00014  -0.00014   1.92828
   A16        1.92767   0.00000   0.00000   0.00012   0.00012   1.92779
   A17        1.92713  -0.00002   0.00000  -0.00023  -0.00023   1.92690
   A18        1.86913   0.00000   0.00000   0.00004   0.00004   1.86917
   A19        1.94521  -0.00000   0.00000  -0.00003  -0.00003   1.94518
   A20        1.91120  -0.00003   0.00000  -0.00037  -0.00037   1.91084
   A21        1.90284   0.00001   0.00000   0.00011   0.00011   1.90295
   A22        1.91265   0.00002   0.00000   0.00010   0.00010   1.91275
   A23        1.92384   0.00000   0.00000   0.00012   0.00012   1.92397
   A24        1.86638   0.00000   0.00000   0.00005   0.00005   1.86643
   A25        1.94157  -0.00002   0.00000  -0.00011  -0.00011   1.94146
   A26        1.94116   0.00001   0.00000   0.00005   0.00005   1.94121
   A27        1.93884   0.00000   0.00000   0.00002   0.00002   1.93886
   A28        1.87970   0.00001   0.00000   0.00005   0.00005   1.87975
   A29        1.87979   0.00000   0.00000  -0.00002  -0.00002   1.87977
   A30        1.87996  -0.00000   0.00000   0.00001   0.00001   1.87998
   A31        2.09613  -0.00001   0.00000  -0.00002  -0.00002   2.09611
   A32        2.09244   0.00002   0.00000   0.00011   0.00011   2.09254
   A33        2.09461  -0.00001   0.00000  -0.00008  -0.00008   2.09452
   A34        2.12439   0.00001   0.00000   0.00003   0.00003   2.12442
   A35        2.07953  -0.00003   0.00000  -0.00012  -0.00012   2.07941
   A36        2.07806   0.00002   0.00000   0.00008   0.00008   2.07814
   A37        2.04492  -0.00000   0.00000  -0.00002  -0.00002   2.04489
   A38        2.12323   0.00001   0.00000   0.00005   0.00005   2.12328
   A39        2.11502  -0.00000   0.00000  -0.00003  -0.00003   2.11499
   A40        2.14723   0.00001   0.00000   0.00002   0.00002   2.14725
   A41        2.07107  -0.00001   0.00000  -0.00002  -0.00002   2.07104
   A42        2.06488   0.00000   0.00000   0.00000   0.00000   2.06489
   A43        2.07282  -0.00000   0.00000  -0.00001  -0.00001   2.07281
   A44        2.10577  -0.00000   0.00000  -0.00001  -0.00001   2.10576
   A45        2.10458   0.00000   0.00000   0.00002   0.00002   2.10460
   A46        1.95832   0.00001   0.00000   0.00005   0.00005   1.95838
   A47        1.94878   0.00001   0.00000   0.00005   0.00005   1.94883
   A48        1.95924  -0.00001   0.00000  -0.00003  -0.00003   1.95921
   A49        1.86072  -0.00001   0.00000  -0.00005  -0.00005   1.86066
   A50        1.87205  -0.00000   0.00000   0.00000   0.00000   1.87205
   A51        1.85843  -0.00000   0.00000  -0.00002  -0.00002   1.85840
    D1       -3.10805  -0.00003   0.00000  -0.00141  -0.00141  -3.10946
    D2       -0.04761  -0.00001   0.00000  -0.00066  -0.00066  -0.04827
    D3        0.03873  -0.00002   0.00000  -0.00119  -0.00119   0.03754
    D4        3.09917  -0.00001   0.00000  -0.00043  -0.00043   3.09874
    D5       -3.13789   0.00001   0.00000   0.00028   0.00028  -3.13761
    D6        0.00822  -0.00000   0.00000  -0.00003  -0.00003   0.00819
    D7       -0.00124   0.00000   0.00000   0.00007   0.00007  -0.00117
    D8       -3.13832  -0.00000   0.00000  -0.00024  -0.00024  -3.13856
    D9        3.13535  -0.00000   0.00000  -0.00011  -0.00011   3.13524
   D10       -0.01228  -0.00000   0.00000  -0.00017  -0.00017  -0.01245
   D11       -0.00094   0.00000   0.00000   0.00012   0.00012  -0.00083
   D12        3.13462   0.00000   0.00000   0.00006   0.00006   3.13467
   D13        0.03011  -0.00001   0.00000  -0.00041  -0.00041   0.02969
   D14       -3.13049   0.00001   0.00000   0.00051   0.00051  -3.12999
   D15       -3.02904  -0.00002   0.00000  -0.00116  -0.00116  -3.03020
   D16        0.09354  -0.00000   0.00000  -0.00024  -0.00024   0.09331
   D17        3.05342  -0.00003   0.00000  -0.00178  -0.00178   3.05163
   D18        0.28430  -0.00003   0.00000  -0.00127  -0.00127   0.28303
   D19       -0.10708  -0.00001   0.00000  -0.00087  -0.00087  -0.10795
   D20       -2.87620  -0.00001   0.00000  -0.00035  -0.00035  -2.87655
   D21        2.95628   0.00002   0.00000   0.00091   0.00091   2.95720
   D22        0.84807   0.00001   0.00000   0.00062   0.00062   0.84870
   D23       -1.19037   0.00000   0.00000   0.00055   0.00055  -1.18982
   D24       -0.55029   0.00001   0.00000   0.00030   0.00030  -0.54999
   D25       -2.65850  -0.00001   0.00000   0.00001   0.00001  -2.65849
   D26        1.58624  -0.00001   0.00000  -0.00006  -0.00006   1.58618
   D27       -3.14036  -0.00001   0.00000  -0.00127  -0.00127   3.14156
   D28        1.02366  -0.00002   0.00000  -0.00113  -0.00113   1.02253
   D29       -1.01279  -0.00001   0.00000  -0.00106  -0.00106  -1.01385
   D30       -1.05853   0.00000   0.00000  -0.00093  -0.00093  -1.05946
   D31        3.10550  -0.00000   0.00000  -0.00080  -0.00080   3.10470
   D32        1.06904   0.00001   0.00000  -0.00072  -0.00072   1.06832
   D33        1.00553  -0.00000   0.00000  -0.00096  -0.00096   1.00457
   D34       -1.11363  -0.00001   0.00000  -0.00082  -0.00082  -1.11446
   D35        3.13310   0.00000   0.00000  -0.00075  -0.00075   3.13235
   D36       -1.04759   0.00001   0.00000   0.00051   0.00051  -1.04708
   D37        3.14021   0.00001   0.00000   0.00049   0.00049   3.14070
   D38        1.04635   0.00001   0.00000   0.00042   0.00042   1.04677
   D39        1.07073  -0.00001   0.00000   0.00010   0.00010   1.07083
   D40       -1.02465  -0.00001   0.00000   0.00008   0.00008  -1.02457
   D41       -3.11852  -0.00001   0.00000   0.00001   0.00001  -3.11851
   D42        3.12023   0.00000   0.00000   0.00030   0.00030   3.12053
   D43        1.02485   0.00000   0.00000   0.00028   0.00028   1.02513
   D44       -1.06902  -0.00000   0.00000   0.00021   0.00021  -1.06881
   D45        0.00346  -0.00000   0.00000  -0.00019  -0.00019   0.00326
   D46        3.09178  -0.00001   0.00000  -0.00037  -0.00037   3.09142
   D47        3.14053   0.00000   0.00000   0.00012   0.00012   3.14065
   D48       -0.05433  -0.00000   0.00000  -0.00005  -0.00005  -0.05439
   D49       -0.00330   0.00000   0.00000   0.00013   0.00013  -0.00317
   D50       -3.13856  -0.00000   0.00000  -0.00002  -0.00002  -3.13858
   D51       -3.09167   0.00001   0.00000   0.00031   0.00031  -3.09136
   D52        0.05626   0.00000   0.00000   0.00016   0.00016   0.05642
   D53        2.61999   0.00000   0.00000  -0.00003  -0.00003   2.61996
   D54       -1.57537   0.00000   0.00000  -0.00003  -0.00003  -1.57540
   D55        0.51015  -0.00000   0.00000  -0.00005  -0.00005   0.51010
   D56       -0.57344  -0.00000   0.00000  -0.00020  -0.00020  -0.57364
   D57        1.51438  -0.00000   0.00000  -0.00020  -0.00020   1.51418
   D58       -2.68328  -0.00000   0.00000  -0.00022  -0.00022  -2.68350
   D59        0.00104   0.00000   0.00000   0.00006   0.00006   0.00110
   D60       -3.13699  -0.00000   0.00000  -0.00002  -0.00002  -3.13701
   D61        3.13633   0.00000   0.00000   0.00021   0.00021   3.13654
   D62       -0.00170   0.00000   0.00000   0.00013   0.00013  -0.00158
   D63        0.00104  -0.00000   0.00000  -0.00018  -0.00018   0.00086
   D64       -3.13452  -0.00000   0.00000  -0.00012  -0.00012  -3.13464
   D65        3.13909  -0.00000   0.00000  -0.00010  -0.00010   3.13899
   D66        0.00352  -0.00000   0.00000  -0.00004  -0.00004   0.00348
         Item               Value     Threshold  Converged?
 Maximum Force            0.000069     0.000450     YES
 RMS     Force            0.000017     0.000300     YES
 Maximum Displacement     0.009825     0.001800     NO 
 RMS     Displacement     0.002535     0.001200     NO 
 Predicted change in Energy=-2.428422D-07
 GradGradGradGradGradGradGradGradGradGradGradGradGradGradGradGradGradGrad

                          Input orientation:                          
 ---------------------------------------------------------------------
 Center     Atomic      Atomic             Coordinates (Angstroms)
 Number     Number       Type             X           Y           Z
 ---------------------------------------------------------------------
      1          6           0       -5.986230    1.417581    0.239701
      2          7           0       -4.756146    0.771519    0.112804
      3          6           0       -3.488978    1.343494    0.128034
      4          8           0       -3.290385    2.531841    0.290319
      5          7           0       -2.483519    0.436320   -0.035045
      6          6           0       -1.103352    0.886670   -0.154865
      7          6           0       -0.150438   -0.296254   -0.065736
      8          6           0        1.302618    0.147939   -0.188494
      9          6           0       -7.131079    0.610801    0.232149
     10          6           0       -8.385182    1.184417    0.349141
     11          6           0       -8.551569    2.559165    0.472403
     12          6           0       -7.404915    3.337275    0.477431
     13          6           0       -6.128259    2.804073    0.365097
     14          1           0       -4.803716   -0.236690    0.069888
     15          1           0       -2.701667   -0.482962   -0.391695
     16          1           0       -0.909235    1.594468    0.652821
     17          1           0       -0.956251    1.425685   -1.097986
     18          1           0       -0.383721   -1.014394   -0.860544
     19          1           0       -0.309511   -0.811648    0.886386
     20          1           0        1.484853    0.646474   -1.143945
     21          1           0        1.982827   -0.703162   -0.123189
     22          1           0        1.568432    0.847938    0.607629
     23          1           0       -7.033431   -0.465243    0.138365
     24         17           0       -7.567991    5.066343    0.637092
     25          1           0       -5.261712    3.446638    0.379980
     26          6           0       -9.601043    0.306183    0.273151
     27          1           0       -9.532573    3.006356    0.566583
     28          9           0      -10.620745    0.789956    0.994114
     29          9           0      -10.047195    0.184013   -0.990222
     30          9           0       -9.357575   -0.937766    0.712732
 ---------------------------------------------------------------------
                    Distance matrix (angstroms):
                    1          2          3          4          5
     1  C    0.000000
     2  N    1.395208   0.000000
     3  C    2.500845   1.390361   0.000000
     4  O    2.917484   2.297542   1.215708   0.000000
     5  N    3.647922   2.301967   1.364003   2.268943   0.000000
     6  C    4.927479   3.664398   2.445390   2.772705   1.456720
     7  C    6.089909   4.731233   3.724536   4.240774   2.445583
     8  C    7.410981   6.098217   4.948629   5.196915   3.800203
     9  C    1.400582   2.383355   3.716528   4.294730   4.658503
    10  C    2.412740   3.660087   4.903775   5.270290   5.961281
    11  C    2.817504   4.210727   5.217881   5.264404   6.448659
    12  C    2.398835   3.705676   4.408153   4.196795   5.735705
    13  C    1.399377   2.465283   3.025772   2.851881   4.364687
    14  H    2.040536   1.010242   2.056429   3.162835   2.418113
    15  H    3.846957   2.459497   2.055703   3.146549   1.009885
    16  H    5.096846   3.970843   2.644516   2.584561   2.071916
    17  H    5.204820   4.041429   2.815063   2.932432   2.107423
    18  H    6.205896   4.822343   4.022380   4.727469   2.682382
    19  H    6.132927   4.783033   3.915194   4.518830   2.670725
    20  H    7.637157   6.367505   5.181000   5.330537   4.125749
    21  H    8.254399   6.902473   5.847440   6.200242   4.610253
    22  H    7.585036   6.344366   5.104212   5.152118   4.123198
    23  H    2.156833   2.591575   3.979295   4.797499   4.641615
    24  Cl   3.996667   5.160123   5.545908   4.984161   6.909467
    25  H    2.159091   2.735552   2.762116   2.175091   4.117355
    26  C    3.781958   4.869834   6.201163   6.691655   7.125382
    27  H    3.899694   5.292889   6.283509   6.266291   7.527032
    28  F    4.737276   5.930478   7.205457   7.567276   8.209670
    29  F    4.418806   5.436638   6.753156   7.266812   7.627923
    30  F    4.139733   4.945171   6.323484   7.001956   7.049817
[...]
 0.00000986,0.00000462,0.00000721,-0.00001296,0.00003859,-0.00000465,-0
 .00000147,0.00000447,0.00001271,0.00001212,0.00008384,-0.00008747,0.00
 005381,-0.01936630,0.24202349,0.00068733,0.00008670,0.00531978,0.00015
 818,-0.00019697,-0.00000138,-0.00032034,-0.00009041,0.00006185,0.00009
 672,0.00006514,0.00008304,0.00012669,-0.00003999,-0.00001211,-0.000044
 63,-0.00002603,-0.00000102,0.00000468,0.00000983,-0.00000526,0.0000002
 6,-0.00000584,0.00000021,-0.00015289,-0.00017603,-0.00104239,-0.000004
 93,-0.00027803,0.00481469,0.00031213,-0.00273265,0.00413214,0.00194868
 ,-0.01306991,-0.02435471,0.00075872,-0.00498513,0.00358630,0.00003422,
 0.00001313,-0.00018903,-0.00000412,0.00001854,-0.00001568,0.00000537,0
 .00000395,0.00000073,0.00000815,0.00000291,-0.00000180,0.00000010,0.00
 000102,0.00000201,-0.00000137,-0.00000227,0.00000027,-0.00000012,0.000
 00017,-0.00000019,0.00000421,-0.00000075,-0.00000034,0.00000093,0.0000
 0194,0.00000125,-0.00002480,0.00002920,-0.00048267,-0.00317475,0.02095
 074,0.01336246,0.01144735,0.00290672,-0.00005215,-0.00323534,-0.001658
 07,-0.00020012,0.00221365,0.00793345,0.00085280,-0.00872161,-0.0025642
 1,-0.00013035,0.00032696,-0.00170588,-0.00010649,-0.00036796,-0.000139
 54,0.00000681,0.00000294,0.00005579,-0.00002208,0.00000573,-0.00003684
 ,0.00000400,0.00006785,0.00196225,0.00043891,0.00047765,0.00097596,-0.
 00005757,-0.00271887,0.00253510,0.00063403,-0.01708671,-0.01426770,-0.
 00030855,-0.24902087,-0.14900258,-0.00317970,-0.00015672,-0.00015763,-
 0.00000880,0.00021834,-0.00000141,-0.00006795,-0.00002474,0.00002096,-
 0.00000564,0.00002959,0.00005560,-0.00001198,0.00000580,-0.00001601,-0
 .00000223,-0.00000167,-0.00000406,0.00000292,0.00000110,0.00000753,-0.
 00000104,0.00002697,-0.00000711,-0.00000031,-0.00000342,0.00000795,-0.
 00000181,0.00041485,0.00047925,0.00003036,0.00113061,-0.00106419,-0.00
 025815,0.26559072,-0.02556031,-0.01186758,-0.00029004,0.00095795,0.002
 05822,0.00044967,0.00028074,-0.00570755,-0.00067578,-0.00129195,0.0027
 7319,0.00033735,-0.00048383,0.00116959,0.00004654,0.00028214,0.0001309
 9,-0.00002711,-0.00000657,-0.00004285,0.00002809,-0.00000039,0.0000333
 7,-0.00000183,0.00151758,-0.00487575,-0.00106690,0.00109492,-0.0008467
 2,-0.00008074,0.00338480,-0.00067431,-0.00080937,0.01226055,0.01093912
 ,0.00021003,-0.14725552,-0.16753064,-0.00488553,-0.00005983,-0.0000099
 0,0.00003623,-0.00010305,0.00003853,0.00006342,0.00001305,0.00000036,0
 .00001133,-0.00003476,-0.00003992,0.00002051,-0.00000963,0.00001277,-0
 .00000276,0.00000189,0.00000336,0.00000064,-0.00000187,-0.00000469,0.0
 0000570,-0.00002398,0.00000245,0.00000058,-0.00000010,-0.00000639,-0.0
 0000425,-0.00112844,-0.00060504,0.00002720,0.00118467,0.00058877,0.000
 25147,0.15446517,0.17379327,-0.00245171,-0.00151374,0.00527032,-0.0000
 5056,0.00053208,-0.00361384,0.00009348,-0.00054859,-0.00011829,0.00011
 412,0.00024421,-0.00064021,-0.00001503,0.00009577,0.00034367,0.0000319
 8,0.00000849,0.00014052,0.00000958,0.00000193,0.00000004,-0.00000011,0
 .00000478,0.00000301,0.00033120,-0.00101881,0.00617094,0.00004166,0.00
 002489,-0.00069400,0.00075536,-0.00091496,0.00604710,0.00224720,0.0015
 6518,0.00254015,-0.00325093,-0.00507689,-0.03766126,-0.00004654,0.0000
 3008,-0.00035244,-0.00004055,-0.00001889,0.00014984,0.00001930,-0.0000
 3364,-0.00001552,-0.00001113,0.00000633,-0.00004338,-0.00000315,-0.000
 00682,-0.00000371,-0.00000546,0.00001367,-0.00000891,0.00000531,0.0000
 0140,-0.00000594,-0.00000298,0.00000152,-0.00000111,-0.00000425,-0.000
 00527,-0.00000156,-0.00009823,-0.00003651,-0.00024729,-0.00009180,0.00
 033660,-0.00279855,0.00245367,0.00626448,0.02586145,-0.00675072,0.0042
 3211,0.00138032,0.00478278,-0.00034330,-0.00030343,-0.00528350,-0.0004
 0608,0.00028922,0.00183778,0.00042914,-0.00006504,0.00242075,-0.001104
 42,0.00003929,-0.00081247,-0.00035297,-0.00001722,0.00005902,0.0001922
 5,-0.00004364,0.00000698,-0.00011047,0.00000539,-0.02427529,-0.0127390
 5,-0.00207319,-0.17649505,-0.06117590,-0.00701441,0.01009530,-0.008063
 21,0.00025594,0.00395214,-0.00046148,0.00041390,0.00085242,0.00345923,
 0.00006652,-0.00032136,0.00027615,0.00006186,-0.00007668,0.00023056,-0
 .00006406,0.00003907,0.00003800,-0.00000986,0.00018120,0.00008515,-0.0
 0006035,-0.00000047,-0.00002114,0.00000951,-0.00002561,-0.00000589,-0.
 00000407,0.00000269,0.00002518,-0.00001355,0.00008931,-0.00002891,0.00
 000036,-0.00000506,0.00002620,0.00000588,-0.00057877,-0.00047402,-0.00
 000154,0.00027083,0.00436726,0.00021989,-0.00069767,0.00001509,-0.0000
 3552,0.59414793,0.00270331,0.00289226,-0.00000136,0.00542811,0.0001983
 6,-0.00046011,-0.00371724,-0.00007448,0.00009209,0.00119572,-0.0002358
 2,-0.00009974,0.00205867,-0.00107911,0.00014239,-0.00048385,-0.0002626
 2,-0.00005053,0.00005111,0.00019074,-0.00002746,0.00002880,-0.00009829
 ,0.00000319,0.00229045,0.01747434,0.00371300,-0.06152033,-0.13660394,-
 0.00819526,-0.02457115,-0.01664707,-0.00272661,-0.00027686,-0.00742677
 ,-0.00097293,0.00392360,-0.00184648,-0.00034358,0.00030941,0.00048948,
 -0.00001100,0.00004093,0.00027993,-0.00014018,0.00001703,0.00001854,-0
 .00002183,0.00012181,0.00005125,-0.00001575,0.00000167,-0.00003148,-0.
 00003635,-0.00000133,-0.00000704,0.00003534,-0.00000887,0.00001334,0.0
 0000955,0.00006780,-0.00001451,-0.00000093,-0.00001582,0.00000908,-0.0
 0001147,0.00322480,-0.00186373,-0.00038548,-0.00034702,0.00070413,0.00
 013023,-0.00034913,-0.00032170,-0.00000410,0.03672725,0.56836073,0.001
 06267,0.00026631,0.00676751,0.00061163,0.00007953,-0.00021868,-0.00043
 620,-0.00006034,0.00018321,0.00015533,-0.00000712,-0.00014532,0.000265
 39,-0.00005239,-0.00024484,-0.00007126,-0.00005161,0.00008023,0.000014
 77,0.00002421,0.00004045,0.00000093,-0.00001097,-0.00000137,0.00244690
 ,0.00223810,0.00053011,-0.00337095,-0.00552471,-0.06752740,-0.00233737
 ,0.00011915,-0.00008454,0.00094280,-0.00130296,0.00622306,0.00048835,-
 0.00006891,-0.00110587,0.00000072,-0.00000681,0.00042119,0.00002061,-0
 .00001527,0.00015899,-0.00000809,-0.00001263,-0.00000544,0.00004073,0.
 00003070,-0.00002722,-0.00000141,-0.00002536,-0.00001233,-0.00000857,0
 .00001755,-0.00002344,0.00000963,0.00001354,-0.00001251,0.00000539,0.0
 0000084,0.00000673,-0.00000843,-0.00001163,-0.00000477,-0.00028597,0.0
 0027069,-0.00264081,-0.00003547,0.00013612,0.00010796,-0.00003831,0.00
 001657,-0.00042807,-0.00596219,0.00460562,0.49336665,-0.00025042,-0.00
 075664,-0.00011654,0.00049298,0.00001648,-0.00006900,-0.00019976,-0.00
 037501,-0.00004245,-0.00017251,0.00026169,0.00002179,0.00001689,0.0000
 4864,0.00001657,0.00000340,0.00000470,-0.00000159,0.00000104,0.0000013
 5,0.00000103,0.00000019,0.00000027,-0.00000014,0.00168993,-0.00067400,
 0.00022809,0.00278978,0.00052976,0.00019105,-0.30094386,0.11024740,0.0
 2375882,-0.01734501,0.01205728,0.00202912,-0.00189338,-0.00366500,0.00
 012280,-0.00001602,0.00002814,0.00001139,-0.00000729,0.00000799,0.0000
 0263,0.00000363,-0.00000132,0.00000068,0.00000298,-0.00000156,-0.00000
 086,-0.00000094,0.00000047,-0.00000030,-0.00000043,0.00000064,-0.00000
 005,0.00000003,0.00000004,0.00000007,-0.00000013,-0.00000001,0.0000000
 5,-0.00000017,-0.00000025,-0.00000013,0.00017927,-0.00016508,0.0000043
 7,0.00102981,0.00071773,-0.00015765,-0.00047820,0.00061125,0.00012783,
 -0.00042756,-0.00016064,-0.00002237,0.31593561,-0.00031925,-0.00095317
 ,-0.00000364,0.00000090,0.00032618,0.00009628,0.00003038,-0.00024007,-
 0.00001224,-0.00014990,0.00019031,0.00002500,-0.00003607,0.00008017,-0
 .00000687,0.00001445,0.00000231,-0.00000290,0.00000065,-0.00000283,0.0
 0000070,-0.00000026,0.00000189,0.00000033,-0.00126675,-0.00518975,-0.0
 0093971,0.02739430,-0.00665409,-0.00213081,0.11199815,-0.10823842,-0.0
 1272595,-0.01764361,0.01019459,0.00157390,-0.00329062,-0.00227712,-0.0
 0053040,-0.00013353,0.00000902,-0.00000772,-0.00001063,-0.00000214,0.0
 0000411,0.00000005,0.00000106,0.00000114,-0.00000230,-0.00000197,0.000
 00101,-0.00000062,0.00000095,0.00000056,-0.00000006,-0.00000006,-0.000
 00026,0.00000002,-0.00000024,0.00000022,-0.00000112,0.00000018,0.00000
 004,0.00000036,-0.00000015,-0.00000010,0.00139349,-0.00033736,-0.00015
 626,-0.00068874,0.00080096,0.00030455,-0.00063263,0.00068086,0.0000900
 4,0.00304049,-0.00128687,-0.00056497,-0.11743003,0.11188954,-0.0001581
 8,-0.00000188,-0.00083870,0.00001428,0.00005045,-0.00061639,-0.0000222
 7,0.00000511,-0.00017059,0.00002132,0.00000143,-0.00004912,0.00001770,
 0.00000031,0.00006508,-0.00000344,0.00000031,0.00002677,0.00000252,0.0
 0000265,0.00000272,-0.00000017,-0.00000059,-0.00000017,0.00020293,-0.0
 0085145,0.00577338,0.00241322,-0.00052011,0.00254712,0.02456453,-0.013
 07002,-0.03548106,-0.00060504,0.00008389,0.00221844,0.00007723,-0.0005
 2674,0.00552230,0.00000069,0.00001253,0.00010946,-0.00000639,-0.000004
 52,0.00003017,0.00000460,-0.00000818,-0.00000449,-0.00000122,0.0000043
 1,-0.00000810,-0.00000045,-0.00000222,-0.00000105,-0.00000077,0.000002
 51,-0.00000201,0.00000132,0.00000089,-0.00000144,0.00000043,0.00000007
 ,0.00000037,-0.00000088,-0.00000102,-0.00000027,0.00014052,-0.00009283
 ,0.00069833,-0.00026441,0.00028008,-0.00254721,-0.00003368,-0.00000465
 ,0.00036674,0.00003780,0.00029770,-0.00235187,-0.02614068,0.01419856,0
 .02625624,-0.00030729,0.00034566,-0.00134102,-0.00254243,-0.00070506,-
 0.00013642,0.00208288,0.00063912,-0.00007317,-0.00067219,-0.00035048,-
 0.00003072,-0.00106130,0.00035054,-0.00002324,0.00033367,0.00017241,0.
 00002530,-0.00003078,-0.00008198,0.00002556,-0.00000318,0.00004780,-0.
 00000367,-0.00220494,-0.00839246,0.00114591,-0.04054078,0.01734791,0.0
 2755240,-0.00147844,0.00170428,-0.00021592,0.00016906,0.00170028,-0.00
 057503,-0.00088054,-0.00022779,0.00028295,0.00016069,-0.00012878,0.000
 03992,0.00004228,-0.00009391,0.00003437,-0.00001865,-0.00001933,0.0000
 0098,-0.00007353,-0.00003329,0.00002483,0.00000038,0.00000432,-0.00000
 820,0.00001055,0.00000505,0.00000037,-0.00000064,-0.00000859,0.0000050
 4,-0.00003711,0.00001125,0.00000081,0.00000012,-0.00001286,-0.00000442
 ,0.00060279,0.00023313,0.00050380,0.00007578,-0.00125377,-0.00007279,0
 .00022872,-0.00005763,0.00004228,-0.21508275,0.03589052,0.08270972,-0.
 00051959,-0.00162550,0.00057682,0.26711007,-0.00020883,-0.00008743,-0.
 00025218,-0.00092011,0.00009365,0.00005819,0.00050023,0.00002848,-0.00
 005156,-0.00013300,0.00003887,0.00002160,-0.00026253,0.00015160,-0.000
 01273,0.00004938,0.00002631,0.00001314,-0.00000610,-0.00002592,0.00000
 090,-0.00000512,0.00001235,-0.00000130,-0.00098371,-0.00197277,0.00010
 591,-0.01049361,0.01006149,0.00385470,-0.00087770,-0.00286413,0.001341
 82,0.00032958,0.00137856,0.00037802,-0.00064807,0.00032079,0.00008542,
 -0.00007562,-0.00008091,-0.00000367,-0.00001254,-0.00004057,0.00001504
 ,-0.00000095,-0.00000034,0.00000433,-0.00001703,-0.00000597,0.00000087
 ,-0.00000012,0.00000630,0.00000839,-0.00000058,0.00000008,-0.00000587,
 0.00000132,-0.00000185,-0.00000213,-0.00000804,0.00000124,-0.00000018,
 0.00000323,0.00000038,0.00000300,-0.00043819,0.00021388,0.00015113,-0.
 00001764,-0.00004772,0.00000654,-0.00004453,0.00009081,-0.00003113,0.0
 4462114,-0.09135300,-0.02938395,-0.00186047,0.00024916,0.00001472,-0.0
 9349810,0.12865022,-0.00011052,-0.00108186,-0.00031096,0.00067646,0.00
 036342,0.00005997,-0.00051313,-0.00028030,-0.00007256,0.00016589,0.000
 16293,0.00005681,0.00025244,-0.00005300,0.00005219,-0.00008281,-0.0000
 4361,-0.00001560,0.00000731,0.00001790,-0.00001673,0.00000032,-0.00001
 185,0.00000155,0.00156620,0.00271725,0.00067301,0.01085137,-0.00619746
 ,0.00184669,-0.00021812,-0.00152515,0.00047389,0.00045168,-0.00013880,
 0.00023719,-0.00024973,0.00051551,0.00000964,-0.00008388,0.00002936,-0
 .00007399,-0.00002202,0.00002607,-0.00003547,0.00000804,0.00000890,0.0
 0000137,0.00001297,0.00000388,-0.00000273,-0.00000041,0.00000486,0.000
 00721,-0.00000180,-0.00000526,0.00000291,-0.00000144,-0.00000019,0.000
 00033,0.00000943,-0.00000336,-0.00000172,0.00000229,0.00000658,0.00000
 298,-0.00017266,0.00001984,-0.00005241,-0.00001802,0.00039316,0.000038
 55,-0.00005941,0.00005204,-0.00004911,0.08616367,-0.02474672,-0.121681
 34,-0.00009841,0.00066791,-0.00048053,-0.13605596,0.06721766,0.1789825
 9,0.00146254,-0.00079151,0.00153969,-0.00156754,-0.00011896,0.00011553
 ,0.00161186,0.00010601,-0.00018270,-0.00058353,-0.00007590,0.00006357,
 -0.00079808,0.00035340,0.00001070,0.00025836,0.00012066,0.00000037,-0.
 00002118,-0.00006553,0.00000949,-0.00000253,0.00003592,-0.00000053,0.0
 0102388,-0.00213095,-0.00064702,-0.01229485,-0.01094947,-0.03592714,-0
 .00231498,0.00182861,-0.00061839,-0.00131275,0.00059043,0.00182273,-0.
 00041303,-0.00101734,-0.00038026,0.00005977,-0.00009465,-0.00004031,0.
 00001854,-0.00007477,0.00000918,-0.00000971,-0.00001078,0.00000442,-0.
 00005973,-0.00002926,0.00002003,-0.00000024,0.00001040,0.00000040,0.00
 000812,0.00000015,0.00000202,-0.00000102,-0.00000921,0.00000478,-0.000
 02878,0.00000868,-0.00000098,0.00000307,-0.00000654,-0.00000063,-0.000
 01597,0.00038781,-0.00078752,0.00000144,-0.00103104,-0.00001825,0.0002
 1585,0.00003585,-0.00012509,-0.10791304,-0.01580744,-0.07151787,-0.000
 02685,-0.00031830,-0.00099290,0.01364128,0.00899739,0.03643026,0.10663
 285,-0.00013960,-0.00148896,0.00092364,-0.00106666,0.00001515,0.000198
 12,0.00095987,-0.00005418,-0.00004338,-0.00032681,0.00007043,0.0000486
 8,-0.00051243,0.00027416,-0.00001779,0.00013629,0.00006816,0.00000086,
 -0.00001364,-0.00004697,0.00000238,-0.00000549,0.00002442,0.00000065,0
 .00079072,-0.00227541,-0.00141079,-0.01500956,0.00466857,-0.02133498,-
 0.00032985,0.00040921,0.00030015,0.00062115,0.00118456,0.00091117,-0.0
 0108698,0.00045731,-0.00009577,-0.00003751,-0.00008808,-0.00004455,-0.
 00000662,-0.00006364,0.00002101,-0.00000430,-0.00000455,0.00000543,-0.
 00003321,-0.00001578,0.00000668,-0.00000008,0.00000882,0.00000790,0.00
 000216,0.00000052,-0.00000521,0.00000120,-0.00000477,-0.00000055,-0.00
 001762,0.00000432,-0.00000039,0.00000391,-0.00000227,0.00000240,-0.000
 46263,0.00021545,-0.00058561,-0.00001655,-0.00036926,-0.00007222,0.000
 12033,0.00006597,-0.00006842,-0.01581144,-0.07740544,-0.02714164,0.000
 21480,0.00012833,-0.00027124,0.00486967,0.00419687,-0.02852145,0.00444
 301,0.07859780,0.00021349,-0.00100328,0.00076522,-0.00141812,-0.000155
 68,0.00038202,0.00124661,0.00015441,-0.00016015,-0.00043105,-0.0000711
 2,0.00011613,-0.00064451,0.00025415,0.00008071,0.00018915,0.00010195,-
 0.00003494,-0.00002151,-0.00005398,-0.00001012,-0.00000322,0.00002905,
 -0.00000077,0.00035525,-0.00257772,-0.00016516,-0.01516358,-0.00564052
 ,-0.01837428,-0.00171769,0.00079284,0.00052131,-0.00052634,0.00051083,
 0.00109247,-0.00059790,-0.00020939,-0.00014560,0.00004044,-0.00005701,
 -0.00021492,-0.00000116,-0.00004374,-0.00005630,-0.00000371,-0.0000023
 5,0.00000604,-0.00005546,-0.00003154,0.00002322,0.00000031,0.00001779,
 0.00000623,0.00000791,-0.00000642,0.00001020,-0.00000484,-0.00001107,0
 .00000757,-0.00002017,0.00000447,-0.00000318,0.00000524,0.00000083,0.0
 0000208,-0.00003045,0.00031529,-0.00106847,-0.00004929,-0.00085246,-0.
 00003018,0.00013206,0.00003677,-0.00016464,-0.07204112,-0.02813360,-0.
 22282817,0.00012122,0.00012124,-0.00102550,0.01989432,-0.02485537,-0.0
 7405751,0.09550949,0.02314053,0.36521173,0.00203466,-0.00070344,-0.000
 25309,-0.00104270,-0.00000442,0.00011586,0.00110416,0.00026543,-0.0000
 2868,-0.00033962,-0.00020345,-0.00000088,-0.00047995,0.00018047,0.0000
 0085,0.00016349,0.00007212,-0.00000023,-0.00001308,-0.00003721,0.00000
 784,-0.00000067,0.00002130,-0.00000150,-0.00267379,-0.00081026,0.00147
 246,0.00818385,-0.02559804,0.00612140,-0.00421413,-0.00035772,0.000941
 25,-0.00002769,-0.00039098,-0.00065210,-0.00020224,-0.00069034,0.00007
 774,0.00013968,-0.00004885,-0.00004786,0.00002303,-0.00004218,0.000003
 02,-0.00000993,-0.00000745,0.00000113,-0.00003784,-0.00001750,0.000014
 26,0.00000070,0.00000388,-0.00000348,0.00000644,0.00000065,0.00000294,
 -0.00000129,-0.00000534,0.00000362,-0.00001750,0.00000569,-0.00000025,
 0.00000057,-0.00000530,-0.00000170,-0.00125312,-0.00218904,0.00002718,
 -0.00012797,-0.00098197,-0.00013149,0.00010910,-0.00008775,-0.00003993
 ,-0.07999223,0.01317870,-0.00467112,0.00013657,-0.00032331,0.00015457,
 -0.01900413,0.05601033,0.00108998,0.00242625,0.02271786,-0.02498537,0.
 09510938,0.00137633,-0.00058189,-0.00080565,-0.00218716,0.00029997,0.0
 0009763,0.00163815,-0.00017824,-0.00003443,-0.00054395,0.00019664,0.00
 002578,-0.00084197,0.00052682,-0.00010257,0.00019008,0.00009139,0.0000
 4096,-0.00001603,-0.00008172,0.00001482,-0.00001386,0.00004096,-0.0000
 0155,0.00238526,-0.00209445,-0.00121644,0.00593364,-0.04338114,0.01504
 305,-0.00823713,-0.00021410,0.00184340,0.00057935,-0.00008602,-0.00118
 965,-0.00065381,-0.00020463,0.00022464,-0.00017156,-0.00024105,0.00007
 248,-0.00002567,-0.00013444,0.00008989,-0.00000639,-0.00000765,0.00001
 108,-0.00004751,-0.00001725,-0.00000045,-0.00000140,0.00001269,0.00001
 925,-0.00000241,0.00000504,-0.00002236,0.00000567,-0.00000366,-0.00000
 780,-0.00002882,0.00000626,0.00000114,0.00000731,-0.00000406,0.0000064
 5,-0.00154314,0.00043463,0.00091136,-0.00042405,-0.00145033,-0.0001998
 0,0.00012549,0.00015141,0.00005632,0.00333311,-0.25412384,0.05642233,0
 .00034139,0.00062873,0.00039994,0.04316758,-0.04904041,-0.00959825,0.0
 1561336,-0.00857074,0.03822510,-0.05995188,0.35802109,-0.00006210,0.00
 051830,0.00008871,0.00037639,-0.00006638,0.00011111,-0.00027049,-0.000
 00884,-0.00003529,0.00007182,-0.00000503,0.00002836,0.00013321,-0.0000
 9217,0.00006380,-0.00002603,-0.00001032,-0.00002245,0.00000102,0.00001
 135,-0.00001381,0.00000290,-0.00000662,0.00000113,-0.00105827,-0.00014
 921,0.00046643,-0.00228319,0.00647969,0.00677409,0.00213684,0.00056166
 ,0.00087287,-0.00100956,0.00018785,-0.00034040,0.00040626,-0.00038698,
 -0.00001422,0.00000747,0.00004394,-0.00012264,-0.00000275,0.00002846,-
 0.00005003,0.00000355,0.00000523,-0.00000118,0.00000300,-0.00000246,0.
 00000485,0.00000007,0.00000298,-0.00000017,0.00000206,-0.00000460,0.00
 000903,-0.00000332,-0.00000201,0.00000397,0.00000476,-0.00000133,-0.00
 000181,0.00000049,0.00000348,-0.00000013,0.00052790,0.00022638,-0.0004
 4791,0.00011921,0.00028784,-0.00002871,-0.00000924,-0.00000967,-0.0000
 4592,-0.00124036,0.05735585,-0.08854209,0.00001266,-0.00000377,-0.0000
 3863,0.00567519,-0.01868133,0.01440381,-0.02430307,0.05404439,-0.04988
 504,0.02078357,-0.10032669,0.11676226\\0.00000719,-0.00000065,0.000006
 71,0.00000092,0.00000368,-0.00003373,0.00000627,-0.00002118,0.00005684
 ,-0.00001180,0.00001203,-0.00001921,0.00002068,0.00001889,0.00000772,-
 0.00000643,0.00001148,-0.00001019,0.00000951,-0.00000204,0.00000541,-0
 .00000209,0.00000684,-0.00000463,-0.00000104,-0.00000509,-0.00000373,0
 .,-0.00000539,0.00000090,-0.00000532,-0.00000181,0.00000070,-0.0000013
 7,-0.00001406,-0.00000251,-0.00000948,0.00000037,0.00000246,-0.0000028
 1,-0.00000474,-0.00000176,-0.00000794,-0.00000206,-0.00000180,-0.00000
 877,0.00000306,-0.00000197,0.00000598,0.00000312,-0.00000395,0.0000002
 3,0.00000324,0.00000034,0.00000335,0.00000837,-0.00000256,0.00000039,0
 .00000768,0.00000041,0.00000232,0.00001083,0.00000145,-0.00000006,0.00
 000891,-0.00000036,0.00000142,0.00000029,0.00000263,-0.00000564,-0.000
 00025,-0.00000119,-0.00000076,-0.00000235,-0.00000286,0.00000984,-0.00
 001083,0.00000223,-0.00000226,-0.00000738,-0.00000133,-0.00000370,-0.0
 0000676,0.00000427,0.00000132,-0.00000899,-0.00000200,0.00000006,-0.00
 000520,0.00000173\\\@


 ... UNTIL SCIENCE IS MIXED WITH EMOTION AND APPEALS TO THE HEART AND
 IMAGINATION , IT IS LIKE DEAD INORGANIC MATTER; AND WHEN IT IS SO MIXED
 AND SO TRANSFORMED IT IS LITERATURE.

                                  -- JOHN BURROUGHS
 Job cpu time:       0 days  3 hours 36 minutes 56.8 seconds.
 Elapsed time:       0 days  3 hours 36 minutes 57.7 seconds.
 File lengths (MBytes):  RWF=    695 Int=      0 D2E=      0 Chk=     25 Scr=      1
 Normal termination of Gaussian 16 at Tue Sep 15 14:52:45 2020.
