 Entering Gaussian System, Link 0=/apps/gaussian/g16c01/g16/g16
 Initial command:
 /apps/gaussian/g16c01/g16/l1.exe "/jobfs/11271688.gadi-pbs/Gau-1265090.inp" -scrdir="/jobfs/11271688.gadi-pbs/"
 Entering Link 1 = /apps/gaussian/g16c01/g16/l1.exe PID=   1265095.
  
 Copyright (c) 1988-2019, Gaussian, Inc.  All Rights Reserved.
  
 This is part of the Gaussian(R) 16 program.  It is based on
 the Gaussian(R) 09 system (copyright 2009, Gaussian, Inc.),
 the Gaussian(R) 03 system (copyright 2003, Gaussian, Inc.),
 the Gaussian(R) 98 system (copyright 1998, Gaussian, Inc.),
 the Gaussian(R) 94 system (copyright 1995, Gaussian, Inc.),
 the Gaussian 92(TM) system (copyright 1992, Gaussian, Inc.),
 the Gaussian 90(TM) system (copyright 1990, Gaussian, Inc.),
 the Gaussian 88(TM) system (copyright 1988, Gaussian, Inc.),
 the Gaussian 86(TM) system (copyright 1986, Carnegie Mellon
 University), and the Gaussian 82(TM) system (copyright 1983,
 Carnegie Mellon University). Gaussian is a federally registered
 trademark of Gaussian, Inc.
  
 This software contains proprietary and confidential information,
 including trade secrets, belonging to Gaussian, Inc.
  
 This software is provided under written license and may be
 used, copied, transmitted, or stored only in accord with that
 written license.
  
 The following legend is applicable only to US Government
 contracts under FAR:
  
                    RESTRICTED RIGHTS LEGEND
  
 Use, reproduction and disclosure by the US Government is
 subject to restrictions as set forth in subparagraphs (a)
 and (c) of the Commercial Computer Software - Restricted
 Rights clause in FAR 52.227-19.
  
 Gaussian, Inc.
 340 Quinnipiac St., Bldg. 40, Wallingford CT 06492
  
  
 ---------------------------------------------------------------
 Warning -- This program may not be used in any manner that
 competes with the business of Gaussian, Inc. or will provide
 assistance to any competitor of Gaussian, Inc.  The licensee
 of this program is prohibited from giving any competitor of
 Gaussian, Inc. access to this program.  By using this program,
 the user acknowledges that Gaussian, Inc. is engaged in the
 business of creating and licensing software in the field of
 computational chemistry and represents and warrants to the
 licensee that it is not a competitor of Gaussian, Inc. and that
 it will not use this program in any manner prohibited above.
 ---------------------------------------------------------------
  

 Cite this work as:
 Gaussian 16, Revision C.01,
 M. J. Frisch, G. W. Trucks, H. B. Schlegel, G. E. Scuseria, 
 M. A. Robb, J. R. Cheeseman, G. Scalmani, V. Barone, 
 G. A. Petersson, H. Nakatsuji, X. Li, M. Caricato, A. V. Marenich, 
 J. Bloino, B. G. Janesko, R. Gomperts, B. Mennucci, H. P. Hratchian, 
 J. V. Ortiz, A. F. Izmaylov, J. L. Sonnenberg, D. Williams-Young, 
 F. Ding, F. Lipparini, F. Egidi, J. Goings, B. Peng, A. Petrone, 
 T. Henderson, D. Ranasinghe, V. G. Zakrzewski, J. Gao, N. Rega, 
 G. Zheng, W. Liang, M. Hada, M. Ehara, K. Toyota, R. Fukuda, 
 J. Hasegawa, M. Ishida, T. Nakajima, Y. Honda, O. Kitao, H. Nakai, 
 T. Vreven, K. Throssell, J. A. Montgomery, Jr., J. E. Peralta, 
 F. Ogliaro, M. J. Bearpark, J. J. Heyd, E. N. Brothers, K. N. Kudin, 
 V. N. Staroverov, T. A. Keith, R. Kobayashi, J. Normand, 
 K. Raghavachari, A. P. Rendell, J. C. Burant, S. S. Iyengar, 
 J. Tomasi, M. Cossi, J. M. Millam, M. Klene, C. Adamo, R. Cammi, 
 J. W. Ochterski, R. L. Martin, K. Morokuma, O. Farkas, 
 J. B. Foresman, and D. J. Fox, Gaussian, Inc., Wallingford CT, 2019.
 
 ******************************************
 Gaussian 16:  ES64L-G16RevC.01  3-Jul-2019
                15-Sep-2020 
 ******************************************
 %NprocShared=6
 Will use up to    6 processors via shared memory.
 %Mem=16000MB
 %chk=NM3_c2.M062X_6-311pGd_opt_water_GD3.chk
 ----------------------------------------------------------------------
 # M062X/6-311+G* SCF=Tight INT(grid=ultrafine) OPT IOP(2/17=4) Empiric
 alDispersion=GD3 SCRF=(SMD,Solvent=h2o) MaxDisk=10000MB
 ----------------------------------------------------------------------
 1/18=20,19=15,26=6,38=1/1,3;
 2/9=110,12=2,17=4,18=5,40=1/2;
 3/5=4,6=6,7=11,11=2,25=1,30=1,70=32201,71=1,72=1,74=-55,75=-5,124=31/1,2,3;
 4//1;
 5/5=2,32=2,38=5,53=1/2;
 6/7=2,8=2,9=2,10=2,28=1/1;
 7//1,2,3,16;
 1/18=20,19=15,26=6/3(2);
 2/9=110,17=4/2;
 99//99;
 2/9=110,17=4/2;
 3/5=4,6=6,7=11,11=2,25=1,30=1,70=32205,71=1,72=1,74=-55,75=-5,124=31/1,2,3;
 4/5=5,16=3,69=1/1;
 5/5=2,32=2,38=5,53=1/2;
 7//1,2,3,16;
 1/18=20,19=15,26=6/3(-5);
 2/9=110,17=4/2;
 6/7=2,8=2,9=2,10=2,19=2,28=1/1;
 99/9=1/99;
 -----------------------------------
 NM3_c2.M062X_6-311pGd_opt_water_GD3
 -----------------------------------
 Symbolic Z-matrix:
 Charge =  0 Multiplicity = 1
 C                    -5.97163   1.39302   0.3972 
 N                    -4.73289   0.74913   0.42713 
 C                    -3.51306   1.30654   0.08371 
 O                    -3.39161   2.47896  -0.27904 
 N                    -2.46844   0.46163   0.17411 
 C                    -1.11877   0.88686  -0.17611 
 C                    -0.14555  -0.26999  -0.02271 
 C                     1.27332   0.15514  -0.37987 
 C                    -7.11114   0.59557   0.22906 
 C                    -8.36375   1.18141   0.23745 
 C                    -8.53546   2.55463   0.39714 
 C                    -7.39358   3.31732   0.56534 
 C                    -6.11699   2.77006   0.57938 
 H                    -4.76747  -0.26019   0.50593 
 H                    -2.60829  -0.48371   0.50506 
 H                    -0.81944   1.71925   0.46747 
 H                    -1.11072   1.2518   -1.207 
 H                    -0.46347  -1.09609  -0.66633 
 H                    -0.17946  -0.63548   1.00845 
 H                     1.32937   0.50621  -1.41347 
 H                     1.97182  -0.67654  -0.27121 
 H                     1.61516   0.96614   0.26829 
 H                    -6.99875  -0.47392   0.09479 
 Cl                   -7.55888   5.04205   0.78751 
 H                    -5.25712   3.40199   0.7425 
 C                    -9.59474   0.34186   0.0642 
 H                    -9.52025   3.00607   0.39379 
 F                    -10.41813   0.43851   1.12431 
 F                    -10.31532   0.72682  -1.00489 
 F                    -9.32246  -0.95803  -0.09808 
 

 GradGradGradGradGradGradGradGradGradGradGradGradGradGradGradGradGradGrad
 Berny optimization.
 Initialization pass.
                           ----------------------------
                           !    Initial Parameters    !
                           ! (Angstroms and Degrees)  !
 --------------------------                            --------------------------
 ! Name  Definition              Value          Derivative Info.                !
 --------------------------------------------------------------------------------
 ! R1    R(1,2)                  1.3964         estimate D2E/DX2                !
 ! R2    R(1,9)                  1.401          estimate D2E/DX2                !
 ! R3    R(1,13)                 1.3966         estimate D2E/DX2                !
 ! R4    R(2,3)                  1.3844         estimate D2E/DX2                !
 ! R5    R(2,14)                 1.013          estimate D2E/DX2                !
 ! R6    R(3,4)                  1.2332         estimate D2E/DX2                !
 ! R7    R(3,5)                  1.3466         estimate D2E/DX2                !
 ! R8    R(5,6)                  1.4578         estimate D2E/DX2                !
 ! R9    R(5,15)                 1.0113         estimate D2E/DX2                !
 ! R10   R(6,7)                  1.5195         estimate D2E/DX2                !
 ! R11   R(6,16)                 1.0939         estimate D2E/DX2                !
 ! R12   R(6,17)                 1.0936         estimate D2E/DX2                !
 ! R13   R(7,8)                  1.5236         estimate D2E/DX2                !
 ! R14   R(7,18)                 1.0944         estimate D2E/DX2                !
 ! R15   R(7,19)                 1.0946         estimate D2E/DX2                !
 ! R16   R(8,20)                 1.093          estimate D2E/DX2                !
 ! R17   R(8,21)                 1.0915         estimate D2E/DX2                !
 ! R18   R(8,22)                 1.093          estimate D2E/DX2                !
 ! R19   R(9,10)                 1.3829         estimate D2E/DX2                !
 ! R20   R(9,23)                 1.0837         estimate D2E/DX2                !
 ! R21   R(10,11)                1.3931         estimate D2E/DX2                !
 ! R22   R(10,26)                1.5001         estimate D2E/DX2                !
 ! R23   R(11,12)                1.3834         estimate D2E/DX2                !
 ! R24   R(11,27)                1.0833         estimate D2E/DX2                !
 ! R25   R(12,13)                1.389          estimate D2E/DX2                !
 ! R26   R(12,24)                1.7468         estimate D2E/DX2                !
 ! R27   R(13,25)                1.0795         estimate D2E/DX2                !
 ! R28   R(26,28)                1.3458         estimate D2E/DX2                !
 ! R29   R(26,29)                1.3455         estimate D2E/DX2                !
 ! R30   R(26,30)                1.338          estimate D2E/DX2                !
 ! A1    A(2,1,9)              117.4937         estimate D2E/DX2                !
 ! A2    A(2,1,13)             122.9676         estimate D2E/DX2                !
 ! A3    A(9,1,13)             119.4874         estimate D2E/DX2                !
 ! A4    A(1,2,3)              126.2034         estimate D2E/DX2                !
 ! A5    A(1,2,14)             115.5197         estimate D2E/DX2                !
 ! A6    A(3,2,14)             116.7786         estimate D2E/DX2                !
 ! A7    A(2,3,4)              122.8545         estimate D2E/DX2                !
 ! A8    A(2,3,5)              114.4716         estimate D2E/DX2                !
 ! A9    A(4,3,5)              122.6736         estimate D2E/DX2                !
 ! A10   A(3,5,6)              121.27           estimate D2E/DX2                !
 ! A11   A(3,5,15)             120.0802         estimate D2E/DX2                !
 ! A12   A(6,5,15)             118.6415         estimate D2E/DX2                !
 ! A13   A(5,6,7)              110.2823         estimate D2E/DX2                !
 ! A14   A(5,6,16)             109.5095         estimate D2E/DX2                !
 ! A15   A(5,6,17)             109.307          estimate D2E/DX2                !
 ! A16   A(7,6,16)             110.1606         estimate D2E/DX2                !
 ! A17   A(7,6,17)             110.151          estimate D2E/DX2                !
 ! A18   A(16,6,17)            107.3768         estimate D2E/DX2                !
 ! A19   A(6,7,8)              111.1212         estimate D2E/DX2                !
 ! A20   A(6,7,18)             109.2225         estimate D2E/DX2                !
 ! A21   A(6,7,19)             109.2373         estimate D2E/DX2                !
 ! A22   A(8,7,18)             110.0768         estimate D2E/DX2                !
 ! A23   A(8,7,19)             110.051          estimate D2E/DX2                !
 ! A24   A(18,7,19)            107.0368         estimate D2E/DX2                !
 ! A25   A(7,8,20)             111.0407         estimate D2E/DX2                !
 ! A26   A(7,8,21)             111.1003         estimate D2E/DX2                !
 ! A27   A(7,8,22)             111.0548         estimate D2E/DX2                !
 ! A28   A(20,8,21)            107.8215         estimate D2E/DX2                !
 ! A29   A(20,8,22)            107.8429         estimate D2E/DX2                !
 ! A30   A(21,8,22)            107.8293         estimate D2E/DX2                !
 ! A31   A(1,9,10)             119.6629         estimate D2E/DX2                !
 ! A32   A(1,9,23)             119.4884         estimate D2E/DX2                !
 ! A33   A(10,9,23)            120.8487         estimate D2E/DX2                !
 ! A34   A(9,10,11)            122.002          estimate D2E/DX2                !
 ! A35   A(9,10,26)            120.3663         estimate D2E/DX2                !
 ! A36   A(11,10,26)           117.6308         estimate D2E/DX2                !
 ! A37   A(10,11,12)           117.1055         estimate D2E/DX2                !
 ! A38   A(10,11,27)           121.4978         estimate D2E/DX2                !
 ! A39   A(12,11,27)           121.3962         estimate D2E/DX2                !
 ! A40   A(11,12,13)           122.8616         estimate D2E/DX2                !
 ! A41   A(11,12,24)           118.7958         estimate D2E/DX2                !
 ! A42   A(13,12,24)           118.3392         estimate D2E/DX2                !
 ! A43   A(1,13,12)            118.8686         estimate D2E/DX2                !
 ! A44   A(1,13,25)            120.9302         estimate D2E/DX2                !
 ! A45   A(12,13,25)           120.1958         estimate D2E/DX2                !
 ! A46   A(10,26,28)           111.7717         estimate D2E/DX2                !
 ! A47   A(10,26,29)           111.7848         estimate D2E/DX2                !
 ! A48   A(10,26,30)           113.0013         estimate D2E/DX2                !
 ! A49   A(28,26,29)           106.1225         estimate D2E/DX2                !
 ! A50   A(28,26,30)           106.847          estimate D2E/DX2                !
 ! A51   A(29,26,30)           106.8927         estimate D2E/DX2                !
 ! D1    D(9,1,2,3)            154.0117         estimate D2E/DX2                !
 ! D2    D(9,1,2,14)           -11.4901         estimate D2E/DX2                !
 ! D3    D(13,1,2,3)           -28.6095         estimate D2E/DX2                !
 ! D4    D(13,1,2,14)          165.8886         estimate D2E/DX2                !
 ! D5    D(2,1,9,10)           177.8588         estimate D2E/DX2                !
 ! D6    D(2,1,9,23)            -2.0912         estimate D2E/DX2                !
 ! D7    D(13,1,9,10)            0.3852         estimate D2E/DX2                !
 ! D8    D(13,1,9,23)         -179.5648         estimate D2E/DX2                !
 ! D9    D(2,1,13,12)         -178.4496         estimate D2E/DX2                !
 ! D10   D(2,1,13,25)            0.7064         estimate D2E/DX2                !
 ! D11   D(9,1,13,12)           -1.1209         estimate D2E/DX2                !
 ! D12   D(9,1,13,25)          178.0351         estimate D2E/DX2                !
 ! D13   D(1,2,3,4)              1.0996         estimate D2E/DX2                !
 ! D14   D(1,2,3,5)           -178.7022         estimate D2E/DX2                !
 ! D15   D(14,2,3,4)           166.4407         estimate D2E/DX2                !
 ! D16   D(14,2,3,5)           -13.3611         estimate D2E/DX2                !
 ! D17   D(2,3,5,6)            178.8665         estimate D2E/DX2                !
 ! D18   D(2,3,5,15)            -2.1955         estimate D2E/DX2                !
 ! D19   D(4,3,5,6)             -0.9357         estimate D2E/DX2                !
 ! D20   D(4,3,5,15)           178.0022         estimate D2E/DX2                !
 ! D21   D(3,5,6,7)           -178.3049         estimate D2E/DX2                !
 ! D22   D(3,5,6,16)            60.3124         estimate D2E/DX2                !
 ! D23   D(3,5,6,17)           -57.0651         estimate D2E/DX2                !
 ! D24   D(15,5,6,7)             2.7422         estimate D2E/DX2                !
 ! D25   D(15,5,6,16)         -118.6405         estimate D2E/DX2                !
 ! D26   D(15,5,6,17)          123.9821         estimate D2E/DX2                !
 ! D27   D(5,6,7,8)           -179.8105         estimate D2E/DX2                !
 ! D28   D(5,6,7,18)            58.5602         estimate D2E/DX2                !
 ! D29   D(5,6,7,19)           -58.2036         estimate D2E/DX2                !
 ! D30   D(16,6,7,8)           -58.8158         estimate D2E/DX2                !
 ! D31   D(16,6,7,18)          179.5549         estimate D2E/DX2                !
 ! D32   D(16,6,7,19)           62.7911         estimate D2E/DX2                !
 ! D33   D(17,6,7,8)            59.4537         estimate D2E/DX2                !
 ! D34   D(17,6,7,18)          -62.1757         estimate D2E/DX2                !
 ! D35   D(17,6,7,19)         -178.9394         estimate D2E/DX2                !
 ! D36   D(6,7,8,20)           -59.908          estimate D2E/DX2                !
 ! D37   D(6,7,8,21)          -179.9026         estimate D2E/DX2                !
 ! D38   D(6,7,8,22)            60.0834         estimate D2E/DX2                !
 ! D39   D(18,7,8,20)           61.2212         estimate D2E/DX2                !
 ! D40   D(18,7,8,21)          -58.7734         estimate D2E/DX2                !
 ! D41   D(18,7,8,22)         -178.7874         estimate D2E/DX2                !
 ! D42   D(19,7,8,20)          178.9615         estimate D2E/DX2                !
 ! D43   D(19,7,8,21)           58.9669         estimate D2E/DX2                !
 ! D44   D(19,7,8,22)          -61.0471         estimate D2E/DX2                !
 ! D45   D(1,9,10,11)            0.5892         estimate D2E/DX2                !
 ! D46   D(1,9,10,26)         -179.7595         estimate D2E/DX2                !
 ! D47   D(23,9,10,11)        -179.4614         estimate D2E/DX2                !
 ! D48   D(23,9,10,26)           0.1899         estimate D2E/DX2                !
 ! D49   D(9,10,11,12)          -0.7763         estimate D2E/DX2                !
 ! D50   D(9,10,11,27)         179.4576         estimate D2E/DX2                !
 ! D51   D(26,10,11,12)        179.5633         estimate D2E/DX2                !
 ! D52   D(26,10,11,27)         -0.2028         estimate D2E/DX2                !
 ! D53   D(9,10,26,28)         120.1041         estimate D2E/DX2                !
 ! D54   D(9,10,26,29)        -121.103          estimate D2E/DX2                !
 ! D55   D(9,10,26,30)          -0.4649         estimate D2E/DX2                !
 ! D56   D(11,10,26,28)        -60.2296         estimate D2E/DX2                !
 ! D57   D(11,10,26,29)         58.5632         estimate D2E/DX2                !
 ! D58   D(11,10,26,30)        179.2013         estimate D2E/DX2                !
 ! D59   D(10,11,12,13)         -0.0021         estimate D2E/DX2                !
 ! D60   D(10,11,12,24)       -179.3189         estimate D2E/DX2                !
 ! D61   D(27,11,12,13)        179.7642         estimate D2E/DX2                !
 ! D62   D(27,11,12,24)          0.4474         estimate D2E/DX2                !
 ! D63   D(11,12,13,1)           0.9448         estimate D2E/DX2                !
 ! D64   D(11,12,13,25)       -178.2176         estimate D2E/DX2                !
 ! D65   D(24,12,13,1)        -179.7355         estimate D2E/DX2                !
 ! D66   D(24,12,13,25)          1.1021         estimate D2E/DX2                !
 --------------------------------------------------------------------------------
 Trust Radius=3.00D-01 FncErr=5.00D-06 GrdErr=5.00D-06 EigMax=2.50D+02 EigMin=1.00D-04
 Number of steps in this run=    157 maximum allowed number of steps=    180.
 GradGradGradGradGradGradGradGradGradGradGradGradGradGradGradGradGradGrad

                          Input orientation:                          
 ---------------------------------------------------------------------
 Center     Atomic      Atomic             Coordinates (Angstroms)
 Number     Number       Type             X           Y           Z
 ---------------------------------------------------------------------
      1          6           0       -5.971626    1.393015    0.397199
      2          7           0       -4.732893    0.749135    0.427133
      3          6           0       -3.513064    1.306544    0.083707
      4          8           0       -3.391614    2.478958   -0.279043
      5          7           0       -2.468439    0.461626    0.174110
      6          6           0       -1.118772    0.886864   -0.176113
      7          6           0       -0.145547   -0.269991   -0.022713
      8          6           0        1.273322    0.155137   -0.379870
      9          6           0       -7.111141    0.595569    0.229064
     10          6           0       -8.363745    1.181410    0.237450
     11          6           0       -8.535464    2.554632    0.397140
     12          6           0       -7.393581    3.317322    0.565336
     13          6           0       -6.116986    2.770059    0.579376
     14          1           0       -4.767468   -0.260188    0.505928
     15          1           0       -2.608289   -0.483707    0.505060
     16          1           0       -0.819439    1.719250    0.467472
     17          1           0       -1.110717    1.251800   -1.207001
     18          1           0       -0.463472   -1.096087   -0.666331
     19          1           0       -0.179456   -0.635483    1.008455
     20          1           0        1.329366    0.506207   -1.413473
     21          1           0        1.971823   -0.676535   -0.271213
     22          1           0        1.615156    0.966136    0.268292
     23          1           0       -6.998745   -0.473922    0.094792
     24         17           0       -7.558878    5.042047    0.787513
     25          1           0       -5.257117    3.401993    0.742496
     26          6           0       -9.594741    0.341861    0.064201
     27          1           0       -9.520247    3.006073    0.393791
     28          9           0      -10.418127    0.438510    1.124312
     29          9           0      -10.315321    0.726824   -1.004892
     30          9           0       -9.322464   -0.958028   -0.098075
 ---------------------------------------------------------------------
                    Distance matrix (angstroms):
                    1          2          3          4          5
     1  C    0.000000
     2  N    1.396402   0.000000
     3  C    2.479976   1.384424   0.000000
     4  O    2.879764   2.300000   1.233244   0.000000
     5  N    3.631746   2.296613   1.346589   2.264338   0.000000
     6  C    4.912745   3.666707   2.444641   2.776899   1.457767
     7  C    6.073312   4.720670   3.719807   4.261383   2.443324
     8  C    7.390903   6.089228   4.944707   5.212671   3.794945
     9  C    1.400958   2.391417   3.670527   4.200024   4.644959
    10  C    2.406768   3.661411   4.854730   5.164541   5.939422
    11  C    2.814715   4.209545   5.184637   5.188655   6.421776
    12  C    2.398579   3.700533   4.397000   4.175113   5.706582
    13  C    1.396627   2.454185   3.027865   2.872154   4.336473
    14  H    2.048145   1.012984   2.050964   3.164186   2.432417
    15  H    3.853019   2.457623   2.049672   3.163194   1.011306
    16  H    5.162984   4.032106   2.751948   2.783977   2.094489
    17  H    5.120726   4.005399   2.727672   2.751275   2.091710
    18  H    6.137303   4.777914   3.954138   4.637343   2.674454
    19  H    6.167469   4.794673   3.967313   4.655679   2.671933
    20  H    7.574262   6.340175   5.131395   5.240833   4.116519
    21  H    8.235788   6.890097   5.843164   6.222833   4.605394
    22  H    7.599875   6.353742   5.142819   5.258892   4.115720
    23  H    2.152180   2.596229   3.914097   4.676606   4.626577
    24  Cl   3.998393   5.152200   5.551390   5.007300   6.875252
    25  H    2.160034   2.722484   2.804751   2.318542   4.092132
    26  C    3.787185   4.892357   6.157742   6.569915   7.128156
    27  H    3.898035   5.292792   6.250664   6.187948   7.500031
    28  F    4.605556   5.736239   7.036778   7.450149   8.006307
    29  F    4.612738   5.763219   6.913163   7.178756   7.939391
    30  F    4.123204   4.924876   6.237825   6.857157   7.004795
                    6          7          8          9         10
     6  C    0.000000
     7  C    1.519544   0.000000
     8  C    2.509792   1.523641   0.000000
     9  C    6.013111   7.023681   8.418075   0.000000
    10  C    7.262742   8.349434   9.711199   1.382858   0.000000
    11  C    7.623476   8.862590  10.127863   2.427937   1.393100
    12  C    6.769793   8.108553   9.274052   2.756953   2.368723
    13  C    5.394379   6.727741   7.897760   2.416500   2.772841
    14  H    3.885086   4.652066   6.119500   2.510334   3.883747
    15  H    2.135678   2.527711   4.032137   4.638608   5.997458
    16  H    1.093924   2.156732   2.746649   6.395703   7.566951
    17  H    1.093606   2.156372   2.751446   6.204676   7.395797
    18  H    2.145187   1.094419   2.159647   6.917726   8.271525
    19  H    2.145473   1.094551   2.159419   7.083163   8.418916
    20  H    2.769357   2.170729   1.093035   8.599306   9.855853
    21  H    3.464829   2.170319   1.091508   9.185247  10.513547
    22  H    2.770946   2.170891   1.093016   8.734249   9.981270
    23  H    6.041457   6.857239   8.309519   1.083731   2.150279
    24  Cl   7.724577   9.155966  10.161320   4.503721   3.981822
    25  H    4.929058   6.340124   7.378916   3.402504   3.851909
    26  C    8.496871   9.469382  10.878734   2.501963   1.500069
    27  H    8.683353   9.939371  11.190510   3.411958   2.165950
    28  F    9.400539  10.360674  11.791219   3.429620   2.357734
    29  F    9.235204  10.265604  11.619557   3.436080   2.357691
    30  F    8.408940   9.202982  10.657824   2.722248   2.368314
                   11         12         13         14         15
    11  C    0.000000
    12  C    1.383431   0.000000
    13  C    2.434884   1.389025   0.000000
    14  H    4.704555   4.438308   3.317980   0.000000
    15  H    6.661423   6.111503   4.785756   2.170718   0.000000
    16  H    7.761434   6.766296   5.401919   4.416627   2.838030
    17  H    7.706978   6.847039   5.528017   4.311851   2.861094
    18  H    8.922768   8.307924   6.961400   4.538425   2.519407
    19  H    8.965122   8.237999   6.858286   4.630685   2.485090
    20  H   10.236661   9.375919   8.033967   6.437612   4.490638
    21  H   11.013184  10.215748   8.833535   6.796716   4.649431
    22  H   10.274970   9.315238   7.945874   6.503709   4.471643
    23  H    3.409554   3.840682   3.396430   2.278884   4.409594
    24  Cl   2.700619   1.746815   2.698945   5.998746   7.424423
    25  H    3.403653   2.145468   1.079501   3.702336   4.708644
    26  C    2.475737   3.734917   4.272743   4.884685   7.048860
    27  H    1.083332   2.156157   3.416480   5.768011   7.743779
    28  F    2.924239   4.212824   4.922692   5.727174   7.888443
    29  F    2.911093   4.208664   4.930591   5.833990   7.946299
    30  F    3.633647   4.737016   4.963131   4.647556   6.757876
                   16         17         18         19         20
    16  H    0.000000
    17  H    1.762729   0.000000
    18  H    3.055870   2.494759   0.000000
    19  H    2.499401   3.055704   1.760037   0.000000
    20  H    3.102707   2.559794   2.517902   3.073391   0.000000
    21  H    3.751877   3.754495   2.502559   2.503444   1.765330
    22  H    2.556189   3.112632   3.073593   2.516675   1.766790
    23  H    6.567551   6.272292   6.608797   6.882121   8.520149
    24  Cl   7.520868   7.740984   9.493953   9.313379  10.218565
    25  H    4.753972   5.061275   6.722838   6.492656   7.511028
    26  C    8.891893   8.626853   9.272618   9.512855  11.024819
    27  H    8.795761   8.738433   9.998838  10.044358  11.279612
    28  F    9.706006   9.629348  10.230179  10.295498  12.018674
    29  F    9.660463   9.221777  10.024797  10.423301  11.653940
    30  F    8.932474   8.575887   8.878272   9.215369  10.832161
                   21         22         23         24         25
    21  H    0.000000
    22  H    1.765402   0.000000
    23  H    8.980318   8.735168   0.000000
    24  Cl  11.165005  10.052141   5.587444   0.000000
    25  H    8.361792   7.306600   4.298314   2.826643   0.000000
    26  C   11.616154  11.229121   2.721329   5.172975   5.351586
    27  H   12.086005  11.321409   4.307870   2.854326   4.295652
    28  F   12.518054  12.075225   3.685732   5.429668   5.963560
    29  F   12.388769  12.000605   3.694695   5.425112   5.982919
    30  F   11.299121  11.111622   2.381433   6.316281   6.020248
                   26         27         28         29         30
    26  C    0.000000
    27  H    2.685555   0.000000
    28  F    1.345786   2.816422   0.000000
    29  F    1.345508   2.789881   2.151094   0.000000
    30  F    1.337977   3.999394   2.155233   2.155646   0.000000
 Stoichiometry    C11H12ClF3N2O
 Framework group  C1[X(C11H12ClF3N2O)]
 Deg. of freedom    84
 Full point group                 C1      NOp   1
 Largest Abelian subgroup         C1      NOp   1
 Largest concise Abelian subgroup C1      NOp   1
                         Standard orientation:                         
 ---------------------------------------------------------------------
 Center     Atomic      Atomic             Coordinates (Angstroms)
 Number     Number       Type             X           Y           Z
 ---------------------------------------------------------------------
      1          6           0        0.119981   -0.041416   -0.206023
      2          7           0       -1.182285   -0.521674   -0.358967
      3          6           0       -2.343634    0.128506    0.022036
      4          8           0       -2.344852    1.248851    0.537513
      5          7           0       -3.473821   -0.564978   -0.212608
      6          6           0       -4.779586   -0.030088    0.153388
      7          6           0       -5.872162   -1.030787   -0.184091
      8          6           0       -7.246918   -0.488578    0.186770
      9          6           0        1.151037   -0.985559   -0.115461
     10          6           0        2.462072   -0.559024   -0.007973
     11          6           0        2.798313    0.792465    0.025934
     12          6           0        1.760892    1.702704   -0.069492
     13          6           0        0.431512    1.319976   -0.194620
     14          1           0       -1.261109   -1.508532   -0.573528
     15          1           0       -3.429520   -1.468308   -0.665126
     16          1           0       -4.951657    0.909865   -0.379105
     17          1           0       -4.791458    0.193986    1.223727
     18          1           0       -5.680918   -1.966796    0.349825
     19          1           0       -5.834687   -1.258486   -1.254040
     20          1           0       -7.308133   -0.272721    1.256529
     21          1           0       -8.031303   -1.208342   -0.054208
     22          1           0       -7.463429    0.436059   -0.354390
     23          1           0        0.909902   -2.042001   -0.131450
     24         17           0        2.134177    3.409054   -0.049753
     25          1           0       -0.341407    2.066900   -0.294738
     26          6           0        3.578810   -1.556292    0.084543
     27          1           0        3.827532    1.117498    0.119039
     28          9           0        4.454383   -1.420632   -0.928428
     29          9           0        4.290565   -1.405380    1.216365
     30          9           0        3.151145   -2.823848    0.060301
 ---------------------------------------------------------------------
 Rotational constants (GHZ):           0.5794661           0.1452764           0.1194530
 Standard basis: 6-311+G(d) (5D, 7F)
 There are   458 symmetry adapted cartesian basis functions of A   symmetry.
 There are   440 symmetry adapted basis functions of A   symmetry.
   440 basis functions,   725 primitive gaussians,   458 cartesian basis functions
    72 alpha electrons       72 beta electrons
       nuclear repulsion energy      1412.4302976837 Hartrees.
 NAtoms=   30 NActive=   30 NUniq=   30 SFac= 1.00D+00 NAtFMM=   60 NAOKFM=F Big=F
 Integral buffers will be    131072 words long.
 Raffenetti 2 integral format.
 Two-electron integral symmetry is turned on.
 Nuclear repulsion after empirical dispersion term =     1412.4289559914 Hartrees.
 ------------------------------------------------------------------------------
 Polarizable Continuum Model (PCM)
 =================================
 Model                : PCM.
 Atomic radii         : SMD-Coulomb.
 Polarization charges : Total charges.
 Charge compensation  : None.
 Solution method      : On-the-fly selection.
 Cavity type          : VdW (van der Waals Surface) (Alpha=1.000).
 Cavity algorithm     : GePol (No added spheres)
                        Default sphere list used, NSphG=   30.
                        Lebedev-Laikov grids with approx.  5.0 points / Ang**2.
                        Smoothing algorithm: York/Karplus (Gamma=1.0000).
                        Polarization charges: spherical gaussians, with
                                              point-specific exponents (IZeta= 3).
                        Self-potential: point-specific (ISelfS= 7).
                        Self-field    : sphere-specific E.n sum rule (ISelfD= 2).
 1st derivatives      : Analytical E(r).r(x)/FMM algorithm (CHGder, D1EAlg=3).
                        Cavity 1st derivative terms included.
 Solvent              : Water, Eps=  78.355300 Eps(inf)=   1.777849
 ------------------------------------------------------------------------------
 ------------------------------------------------------------------------------
 Atomic radii for non-electrostatic terms: SMD-CDS.
 ------------------------------------------------------------------------------
 Nuclear repulsion after PCM non-electrostatic terms =     1412.4398652516 Hartrees.
 One-electron integrals computed using PRISM.
 NBasis=   440 RedAO= T EigKep=  1.07D-06  NBF=   440
 NBsUse=   439 1.00D-06 EigRej=  9.28D-07 NBFU=   439
 ExpMin= 4.38D-02 ExpMax= 1.06D+05 ExpMxC= 3.62D+03 IAcc=3 IRadAn=         5 AccDes= 0.00D+00
 Harris functional with IExCor= 1009 and IRadAn=       5 diagonalized for initial guess.
 HarFok:  IExCor= 1009 AccDes= 0.00D+00 IRadAn=         5 IDoV= 1 UseB2=F ITyADJ=14
 ICtDFT=  3500011 ScaDFX=  1.000000  1.000000  1.000000  1.000000
 FoFCou: FMM=F IPFlag=           0 FMFlag=      100000 FMFlg1=           0
         NFxFlg=           0 DoJE=T BraDBF=F KetDBF=T FulRan=T
         wScrn=  0.000000 ICntrl=       500 IOpCl=  0 I1Cent=   200000004 NGrid=           0
         NMat0=    1 NMatS0=      1 NMatT0=    0 NMatD0=    1 NMtDS0=    0 NMtDT0=    0
 Petite list used in FoFCou.
 Requested convergence on RMS density matrix=1.00D-08 within 128 cycles.
 Requested convergence on MAX density matrix=1.00D-06.
 Requested convergence on             energy=1.00D-06.
 No special actions if energy rises.
 Inv3:  Mode=1 IEnd=    17627328.
 Iteration    1 A*A^-1 deviation from unit magnitude is 4.22D-15 for   2421.
 Iteration    1 A*A^-1 deviation from orthogonality  is 1.89D-15 for   1016     11.
 Iteration    1 A^-1*A deviation from unit magnitude is 4.88D-15 for   2421.
 Iteration    1 A^-1*A deviation from orthogonality  is 1.06D-06 for   1577   1573.
 Iteration    2 A*A^-1 deviation from unit magnitude is 2.33D-15 for     21.
 Iteration    2 A*A^-1 deviation from orthogonality  is 1.96D-15 for   1016     11.
 Iteration    2 A^-1*A deviation from unit magnitude is 1.11D-15 for   2402.
 Iteration    2 A^-1*A deviation from orthogonality  is 6.66D-16 for   2424   2423.
 Error on total polarization charges =  0.04315
 SCF Done:  E(RM062X) =  -1370.81811327     A.U. after   15 cycles
            NFock= 15  Conv=0.56D-08     -V/T= 2.0029
 SMD-CDS (non-electrostatic) energy       (kcal/mol) =       6.85
 (included in total energy above)

 **********************************************************************

            Population analysis using the SCF Density.

 **********************************************************************

 Orbital symmetries:
       Occupied  (A) (A) (A) (A) (A) (A) (A) (A) (A) (A) (A) (A)
                 (A) (A) (A) (A) (A) (A) (A) (A) (A) (A) (A) (A)
                 (A) (A) (A) (A) (A) (A) (A) (A) (A) (A) (A) (A)
                 (A) (A) (A) (A) (A) (A) (A) (A) (A) (A) (A) (A)
                 (A) (A) (A) (A) (A) (A) (A) (A) (A) (A) (A) (A)
                 (A) (A) (A) (A) (A) (A) (A) (A) (A) (A) (A) (A)
       Virtual   (A) (A) (A) (A) (A) (A) (A) (A) (A) (A) (A) (A)
                 (A) (A) (A) (A) (A) (A) (A) (A) (A) (A) (A) (A)
                 (A) (A) (A) (A) (A) (A) (A) (A) (A) (A) (A) (A)
                 (A) (A) (A) (A) (A) (A) (A) (A) (A) (A) (A) (A)
                 (A) (A) (A) (A) (A) (A) (A) (A) (A) (A) (A) (A)
                 (A) (A) (A) (A) (A) (A) (A) (A) (A) (A) (A) (A)
                 (A) (A) (A) (A) (A) (A) (A) (A) (A) (A) (A) (A)
                 (A) (A) (A) (A) (A) (A) (A) (A) (A) (A) (A) (A)
                 (A) (A) (A) (A) (A) (A) (A) (A) (A) (A) (A) (A)
                 (A) (A) (A) (A) (A) (A) (A) (A) (A) (A) (A) (A)
                 (A) (A) (A) (A) (A) (A) (A) (A) (A) (A) (A) (A)
                 (A) (A) (A) (A) (A) (A) (A) (A) (A) (A) (A) (A)
                 (A) (A) (A) (A) (A) (A) (A) (A) (A) (A) (A) (A)
                 (A) (A) (A) (A) (A) (A) (A) (A) (A) (A) (A) (A)
                 (A) (A) (A) (A) (A) (A) (A) (A) (A) (A) (A) (A)
                 (A) (A) (A) (A) (A) (A) (A) (A) (A) (A) (A) (A)
                 (A) (A) (A) (A) (A) (A) (A) (A) (A) (A) (A) (A)
                 (A) (A) (A) (A) (A) (A) (A) (A) (A) (A) (A) (A)
                 (A) (A) (A) (A) (A) (A) (A) (A) (A) (A) (A) (A)
                 (A) (A) (A) (A) (A) (A) (A) (A) (A) (A) (A) (A)
                 (A) (A) (A) (A) (A) (A) (A) (A) (A) (A) (A) (A)
                 (A) (A) (A) (A) (A) (A) (A) (A) (A) (A) (A) (A)
                 (A) (A) (A) (A) (A) (A) (A) (A) (A) (A) (A) (A)
                 (A) (A) (A) (A) (A) (A) (A) (A) (A) (A) (A) (A)
                 (A) (A) (A) (A) (A) (A) (A) (A) (A) (A) (A) (A)
                 (A) (A) (A) (A) (A) (A) (A) (A) (A) (A) (A) (A)
                 (A) (A) (A) (A) (A) (A) (A) (A) (A) (A) (A) (A)
                 (A) (A) (A) (A) (A) (A) (A) (A) (A) (A) (A) (A)
                 (A) (A) (A) (A) (A) (A) (A) (A) (A) (A) (A) (A)
                 (A) (A) (A) (A) (A) (A) (A) (A) (A) (A) (A) (A)
                 (A) (A) (A) (A) (A) (A) (A)
 The electronic state is 1-A.
 Alpha  occ. eigenvalues -- -102.68561 -25.28821 -25.28400 -25.28393 -19.60100
 Alpha  occ. eigenvalues --  -14.78931 -14.77136 -10.81138 -10.68620 -10.62269
 Alpha  occ. eigenvalues --  -10.61570 -10.58630 -10.56771 -10.56701 -10.56671
 Alpha  occ. eigenvalues --  -10.56429 -10.53061 -10.51753  -9.82832  -7.55339
 Alpha  occ. eigenvalues --   -7.54676  -7.54660  -1.47940  -1.38657  -1.38176
 Alpha  occ. eigenvalues --   -1.18885  -1.06944  -1.03752  -1.00873  -0.95911
 Alpha  occ. eigenvalues --   -0.89785  -0.87757  -0.84950  -0.82085  -0.78354
 Alpha  occ. eigenvalues --   -0.74537  -0.72432  -0.70266  -0.69893  -0.68924
 Alpha  occ. eigenvalues --   -0.68674  -0.65091  -0.63599  -0.59968  -0.58924
 Alpha  occ. eigenvalues --   -0.58479  -0.58282  -0.56400  -0.55707  -0.54225
 Alpha  occ. eigenvalues --   -0.54135  -0.53569  -0.52445  -0.52214  -0.51562
 Alpha  occ. eigenvalues --   -0.51252  -0.49481  -0.48764  -0.46800  -0.46001
 Alpha  occ. eigenvalues --   -0.45857  -0.44188  -0.42532  -0.42121  -0.40003
 Alpha  occ. eigenvalues --   -0.39365  -0.39007  -0.38346  -0.36672  -0.33274
 Alpha  occ. eigenvalues --   -0.32106  -0.28618
 Alpha virt. eigenvalues --   -0.01180  -0.00001   0.00946   0.02229   0.02675
 Alpha virt. eigenvalues --    0.03215   0.03581   0.03699   0.04421   0.04915
 Alpha virt. eigenvalues --    0.05253   0.05576   0.05743   0.06406   0.06951
 Alpha virt. eigenvalues --    0.07216   0.07728   0.08017   0.08465   0.08790
 Alpha virt. eigenvalues --    0.09332   0.09464   0.10057   0.10508   0.11368
 Alpha virt. eigenvalues --    0.11708   0.11771   0.12391   0.13046   0.13203
 Alpha virt. eigenvalues --    0.13585   0.14248   0.14598   0.15401   0.16010
 Alpha virt. eigenvalues --    0.16806   0.17335   0.17415   0.18011   0.18114
 Alpha virt. eigenvalues --    0.18909   0.19077   0.19743   0.19968   0.20254
 Alpha virt. eigenvalues --    0.20725   0.21175   0.21386   0.21817   0.22578
 Alpha virt. eigenvalues --    0.22909   0.22991   0.23551   0.23964   0.24154
 Alpha virt. eigenvalues --    0.24639   0.24889   0.25319   0.26086   0.26312
 Alpha virt. eigenvalues --    0.26518   0.26718   0.27419   0.27669   0.27985
 Alpha virt. eigenvalues --    0.28027   0.28448   0.29004   0.29123   0.29722
 Alpha virt. eigenvalues --    0.30084   0.30213   0.31075   0.31467   0.31745
 Alpha virt. eigenvalues --    0.32361   0.32638   0.32826   0.32921   0.33644
 Alpha virt. eigenvalues --    0.34551   0.35022   0.35908   0.36416   0.37072
 Alpha virt. eigenvalues --    0.37325   0.37531   0.38623   0.38836   0.39385
 Alpha virt. eigenvalues --    0.39808   0.40966   0.41812   0.42233   0.43824
 Alpha virt. eigenvalues --    0.44605   0.44994   0.45382   0.46375   0.47233
 Alpha virt. eigenvalues --    0.47754   0.48335   0.48649   0.48967   0.49680
 Alpha virt. eigenvalues --    0.50894   0.51412   0.51977   0.52855   0.54176
 Alpha virt. eigenvalues --    0.56591   0.58166   0.58758   0.59483   0.60059
 Alpha virt. eigenvalues --    0.60817   0.62249   0.63773   0.64496   0.64626
 Alpha virt. eigenvalues --    0.65472   0.66014   0.67101   0.68350   0.68667
 Alpha virt. eigenvalues --    0.69162   0.69905   0.70194   0.70490   0.70900
 Alpha virt. eigenvalues --    0.71762   0.72758   0.73275   0.73567   0.73940
 Alpha virt. eigenvalues --    0.74279   0.75486   0.76350   0.77450   0.77938
 Alpha virt. eigenvalues --    0.78127   0.79164   0.79453   0.80733   0.81587
 Alpha virt. eigenvalues --    0.81835   0.84746   0.85610   0.87447   0.89276
 Alpha virt. eigenvalues --    0.90347   0.91175   0.91801   0.92400   0.93600
 Alpha virt. eigenvalues --    0.94379   0.95336   0.95734   0.97180   0.97742
 Alpha virt. eigenvalues --    0.98083   0.99365   1.00080   1.02058   1.03564
 Alpha virt. eigenvalues --    1.04007   1.04838   1.06898   1.08354   1.10149
 Alpha virt. eigenvalues --    1.11184   1.11400   1.11726   1.14972   1.18796
 Alpha virt. eigenvalues --    1.21652   1.22098   1.22435   1.23788   1.25648
 Alpha virt. eigenvalues --    1.26812   1.27046   1.29253   1.31122   1.33483
 Alpha virt. eigenvalues --    1.34632   1.35676   1.37633   1.39145   1.40897
 Alpha virt. eigenvalues --    1.42890   1.45269   1.46072   1.46971   1.47941
 Alpha virt. eigenvalues --    1.49344   1.50217   1.51809   1.52789   1.53173
 Alpha virt. eigenvalues --    1.53485   1.55676   1.56316   1.57548   1.58258
 Alpha virt. eigenvalues --    1.59610   1.60753   1.61481   1.62104   1.63833
 Alpha virt. eigenvalues --    1.64225   1.65743   1.68719   1.73110   1.74254
 Alpha virt. eigenvalues --    1.75616   1.77651   1.78205   1.78774   1.79477
 Alpha virt. eigenvalues --    1.80487   1.82259   1.85063   1.85794   1.86755
 Alpha virt. eigenvalues --    1.87658   1.90363   1.91790   1.93604   1.96198
 Alpha virt. eigenvalues --    1.96802   1.97236   1.97943   1.99938   2.05097
 Alpha virt. eigenvalues --    2.07347   2.08329   2.10337   2.12083   2.13675
 Alpha virt. eigenvalues --    2.15119   2.19159   2.19370   2.23837   2.25778
 Alpha virt. eigenvalues --    2.28454   2.30181   2.32788   2.33866   2.35386
 Alpha virt. eigenvalues --    2.36040   2.37958   2.41046   2.47182   2.49687
 Alpha virt. eigenvalues --    2.52394   2.55749   2.56098   2.57373   2.57662
 Alpha virt. eigenvalues --    2.59655   2.60666   2.63763   2.65317   2.66320
 Alpha virt. eigenvalues --    2.69450   2.72151   2.74687   2.78064   2.79638
 Alpha virt. eigenvalues --    2.82197   2.83124   2.87272   2.88799   2.91691
 Alpha virt. eigenvalues --    2.94548   2.94940   2.98250   3.00158   3.00879
 Alpha virt. eigenvalues --    3.02832   3.03777   3.07138   3.10163   3.12272
 Alpha virt. eigenvalues --    3.13715   3.18379   3.22799   3.24878   3.25617
 Alpha virt. eigenvalues --    3.26821   3.29851   3.30413   3.35214   3.37272
 Alpha virt. eigenvalues --    3.39274   3.40921   3.41349   3.45791   3.50524
 Alpha virt. eigenvalues --    3.56730   3.65505   3.66435   3.69366   3.75457
 Alpha virt. eigenvalues --    3.79673   3.80216   3.82264   3.83406   3.83700
 Alpha virt. eigenvalues --    3.85953   3.86300   3.87688   3.96239   3.98776
 Alpha virt. eigenvalues --    3.99794   3.99913   4.01697   4.03653   4.06640
 Alpha virt. eigenvalues --    4.07369   4.11083   4.22118   4.26719   4.30551
 Alpha virt. eigenvalues --    4.54577   4.58387   4.76022   4.79540   4.90063
 Alpha virt. eigenvalues --    4.97238   5.01171   5.19253   5.20615   5.39866
 Alpha virt. eigenvalues --    5.87686   6.44454   6.48083   6.50005   6.51564
 Alpha virt. eigenvalues --    6.53254   6.57318   6.62770   6.85913   6.91000
 Alpha virt. eigenvalues --    9.96837  23.44394  23.59448  23.64661  23.74542
 Alpha virt. eigenvalues --   23.82264  23.91662  23.93155  23.97106  24.09566
 Alpha virt. eigenvalues --   24.11505  24.20137  25.93436  26.22954  26.71417
 Alpha virt. eigenvalues --   35.60273  35.70169  50.12760  66.87757  66.90852
 Alpha virt. eigenvalues --   66.96392 216.07017
          Condensed to atoms (all electrons):
               1          2          3          4          5          6
     1  C   20.688622  -0.053535  -0.816371  -0.041687  -0.290928  -0.602022
     2  N   -0.053535   7.640511   0.378825  -0.136566  -0.451457  -0.351989
     3  C   -0.816371   0.378825   7.830844   0.629075   0.274337  -0.940710
     4  O   -0.041687  -0.136566   0.629075   8.323879  -0.185155  -0.107042
     5  N   -0.290928  -0.451457   0.274337  -0.185155   7.557899   0.450822
     6  C   -0.602022  -0.351989  -0.940710  -0.107042   0.450822   8.192781
     7  C   -0.007525   0.023369   0.184274   0.015936  -0.113292  -0.880695
     8  C   -0.019904  -0.012023  -0.238721  -0.003065   0.002727   0.388318
     9  C   -9.811669   0.158476  -1.511830  -0.100118  -0.190842  -0.080695
    10  C    1.342634   0.019594  -0.259753   0.012325   0.048155  -0.007502
    11  C   -2.627391   0.075768   0.450271  -0.026017  -0.013837   0.004449
    12  C   -1.114170  -0.001486  -0.563816   0.001208   0.033472  -0.035802
    13  C    2.136926  -0.245646   0.647539   0.155664   0.067573  -0.051957
    14  H    0.028404   0.252348  -0.042728  -0.000484   0.051720   0.010244
    15  H   -0.013014   0.055257   0.015024  -0.002039   0.268567  -0.046530
    16  H    0.007451  -0.000349   0.018597  -0.000389  -0.059556   0.408340
    17  H    0.003484   0.013218   0.082768   0.002397  -0.055825   0.303188
    18  H    0.000169  -0.001646  -0.000465  -0.000164   0.006966  -0.069724
    19  H   -0.000240  -0.000414   0.005063  -0.000080   0.007314  -0.070927
    20  H   -0.000140  -0.000064  -0.003551  -0.000037  -0.000289  -0.043925
    21  H    0.000114   0.000005   0.005637   0.000019  -0.001429   0.084380
    22  H    0.000015  -0.000022   0.000744  -0.000048   0.000307  -0.051372
    23  H    0.125632  -0.015437   0.004681  -0.000115  -0.000340  -0.000158
    24  Cl   0.036821  -0.000803   0.016328   0.000190   0.003086   0.003512
    25  H   -0.083859  -0.009388   0.042187  -0.010143  -0.001620   0.002825
    26  C   -2.309156  -0.003937  -0.257145  -0.003074  -0.003083  -0.009701
    27  H    0.011349   0.000391   0.000377   0.000012   0.000004   0.000008
    28  F    0.014911   0.000822  -0.000102  -0.000001   0.000010   0.000003
    29  F    0.048530   0.000366   0.000441  -0.000001  -0.000001  -0.000001
    30  F    0.187435  -0.000013   0.001555  -0.000001   0.000001   0.000008
               7          8          9         10         11         12
     1  C   -0.007525  -0.019904  -9.811669   1.342634  -2.627391  -1.114170
     2  N    0.023369  -0.012023   0.158476   0.019594   0.075768  -0.001486
     3  C    0.184274  -0.238721  -1.511830  -0.259753   0.450271  -0.563816
     4  O    0.015936  -0.003065  -0.100118   0.012325  -0.026017   0.001208
     5  N   -0.113292   0.002727  -0.190842   0.048155  -0.013837   0.033472
     6  C   -0.880695   0.388318  -0.080695  -0.007502   0.004449  -0.035802
     7  C    6.391180  -0.216853   0.015246  -0.004782   0.000108  -0.002470
     8  C   -0.216853   6.128827   0.001029  -0.000417  -0.000032  -0.000462
     9  C    0.015246   0.001029  47.557305  -7.988026 -17.895603   5.457595
    10  C   -0.004782  -0.000417  -7.988026  24.141165  -9.511049   4.828825
    11  C    0.000108  -0.000032 -17.895603  -9.511049  50.462051 -20.853021
    12  C   -0.002470  -0.000462   5.457595   4.828825 -20.853021  22.882040
    13  C   -0.005315  -0.005086 -11.678010   0.278401   2.446683  -0.713485
    14  H   -0.002129  -0.000036  -0.149736   0.046202   0.000113   0.015209
    15  H   -0.014420   0.003781  -0.000351  -0.002213   0.000812  -0.001368
    16  H   -0.034179  -0.012207   0.001280  -0.000019   0.000060  -0.000648
    17  H   -0.002710  -0.026791  -0.000542   0.000108   0.000097   0.001048
    18  H    0.459691  -0.049018   0.000778   0.000019  -0.000002  -0.000050
    19  H    0.454598  -0.048864  -0.000656   0.000005   0.000006   0.000070
    20  H    0.008676   0.384180  -0.000020  -0.000000   0.000000  -0.000001
    21  H   -0.122688   0.383633  -0.000004   0.000001  -0.000000  -0.000000
    22  H    0.022067   0.373634   0.000023  -0.000001  -0.000000  -0.000000
    23  H   -0.000014   0.000000   0.011949   0.132255   0.042034  -0.032701
    24  Cl  -0.000163   0.000024   0.371157   0.020190  -0.760862  -0.544599
    25  H   -0.000144   0.000007   0.001952   0.012476   0.065079  -0.046984
    26  C    0.000117  -0.000061   2.222640  -6.426204   4.362905  -4.058557
    27  H    0.000000   0.000000   0.049339   0.133689  -0.015253   0.127673
    28  F   -0.000000   0.000000   0.028876   0.268384  -0.368786   0.058771
    29  F   -0.000000   0.000000  -0.008310   0.222997  -0.340693   0.047198
    30  F    0.000001  -0.000000  -0.211608   0.025526   0.011370   0.057152
              13         14         15         16         17         18
     1  C    2.136926   0.028404  -0.013014   0.007451   0.003484   0.000169
     2  N   -0.245646   0.252348   0.055257  -0.000349   0.013218  -0.001646
     3  C    0.647539  -0.042728   0.015024   0.018597   0.082768  -0.000465
     4  O    0.155664  -0.000484  -0.002039  -0.000389   0.002397  -0.000164
     5  N    0.067573   0.051720   0.268567  -0.059556  -0.055825   0.006966
     6  C   -0.051957   0.010244  -0.046530   0.408340   0.303188  -0.069724
     7  C   -0.005315  -0.002129  -0.014420  -0.034179  -0.002710   0.459691
     8  C   -0.005086  -0.000036   0.003781  -0.012207  -0.026791  -0.049018
     9  C  -11.678010  -0.149736  -0.000351   0.001280  -0.000542   0.000778
    10  C    0.278401   0.046202  -0.002213  -0.000019   0.000108   0.000019
    11  C    2.446683   0.000113   0.000812   0.000060   0.000097  -0.000002
    12  C   -0.713485   0.015209  -0.001368  -0.000648   0.001048  -0.000050
    13  C   13.348631   0.075639   0.003817  -0.007711   0.008304  -0.000901
    14  H    0.075639   0.275330   0.001547   0.000113  -0.000044   0.000016
    15  H    0.003817   0.001547   0.277051   0.001738   0.002060  -0.001316
    16  H   -0.007711   0.000113   0.001738   0.443087  -0.043916   0.005709
    17  H    0.008304  -0.000044   0.002060  -0.043916   0.436440  -0.008314
    18  H   -0.000901   0.000016  -0.001316   0.005709  -0.008314   0.436214
    19  H    0.001144   0.000026  -0.000676  -0.008000   0.005211  -0.041278
    20  H    0.000021   0.000000  -0.000028  -0.000533   0.003450  -0.008213
    21  H    0.000006   0.000000  -0.000035  -0.000028  -0.000065  -0.003141
    22  H   -0.000022  -0.000000  -0.000018   0.003413  -0.000426   0.005876
    23  H    0.042509   0.003956   0.000013  -0.000000   0.000000  -0.000000
    24  Cl   0.081297   0.000407  -0.000015  -0.000001   0.000008   0.000000
    25  H    0.348365   0.000037   0.000011   0.000022  -0.000008  -0.000000
    26  C   -0.663199   0.001454  -0.000159  -0.000003   0.000024  -0.000001
    27  H   -0.029017  -0.000004   0.000000  -0.000000  -0.000000   0.000000
    28  F    0.006098  -0.000008   0.000000   0.000000  -0.000000   0.000000
    29  F    0.009379   0.000001  -0.000000  -0.000000   0.000000   0.000000
    30  F    0.012970   0.000061   0.000000  -0.000000  -0.000000   0.000000
              19         20         21         22         23         24
     1  C   -0.000240  -0.000140   0.000114   0.000015   0.125632   0.036821
     2  N   -0.000414  -0.000064   0.000005  -0.000022  -0.015437  -0.000803
     3  C    0.005063  -0.003551   0.005637   0.000744   0.004681   0.016328
     4  O   -0.000080  -0.000037   0.000019  -0.000048  -0.000115   0.000190
     5  N    0.007314  -0.000289  -0.001429   0.000307  -0.000340   0.003086
     6  C   -0.070927  -0.043925   0.084380  -0.051372  -0.000158   0.003512
     7  C    0.454598   0.008676  -0.122688   0.022067  -0.000014  -0.000163
     8  C   -0.048864   0.384180   0.383633   0.373634   0.000000   0.000024
     9  C   -0.000656  -0.000020  -0.000004   0.000023   0.011949   0.371157
    10  C    0.000005  -0.000000   0.000001  -0.000001   0.132255   0.020190
    11  C    0.000006   0.000000  -0.000000  -0.000000   0.042034  -0.760862
    12  C    0.000070  -0.000001  -0.000000  -0.000000  -0.032701  -0.544599
    13  C    0.001144   0.000021   0.000006  -0.000022   0.042509   0.081297
    14  H    0.000026   0.000000   0.000000  -0.000000   0.003956   0.000407
    15  H   -0.000676  -0.000028  -0.000035  -0.000018   0.000013  -0.000015
    16  H   -0.008000  -0.000533  -0.000028   0.003413  -0.000000  -0.000001
    17  H    0.005211   0.003450  -0.000065  -0.000426   0.000000   0.000008
    18  H   -0.041278  -0.008213  -0.003141   0.005876  -0.000000   0.000000
    19  H    0.435879   0.005905  -0.003155  -0.008329  -0.000000   0.000000
    20  H    0.005905   0.445418  -0.024270  -0.036470  -0.000000   0.000000
    21  H   -0.003155  -0.024270   0.425224  -0.024402   0.000000  -0.000000
    22  H   -0.008329  -0.036470  -0.024402   0.445440   0.000000  -0.000000
    23  H   -0.000000  -0.000000   0.000000   0.000000   0.355258   0.000041
    24  Cl   0.000000   0.000000  -0.000000  -0.000000   0.000041  17.505809
    25  H   -0.000000  -0.000000   0.000000  -0.000000  -0.000002  -0.012546
    26  C    0.000000  -0.000000   0.000000   0.000000   0.009751  -0.108083
    27  H   -0.000000  -0.000000   0.000000   0.000000  -0.000144  -0.012670
    28  F    0.000000  -0.000000  -0.000000   0.000000   0.000121  -0.000598
    29  F    0.000000  -0.000000   0.000000   0.000000   0.000281  -0.000633
    30  F   -0.000000  -0.000000  -0.000000   0.000000   0.011004   0.000079
              25         26         27         28         29         30
     1  C   -0.083859  -2.309156   0.011349   0.014911   0.048530   0.187435
     2  N   -0.009388  -0.003937   0.000391   0.000822   0.000366  -0.000013
     3  C    0.042187  -0.257145   0.000377  -0.000102   0.000441   0.001555
     4  O   -0.010143  -0.003074   0.000012  -0.000001  -0.000001  -0.000001
     5  N   -0.001620  -0.003083   0.000004   0.000010  -0.000001   0.000001
     6  C    0.002825  -0.009701   0.000008   0.000003  -0.000001   0.000008
     7  C   -0.000144   0.000117   0.000000  -0.000000  -0.000000   0.000001
     8  C    0.000007  -0.000061   0.000000   0.000000   0.000000  -0.000000
     9  C    0.001952   2.222640   0.049339   0.028876  -0.008310  -0.211608
    10  C    0.012476  -6.426204   0.133689   0.268384   0.222997   0.025526
    11  C    0.065079   4.362905  -0.015253  -0.368786  -0.340693   0.011370
    12  C   -0.046984  -4.058557   0.127673   0.058771   0.047198   0.057152
    13  C    0.348365  -0.663199  -0.029017   0.006098   0.009379   0.012970
    14  H    0.000037   0.001454  -0.000004  -0.000008   0.000001   0.000061
    15  H    0.000011  -0.000159   0.000000   0.000000  -0.000000   0.000000
    16  H    0.000022  -0.000003  -0.000000   0.000000  -0.000000  -0.000000
    17  H   -0.000008   0.000024  -0.000000  -0.000000   0.000000  -0.000000
    18  H   -0.000000  -0.000001   0.000000   0.000000   0.000000   0.000000
    19  H   -0.000000   0.000000  -0.000000   0.000000   0.000000  -0.000000
    20  H   -0.000000  -0.000000  -0.000000  -0.000000  -0.000000  -0.000000
    21  H    0.000000   0.000000   0.000000  -0.000000   0.000000  -0.000000
    22  H   -0.000000   0.000000   0.000000   0.000000   0.000000   0.000000
    23  H   -0.000002   0.009751  -0.000144   0.000121   0.000281   0.011004
    24  Cl  -0.012546  -0.108083  -0.012670  -0.000598  -0.000633   0.000079
    25  H    0.353130   0.006242  -0.000250   0.000002  -0.000000  -0.000003
    26  C    0.006242  11.994799   0.044575   0.165276   0.193087   0.073348
    27  H   -0.000250   0.044575   0.349906  -0.000745  -0.000587   0.000372
    28  F    0.000002   0.165276  -0.000745   8.984555  -0.052942  -0.031434
    29  F   -0.000000   0.193087  -0.000587  -0.052942   8.983862  -0.031383
    30  F   -0.000003   0.073348   0.000372  -0.031434  -0.031383   9.037248
 Mulliken charges:
               1
     1  C   -0.840887
     2  N   -0.334174
     3  C    0.046627
     4  O   -0.524479
     5  N   -0.405307
     6  C   -0.498126
     7  C   -0.167884
     8  C   -1.032620
     9  C   -0.249624
    10  C   -1.332984
    11  C    0.490740
    12  C    0.459360
    13  C   -0.270617
    14  H    0.432342
    15  H    0.452503
    16  H    0.277729
    17  H    0.276836
    18  H    0.268795
    19  H    0.267398
    20  H    0.269891
    21  H    0.280199
    22  H    0.269591
    23  H    0.309425
    24  Cl   0.402025
    25  H    0.332614
    26  C    0.768144
    27  H    0.340975
    28  F   -0.073212
    29  F   -0.071591
    30  F   -0.143688
 Sum of Mulliken charges =  -0.00000
 Mulliken charges with hydrogens summed into heavy atoms:
               1
     1  C   -0.840887
     2  N    0.098167
     3  C    0.046627
     4  O   -0.524479
     5  N    0.047197
     6  C    0.056439
     7  C    0.368309
     8  C   -0.212940
     9  C    0.059801
    10  C   -1.332984
    11  C    0.831715
    12  C    0.459360
    13  C    0.061996
    24  Cl   0.402025
    26  C    0.768144
    28  F   -0.073212
    29  F   -0.071591
    30  F   -0.143688
 Electronic spatial extent (au):  <R**2>=           8402.5276
 Charge=             -0.0000 electrons
 Dipole moment (field-independent basis, Debye):
    X=             -5.7943    Y=             -6.1927    Z=             -2.6354  Tot=              8.8808
 Quadrupole moment (field-independent basis, Debye-Ang):
   XX=           -103.4190   YY=           -115.4493   ZZ=           -115.8214
   XY=             19.0200   XZ=              5.8664   YZ=              0.2525
 Traceless Quadrupole moment (field-independent basis, Debye-Ang):
   XX=              8.1442   YY=             -3.8860   ZZ=             -4.2582
   XY=             19.0200   XZ=              5.8664   YZ=              0.2525
 Octapole moment (field-independent basis, Debye-Ang**2):
  XXX=           -102.2078  YYY=            -51.1107  ZZZ=              2.2970  XYY=             -6.1696
  XXY=            -26.9521  XXZ=            -14.4760  XZZ=              8.9637  YZZ=            -12.6142
  YYZ=             -8.9581  XYZ=              1.7161
 Hexadecapole moment (field-independent basis, Debye-Ang**3):
 XXXX=          -8126.8340 YYYY=          -1888.4887 ZZZZ=           -237.1550 XXXY=            191.0028
 XXXZ=             69.0777 YYYX=            -60.0034 YYYZ=              2.4903 ZZZX=              3.8620
 ZZZY=              0.4133 XXYY=          -1773.3262 XXZZ=          -1492.8875 YYZZ=           -358.5230
 XXYZ=              5.8103 YYXZ=             26.6125 ZZXY=            -26.7006
 N-N= 1.412439865252D+03 E-N=-6.055334937787D+03  KE= 1.366857683396D+03
 D1PCM: PCM CHGder 1st derivatives, ID1Alg=3 FixD1E=F DoIter=F DoCFld=F I1PDM=0.
 Calling FoFJK, ICntrl=      2127 FMM=F ISym2X=0 I1Cent= 0 IOpClX= 0 NMat=1 NMatS=1 NMatT=0.
 ***** Axes restored to original set *****
 -------------------------------------------------------------------
 Center     Atomic                   Forces (Hartrees/Bohr)
 Number     Number              X              Y              Z
 -------------------------------------------------------------------
      1        6          -0.000000375    0.000000418   -0.000003850
      2        7           0.000014622    0.000006376   -0.000011517
      3        6          -0.000017967   -0.000024269    0.000012480
      4        8           0.000000200    0.000016294   -0.000002053
      5        7          -0.000001626    0.000003101   -0.000001727
      6        6           0.000000556   -0.000000037    0.000003985
      7        6           0.000004025    0.000006648   -0.000000262
      8        6          -0.000001681    0.000001878    0.000002042
      9        6           0.000000030   -0.000006101   -0.000002121
     10        6           0.000001590    0.000004620   -0.000000511
     11        6          -0.000004017   -0.000009744   -0.000001085
     12        6           0.000003751    0.000001697    0.000002756
     13        6          -0.000002638    0.000001334    0.000001363
     14        1           0.000000354    0.000000780    0.000005905
     15        1           0.000000171   -0.000000379   -0.000001481
     16        1           0.000000285    0.000002867    0.000001735
     17        1           0.000001256    0.000004082    0.000002014
     18        1           0.000001028    0.000002846    0.000000195
     19        1          -0.000000411    0.000000765    0.000000281
     20        1           0.000001606    0.000005150    0.000002374
     21        1           0.000001977    0.000005001    0.000002174
     22        1           0.000000256    0.000004263    0.000002626
     23        1           0.000002118   -0.000000600   -0.000003098
     24       17          -0.000003196   -0.000004737    0.000002048
     25        1          -0.000000748   -0.000002471    0.000002751
     26        6          -0.000005180   -0.000007683   -0.000004230
     27        1          -0.000000537   -0.000002657   -0.000000505
     28        9           0.000001194   -0.000002886   -0.000007458
     29        9           0.000002003   -0.000003201    0.000000250
     30        9           0.000001356   -0.000003356   -0.000005078
 -------------------------------------------------------------------
 Cartesian Forces:  Max     0.000024269 RMS     0.000005298

 GradGradGradGradGradGradGradGradGradGradGradGradGradGradGradGradGradGrad
 Berny optimization.
 FormGI is forming the generalized inverse of G from B-inverse, IUseBI=4.
 Internal  Forces:  Max     0.000019449 RMS     0.000002448
 Search for a local minimum.
 Step number   1 out of a maximum of  157
 All quantities printed in internal units (Hartrees-Bohrs-Radians)
 Mixed Optimization -- En-DIIS/RFO-DIIS
 Second derivative matrix not updated -- first step.
 ITU=  0
     Eigenvalues ---    0.00453   0.00507   0.00765   0.00928   0.01526
     Eigenvalues ---    0.01671   0.01739   0.01898   0.01935   0.02005
     Eigenvalues ---    0.02123   0.02148   0.02179   0.02195   0.02226
     Eigenvalues ---    0.02251   0.02265   0.02275   0.02398   0.03776
     Eigenvalues ---    0.04495   0.04957   0.05560   0.05567   0.05572
     Eigenvalues ---    0.08134   0.09161   0.10527   0.10841   0.12038
     Eigenvalues ---    0.12640   0.15772   0.15998   0.15998   0.16000
     Eigenvalues ---    0.16000   0.16000   0.16000   0.16000   0.21889
     Eigenvalues ---    0.21916   0.22000   0.22084   0.23477   0.23505
     Eigenvalues ---    0.23510   0.24973   0.24998   0.25000   0.25000
     Eigenvalues ---    0.25000   0.25000   0.25000   0.25000   0.30019
     Eigenvalues ---    0.30411   0.30798   0.32370   0.34292   0.34307
     Eigenvalues ---    0.34363   0.34399   0.34464   0.34466   0.34639
     Eigenvalues ---    0.35547   0.35595   0.36055   0.37245   0.42475
     Eigenvalues ---    0.42983   0.45476   0.45755   0.46222   0.46318
     Eigenvalues ---    0.46592   0.47882   0.48302   0.48314   0.55754
     Eigenvalues ---    0.55928   0.55988   0.57661   0.89748
 RFO step:  Lambda= 0.00000000D+00 EMin= 4.53219787D-03
 Linear search not attempted -- first point.
 Iteration  1 RMS(Cart)=  0.00005656 RMS(Int)=  0.00000000
 Iteration  2 RMS(Cart)=  0.00000000 RMS(Int)=  0.00000000
 Variable       Old X    -DE/DX   Delta X   Delta X   Delta X     New X
                                 (Linear)    (Quad)   (Total)
    R1        2.63882  -0.00000   0.00000  -0.00001  -0.00001   2.63881
    R2        2.64743   0.00000   0.00000   0.00000   0.00000   2.64743
    R3        2.63924  -0.00000   0.00000  -0.00000  -0.00000   2.63924
    R4        2.61618  -0.00002   0.00000  -0.00004  -0.00004   2.61614
    R5        1.91426  -0.00000   0.00000  -0.00000  -0.00000   1.91426
    R6        2.33049   0.00002   0.00000   0.00002   0.00002   2.33051
    R7        2.54468  -0.00000   0.00000  -0.00000  -0.00000   2.54468
    R8        2.75478   0.00000   0.00000   0.00001   0.00001   2.75479
    R9        1.91109   0.00000   0.00000   0.00000   0.00000   1.91109
   R10        2.87152  -0.00000   0.00000  -0.00000  -0.00000   2.87152
   R11        2.06722   0.00000   0.00000   0.00000   0.00000   2.06722
   R12        2.06662   0.00000   0.00000   0.00000   0.00000   2.06662
   R13        2.87926  -0.00000   0.00000  -0.00000  -0.00000   2.87926
   R14        2.06815   0.00000   0.00000   0.00000   0.00000   2.06815
   R15        2.06840   0.00000   0.00000   0.00000   0.00000   2.06840
   R16        2.06554   0.00000   0.00000   0.00000   0.00000   2.06554
   R17        2.06265   0.00000   0.00000   0.00000   0.00000   2.06265
   R18        2.06550   0.00000   0.00000   0.00000   0.00000   2.06550
   R19        2.61322   0.00000   0.00000   0.00000   0.00000   2.61323
   R20        2.04795  -0.00000   0.00000  -0.00000  -0.00000   2.04795
   R21        2.63258  -0.00000   0.00000  -0.00000  -0.00000   2.63257
   R22        2.83472   0.00000   0.00000   0.00001   0.00001   2.83473
   R23        2.61431   0.00000   0.00000   0.00001   0.00001   2.61432
   R24        2.04720  -0.00000   0.00000  -0.00000  -0.00000   2.04720
   R25        2.62488  -0.00000   0.00000  -0.00001  -0.00001   2.62487
   R26        3.30100  -0.00000   0.00000  -0.00001  -0.00001   3.30100
   R27        2.03996   0.00000   0.00000   0.00000   0.00000   2.03996
   R28        2.54317  -0.00000   0.00000  -0.00001  -0.00001   2.54316
   R29        2.54264  -0.00000   0.00000  -0.00001  -0.00001   2.54263
   R30        2.52841   0.00000   0.00000   0.00000   0.00000   2.52841
    A1        2.05065  -0.00000   0.00000  -0.00000  -0.00000   2.05065
    A2        2.14619  -0.00000   0.00000  -0.00001  -0.00001   2.14618
    A3        2.08545   0.00000   0.00000   0.00001   0.00001   2.08546
    A4        2.20266  -0.00000   0.00000  -0.00001  -0.00001   2.20266
    A5        2.01620   0.00000   0.00000   0.00001   0.00001   2.01621
    A6        2.03817   0.00000   0.00000   0.00003   0.00003   2.03820
    A7        2.14422  -0.00000   0.00000  -0.00001  -0.00001   2.14420
    A8        1.99791   0.00000   0.00000   0.00001   0.00001   1.99792
    A9        2.14106  -0.00000   0.00000  -0.00000  -0.00000   2.14105
   A10        2.11656   0.00000   0.00000   0.00000   0.00000   2.11656
   A11        2.09580  -0.00000   0.00000  -0.00000  -0.00000   2.09579
   A12        2.07069   0.00000   0.00000   0.00000   0.00000   2.07069
   A13        1.92479   0.00000   0.00000   0.00001   0.00001   1.92479
   A14        1.91130   0.00000   0.00000   0.00001   0.00001   1.91131
   A15        1.90777  -0.00000   0.00000   0.00000   0.00000   1.90777
   A16        1.92267  -0.00000   0.00000  -0.00000  -0.00000   1.92266
   A17        1.92250  -0.00000   0.00000  -0.00000  -0.00000   1.92249
   A18        1.87408  -0.00000   0.00000  -0.00001  -0.00001   1.87407
   A19        1.93943   0.00000   0.00000   0.00001   0.00001   1.93944
   A20        1.90629  -0.00000   0.00000  -0.00000  -0.00000   1.90629
   A21        1.90655  -0.00000   0.00000  -0.00001  -0.00001   1.90654
   A22        1.92120  -0.00000   0.00000   0.00000   0.00000   1.92120
   A23        1.92075   0.00000   0.00000   0.00001   0.00001   1.92076
   A24        1.86814  -0.00000   0.00000  -0.00001  -0.00001   1.86813
   A25        1.93803   0.00000   0.00000   0.00000   0.00000   1.93803
   A26        1.93907   0.00000   0.00000   0.00001   0.00001   1.93907
   A27        1.93827   0.00000   0.00000   0.00000   0.00000   1.93827
   A28        1.88184  -0.00000   0.00000  -0.00000  -0.00000   1.88184
   A29        1.88221  -0.00000   0.00000  -0.00001  -0.00001   1.88221
   A30        1.88198  -0.00000   0.00000  -0.00000  -0.00000   1.88197
   A31        2.08851  -0.00000   0.00000  -0.00001  -0.00001   2.08850
   A32        2.08547  -0.00000   0.00000  -0.00000  -0.00000   2.08546
   A33        2.10921   0.00000   0.00000   0.00001   0.00001   2.10922
   A34        2.12934  -0.00000   0.00000  -0.00000  -0.00000   2.12933
   A35        2.10079   0.00000   0.00000   0.00000   0.00000   2.10079
   A36        2.05305   0.00000   0.00000   0.00000   0.00000   2.05305
   A37        2.04388   0.00000   0.00000   0.00001   0.00001   2.04388
   A38        2.12054   0.00000   0.00000   0.00000   0.00000   2.12054
   A39        2.11876  -0.00000   0.00000  -0.00001  -0.00001   2.11875
   A40        2.14434  -0.00000   0.00000  -0.00000  -0.00000   2.14434
   A41        2.07338  -0.00000   0.00000  -0.00000  -0.00000   2.07338
   A42        2.06541   0.00000   0.00000   0.00000   0.00000   2.06541
   A43        2.07465  -0.00000   0.00000  -0.00001  -0.00001   2.07464
   A44        2.11063  -0.00000   0.00000  -0.00001  -0.00001   2.11062
   A45        2.09781   0.00000   0.00000   0.00001   0.00001   2.09783
   A46        1.95078  -0.00000   0.00000  -0.00001  -0.00001   1.95078
   A47        1.95101   0.00000   0.00000  -0.00000  -0.00000   1.95101
   A48        1.97224   0.00000   0.00000   0.00001   0.00001   1.97225
   A49        1.85219  -0.00000   0.00000  -0.00001  -0.00001   1.85217
   A50        1.86483   0.00000   0.00000   0.00001   0.00001   1.86484
   A51        1.86563  -0.00000   0.00000   0.00000   0.00000   1.86563
    D1        2.68801  -0.00000   0.00000  -0.00002  -0.00002   2.68799
    D2       -0.20054  -0.00000   0.00000  -0.00016  -0.00016  -0.20070
    D3       -0.49933  -0.00000   0.00000  -0.00006  -0.00006  -0.49939
    D4        2.89530  -0.00000   0.00000  -0.00020  -0.00020   2.89511
    D5        3.10422  -0.00000   0.00000  -0.00002  -0.00002   3.10421
    D6       -0.03650  -0.00000   0.00000  -0.00004  -0.00004  -0.03654
    D7        0.00672   0.00000   0.00000   0.00002   0.00002   0.00674
    D8       -3.13400  -0.00000   0.00000  -0.00000  -0.00000  -3.13400
    D9       -3.11453   0.00000   0.00000   0.00004   0.00004  -3.11450
   D10        0.01233   0.00000   0.00000   0.00001   0.00001   0.01233
   D11       -0.01956  -0.00000   0.00000  -0.00000  -0.00000  -0.01956
   D12        3.10730  -0.00000   0.00000  -0.00003  -0.00003   3.10726
   D13        0.01919   0.00000   0.00000   0.00001   0.00001   0.01920
   D14       -3.11894   0.00000   0.00000   0.00004   0.00004  -3.11891
   D15        2.90494   0.00000   0.00000   0.00014   0.00014   2.90508
   D16       -0.23320   0.00000   0.00000   0.00017   0.00017  -0.23303
   D17        3.12181   0.00000   0.00000   0.00001   0.00001   3.12182
   D18       -0.03832   0.00000   0.00000   0.00002   0.00002  -0.03830
   D19       -0.01633   0.00000   0.00000   0.00003   0.00003  -0.01630
   D20        3.10673   0.00000   0.00000   0.00004   0.00004   3.10677
   D21       -3.11201   0.00000   0.00000  -0.00001  -0.00001  -3.11201
   D22        1.05265  -0.00000   0.00000  -0.00002  -0.00002   1.05263
   D23       -0.99597   0.00000   0.00000  -0.00001  -0.00001  -0.99598
   D24        0.04786  -0.00000   0.00000  -0.00002  -0.00002   0.04784
   D25       -2.07067  -0.00000   0.00000  -0.00003  -0.00003  -2.07069
   D26        2.16390  -0.00000   0.00000  -0.00002  -0.00002   2.16388
   D27       -3.13829  -0.00000   0.00000  -0.00002  -0.00002  -3.13831
   D28        1.02207  -0.00000   0.00000  -0.00003  -0.00003   1.02204
   D29       -1.01584   0.00000   0.00000  -0.00001  -0.00001  -1.01586
   D30       -1.02653   0.00000   0.00000  -0.00001  -0.00001  -1.02654
   D31        3.13382   0.00000   0.00000  -0.00001  -0.00001   3.13381
   D32        1.09591   0.00000   0.00000   0.00000   0.00000   1.09591
   D33        1.03766  -0.00000   0.00000  -0.00003  -0.00003   1.03764
   D34       -1.08517  -0.00000   0.00000  -0.00003  -0.00003  -1.08520
   D35       -3.12308   0.00000   0.00000  -0.00002  -0.00002  -3.12310
   D36       -1.04559  -0.00000   0.00000  -0.00007  -0.00007  -1.04566
   D37       -3.13989  -0.00000   0.00000  -0.00008  -0.00008  -3.13997
   D38        1.04865  -0.00000   0.00000  -0.00008  -0.00008   1.04858
   D39        1.06851   0.00000   0.00000  -0.00007  -0.00007   1.06844
   D40       -1.02579  -0.00000   0.00000  -0.00007  -0.00007  -1.02586
   D41       -3.12043  -0.00000   0.00000  -0.00007  -0.00007  -3.12050
   D42        3.12347  -0.00000   0.00000  -0.00007  -0.00007   3.12339
   D43        1.02917  -0.00000   0.00000  -0.00008  -0.00008   1.02909
   D44       -1.06547  -0.00000   0.00000  -0.00008  -0.00008  -1.06555
   D45        0.01028  -0.00000   0.00000  -0.00002  -0.00002   0.01026
   D46       -3.13739  -0.00000   0.00000  -0.00003  -0.00003  -3.13742
   D47       -3.13219  -0.00000   0.00000  -0.00000  -0.00000  -3.13219
   D48        0.00331  -0.00000   0.00000  -0.00000  -0.00000   0.00331
   D49       -0.01355   0.00000   0.00000   0.00001   0.00001  -0.01354
   D50        3.13213   0.00000   0.00000   0.00001   0.00001   3.13213
   D51        3.13397   0.00000   0.00000   0.00001   0.00001   3.13398
   D52       -0.00354   0.00000   0.00000   0.00001   0.00001  -0.00353
   D53        2.09621   0.00000   0.00000   0.00007   0.00007   2.09628
   D54       -2.11365  -0.00000   0.00000   0.00004   0.00004  -2.11360
   D55       -0.00811   0.00000   0.00000   0.00005   0.00005  -0.00807
   D56       -1.05121   0.00000   0.00000   0.00006   0.00006  -1.05114
   D57        1.02212  -0.00000   0.00000   0.00004   0.00004   1.02216
   D58        3.12765   0.00000   0.00000   0.00005   0.00005   3.12770
   D59       -0.00004   0.00000   0.00000   0.00001   0.00001  -0.00002
   D60       -3.12970   0.00000   0.00000   0.00000   0.00000  -3.12970
   D61        3.13748   0.00000   0.00000   0.00001   0.00001   3.13749
   D62        0.00781   0.00000   0.00000   0.00000   0.00000   0.00781
   D63        0.01649  -0.00000   0.00000  -0.00002  -0.00002   0.01647
   D64       -3.11048   0.00000   0.00000   0.00002   0.00002  -3.11047
   D65       -3.13698  -0.00000   0.00000  -0.00001  -0.00001  -3.13698
   D66        0.01924   0.00000   0.00000   0.00003   0.00003   0.01926
         Item               Value     Threshold  Converged?
 Maximum Force            0.000019     0.000450     YES
 RMS     Force            0.000002     0.000300     YES
 Maximum Displacement     0.000387     0.001800     YES
 RMS     Displacement     0.000057     0.001200     YES
 Predicted change in Energy=-2.373767D-09
 Optimization completed.
    -- Stationary point found.
                           ----------------------------
                           !   Optimized Parameters   !
                           ! (Angstroms and Degrees)  !
 --------------------------                            --------------------------
 ! Name  Definition              Value          Derivative Info.                !
 --------------------------------------------------------------------------------
 ! R1    R(1,2)                  1.3964         -DE/DX =    0.0                 !
 ! R2    R(1,9)                  1.401          -DE/DX =    0.0                 !
 ! R3    R(1,13)                 1.3966         -DE/DX =    0.0                 !
 ! R4    R(2,3)                  1.3844         -DE/DX =    0.0                 !
 ! R5    R(2,14)                 1.013          -DE/DX =    0.0                 !
 ! R6    R(3,4)                  1.2332         -DE/DX =    0.0                 !
 ! R7    R(3,5)                  1.3466         -DE/DX =    0.0                 !
 ! R8    R(5,6)                  1.4578         -DE/DX =    0.0                 !
 ! R9    R(5,15)                 1.0113         -DE/DX =    0.0                 !
 ! R10   R(6,7)                  1.5195         -DE/DX =    0.0                 !
 ! R11   R(6,16)                 1.0939         -DE/DX =    0.0                 !
 ! R12   R(6,17)                 1.0936         -DE/DX =    0.0                 !
 ! R13   R(7,8)                  1.5236         -DE/DX =    0.0                 !
 ! R14   R(7,18)                 1.0944         -DE/DX =    0.0                 !
 ! R15   R(7,19)                 1.0946         -DE/DX =    0.0                 !
 ! R16   R(8,20)                 1.093          -DE/DX =    0.0                 !
 ! R17   R(8,21)                 1.0915         -DE/DX =    0.0                 !
 ! R18   R(8,22)                 1.093          -DE/DX =    0.0                 !
 ! R19   R(9,10)                 1.3829         -DE/DX =    0.0                 !
 ! R20   R(9,23)                 1.0837         -DE/DX =    0.0                 !
 ! R21   R(10,11)                1.3931         -DE/DX =    0.0                 !
 ! R22   R(10,26)                1.5001         -DE/DX =    0.0                 !
 ! R23   R(11,12)                1.3834         -DE/DX =    0.0                 !
 ! R24   R(11,27)                1.0833         -DE/DX =    0.0                 !
 ! R25   R(12,13)                1.389          -DE/DX =    0.0                 !
 ! R26   R(12,24)                1.7468         -DE/DX =    0.0                 !
 ! R27   R(13,25)                1.0795         -DE/DX =    0.0                 !
 ! R28   R(26,28)                1.3458         -DE/DX =    0.0                 !
 ! R29   R(26,29)                1.3455         -DE/DX =    0.0                 !
 ! R30   R(26,30)                1.338          -DE/DX =    0.0                 !
 ! A1    A(2,1,9)              117.4937         -DE/DX =    0.0                 !
 ! A2    A(2,1,13)             122.9676         -DE/DX =    0.0                 !
 ! A3    A(9,1,13)             119.4874         -DE/DX =    0.0                 !
 ! A4    A(1,2,3)              126.2034         -DE/DX =    0.0                 !
 ! A5    A(1,2,14)             115.5197         -DE/DX =    0.0                 !
 ! A6    A(3,2,14)             116.7786         -DE/DX =    0.0                 !
 ! A7    A(2,3,4)              122.8545         -DE/DX =    0.0                 !
 ! A8    A(2,3,5)              114.4716         -DE/DX =    0.0                 !
 ! A9    A(4,3,5)              122.6736         -DE/DX =    0.0                 !
 ! A10   A(3,5,6)              121.27           -DE/DX =    0.0                 !
 ! A11   A(3,5,15)             120.0802         -DE/DX =    0.0                 !
 ! A12   A(6,5,15)             118.6415         -DE/DX =    0.0                 !
 ! A13   A(5,6,7)              110.2823         -DE/DX =    0.0                 !
 ! A14   A(5,6,16)             109.5095         -DE/DX =    0.0                 !
 ! A15   A(5,6,17)             109.307          -DE/DX =    0.0                 !
 ! A16   A(7,6,16)             110.1606         -DE/DX =    0.0                 !
 ! A17   A(7,6,17)             110.151          -DE/DX =    0.0                 !
 ! A18   A(16,6,17)            107.3768         -DE/DX =    0.0                 !
[...]
 00208,-0.00000361,0.00000176,0.00000236,0.00000101,0.00005236,-0.00008
 998,0.00007281,-0.01947153,0.23582102,-0.00038542,0.00023297,0.0052665
 2,0.00038774,-0.00036708,-0.00008041,-0.00035223,-0.00013067,0.0001233
 8,0.00015815,0.00003985,-0.00007382,0.00015038,-0.00006981,-0.00001559
 ,-0.00003348,-0.00002168,0.00000622,0.00000413,0.00000979,-0.00000367,
 0.00000108,-0.00000402,0.00000304,0.00009607,-0.00022652,-0.00102751,-
 0.00134949,-0.00062519,0.00483771,0.00093369,-0.00705181,0.00322379,-0
 .00009568,-0.01752705,-0.02498454,0.00072207,-0.00371842,0.00337603,0.
 00006871,0.00002852,-0.00015783,0.00000206,0.00001669,-0.00000703,0.00
 000961,0.00000344,-0.00000063,0.00000915,0.00000144,-0.00000388,0.0000
 0030,-0.00000142,-0.00000009,-0.00000025,-0.00000067,0.00000057,0.0000
 0060,0.00000018,-0.00000034,0.00000279,0.00000036,-0.00000055,0.000000
 02,0.00000066,0.00000004,0.00003782,0.00003967,-0.00046780,-0.00088063
 ,0.02872425,0.01512396,0.00922135,0.00354372,0.00125802,-0.00073630,-0
 .00090243,0.00030240,-0.00013319,0.00177646,-0.00006214,-0.00506340,0.
 00034055,0.00225023,-0.00006946,-0.00012762,-0.00009673,-0.00004455,-0
 .00002535,-0.00003722,0.00000214,0.00000711,-0.00000542,0.00000262,-0.
 00000194,0.00000238,0.00041943,0.00186232,0.00009206,0.00033328,0.0009
 2047,0.00017836,-0.00285591,0.00287937,-0.00016199,-0.01742441,-0.0150
 8141,-0.00369867,-0.24639439,-0.14271818,-0.04040081,-0.00000888,-0.00
 011812,-0.00012353,0.00002046,0.00004220,0.00001956,-0.00001227,0.0000
 0905,0.00001052,0.00000460,0.00000292,-0.00000639,-0.00000052,0.000000
 77,-0.00000087,-0.00000094,0.00000127,0.00000090,-0.00000006,0.0000001
 8,0.00000016,0.00000069,0.00000003,0.00000010,-0.00000010,0.00000014,-
 0.00000015,0.00037876,0.00036117,0.00000252,0.00097654,-0.00109437,0.0
 0001272,0.26197083,-0.02480881,-0.01123912,-0.00422560,-0.00006706,0.0
 0205262,0.00048708,0.00073032,-0.00321550,0.00051531,-0.00133607,0.001
 99029,0.00065814,-0.00037983,0.00068555,-0.00030045,0.00013783,0.00007
 650,-0.00008403,-0.00000594,-0.00002607,0.00000253,-0.00000261,0.00001
 447,-0.00000197,0.00165245,-0.00484004,-0.00146580,0.00093859,-0.00083
 437,0.00005157,0.00336004,-0.00057143,-0.00072026,0.01242230,0.0100684
 1,0.00204859,-0.14216161,-0.16235879,-0.03018556,-0.00002089,0.0000141
 4,0.00017060,-0.00007188,-0.00000259,-0.00003697,-0.00003412,-0.000007
 15,0.00001295,-0.00000349,-0.00002096,0.00001750,-0.00000139,0.0000054
 6,0.00000044,-0.00000502,0.00000483,-0.00000034,-0.00000145,-0.0000011
 1,0.00000157,-0.00000888,-0.00000086,0.00000194,-0.00000103,-0.0000010
 4,-0.00000036,-0.00116520,-0.00050981,-0.00003265,0.00119070,0.0007780
 0,0.00054449,0.14916493,0.16728427,-0.00241494,-0.00164181,0.00462367,
 0.00117463,0.00028209,-0.00390550,-0.00011472,-0.00232101,0.00009293,0
 .00018320,0.00093038,0.00014337,0.00018936,0.00023527,0.00014595,0.000
 02830,0.00003538,0.00009906,0.00000774,0.00000069,-0.00000403,-0.00000
 074,0.00000030,-0.00000091,-0.00011846,-0.00127868,0.00621046,0.000278
 13,0.00014945,-0.00068365,-0.00037492,-0.00051723,0.00571288,0.0000852
 5,-0.00064273,0.00256782,-0.03956900,-0.02791625,-0.04390275,-0.000121
 89,0.00000081,-0.00027995,-0.00000672,0.00002002,0.00000913,0.00002646
 ,-0.00001832,-0.00001406,-0.00002793,0.00001052,-0.00001848,-0.0000025
 2,-0.00000013,-0.00000031,-0.00000192,0.00000390,-0.00000214,0.0000005
 2,-0.00000023,-0.00000122,-0.00000052,0.00000011,-0.00000034,-0.000001
 00,-0.00000117,0.00000040,-0.00010937,0.00001132,-0.00027041,0.0003289
 0,0.00021586,-0.00260480,0.04054637,0.03242992,0.03246144,-0.00662760,
 0.00376765,-0.00028788,0.00447488,-0.00052399,-0.00026207,-0.00373047,
 -0.00154852,0.00072087,0.00139580,0.00084171,-0.00052398,0.00153103,-0
 .00053175,-0.00006632,-0.00030836,-0.00020575,0.00009728,0.00004238,0.
 00010846,-0.00003744,0.00001531,-0.00005054,0.00001553,-0.02322122,-0.
 01140601,-0.00290444,-0.17951822,-0.05893920,-0.01418764,0.00905095,-0
 .00813037,-0.00052522,0.00522057,-0.00013583,0.00009070,0.00074161,0.0
 0416000,0.00079815,0.00003374,0.00031934,0.00000661,-0.00000710,0.0001
 5007,-0.00003581,0.00010225,0.00002441,-0.00001147,0.00009133,0.000018
 97,-0.00003675,-0.00000208,-0.00001049,-0.00000090,0.00000010,-0.00000
 845,0.00000623,0.00000139,0.00000243,-0.00000294,0.00002820,0.00000227
 ,-0.00000546,0.00000193,0.00000393,0.00000064,-0.00017910,-0.00054184,
 0.00015985,0.00045697,0.00419654,0.00059418,-0.00039488,0.00005097,-0.
 00003275,0.56766799,0.00275262,0.00124772,-0.00056764,0.00426098,0.000
 66268,-0.00032810,-0.00242719,-0.00137789,0.00083108,0.00092466,0.0006
 0862,-0.00035399,0.00122685,-0.00033958,-0.00012787,-0.00021924,-0.000
 18785,0.00006573,0.00003813,0.00008909,-0.00003118,0.00001461,-0.00004
 400,0.00001106,0.00249263,0.01696812,0.00218404,-0.06234729,-0.1337446
 2,-0.01199758,-0.02475113,-0.01861812,-0.00342824,0.00027548,-0.006297
 76,-0.00149982,0.00339525,-0.00083718,0.00027030,0.00009983,0.00029954
 ,-0.00006286,-0.00000313,0.00011972,-0.00002275,0.00006858,0.00002098,
 -0.00000733,0.00006892,0.00001580,-0.00002604,-0.00000015,-0.00000978,
 -0.00000372,0.00000049,-0.00000574,0.00000668,0.00000071,0.00000220,-0
 .00000141,0.00002229,0.00000222,-0.00000403,0.00000076,0.00000190,-0.0
 0000031,0.00211932,-0.00190251,0.00028185,-0.00041546,0.00080826,0.000
 03332,-0.00019290,-0.00011917,0.00001493,0.04447073,0.55953218,-0.0004
 3654,-0.00074265,0.00698964,0.00081567,-0.00000255,0.00000054,-0.00056
 936,-0.00040905,0.00002216,0.00015694,0.00019162,-0.00006813,0.0002352
 6,-0.00008801,-0.00005770,-0.00003580,-0.00001750,0.00007418,0.0000104
 9,0.00001626,-0.00000061,0.00000162,-0.00000954,-0.00000259,-0.0010631
 5,0.00111428,0.00254391,-0.01427988,-0.01192993,-0.06748954,-0.0026865
 0,-0.00233033,-0.00128731,-0.00024643,-0.00175814,0.00610819,0.0003890
 2,0.00043652,-0.00089885,0.00000650,0.00006402,0.00002229,0.00000439,0
 .00002410,0.00001071,0.00001331,0.00000267,-0.00000144,0.00001339,0.00
 000471,-0.00000793,0.00000046,-0.00000379,-0.00000016,-0.00000113,0.00
 000048,-0.00000163,0.00000091,0.00000176,-0.00000226,0.00000373,0.0000
 0070,-0.00000061,0.00000036,-0.00000181,-0.00000006,0.00045895,0.00024
 983,-0.00403905,-0.00002052,0.00033655,0.00032710,-0.00002723,0.000059
 88,-0.00054946,0.01222209,0.01416917,0.46615301,-0.00009888,-0.0007147
 2,-0.00008038,0.00034306,0.00005292,0.00006365,-0.00010204,-0.00020433
 ,0.00002657,-0.00011976,0.00014849,0.00005530,0.00000907,0.00001575,-0
 .00001229,0.00000047,0.00000399,-0.00000251,-0.00000004,0.00000091,-0.
 00000020,0.00000027,-0.00000009,0.00000006,0.00153045,-0.00059579,-0.0
 0040664,0.00321118,-0.00001235,0.00007327,-0.30139637,0.11070513,-0.00
 231017,-0.01691377,0.01162830,0.00036724,-0.00172891,-0.00342642,-0.00
 098581,-0.00001595,0.00002126,0.00002480,-0.00000264,0.00000310,-0.000
 00148,0.00000178,-0.00000052,0.00000029,0.00000249,-0.00000092,0.00000
 019,-0.00000006,0.00000019,-0.00000002,-0.00000031,0.00000015,0.000000
 04,-0.00000003,-0.00000007,0.00000011,0.,0.00000005,-0.00000002,-0.000
 00004,-0.00000005,-0.00000003,0.00017020,-0.00015187,-0.00005247,0.000
 91761,0.00080003,0.00030999,-0.00054142,0.00058642,-0.00000216,-0.0004
 3895,-0.00042007,0.00007981,0.31480730,-0.00042190,-0.00083097,-0.0000
 0162,0.00009139,0.00029740,0.00007797,0.00002433,-0.00011720,0.0000833
 4,-0.00007405,0.00010103,0.00003787,-0.00000638,0.00003068,-0.00002551
 ,0.00000436,-0.00000263,-0.00000500,0.00000078,0.,-0.00000069,0.000000
 08,-0.00000002,0.00000020,-0.00118848,-0.00503293,-0.00141300,0.027408
 74,-0.00678144,0.00049024,0.11241208,-0.10896477,-0.00255902,-0.017603
 47,0.00978463,-0.00006807,-0.00303510,-0.00214710,-0.00130154,-0.00009
 428,0.00000851,-0.00002962,-0.00000353,-0.00000023,-0.00000094,-0.0000
 0160,0.00000030,0.00000093,0.00000055,-0.00000062,0.00000069,0.,0.0000
 0013,0.00000008,-0.00000016,-0.00000005,0.00000014,-0.00000003,-0.0000
 0005,0.00000002,-0.00000002,-0.00000002,0.00000005,0.,0.00000008,0.000
 00005,0.00133923,-0.00023582,-0.00003832,-0.00089698,0.00122932,0.0003
 4744,-0.00070673,0.00066381,-0.00004341,0.00160564,-0.00043926,0.00039
 205,-0.11784616,0.11233465,0.00020607,-0.00000534,-0.00098418,-0.00012
 699,-0.00015337,-0.00064206,0.00007322,-0.00008981,-0.00010498,-0.0002
 0727,0.00005674,0.00006152,0.00001570,0.00001589,0.00005595,0.00000280
 ,0.00000456,0.00002003,0.00000096,-0.00000121,0.00000021,-0.00000012,0
 .00000028,-0.00000104,-0.00019924,-0.00157402,0.00587529,0.00340600,-0
 .00101831,0.00281290,-0.00202806,-0.00275251,-0.03395000,-0.00312353,0
 .00147593,0.00243145,-0.00121584,-0.00088300,0.00542163,-0.00001061,0.
 00004349,0.00005754,0.00000495,0.00000628,0.00001355,0.00000283,-0.000
 00427,-0.00000259,-0.00000825,0.00000520,-0.00000582,-0.00000023,-0.00
 000028,-0.00000008,-0.00000037,0.00000090,-0.00000065,0.00000035,0.000
 00003,-0.00000022,-0.00000037,0.,0.00000005,-0.00000020,-0.00000022,0.
 ,0.00012960,-0.00015116,0.00057944,0.00007138,0.00061985,-0.00259601,-
 0.00008061,0.00003432,0.00027961,0.00031648,0.00020252,-0.00302525,0.0
 0295898,0.00406348,0.02440001,0.00035259,-0.00065136,-0.00219955,-0.00
 197226,-0.00022805,0.00003991,0.00139901,0.00076467,-0.00040755,-0.000
 52347,-0.00036060,0.00019184,-0.00065443,0.00018622,0.00006622,0.00012
 662,0.00009704,-0.00004344,-0.00002125,-0.00004614,0.00001747,-0.00000
 592,0.00002211,-0.00000559,0.00002696,-0.00546137,0.00070696,-0.031450
 21,-0.00093687,0.03645584,-0.00099334,0.00180509,-0.00017283,-0.000255
 94,0.00153915,-0.00136480,-0.00110790,-0.00051641,0.00018745,0.0000008
 1,-0.00013277,0.00005870,0.00000469,-0.00005970,0.00001433,-0.00003838
 ,-0.00001279,0.00000376,-0.00003712,-0.00000875,0.00001425,0.00000072,
 0.00000384,0.00000045,-0.00000009,0.00000375,-0.00000311,-0.00000028,-
 0.00000092,0.00000100,-0.00001208,-0.00000122,0.00000239,-0.00000108,-
 0.00000175,-0.00000036,0.00023536,0.00008775,0.00099690,-0.00003565,-0
 .00107891,-0.00010285,0.00015143,-0.00005092,0.00014453,-0.15721431,-0
 .00704626,0.08903578,0.00017501,-0.00050965,0.00068729,0.18525115,-0.0
 0041607,-0.00043875,-0.00064640,-0.00086236,-0.00004259,-0.00004259,0.
 00052876,0.00029078,-0.00020095,-0.00016235,-0.00014547,0.00006663,-0.
 00024559,0.00007798,0.00002962,0.00004521,0.00003642,-0.00000857,-0.00
 000766,-0.00001718,0.00000646,-0.00000280,0.00000868,-0.00000210,-0.00
 029607,-0.00293802,0.00074563,-0.01586961,0.00946525,0.01184080,0.0000
 3997,0.00042340,-0.00035732,0.00095587,0.00104475,0.00049885,-0.000869
 72,0.00047552,0.00002797,-0.00001593,-0.00005320,0.00002456,0.00000035
 ,-0.00002468,0.00000317,-0.00001293,-0.00000464,0.00000120,-0.00001536
 ,-0.00000302,0.00000520,0.00000031,0.00000187,0.00000061,-0.00000009,0
 .00000123,-0.00000129,-0.00000010,-0.00000041,0.00000027,-0.00000440,-
 0.00000043,0.00000074,-0.00000022,-0.00000037,0.00000003,-0.00015056,0
 .00012378,0.00018016,-0.00000003,-0.00027645,-0.00001124,0.00003339,0.
 00001906,-0.00003476,-0.00285253,-0.07055071,-0.00175157,-0.00038375,-
 0.00002541,-0.00009424,-0.01881143,0.07863987,-0.00011962,-0.00028908,
 0.00033401,0.00105067,0.00019848,0.00001358,-0.00064445,-0.00039891,0.
 00023004,0.00021655,0.00019116,-0.00008810,0.00031179,-0.00007705,-0.0
 0002868,-0.00005720,-0.00004906,0.00000970,0.00000973,0.00002182,-0.00
 000839,0.00000409,-0.00001159,0.00000296,0.00105177,0.00318177,-0.0002
 8508,0.01425790,-0.00209267,-0.00591741,0.00002464,-0.00165560,0.00105
 144,0.00038203,-0.00032398,0.00032271,0.00013773,0.00033327,-0.0000461
 2,-0.00001830,0.00006598,-0.00003943,-0.00000243,0.00002921,-0.0000108
 1,0.00001847,0.00000602,-0.00000133,0.00001724,0.00000352,-0.00000596,
 -0.00000054,-0.00000074,-0.00000001,0.00000037,-0.00000212,0.00000214,
 -0.00000005,0.00000014,0.,0.00000552,0.00000041,-0.00000122,0.00000090
 ,0.00000110,0.00000021,-0.00023467,0.00003871,-0.00013146,0.00003018,0
 .00054859,0.00004715,-0.00006123,0.00004890,-0.00004154,0.09359271,0.0
 0298288,-0.16152981,-0.00014530,0.00024443,-0.00034029,-0.14950880,0.0
 2085043,0.27799939,0.00002434,-0.00123387,0.00188006,-0.00179368,-0.00
 033634,0.00029295,0.00125595,0.00065848,-0.00039617,-0.00050999,-0.000
 30277,0.00020381,-0.00061484,0.00015942,0.00004934,0.00012028,0.000100
 84,-0.00003214,-0.00002021,-0.00004435,0.00001640,-0.00000659,0.000019
 96,-0.00000768,0.00037628,-0.00484051,-0.00222763,-0.02610417,0.009025
 60,-0.03710573,-0.00221807,0.00126680,0.00015368,-0.00040430,0.0011186
 2,0.00137933,-0.00114070,-0.00026440,-0.00043291,-0.00000708,-0.000119
 09,0.00002695,0.00000733,-0.00005819,0.00001182,-0.00003658,-0.0000109
 2,0.00000359,-0.00003535,-0.00000820,0.00001481,0.00000071,0.00000457,
 0.00000042,0.00000046,0.00000285,-0.00000213,-0.00000079,-0.00000118,0
 .00000160,-0.00001146,-0.00000115,0.00000216,-0.00000042,-0.00000155,-
 0.00000034,0.00030751,0.00033825,-0.00092392,-0.00001975,-0.00099153,-
 0.00017495,0.00014736,-0.00001775,-0.00008853,-0.14152573,0.01565193,-
 0.08617325,-0.00001424,-0.00045176,-0.00087105,0.02015999,-0.00280177,
 0.01249803,0.16142446,-0.00054158,-0.00057890,0.00031465,-0.00045901,-
 0.00006626,0.00012841,0.00026220,0.00014990,-0.00005239,-0.00010257,-0
 .00005389,0.00003221,-0.00013751,0.00003503,0.00000769,0.00002374,0.00
 002015,-0.00001022,-0.00000415,-0.00001067,0.00000315,-0.00000190,0.00
 000539,-0.00000109,0.00011108,-0.00165637,-0.00114703,-0.01013612,0.01
 092587,-0.00782564,-0.00049893,-0.00020068,-0.00011845,0.00101920,0.00
 102128,-0.00025638,-0.00079606,0.00055512,0.00002240,-0.00002244,-0.00
 003272,-0.00000774,0.00000044,-0.00001253,0.00000574,-0.00000818,-0.00
 000267,0.00000082,-0.00000728,-0.00000150,0.00000264,0.00000015,0.0000
 0116,0.00000064,-0.00000019,0.00000080,-0.00000114,0.00000006,-0.00000
 030,0.00000005,-0.00000267,-0.00000021,0.00000052,-0.00000003,-0.00000
 025,0.00000007,-0.00021210,0.00015680,-0.00008116,0.00000704,-0.000113
 49,-0.00002164,0.00000258,0.00001790,0.00005781,0.02085346,-0.07869584
 ,0.02866341,-0.00038468,-0.00019766,0.00014465,-0.00066166,0.00995006,
 0.01210165,-0.05167146,0.10630865,-0.00012327,-0.00001661,0.00074037,-
 0.00133907,-0.00033948,0.00021378,0.00082186,0.00053204,-0.00025824,-0
 .00029428,-0.00024515,0.00013760,-0.00041003,0.00009054,0.00004235,0.0
 0007076,0.00006329,-0.00003775,-0.00001475,-0.00002968,0.00000901,-0.0
 0000458,0.00001551,-0.00000277,-0.00096734,-0.00408423,-0.00188758,-0.
 01952402,0.00792467,-0.01248724,-0.00046325,0.00159318,0.00152275,-0.0
 0021271,0.00061528,0.00039800,-0.00044192,-0.00019275,-0.00023635,0.00
 001413,-0.00008780,0.00000927,0.00000585,-0.00003912,0.00000596,-0.000
 02430,-0.00000656,0.00000231,-0.00002254,-0.00000572,0.00001060,0.0000
 0079,0.00000329,0.00000030,0.00000035,0.00000170,-0.00000066,-0.000000
 81,-0.00000082,0.00000140,-0.00000735,-0.00000089,0.00000133,-0.000000
 71,-0.00000045,-0.00000017,0.00023280,0.00007454,-0.00026853,-0.000026
 56,-0.00067484,-0.00013012,0.00008110,-0.00003997,-0.00002966,-0.08978
 524,0.02298481,-0.17274904,0.00000737,-0.00028107,-0.00042452,-0.00209
 008,0.01590376,-0.09175651,0.13011224,-0.07594311,0.27927663,0.0017888
 3,-0.00082519,-0.00002567,-0.00083178,0.00007063,0.00005388,0.00070133
 ,0.00036005,-0.00014535,-0.00019958,-0.00020444,0.00009520,-0.00028234
 ,0.00008296,0.00001428,0.00005430,0.00003618,-0.00001884,-0.00000770,-
 0.00001971,0.00000718,-0.00000260,0.00000920,-0.00000255,-0.00326875,-
 0.00100333,0.00005982,0.00891636,-0.02588918,-0.00335438,-0.00459165,-
 0.00063887,-0.00047497,0.00017279,-0.00060391,-0.00002867,-0.00027663,
 -0.00055162,-0.00012209,0.00003288,-0.00005420,-0.00000490,0.00000545,
 -0.00002662,0.00000865,-0.00001908,-0.00000500,0.00000183,-0.00001637,
 -0.00000340,0.00000695,0.00000058,0.00000179,0.00000004,0.00000026,0.0
 0000159,-0.00000119,-0.00000019,-0.00000038,0.00000061,-0.00000512,-0.
 00000034,0.00000100,-0.00000053,-0.00000074,-0.00000020,-0.00197798,-0
 .00298336,-0.00067217,-0.00019707,-0.00092968,-0.00012628,0.00005118,-
 0.00009058,-0.00000527,-0.07768843,0.01993805,0.00209112,0.00020453,-0
 .00004689,-0.00000386,-0.01356064,0.04217746,0.02718228,-0.00936070,0.
 04336856,-0.01559444,0.10035867,0.00118930,-0.00032718,-0.00001982,-0.
 00174696,0.00010931,0.00007789,0.00117976,0.00055360,-0.00024129,-0.00
 040159,-0.00027403,0.00015673,-0.00050415,0.00017615,0.00003819,0.0000
 9203,0.00006439,-0.00003527,-0.00001363,-0.00003665,0.00001202,-0.0000
 0610,0.00001780,-0.00000427,0.00301175,-0.00159630,0.00016638,0.009112
 44,-0.04417672,-0.00643976,-0.00945931,-0.00048743,-0.00088166,0.00113
 522,-0.00060830,0.00005593,-0.00062862,-0.00029966,-0.00013773,-0.0000
 6492,-0.00012756,-0.00001806,-0.00000085,-0.00005335,0.00000917,-0.000
 03148,-0.00000715,0.00000398,-0.00003001,-0.00000630,0.00001111,-0.000
 00012,0.00000463,0.00000169,-0.00000015,0.00000213,-0.00000273,-0.0000
 0039,-0.00000097,0.00000049,-0.00000912,-0.00000087,0.00000167,-0.0000
 0002,-0.00000049,0.00000036,-0.00157672,0.00063162,-0.00004554,-0.0004
 5891,-0.00179655,-0.00024585,0.00002041,0.00007268,0.00001700,0.004308
 67,-0.26720903,-0.02668315,0.00017510,0.00032563,0.00005365,0.03206793
 ,-0.02603734,-0.03594766,0.03480948,-0.04752417,0.03218564,-0.07216904
 ,0.38861212,0.00028233,-0.00012592,0.00005265,-0.00029089,0.00000825,0
 .00005182,0.00019612,0.00011581,-0.00002270,-0.00006049,-0.00005467,0.
 00003004,-0.00008539,0.00002812,0.00000940,0.00001343,0.00000845,-0.00
 001572,-0.00000254,-0.00000683,0.00000111,-0.00000086,0.00000343,0.000
 00022,0.00035444,-0.00025897,-0.00032376,0.00129627,-0.00810115,0.0070
 1695,-0.00161374,-0.00036256,0.00153701,0.00024138,-0.00004864,-0.0004
 2081,-0.00011608,-0.00005453,-0.00002081,-0.00000222,-0.00002106,-0.00
 001395,0.00000176,-0.00000881,-0.00000109,-0.00000545,-0.00000111,0.00
 000093,-0.00000499,-0.00000161,0.00000278,-0.00000029,0.00000151,0.000
 00020,0.00000009,0.00000014,0.00000017,-0.00000017,-0.00000038,0.00000
 039,-0.00000150,-0.00000020,0.00000023,0.00000005,0.00000009,0.0000000
 4,-0.00038094,-0.00015691,0.00003586,-0.00006387,-0.00027935,-0.000180
 87,0.00000558,0.00000823,-0.00003753,0.00008500,-0.02557551,-0.0705403
 1,0.00003181,0.00002883,0.00006851,0.02727391,-0.04703505,-0.01978118,
 -0.01821074,0.04397949,-0.00210249,-0.00894199,0.03791088,0.08465289\\
 0.00000038,-0.00000043,0.00000385,-0.00001463,-0.00000637,0.00001152,0
 .00001797,0.00002427,-0.00001248,-0.00000020,-0.00001630,0.00000205,0.
 00000163,-0.00000310,0.00000173,-0.00000055,0.00000004,-0.00000398,-0.
 00000403,-0.00000665,0.00000026,0.00000168,-0.00000188,-0.00000204,-0.
 00000001,0.00000611,0.00000213,-0.00000160,-0.00000461,0.00000051,0.00
 000401,0.00000973,0.00000108,-0.00000373,-0.00000170,-0.00000275,0.000
 00263,-0.00000133,-0.00000136,-0.00000035,-0.00000078,-0.00000591,-0.0
 0000017,0.00000038,0.00000148,-0.00000029,-0.00000287,-0.00000173,-0.0
 0000126,-0.00000408,-0.00000201,-0.00000103,-0.00000285,-0.00000020,0.
 00000041,-0.00000077,-0.00000028,-0.00000161,-0.00000515,-0.00000237,-
 0.00000198,-0.00000500,-0.00000217,-0.00000026,-0.00000426,-0.00000263
 ,-0.00000212,0.00000060,0.00000310,0.00000319,0.00000474,-0.00000205,0
 .00000075,0.00000247,-0.00000275,0.00000518,0.00000768,0.00000423,0.00
 000054,0.00000266,0.00000051,-0.00000119,0.00000289,0.00000746,-0.0000
 0200,0.00000320,-0.00000025,-0.00000136,0.00000336,0.00000508\\\@


 CHILDREN YOU ARE VERY LITTLE,
 AND YOUR BONES ARE VERY BRITTLE;
 IF YOU WOULD GROW GREAT AND STATELY
 YOU MUST TRY TO WALK SEDATELY.
 YOU MUST STILL BE BRIGHT AND QUIET,
 AND CONTENT WITH SIMPLE DIET;
 AND REMAIN, THROUGH ALL BEWILD'RING
 INNOCENT AND HONEST CHILDREN.
     -- A CHILD'S GARDEN OF VERSE,
        ROBERT LOUIS STEVENSON
 Job cpu time:       0 days  3 hours 35 minutes 36.7 seconds.
 Elapsed time:       0 days  3 hours 35 minutes 39.4 seconds.
 File lengths (MBytes):  RWF=    690 Int=      0 D2E=      0 Chk=     25 Scr=      1
 Normal termination of Gaussian 16 at Tue Sep 15 14:27:40 2020.
