Process 0 of 1 is on r3714 - thread support 0
initial socket setup ...start
initial socket setup ...done 
now start server 0 ... 
r3714 10.9.65
Q-Chem Developer Version! Running on 10.9.65.*
                  Welcome to Q-Chem
     A Quantum Leap Into The Future Of Chemistry


 Q-Chem 5.0, Q-Chem, Inc., Pleasanton, CA (2017)

 Yihan Shao,  Zhengting Gan,  E. Epifanovsky,  A. T. B. Gilbert,  M. Wormit,  
 J. Kussmann,  A. W. Lange,  A. Behn,  Jia Deng,  Xintian Feng,  D. Ghosh,  
 M. Goldey,  P. R. Horn,  L. D. Jacobson,  I. Kaliman,  T. Kus,  A. Landau,  
 Jie Liu,  E. I. Proynov,  R. M. Richard,  R. P. Steele,  E. J. Sundstrom,  
 H. L. Woodcock III,  P. M. Zimmerman,  D. Zuev,  B. Albrecht,  E. Alguire,  
 S. A. Baeppler,  Z. Benda,  Y. A. Bernard,  E. J. Berquist,  K. B. Bravaya,  
 D. Casanova,  Chun-Min Chang,  Yunqing Chen,  A. Chien,  K. D. Closser,  
 M. P. Coons,  S. Dasgupta,  M. Diedenhofen,  Hainam Do,  R. G. Edgar,  
 Po-Tung Fang,  S. Fatehi,  Qingguo Feng,  Qinghui Ge,  A. Ghysels,  
 J. Gomes,  J. Gonthier,  A. Gunina,  M. W. D. Hanson-Heine,  
 P. H. P. Harbach,  A. W. Hauser,  J. E. Herr,  E. G. Hohenstein,  
 Z. C. Holden,  Kerwin Hui,  T.-C. Jagau,  Hyunjun Ji,  B. Kaduk,  
 K. Khistyaev,  Jaehoon Kim,  P. Klunzinger,  K. Koh,  D. Kosenkov,  
 T. Kowalczyk,  C. M. Krauter,  A. Kunitsa,  Ka Un Lao,  A. Laurent,  
 K. V. Lawler,  Joonho Lee,  D. Lefrancois,  S. Lehtola,  D. S. Levine,  
 Yi-Pei Li,  You-Sheng Lin,  Fenglai Liu,  E. Livshits,  A. Luenser,  
 P. Manohar,  E. Mansoor,  S. F. Manzer,  Shan-Ping Mao,  Yuezhi Mao,  
 N. Mardirossian,  A. V. Marenich,  L. A. Martinez-Martinez,  S. A. Maurer,  
 N. J. Mayhall,  S. C. McKenzie,  J.-M. Mewes,  A. F. Morrison,  K. Nanda,  
 T. S. Nguyen-Beck,  R. Olivares-Amaya,  J. A. Parkhill,  T. M. Perrine,  
 F. Plasser,  S. Prager,  A. Prociuk,  D. R. Rehn,  F. Rob,  M. Schneider,  
 N. Sergueev,  S. M. Sharada,  S. Sharma,  D. W. Small,  T. Stauch,  
 T. Stein,  Yu-Chuan Su,  A. J. W. Thom,  T. Tsuchimochi,  L. Vogt,  
 O. Vydrov,  M. A. Watson,  J. Wenzel,  M. de Wergifosse,  T. A. Wesolowski,  
 A. White,  J. Witte,  A. Yamada,  Jun Yang,  K. Yao,  S. Yeganeh,  
 S. R. Yost,  Zhi-Qiang You,  A. Zech,  Igor Ying Zhang,  Xing Zhang,  
 Yan Zhao,  Ying Zhu,  B. R. Brooks,  G. K. L. Chan,  C. J. Cramer,  
 M. S. Gordon,  W. J. Hehre,  A. Klamt,  M. W. Schmidt,  C. D. Sherrill,  
 D. G. Truhlar,  A. Aspuru-Guzik,  R. Baer,  A. T. Bell,  N. A. Besley,  
 Jeng-Da Chai,  A. Dreuw,  B. D. Dunietz,  T. R. Furlani,  Chao-Ping Hsu,  
 Yousung Jung,  Jing Kong,  D. S. Lambrecht,  WanZhen Liang,  C. Ochsenfeld,  
 V. A. Rassolov,  L. V. Slipchenko,  J. E. Subotnik,  T. Van Voorhis,  
 J. M. Herbert,  A. I. Krylov,  P. M. W. Gill,  M. Head-Gordon

 Contributors to earlier versions of Q-Chem not listed above: 
 R. D. Adamson,  B. Austin,  J. Baker,  G. J. O. Beran,  K. Brandhorst,  
 S. T. Brown,  E. F. C. Byrd,  A. K. Chakraborty,  C.-L. Cheng,  
 Siu Hung Chien,  D. M. Chipman,  D. L. Crittenden,  H. Dachsel,  
 R. A. DiStasio Jr.,  R. J. Doerksen,  A. D. Dutoi,  L. Fusti-Molnar,  
 W. A. Goddard III,  A. Golubeva-Zadorozhnaya,  S. R. Gwaltney,  G. Hawkins,  
 A. Heyden,  S. Hirata,  G. Kedziora,  F. J. Keil,  C. Kelley,  Jihan Kim,  
 R. A. King,  R. Z. Khaliullin,  P. P. Korambath,  W. Kurlancheek,  
 A. M. Lee,  M. S. Lee,  S. V. Levchenko,  Ching Yeh Lin,  D. Liotard,  
 R. C. Lochan,  I. Lotan,  P. E. Maslen,  N. Nair,  D. P. O'Neill,  
 D. Neuhauser,  E. Neuscamman,  C. M. Oana,  R. Olson,  B. Peters,  
 R. Peverati,  P. A. Pieniazek,  Y. M. Rhee,  J. Ritchie,  M. A. Rohrdanz,  
 E. Rosta,  N. J. Russ,  H. F. Schaefer III,  N. E. Schultz,  N. Shenvi,  
 A. C. Simmonett,  A. Sodt,  D. Stuck,  K. S. Thanthiriwatte,  V. Vanovschi,  
 Tao Wang,  A. Warshel,  C. F. Williams,  Q. Wu,  X. Xu,  W. Zhang

 Please cite Q-Chem as follows:
 Y. Shao et al., Mol. Phys. 113, 184-215 (2015)
 DOI: 10.1080/00268976.2014.952696

 Q-Chem 5.0.0 for Intel X86 EM64T Linux

 Parts of Q-Chem use Armadillo 5.200.1 (Boston Tea Smuggler).
 http://arma.sourceforge.net/

 Q-Chem begins on Mon Dec  9 10:21:49 2019  

Host: r3714
0

     Scratch files written to /jobfs/local/4046536.r-man2/NM3_c2.CCSD-T_6-31pGd.mo//
 Parallel job on  1  processors
Core orbitals will be frozen

Checking the input file for inconsistencies... 	...done.

--------------------------------------------------------------
User input:
--------------------------------------------------------------
$molecule
  0 1
    C     -5.9917559386    1.4037444778    0.2197461216
    N     -4.7578541047    0.7460649250    0.1929966920
    C     -3.5000833009    1.3193357281    0.0290719130
    O     -3.3161077663    2.5038648612   -0.1445555856
    N     -2.4820232695    0.3995303926    0.0543648044
    C     -1.1036940264    0.8720243334    0.0124436774
    C     -0.1468817783   -0.2968459547   -0.1699363588
    C      1.3039613389    0.1711661647   -0.2242261859
    C     -7.1407501578    0.6054546668    0.2278383191
    C     -8.3934617065    1.1937580325    0.2713665937
    C     -8.5481429311    2.5736763387    0.3099607182
    C     -7.3963530177    3.3457470451    0.3011562770
    C     -6.1225988470    2.7958059618    0.2569507217
    H     -4.8093737332   -0.2597002838    0.1333240809
    H     -2.6410250895   -0.4754431068    0.5328264370
    H     -0.8594783864    1.4323522679    0.9227204852
    H     -1.0199507232    1.5704103892   -0.8216766227
    H     -0.4080831431   -0.8312513484   -1.0880913194
    H     -0.2716039058   -1.0066713193    0.6565473139
    H      1.4618174936    0.8622386861   -1.0555069384
    H      1.9861282691   -0.6698117832   -0.3565457817
    H      1.5868694205    0.6881737164    0.6957852285
    H     -7.0553898977   -0.4753991720    0.1932248511
    Cl    -7.5500125150    5.0788886510    0.3425534980
    H     -5.2511287529    3.4316651731    0.2401841042
    C     -9.6111606094    0.3161733621    0.3424479825
    H     -9.5274270832    3.0330119416    0.3369036994
    F     -9.9428440247    0.0363858490    1.6140519724
    F    -10.6799633219    0.8929940540   -0.2192244320
    F     -9.4193184912   -0.8603140499   -0.2726022666

$end

$rem

    JOBTYPE               sp
    METHOD                CCSD(T)
    BASIS                 6-31+G*
    CC_BACKEND            XM

    MEM_TOTAL             60000
$end
--------------------------------------------------------------
 ----------------------------------------------------------------
             Standard Nuclear Orientation (Angstroms)
    I     Atom           X                Y                Z
 ----------------------------------------------------------------
    1      C       0.1362004071     0.0567609517     0.0300454320
    2      N      -1.1633679044     0.5714905913     0.0741732431
    3      C      -2.3557552162    -0.1387516931    -0.0319707060
    4      O      -2.4145573000    -1.3354063355    -0.2099110173
    5      N      -3.4678154231     0.6604224197     0.0561805670
    6      C      -4.7847751996     0.0360144166     0.0792240073
    7      C      -5.8748098328     1.0907989261    -0.0402081623
    8      C      -7.2648743188     0.4627540736    -0.0257558909
    9      C       1.1872923148     0.9792701368    -0.0112150436
   10      C       2.4986220265     0.5354920092    -0.0387313299
   11      C       2.8088488510    -0.8184441484    -0.0243605998
   12      C       1.7520058068    -1.7152118919     0.0166405309
   13      C       0.4240609450    -1.3119164692     0.0441043211
   14      H      -1.2281239329     1.5769994275     0.0238007810
   15      H      -3.3831956718     1.5448663201     0.5361641313
   16      H      -4.9168370951    -0.5536616897     0.9941307158
   17      H      -4.8330544542    -0.6623750166    -0.7576953508
   18      H      -5.7233967459     1.6566770256    -0.9641561387
   19      H      -5.7875469463     1.8052137738     0.7871246199
   20      H      -7.3873696639    -0.2367292219    -0.8559639941
   21      H      -8.0429972711     1.2223587092    -0.1131033218
   22      H      -7.4396814635    -0.0882919768     0.9013608796
   23      H       0.9795940228     2.0438291569    -0.0286792699
   24      Cl      2.1009693536    -3.4202510947     0.0297002702
   25      H      -0.3703010042    -2.0417344498     0.0644264722
   26      C       3.6122842998     1.5441500093    -0.0196678672
   27      H       3.8335245937    -1.1647611504    -0.0529390391
   28      F       3.9763421092     1.8519157320     1.2365223330
   29      F       4.7082791234     1.0946838816    -0.6420124636
   30      F       3.2579396357     2.6952047624    -0.6101978428
 ----------------------------------------------------------------
 Molecular Point Group                 C1    NOp =  1
 Largest Abelian Subgroup              C1    NOp =  1
 Nuclear Repulsion Energy =  1411.6979064642 hartrees
 There are       72 alpha and       72 beta electrons
 Requested basis set is 6-31+G(d)
 There are 115 shells and 370 basis functions
 Total memory of 50485MB is distributed as follows: 
   QALLOC including MEM_STATIC uses 30062MB
   MEM_STATIC is set to 62MB
   CCMAN JOB total memory use is  50423MB
 Warning: actual memory use might exceed 50485MB

 Total QAlloc Memory Limit  30062 MB
 Mega-Array Size        61 MB
 MEM_STATIC part        62 MB
 A cutoff of  1.0D-14 yielded   4911 shell pairs
 There are     54427 function pairs
 
 -------------------------------------------------------
 OpenMP Integral Computing Module                       
 Release: version 1.0, May 2013, Q-Chem Inc. Pittsburgh 
 -------------------------------------------------------
 Integral Job Info:
 Integral job number is                      11
 Integral operator is                         1
 short-range coefficients                     0
 long-range coefficients              100000000
 Omega coefficients                           0
 if combine SR and LR in K                    0
 Integral screening is                        0
 Integral computing path is                   2
 max size of driver memory is            800000
 size of driver memory is                593474
 size of scratch memory is             15166112
 max col of scratch BK array               1296
 max len of scratch array in speh3          155
 max len of scratch index in speh4           18
 max int batch size is                      520
 min int batch size is                       52
 fixed nKL is                                52
 max L of basis functions is                  2
 order of int derivative is                   0
 number of shells is                        115
 number of basis is                         370
 number of cartesian basis is               370
 number of contracted shell pairs          4911
 number of primitive shell pairs          15831
 maxK2 (contraction) of shell pair           36
 max number of K2 of shell pair               1
 max number of CS2 of shell pair            682
 max number of PS2 of shell pair           3804
 mem total for path MDJ                  137064
 -------------------------------------------------------
 Smallest overlap matrix eigenvalue = 8.06E-07
 Linear dependence detected in AO basis
 Number of orthogonalized atomic orbitals = 369
 Maximum deviation from orthogonality = 1.575E-10

 Scale SEOQF with 1.000000e-02/1.000000e-01/1.000000e-01

 Standard Electronic Orientation quadrupole field applied
 Nucleus-field energy     =     0.0000000331 hartrees
 Guess from superposition of atomic densities
 Warning:  Energy on first SCF cycle will be non-variational
 A restricted Hartree-Fock SCF calculation will be
 performed using Pulay DIIS extrapolation
 SCF converges when DIIS error is below 1.0E-08
 -------------------------------------------------------
 OpenMP Integral computing Module                
 Release: version 1.0, May 2013, Q-Chem Inc. Pittsburgh 
 -------------------------------------------------------
 ---------------------------------------
  Cycle       Energy         DIIS Error
 ---------------------------------------
    1   -1371.4091101484      3.92E-02
    2   -1364.8100183419      4.52E-03
    3   -1365.0702452177      2.75E-03
    4   -1365.1624991043      5.34E-04
    5   -1365.1679503587      1.92E-04
    6   -1365.1686327481      4.70E-05
    7   -1365.1686989063      1.99E-05
    8   -1365.1687159303      6.81E-06
    9   -1365.1687185915      3.31E-06
   10   -1365.1687191376      1.38E-06
   11   -1365.1687192705      5.75E-07
   12   -1365.1687193010      2.35E-07
   13   -1365.1687193053      8.97E-08
   14   -1365.1687193059      3.12E-08
   15   -1365.1687193059      1.20E-08
   16   -1365.1687193059      3.26E-09 Convergence criterion met
 ---------------------------------------
 SCF time:  CPU 237.47 s  wall 60.89 s
 SCF   energy in the final basis set = -1365.1687193059
 Total energy in the final basis set = -1365.1687193059


 ------------------------------------------------------------------------------

   CCMAN2: suite of methods based on coupled cluster
           and equation of motion theories.

   Components:
   * libvmm-1.3-trunk
     by Evgeny Epifanovsky, Ilya Kaliman.
   * libtensor-2.5-release
     by Evgeny Epifanovsky, Michael Wormit, Dmitry Zuev, Sam Manzer, 
        Ilya Kaliman.
   * libcc-2.5-trunk
     by Evgeny Epifanovsky, Arik Landau, Tomasz Kus, Kirill Khistyaev, 
        Dmitry Zuev, Prashant Manohar, Xintian Feng, Anna Krylov, 
        Matthew Goldey, Alec White, Thomas Jagau, Kaushik Nanda, 
        Anastasia Gunina, Alexander Kunitsa, Joonho Lee.

   CCMAN original authors:
   Anna I. Krylov, C. David Sherrill, Steven R. Gwaltney,
   Edward F. C. Byrd (2000)
   Sergey V. Levchenko, Lyudmila V. Slipchenko, Tao Wang,
   Ana-Maria C. Cristian (2003)
   Piotr A. Pieniazek, C. Melania Oana, Evgeny Epifanovsky (2007)
   Prashant Manohar (2009)

 ------------------------------------------------------------------------------


================================================================================
This program uses libxm tensor contraction code.
See https://github.com/ilyak/libxm for more info.
libxm is (c) Ilya Kaliman 2014-2016.
================================================================================

 Calculation will run on 4 cores using libxm for tensor contractions

 
 Alpha MOs, Restricted
 -- Occupied --                  
-104.84  -26.36  -26.36  -26.35  -20.55  -15.63  -15.61  -11.53
  1 A     2 A     3 A     4 A     5 A     6 A     7 A     8 A                  
-11.408 -11.325 -11.324 -11.288 -11.275 -11.272 -11.268 -11.261
  9 A    10 A    11 A    12 A    13 A    14 A    15 A    16 A                  
-11.244 -11.232 -10.569  -8.039  -8.035  -8.035  -1.741  -1.646
 17 A    18 A    19 A    20 A    21 A    22 A    23 A    24 A                  
 -1.640  -1.426  -1.289  -1.248  -1.205  -1.143  -1.082  -1.062
 25 A    26 A    27 A    28 A    29 A    30 A    31 A    32 A                  
 -1.023  -0.979  -0.950  -0.891  -0.868  -0.836  -0.831  -0.829
 33 A    34 A    35 A    36 A    37 A    38 A    39 A    40 A                  
 -0.823  -0.787  -0.764  -0.722  -0.720  -0.712  -0.704  -0.678
 41 A    42 A    43 A    44 A    45 A    46 A    47 A    48 A                  
 -0.675  -0.667  -0.659  -0.653  -0.648  -0.631  -0.626  -0.613
 49 A    50 A    51 A    52 A    53 A    54 A    55 A    56 A                  
 -0.599  -0.585  -0.570  -0.562  -0.553  -0.535  -0.525  -0.508
 57 A    58 A    59 A    60 A    61 A    62 A    63 A    64 A                  
 -0.501  -0.494  -0.463  -0.460  -0.457  -0.416  -0.362  -0.331
 65 A    66 A    67 A    68 A    69 A    70 A    71 A    72 A                  
 -- Virtual --                   
  0.045   0.073   0.077   0.082   0.084   0.087   0.093   0.096
 73 A    74 A    75 A    76 A    77 A    78 A    79 A    80 A                  
  0.102   0.107   0.107   0.114   0.120   0.123   0.127   0.131
 81 A    82 A    83 A    84 A    85 A    86 A    87 A    88 A                  
  0.135   0.143   0.147   0.151   0.158   0.160   0.162   0.178
 89 A    90 A    91 A    92 A    93 A    94 A    95 A    96 A                  
  0.183   0.187   0.191   0.194   0.201   0.205   0.207   0.213
 97 A    98 A    99 A   100 A   101 A   102 A   103 A   104 A                  
  0.214   0.233   0.237   0.243   0.250   0.252   0.257   0.263
105 A   106 A   107 A   108 A   109 A   110 A   111 A   112 A                  
  0.267   0.274   0.279   0.289   0.293   0.302   0.308   0.310
113 A   114 A   115 A   116 A   117 A   118 A   119 A   120 A                  
  0.322   0.322   0.325   0.331   0.334   0.337   0.340   0.348
121 A   122 A   123 A   124 A   125 A   126 A   127 A   128 A                  
  0.360   0.362   0.368   0.371   0.378   0.379   0.391   0.394
129 A   130 A   131 A   132 A   133 A   134 A   135 A   136 A                  
  0.399   0.406   0.410   0.413   0.418   0.421   0.425   0.429
137 A   138 A   139 A   140 A   141 A   142 A   143 A   144 A                  
  0.429   0.436   0.444   0.450   0.454   0.456   0.466   0.472
145 A   146 A   147 A   148 A   149 A   150 A   151 A   152 A                  
  0.477   0.478   0.490   0.494   0.499   0.504   0.515   0.519
153 A   154 A   155 A   156 A   157 A   158 A   159 A   160 A                  
  0.530   0.537   0.550   0.556   0.564   0.570   0.583   0.587
161 A   162 A   163 A   164 A   165 A   166 A   167 A   168 A                  
  0.602   0.617   0.625   0.641   0.655   0.669   0.719   0.749
169 A   170 A   171 A   172 A   173 A   174 A   175 A   176 A                  
  0.777   0.815   0.827   0.844   0.849   0.856   0.892   0.897
177 A   178 A   179 A   180 A   181 A   182 A   183 A   184 A                  
  0.908   0.911   0.927   0.932   0.942   0.944   0.962   0.969
185 A   186 A   187 A   188 A   189 A   190 A   191 A   192 A                  
  0.977   0.984   0.988   0.999   1.007   1.018   1.027   1.048
193 A   194 A   195 A   196 A   197 A   198 A   199 A   200 A                  
  1.055   1.069   1.081   1.093   1.101   1.118   1.135   1.150
201 A   202 A   203 A   204 A   205 A   206 A   207 A   208 A                  
  1.152   1.166   1.175   1.189   1.195   1.203   1.208   1.223
209 A   210 A   211 A   212 A   213 A   214 A   215 A   216 A                  
  1.233   1.235   1.247   1.256   1.266   1.280   1.299   1.317
217 A   218 A   219 A   220 A   221 A   222 A   223 A   224 A                  
  1.327   1.340   1.349   1.367   1.375   1.384   1.394   1.399
225 A   226 A   227 A   228 A   229 A   230 A   231 A   232 A                  
  1.414   1.430   1.454   1.463   1.470   1.484   1.506   1.521
233 A   234 A   235 A   236 A   237 A   238 A   239 A   240 A                  
  1.543   1.568   1.586   1.594   1.607   1.614   1.638   1.642
241 A   242 A   243 A   244 A   245 A   246 A   247 A   248 A                  
  1.671   1.676   1.702   1.708   1.720   1.739   1.762   1.774
249 A   250 A   251 A   252 A   253 A   254 A   255 A   256 A                  
  1.793   1.811   1.827   1.866   1.881   1.894   1.921   1.934
257 A   258 A   259 A   260 A   261 A   262 A   263 A   264 A                  
  1.950   1.960   1.964   1.965   1.987   1.996   2.007   2.017
265 A   266 A   267 A   268 A   269 A   270 A   271 A   272 A                  
  2.033   2.054   2.069   2.083   2.100   2.113   2.123   2.132
273 A   274 A   275 A   276 A   277 A   278 A   279 A   280 A                  
  2.140   2.153   2.156   2.162   2.167   2.188   2.208   2.210
281 A   282 A   283 A   284 A   285 A   286 A   287 A   288 A                  
  2.237   2.263   2.265   2.291   2.304   2.307   2.316   2.324
289 A   290 A   291 A   292 A   293 A   294 A   295 A   296 A                  
  2.351   2.361   2.369   2.381   2.392   2.396   2.406   2.421
297 A   298 A   299 A   300 A   301 A   302 A   303 A   304 A                  
  2.437   2.456   2.492   2.507   2.513   2.526   2.538   2.557
305 A   306 A   307 A   308 A   309 A   310 A   311 A   312 A                  
  2.571   2.592   2.603   2.636   2.657   2.681   2.694   2.715
313 A   314 A   315 A   316 A   317 A   318 A   319 A   320 A                  
  2.739   2.744   2.748   2.805   2.852   2.877   2.937   2.948
321 A   322 A   323 A   324 A   325 A   326 A   327 A   328 A                  
  2.952   2.971   3.007   3.024   3.053   3.071   3.081   3.100
329 A   330 A   331 A   332 A   333 A   334 A   335 A   336 A                  
  3.110   3.147   3.170   3.195   3.268   3.313   3.328   3.453
337 A   338 A   339 A   340 A   341 A   342 A   343 A   344 A                  
  3.473   3.562   3.571   3.603   3.638   3.703   3.796   4.547
345 A   346 A   347 A   348 A   349 A   350 A   351 A   352 A                  
  4.653   4.659   4.694   4.731   4.765   4.788   4.804   4.835
353 A   354 A   355 A   356 A   357 A   358 A   359 A   360 A                  
  4.870   4.887   4.970   4.976   5.060   5.197   6.128   6.350
361 A   362 A   363 A   364 A   365 A   366 A   367 A   368 A                  
  6.987
369 A                                                                          
 
 Beta MOs, Restricted
 -- Occupied --                  
-104.84  -26.36  -26.36  -26.35  -20.55  -15.63  -15.61  -11.53
  1 A     2 A     3 A     4 A     5 A     6 A     7 A     8 A                  
-11.408 -11.325 -11.324 -11.288 -11.275 -11.272 -11.268 -11.261
  9 A    10 A    11 A    12 A    13 A    14 A    15 A    16 A                  
-11.244 -11.232 -10.569  -8.039  -8.035  -8.035  -1.741  -1.646
 17 A    18 A    19 A    20 A    21 A    22 A    23 A    24 A                  
 -1.640  -1.426  -1.289  -1.248  -1.205  -1.143  -1.082  -1.062
 25 A    26 A    27 A    28 A    29 A    30 A    31 A    32 A                  
 -1.023  -0.979  -0.950  -0.891  -0.868  -0.836  -0.831  -0.829
 33 A    34 A    35 A    36 A    37 A    38 A    39 A    40 A                  
 -0.823  -0.787  -0.764  -0.722  -0.720  -0.712  -0.704  -0.678
 41 A    42 A    43 A    44 A    45 A    46 A    47 A    48 A                  
 -0.675  -0.667  -0.659  -0.653  -0.648  -0.631  -0.626  -0.613
 49 A    50 A    51 A    52 A    53 A    54 A    55 A    56 A                  
 -0.599  -0.585  -0.570  -0.562  -0.553  -0.535  -0.525  -0.508
 57 A    58 A    59 A    60 A    61 A    62 A    63 A    64 A                  
 -0.501  -0.494  -0.463  -0.460  -0.457  -0.416  -0.362  -0.331
 65 A    66 A    67 A    68 A    69 A    70 A    71 A    72 A                  
 -- Virtual --                   
  0.045   0.073   0.077   0.082   0.084   0.087   0.093   0.096
 73 A    74 A    75 A    76 A    77 A    78 A    79 A    80 A                  
  0.102   0.107   0.107   0.114   0.120   0.123   0.127   0.131
 81 A    82 A    83 A    84 A    85 A    86 A    87 A    88 A                  
  0.135   0.143   0.147   0.151   0.158   0.160   0.162   0.178
 89 A    90 A    91 A    92 A    93 A    94 A    95 A    96 A                  
  0.183   0.187   0.191   0.194   0.201   0.205   0.207   0.213
 97 A    98 A    99 A   100 A   101 A   102 A   103 A   104 A                  
  0.214   0.233   0.237   0.243   0.250   0.252   0.257   0.263
105 A   106 A   107 A   108 A   109 A   110 A   111 A   112 A                  
  0.267   0.274   0.279   0.289   0.293   0.302   0.308   0.310
113 A   114 A   115 A   116 A   117 A   118 A   119 A   120 A                  
  0.322   0.322   0.325   0.331   0.334   0.337   0.340   0.348
121 A   122 A   123 A   124 A   125 A   126 A   127 A   128 A                  
  0.360   0.362   0.368   0.371   0.378   0.379   0.391   0.394
129 A   130 A   131 A   132 A   133 A   134 A   135 A   136 A                  
  0.399   0.406   0.410   0.413   0.418   0.421   0.425   0.429
137 A   138 A   139 A   140 A   141 A   142 A   143 A   144 A                  
  0.429   0.436   0.444   0.450   0.454   0.456   0.466   0.472
145 A   146 A   147 A   148 A   149 A   150 A   151 A   152 A                  
  0.477   0.478   0.490   0.494   0.499   0.504   0.515   0.519
153 A   154 A   155 A   156 A   157 A   158 A   159 A   160 A                  
  0.530   0.537   0.550   0.556   0.564   0.570   0.583   0.587
161 A   162 A   163 A   164 A   165 A   166 A   167 A   168 A                  
  0.602   0.617   0.625   0.641   0.655   0.669   0.719   0.749
169 A   170 A   171 A   172 A   173 A   174 A   175 A   176 A                  
  0.777   0.815   0.827   0.844   0.849   0.856   0.892   0.897
177 A   178 A   179 A   180 A   181 A   182 A   183 A   184 A                  
  0.908   0.911   0.927   0.932   0.942   0.944   0.962   0.969
185 A   186 A   187 A   188 A   189 A   190 A   191 A   192 A                  
  0.977   0.984   0.988   0.999   1.007   1.018   1.027   1.048
193 A   194 A   195 A   196 A   197 A   198 A   199 A   200 A                  
  1.055   1.069   1.081   1.093   1.101   1.118   1.135   1.150
201 A   202 A   203 A   204 A   205 A   206 A   207 A   208 A                  
  1.152   1.166   1.175   1.189   1.195   1.203   1.208   1.223
209 A   210 A   211 A   212 A   213 A   214 A   215 A   216 A                  
  1.233   1.235   1.247   1.256   1.266   1.280   1.299   1.317
217 A   218 A   219 A   220 A   221 A   222 A   223 A   224 A                  
  1.327   1.340   1.349   1.367   1.375   1.384   1.394   1.399
225 A   226 A   227 A   228 A   229 A   230 A   231 A   232 A                  
  1.414   1.430   1.454   1.463   1.470   1.484   1.506   1.521
233 A   234 A   235 A   236 A   237 A   238 A   239 A   240 A                  
  1.543   1.568   1.586   1.594   1.607   1.614   1.638   1.642
241 A   242 A   243 A   244 A   245 A   246 A   247 A   248 A                  
  1.671   1.676   1.702   1.708   1.720   1.739   1.762   1.774
249 A   250 A   251 A   252 A   253 A   254 A   255 A   256 A                  
  1.793   1.811   1.827   1.866   1.881   1.894   1.921   1.934
257 A   258 A   259 A   260 A   261 A   262 A   263 A   264 A                  
  1.950   1.960   1.964   1.965   1.987   1.996   2.007   2.017
265 A   266 A   267 A   268 A   269 A   270 A   271 A   272 A                  
  2.033   2.054   2.069   2.083   2.100   2.113   2.123   2.132
273 A   274 A   275 A   276 A   277 A   278 A   279 A   280 A                  
  2.140   2.153   2.156   2.162   2.167   2.188   2.208   2.210
281 A   282 A   283 A   284 A   285 A   286 A   287 A   288 A                  
  2.237   2.263   2.265   2.291   2.304   2.307   2.316   2.324
289 A   290 A   291 A   292 A   293 A   294 A   295 A   296 A                  
  2.351   2.361   2.369   2.381   2.392   2.396   2.406   2.421
297 A   298 A   299 A   300 A   301 A   302 A   303 A   304 A                  
  2.437   2.456   2.492   2.507   2.513   2.526   2.538   2.557
305 A   306 A   307 A   308 A   309 A   310 A   311 A   312 A                  
  2.571   2.592   2.603   2.636   2.657   2.681   2.694   2.715
313 A   314 A   315 A   316 A   317 A   318 A   319 A   320 A                  
  2.739   2.744   2.748   2.805   2.852   2.877   2.937   2.948
321 A   322 A   323 A   324 A   325 A   326 A   327 A   328 A                  
  2.952   2.971   3.007   3.024   3.053   3.071   3.081   3.100
329 A   330 A   331 A   332 A   333 A   334 A   335 A   336 A                  
  3.110   3.147   3.170   3.195   3.268   3.313   3.328   3.453
337 A   338 A   339 A   340 A   341 A   342 A   343 A   344 A                  
  3.473   3.562   3.571   3.603   3.638   3.703   3.796   4.547
345 A   346 A   347 A   348 A   349 A   350 A   351 A   352 A                  
  4.653   4.659   4.694   4.731   4.765   4.788   4.804   4.835
353 A   354 A   355 A   356 A   357 A   358 A   359 A   360 A                  
  4.870   4.887   4.970   4.976   5.060   5.197   6.128   6.350
361 A   362 A   363 A   364 A   365 A   366 A   367 A   368 A                  
  6.987
369 A                                                                          

 Occupation and symmetry of molecular orbitals

 Point group: C1 (1 irreducible representation).

                           A     All 
 -------------------------------------
 All molecular orbitals:
  - Alpha                  369   369 
  - Beta                   369   369 
 -------------------------------------
 Alpha orbitals:
  - Frozen occupied        22    22  
  - Active occupied        50    50  
  - Active virtual         297   297 
  - Frozen virtual         0     0   
 -------------------------------------
 Beta orbitals:
  - Frozen occupied        22    22  
  - Active occupied        50    50  
  - Active virtual         297   297 
  - Frozen virtual         0     0   
 -------------------------------------

 Import integrals:   CPU 0.00 s  wall 0.00 s

 Import integrals:   CPU 1694.19 s  wall 639.28 s

 MP2 amplitudes:   CPU 24.86 s  wall 58.28 s

           CCSD T amplitudes will be solved using DIIS.

           Start     Size      MaxIter   EConv     TConv     
           3         7         100       1.00e-06  1.00e-04  
 ------------------------------------------------------------------------------
           Energy (a.u.)   Ediff      Tdiff       Comment
 ------------------------------------------------------------------------------
         -1367.74708657                           
     1   -1367.74149549   5.59e-03   1.48e+00     Step took 47.33.
     2   -1367.81902958   7.75e-02   2.01e-01     
     3   -1367.81857939   4.50e-04   7.35e-02     
     4   -1367.82619242   7.61e-03   2.41e-02     Switched to DIIS steps.
     5   -1367.82880170   2.61e-03   1.64e-02     
     6   -1367.82895398   1.52e-04   3.35e-03     
     7   -1367.82893656   1.74e-05   1.67e-03     
     8   -1367.82892720   9.36e-06   4.33e-04     
     9   -1367.82892785   6.51e-07   1.70e-04     
    10   -1367.82892789   3.49e-08   5.18e-05     
 ------------------------------------------------------------------------------
         -1367.82892789                           CCSD T converged.


 ------------------------------------------------------------------------------
 == (T) code is based on LIBPT ==
 == Author: Ilya Kaliman, 2016 ==

 Starting (T) calculation...
 (T) calculation completed in 62607 sec
 ------------------------------------------------------------------------------

 SCF energy                 = -1365.16871931
 MP2 energy                 = -1367.74708657
 CCSD correlation energy     =    -2.66020858
 CCSD total energy           = -1367.82892789
 CCSD(T) correlation energy =    -0.09947940
 CCSD(T) total energy       = -1367.92840728

 CCSD  T1^2 = 0.0355  T2^2 = 0.8924  Leading amplitudes:

 Amplitude    Orbitals with energies
 -0.0183       54 (A) A                  ->    105 (A) A                  
              -0.6314                          0.2144                     
 -0.0183       54 (A) B                  ->    105 (A) B                  
              -0.6314                          0.2144                     
 -0.0144       64 (A) A                  ->    80 (A) A                   
              -0.5080                          0.0963                     
 -0.0144       64 (A) B                  ->    80 (A) B                   
              -0.5080                          0.0963                     

 Amplitude    Orbitals with energies
 -0.0493       71 (A) A      71 (A) B    ->    76 (A) A      76 (A) B     
              -0.3615       -0.3615            0.0823        0.0823       
  0.0493       71 (A) A      71 (A) B    ->    76 (A) B      76 (A) A     
              -0.3615       -0.3615            0.0823        0.0823       
  0.0493       71 (A) B      71 (A) A    ->    76 (A) A      76 (A) B     
              -0.3615       -0.3615            0.0823        0.0823       
 -0.0493       71 (A) B      71 (A) A    ->    76 (A) B      76 (A) A     
              -0.3615       -0.3615            0.0823        0.0823       

 CCSD calculation:   CPU 322675.94 s  wall 95105.93 s

 Total ccman2 time:   CPU 324416.33 s  wall 95823.99 s

 
 --------------------------------------------------------------
 
                    Orbital Energies (a.u.)
 --------------------------------------------------------------
 
 Alpha MOs
 -- Occupied --
******* -26.360 -26.359 -26.355 -20.550 -15.631 -15.608 -11.526
-11.408 -11.325 -11.324 -11.288 -11.275 -11.272 -11.268 -11.261
-11.244 -11.232 -10.569  -8.039  -8.035  -8.035  -1.741  -1.646
 -1.640  -1.426  -1.289  -1.248  -1.205  -1.143  -1.082  -1.062
 -1.023  -0.979  -0.950  -0.891  -0.868  -0.836  -0.831  -0.829
 -0.823  -0.787  -0.764  -0.722  -0.720  -0.712  -0.704  -0.678
 -0.675  -0.667  -0.659  -0.653  -0.648  -0.631  -0.626  -0.613
 -0.599  -0.585  -0.570  -0.562  -0.553  -0.535  -0.525  -0.508
 -0.501  -0.494  -0.463  -0.460  -0.457  -0.416  -0.362  -0.331
 -- Virtual --
  0.045   0.073   0.077   0.082   0.084   0.087   0.093   0.096
  0.102   0.107   0.107   0.114   0.120   0.123   0.127   0.131
  0.135   0.143   0.147   0.151   0.158   0.160   0.162   0.178
  0.183   0.187   0.191   0.194   0.201   0.205   0.207   0.213
  0.214   0.233   0.237   0.243   0.250   0.252   0.257   0.263
  0.267   0.274   0.279   0.289   0.293   0.302   0.308   0.310
  0.322   0.322   0.325   0.331   0.334   0.337   0.340   0.348
  0.360   0.362   0.368   0.371   0.378   0.379   0.391   0.394
  0.399   0.406   0.410   0.413   0.418   0.421   0.425   0.429
  0.429   0.436   0.444   0.450   0.454   0.456   0.466   0.472
  0.477   0.478   0.490   0.494   0.499   0.504   0.515   0.519
  0.530   0.537   0.550   0.556   0.564   0.570   0.583   0.587
  0.602   0.617   0.625   0.641   0.655   0.669   0.719   0.749
  0.777   0.815   0.827   0.844   0.849   0.856   0.892   0.897
  0.908   0.911   0.927   0.932   0.942   0.944   0.962   0.969
  0.977   0.984   0.988   0.999   1.007   1.018   1.027   1.048
  1.055   1.069   1.081   1.093   1.101   1.118   1.135   1.150
  1.152   1.166   1.175   1.189   1.195   1.203   1.208   1.223
  1.233   1.235   1.247   1.256   1.266   1.280   1.299   1.317
  1.327   1.340   1.349   1.367   1.375   1.384   1.394   1.399
  1.414   1.430   1.454   1.463   1.470   1.484   1.506   1.521
  1.543   1.568   1.586   1.594   1.607   1.614   1.638   1.642
  1.671   1.676   1.702   1.708   1.720   1.739   1.762   1.774
  1.793   1.811   1.827   1.866   1.881   1.894   1.921   1.934
  1.950   1.960   1.964   1.965   1.987   1.996   2.007   2.017
  2.033   2.054   2.069   2.083   2.100   2.113   2.123   2.132
  2.140   2.153   2.156   2.162   2.167   2.188   2.208   2.210
  2.237   2.263   2.265   2.291   2.304   2.307   2.316   2.324
  2.351   2.361   2.369   2.381   2.392   2.396   2.406   2.421
  2.437   2.456   2.492   2.507   2.513   2.526   2.538   2.557
  2.571   2.592   2.603   2.636   2.657   2.681   2.694   2.715
  2.739   2.744   2.748   2.805   2.852   2.877   2.937   2.948
  2.952   2.971   3.007   3.024   3.053   3.071   3.081   3.100
  3.110   3.147   3.170   3.195   3.268   3.313   3.328   3.453
  3.473   3.562   3.571   3.603   3.638   3.703   3.796   4.547
  4.653   4.659   4.694   4.731   4.765   4.788   4.804   4.835
  4.870   4.887   4.970   4.976   5.060   5.197   6.128   6.350
  6.987
 --------------------------------------------------------------
 
          Ground-State Mulliken Net Atomic Charges

     Atom                 Charge (a.u.)
  ----------------------------------------
      1 C                    -0.124894
      2 N                    -0.810727
      3 C                     0.699199
      4 O                    -0.635070
      5 N                    -0.691307
      6 C                    -0.078384
      7 C                    -0.274916
      8 C                    -0.672793
      9 C                    -0.002609
     10 C                    -1.310599
     11 C                    -0.464502
     12 C                     0.198215
     13 C                     0.125466
     14 H                     0.459216
     15 H                     0.417892
     16 H                     0.202790
     17 H                     0.225739
     18 H                     0.207501
     19 H                     0.180947
     20 H                     0.198727
     21 H                     0.200026
     22 H                     0.197004
     23 H                     0.254613
     24 Cl                    0.258104
     25 H                     0.334765
     26 C                     1.787157
     27 H                     0.289850
     28 F                    -0.364829
     29 F                    -0.399215
     30 F                    -0.407366
  ----------------------------------------
  Sum of atomic charges =     0.000000

 -----------------------------------------------------------------
                    Cartesian Multipole Moments
 -----------------------------------------------------------------
    Charge (ESU x 10^10)
                -0.0000
    Dipole Moment (Debye)
         X      -4.4696      Y       3.7551      Z       0.8564
       Tot       5.9001
    Quadrupole Moments (Debye-Ang)
        XX    -107.1128     XY     -13.9459     YY    -116.8312
        XZ      -3.3149     YZ       0.5396     ZZ    -115.5523
    Octopole Moments (Debye-Ang^2)
       XXX     -61.6585    XXY      11.0386    XYY       1.3043
       YYY      44.0605    XXZ       7.0865    XYZ      -3.7119
       YYZ       3.8413    XZZ      10.7426    YZZ       7.6526
       ZZZ      -1.7665
    Hexadecapole Moments (Debye-Ang^3)
      XXXX   -8296.7199   XXXY     -83.9869   XXYY   -1806.1226
      XYYY      76.2875   YYYY   -1894.8392   XXXZ     -13.3255
      XXYZ       8.0654   XYYZ      -9.7398   YYYZ       8.0133
      XXZZ   -1488.2182   XYZZ      38.0672   YYZZ    -360.4894
      XZZZ      -6.6201   YZZZ      -1.5486   ZZZZ    -208.9519
 -----------------------------------------------------------------
Archival summary:
1\1\r3714\SP\ProcedureUnspecified\6-31+G*\l13121112\hio507\TueDec1012:59:552019TueDec1012:59:552019\0\\#,ProcedureUnspecified,6-31+G*,\\0,1\Cl\C,1,1.74043\C,2,1.38665,1,118.749\H,3,1.08199,2,121.035,1,0.307924,0\C,2,1.38811,1,118.444,3,179.826,0\H,5,1.07892,2,120.544,1,-0.518989,0\C,3,1.3891,2,117.416,1,179.772,0\C,7,1.38466,3,121.579,2,0.0998884,0\H,8,1.08477,7,119.705,3,-179.684,0\C,5,1.39869,2,118.75,1,-179.824,0\N,10,1.39849,5,123.442,2,-179.061,0\H,11,1.00885,10,115.145,5,-177.871,0\C,11,1.39194,10,127.289,5,-8.77385,0\O,13,1.21124,11,123.842,10,-1.6201,0\N,13,1.37227,11,113.088,10,179.734,0\H,15,1.00984,13,118.209,11,-24.05,0\C,15,1.45767,13,118.928,11,-174.657,0\H,17,1.09111,15,107.58,13,-50.3614,0\H,17,1.09645,15,110.633,13,66.0545,0\C,7,1.50266,3,119.249,2,177.233,0\F,20,1.33811,7,112.065,3,31.5529,0\F,20,1.34135,7,112.003,3,152.401,0\F,20,1.3436,7,111.496,3,-88.1672,0\C,17,1.52152,15,110.43,13,-171.148,0\H,24,1.09399,17,109.01,15,57.6822,0\H,24,1.09658,17,109.598,15,-58.891,0\C,24,1.52543,17,111.511,15,179.713,0\H,27,1.09092,24,111.256,17,-179.914,0\H,27,1.09249,24,111.013,17,-59.9139,0\H,27,1.09259,24,111.191,17,59.9655,0\\HF=-1365.16872\\@

 Total job time:  95886.32s(wall), 324654.92s(cpu) 
 Tue Dec 10 12:59:55 2019

        *************************************************************
        *                                                           *
        *  Thank you very much for using Q-Chem.  Have a nice day.  *
        *                                                           *
        *************************************************************


0 sent ACK to 0 
now end server 0 ... 
