 Entering Gaussian System, Link 0=/apps/gaussian/g09e01/g09/g09
 Initial command:
 /apps/gaussian/g09e01/g09/l1.exe "/jobfs/local/3579011.r-man2/Gau-27835.inp" -scrdir="/jobfs/local/3579011.r-man2/"
 Entering Link 1 = /apps/gaussian/g09e01/g09/l1.exe PID=     27836.
  
 Copyright (c) 1988,1990,1992,1993,1995,1998,2003,2009,2015,
            Gaussian, Inc.  All Rights Reserved.
  
 This is part of the Gaussian(R) 09 program.  It is based on
 the Gaussian(R) 03 system (copyright 2003, Gaussian, Inc.),
 the Gaussian(R) 98 system (copyright 1998, Gaussian, Inc.),
 the Gaussian(R) 94 system (copyright 1995, Gaussian, Inc.),
 the Gaussian 92(TM) system (copyright 1992, Gaussian, Inc.),
 the Gaussian 90(TM) system (copyright 1990, Gaussian, Inc.),
 the Gaussian 88(TM) system (copyright 1988, Gaussian, Inc.),
 the Gaussian 86(TM) system (copyright 1986, Carnegie Mellon
 University), and the Gaussian 82(TM) system (copyright 1983,
 Carnegie Mellon University). Gaussian is a federally registered
 trademark of Gaussian, Inc.
  
 This software contains proprietary and confidential information,
 including trade secrets, belonging to Gaussian, Inc.
  
 This software is provided under written license and may be
 used, copied, transmitted, or stored only in accord with that
 written license.
  
 The following legend is applicable only to US Government
 contracts under FAR:
  
                    RESTRICTED RIGHTS LEGEND
  
 Use, reproduction and disclosure by the US Government is
 subject to restrictions as set forth in subparagraphs (a)
 and (c) of the Commercial Computer Software - Restricted
 Rights clause in FAR 52.227-19.
  
 Gaussian, Inc.
 340 Quinnipiac St., Bldg. 40, Wallingford CT 06492
  
  
 ---------------------------------------------------------------
 Warning -- This program may not be used in any manner that
 competes with the business of Gaussian, Inc. or will provide
 assistance to any competitor of Gaussian, Inc.  The licensee
 of this program is prohibited from giving any competitor of
 Gaussian, Inc. access to this program.  By using this program,
 the user acknowledges that Gaussian, Inc. is engaged in the
 business of creating and licensing software in the field of
 computational chemistry and represents and warrants to the
 licensee that it is not a competitor of Gaussian, Inc. and that
 it will not use this program in any manner prohibited above.
 ---------------------------------------------------------------
  

 Cite this work as:
 Gaussian 09, Revision E.01,
 M. J. Frisch, G. W. Trucks, H. B. Schlegel, G. E. Scuseria, 
 M. A. Robb, J. R. Cheeseman, G. Scalmani, V. Barone, B. Mennucci, 
 G. A. Petersson, H. Nakatsuji, M. Caricato, X. Li, H. P. Hratchian, 
 A. F. Izmaylov, J. Bloino, G. Zheng, J. L. Sonnenberg, M. Hada, 
 M. Ehara, K. Toyota, R. Fukuda, J. Hasegawa, M. Ishida, T. Nakajima, 
 Y. Honda, O. Kitao, H. Nakai, T. Vreven, J. A. Montgomery, Jr., 
 J. E. Peralta, F. Ogliaro, M. Bearpark, J. J. Heyd, E. Brothers, 
 K. N. Kudin, V. N. Staroverov, T. Keith, R. Kobayashi, J. Normand, 
 K. Raghavachari, A. Rendell, J. C. Burant, S. S. Iyengar, J. Tomasi, 
 M. Cossi, N. Rega, J. M. Millam, M. Klene, J. E. Knox, J. B. Cross, 
 V. Bakken, C. Adamo, J. Jaramillo, R. Gomperts, R. E. Stratmann, 
 O. Yazyev, A. J. Austin, R. Cammi, C. Pomelli, J. W. Ochterski, 
 R. L. Martin, K. Morokuma, V. G. Zakrzewski, G. A. Voth, 
 P. Salvador, J. J. Dannenberg, S. Dapprich, A. D. Daniels, 
 O. Farkas, J. B. Foresman, J. V. Ortiz, J. Cioslowski, 
 and D. J. Fox, Gaussian, Inc., Wallingford CT, 2013.
 
 ******************************************
 Gaussian 09:  ES64L-G09RevE.01 30-Nov-2015
                14-Nov-2019 
 ******************************************
 %chk=CP19.M062X_6-311pGd_opt_GD3.chk
 %mem=196608000
 %nproc=4
 Will use up to    4 processors via shared memory.
 ----------------------------------------------------------------------
 # M062X/6-311+G* SCF=Tight INT(grid=ultrafine) OPT IOP(2/17=4) Empiric
 alDispersion=GD3 maxdisk=2147483648
 ----------------------------------------------------------------------
 1/14=-1,18=20,19=15,26=4,38=1/1,3;
 2/9=110,12=2,17=4,18=5,40=1/2;
 3/5=4,6=6,7=11,11=2,16=1,25=1,30=1,71=1,74=-55,75=-5,124=31/1,2,3;
 4//1;
 5/5=2,32=2,38=5/2;
 6/7=2,8=2,9=2,10=2,28=1/1;
 7//1,2,3,16;
 1/14=-1,18=20,19=15,26=4/3(2);
 2/9=110,17=4/2;
 99//99;
 2/9=110,17=4/2;
 3/5=4,6=6,7=11,11=2,16=1,25=1,30=1,71=1,74=-55,75=-5,124=31/1,2,3;
 4/5=5,16=3,69=1/1;
 5/5=2,32=2,38=5/2;
 7//1,2,3,16;
 1/14=-1,18=20,19=15,26=4/3(-5);
 2/9=110,17=4/2;
 6/7=2,8=2,9=2,10=2,19=2,28=1/1;
 99/9=1/99;
 ---------------------------
 CP19.M062X_6-311pGd_opt_GD3
 ---------------------------
 Symbolic Z-matrix:
 Charge =  0 Multiplicity = 1
 C                    -6.33307   1.21722  -0.02977 
 N                    -5.05592   0.6543    0.01134 
 C                    -3.83398   1.31904  -0.06008 
 O                    -3.72447   2.51516  -0.21254 
 N                    -2.75619   0.47407   0.02905 
 C                    -1.41636   1.04579   0.08459 
 C                    -0.36604  -0.04766  -0.04235 
 C                     1.04665   0.52593   0.00539 
 C                    -6.56729   2.59553  -0.00255 
 C                    -7.87341   3.0617   -0.02404 
 C                    -8.96567   2.19561  -0.07415 
 C                    -8.71607   0.82653  -0.10235 
 C                    -7.4227    0.33965  -0.08093 
 H                    -5.02925  -0.35221  -0.0527 
 H                    -2.88301  -0.41449   0.49184 
 H                    -1.27543   1.61042   1.01386 
 H                    -1.32857   1.75942  -0.73607 
 H                    -0.52536  -0.58734  -0.98054 
 H                    -0.49305  -0.77563   0.76787 
 H                     1.208     1.23773  -0.80751 
 H                     1.79649  -0.26095  -0.08762 
 H                     1.22862   1.05005   0.94663 
 H                    -5.74597   3.29405   0.02707 
 Cl                   -8.107     4.78331   0.0129 
 C                    -10.38101   2.70077  -0.0985 
 H                    -9.54844   0.13573  -0.14203 
 H                    -7.25425  -0.73207  -0.10226 
 F                    -11.25859   1.68523  -0.14716 
 F                    -10.68424   3.42031   0.99064 
 F                    -10.62798   3.47515  -1.16376 
 

 GradGradGradGradGradGradGradGradGradGradGradGradGradGradGradGradGradGrad
 Berny optimization.
 Initialization pass.
                           ----------------------------
                           !    Initial Parameters    !
                           ! (Angstroms and Degrees)  !
 --------------------------                            --------------------------
 ! Name  Definition              Value          Derivative Info.                !
 --------------------------------------------------------------------------------
 ! R1    R(1,2)                  1.3963         estimate D2E/DX2                !
 ! R2    R(1,9)                  1.3983         estimate D2E/DX2                !
 ! R3    R(1,13)                 1.4            estimate D2E/DX2                !
 ! R4    R(2,3)                  1.3929         estimate D2E/DX2                !
 ! R5    R(2,14)                 1.0089         estimate D2E/DX2                !
 ! R6    R(3,4)                  1.2108         estimate D2E/DX2                !
 ! R7    R(3,5)                  1.3724         estimate D2E/DX2                !
 ! R8    R(5,6)                  1.4578         estimate D2E/DX2                !
 ! R9    R(5,15)                 1.0098         estimate D2E/DX2                !
 ! R10   R(6,7)                  1.5215         estimate D2E/DX2                !
 ! R11   R(6,16)                 1.0964         estimate D2E/DX2                !
 ! R12   R(6,17)                 1.0911         estimate D2E/DX2                !
 ! R13   R(7,8)                  1.5254         estimate D2E/DX2                !
 ! R14   R(7,18)                 1.094          estimate D2E/DX2                !
 ! R15   R(7,19)                 1.0966         estimate D2E/DX2                !
 ! R16   R(8,20)                 1.0925         estimate D2E/DX2                !
 ! R17   R(8,21)                 1.0909         estimate D2E/DX2                !
 ! R18   R(8,22)                 1.0926         estimate D2E/DX2                !
 ! R19   R(9,10)                 1.387          estimate D2E/DX2                !
 ! R20   R(9,23)                 1.0786         estimate D2E/DX2                !
 ! R21   R(10,11)                1.3949         estimate D2E/DX2                !
 ! R22   R(10,24)                1.7378         estimate D2E/DX2                !
 ! R23   R(11,12)                1.3919         estimate D2E/DX2                !
 ! R24   R(11,25)                1.503          estimate D2E/DX2                !
 ! R25   R(12,13)                1.3821         estimate D2E/DX2                !
 ! R26   R(12,26)                1.0824         estimate D2E/DX2                !
 ! R27   R(13,27)                1.0851         estimate D2E/DX2                !
 ! R28   R(25,28)                1.3431         estimate D2E/DX2                !
 ! R29   R(25,29)                1.3401         estimate D2E/DX2                !
 ! R30   R(25,30)                1.3399         estimate D2E/DX2                !
 ! A1    A(2,1,9)              123.3675         estimate D2E/DX2                !
 ! A2    A(2,1,13)             117.4034         estimate D2E/DX2                !
 ! A3    A(9,1,13)             119.2222         estimate D2E/DX2                !
 ! A4    A(1,2,3)              127.4816         estimate D2E/DX2                !
 ! A5    A(1,2,14)             115.119          estimate D2E/DX2                !
 ! A6    A(3,2,14)             116.7221         estimate D2E/DX2                !
 ! A7    A(2,3,4)              123.8671         estimate D2E/DX2                !
 ! A8    A(2,3,5)              113.0657         estimate D2E/DX2                !
 ! A9    A(4,3,5)              123.0509         estimate D2E/DX2                !
 ! A10   A(3,5,6)              118.8677         estimate D2E/DX2                !
 ! A11   A(3,5,15)             118.2212         estimate D2E/DX2                !
 ! A12   A(6,5,15)             116.2984         estimate D2E/DX2                !
 ! A13   A(5,6,7)              110.4526         estimate D2E/DX2                !
 ! A14   A(5,6,16)             110.6333         estimate D2E/DX2                !
 ! A15   A(5,6,17)             107.5666         estimate D2E/DX2                !
 ! A16   A(7,6,16)             110.6137         estimate D2E/DX2                !
 ! A17   A(7,6,17)             110.5948         estimate D2E/DX2                !
 ! A18   A(16,6,17)            106.8769         estimate D2E/DX2                !
 ! A19   A(6,7,8)              111.4969         estimate D2E/DX2                !
 ! A20   A(6,7,18)             108.9981         estimate D2E/DX2                !
 ! A21   A(6,7,19)             109.6026         estimate D2E/DX2                !
 ! A22   A(8,7,18)             110.3161         estimate D2E/DX2                !
 ! A23   A(8,7,19)             109.497          estimate D2E/DX2                !
 ! A24   A(18,7,19)            106.8143         estimate D2E/DX2                !
 ! A25   A(7,8,20)             111.0072         estimate D2E/DX2                !
 ! A26   A(7,8,21)             111.2635         estimate D2E/DX2                !
 ! A27   A(7,8,22)             111.1974         estimate D2E/DX2                !
 ! A28   A(20,8,21)            107.758          estimate D2E/DX2                !
 ! A29   A(20,8,22)            107.69           estimate D2E/DX2                !
 ! A30   A(21,8,22)            107.7572         estimate D2E/DX2                !
 ! A31   A(1,9,10)             119.2569         estimate D2E/DX2                !
 ! A32   A(1,9,23)             120.7527         estimate D2E/DX2                !
 ! A33   A(10,9,23)            119.9887         estimate D2E/DX2                !
 ! A34   A(9,10,11)            121.9559         estimate D2E/DX2                !
 ! A35   A(9,10,24)            117.3376         estimate D2E/DX2                !
 ! A36   A(11,10,24)           120.7065         estimate D2E/DX2                !
 ! A37   A(10,11,12)           118.1013         estimate D2E/DX2                !
 ! A38   A(10,11,25)           121.9574         estimate D2E/DX2                !
 ! A39   A(12,11,25)           119.9413         estimate D2E/DX2                !
 ! A40   A(11,12,13)           120.9284         estimate D2E/DX2                !
 ! A41   A(11,12,26)           119.3784         estimate D2E/DX2                !
 ! A42   A(13,12,26)           119.6932         estimate D2E/DX2                !
 ! A43   A(1,13,12)            120.5353         estimate D2E/DX2                !
 ! A44   A(1,13,27)            119.9339         estimate D2E/DX2                !
 ! A45   A(12,13,27)           119.5308         estimate D2E/DX2                !
 ! A46   A(11,25,28)           111.2084         estimate D2E/DX2                !
 ! A47   A(11,25,29)           112.3564         estimate D2E/DX2                !
 ! A48   A(11,25,30)           112.376          estimate D2E/DX2                !
 ! A49   A(28,25,29)           106.7133         estimate D2E/DX2                !
 ! A50   A(28,25,30)           106.7236         estimate D2E/DX2                !
 ! A51   A(29,25,30)           107.1044         estimate D2E/DX2                !
 ! D1    D(9,1,2,3)             -7.4528         estimate D2E/DX2                !
 ! D2    D(9,1,2,14)          -177.633          estimate D2E/DX2                !
 ! D3    D(13,1,2,3)           173.5112         estimate D2E/DX2                !
 ! D4    D(13,1,2,14)            3.331          estimate D2E/DX2                !
 ! D5    D(2,1,9,10)          -178.887          estimate D2E/DX2                !
 ! D6    D(2,1,9,23)             1.5891         estimate D2E/DX2                !
 ! D7    D(13,1,9,10)            0.1324         estimate D2E/DX2                !
 ! D8    D(13,1,9,23)         -179.3915         estimate D2E/DX2                !
 ! D9    D(2,1,13,12)          178.9803         estimate D2E/DX2                !
 ! D10   D(2,1,13,27)           -0.9096         estimate D2E/DX2                !
 ! D11   D(9,1,13,12)           -0.0972         estimate D2E/DX2                !
 ! D12   D(9,1,13,27)         -179.9871         estimate D2E/DX2                !
 ! D13   D(1,2,3,4)             -2.3531         estimate D2E/DX2                !
 ! D14   D(1,2,3,5)            179.0785         estimate D2E/DX2                !
 ! D15   D(14,2,3,4)           167.6913         estimate D2E/DX2                !
 ! D16   D(14,2,3,5)           -10.8771         estimate D2E/DX2                !
 ! D17   D(2,3,5,6)           -174.7646         estimate D2E/DX2                !
 ! D18   D(2,3,5,15)           -24.3026         estimate D2E/DX2                !
 ! D19   D(4,3,5,6)              6.6536         estimate D2E/DX2                !
 ! D20   D(4,3,5,15)           157.1156         estimate D2E/DX2                !
 ! D21   D(3,5,6,7)           -171.0197         estimate D2E/DX2                !
 ! D22   D(3,5,6,16)            66.1649         estimate D2E/DX2                !
 ! D23   D(3,5,6,17)           -50.2325         estimate D2E/DX2                !
 ! D24   D(15,5,6,7)            37.9631         estimate D2E/DX2                !
 ! D25   D(15,5,6,16)          -84.8523         estimate D2E/DX2                !
 ! D26   D(15,5,6,17)          158.7504         estimate D2E/DX2                !
 ! D27   D(5,6,7,8)            179.6956         estimate D2E/DX2                !
 ! D28   D(5,6,7,18)            57.6731         estimate D2E/DX2                !
 ! D29   D(5,6,7,19)           -58.9022         estimate D2E/DX2                !
 ! D30   D(16,6,7,8)           -57.4776         estimate D2E/DX2                !
 ! D31   D(16,6,7,18)         -179.5001         estimate D2E/DX2                !
 ! D32   D(16,6,7,19)           63.9247         estimate D2E/DX2                !
 ! D33   D(17,6,7,8)            60.732          estimate D2E/DX2                !
 ! D34   D(17,6,7,18)          -61.2905         estimate D2E/DX2                !
 ! D35   D(17,6,7,19)         -177.8658         estimate D2E/DX2                !
 ! D36   D(6,7,8,20)           -59.9022         estimate D2E/DX2                !
 ! D37   D(6,7,8,21)          -179.9032         estimate D2E/DX2                !
 ! D38   D(6,7,8,22)            59.9688         estimate D2E/DX2                !
 ! D39   D(18,7,8,20)           61.3562         estimate D2E/DX2                !
 ! D40   D(18,7,8,21)          -58.6448         estimate D2E/DX2                !
 ! D41   D(18,7,8,22)         -178.7727         estimate D2E/DX2                !
 ! D42   D(19,7,8,20)          178.6341         estimate D2E/DX2                !
 ! D43   D(19,7,8,21)           58.6332         estimate D2E/DX2                !
 ! D44   D(19,7,8,22)          -61.4948         estimate D2E/DX2                !
 ! D45   D(1,9,10,11)           -0.0959         estimate D2E/DX2                !
 ! D46   D(1,9,10,24)          179.9458         estimate D2E/DX2                !
 ! D47   D(23,9,10,11)         179.4317         estimate D2E/DX2                !
 ! D48   D(23,9,10,24)          -0.5266         estimate D2E/DX2                !
 ! D49   D(9,10,11,12)           0.0205         estimate D2E/DX2                !
 ! D50   D(9,10,11,25)        -179.9525         estimate D2E/DX2                !
 ! D51   D(24,10,11,12)        179.9774         estimate D2E/DX2                !
 ! D52   D(24,10,11,25)          0.0044         estimate D2E/DX2                !
 ! D53   D(10,11,12,13)          0.0172         estimate D2E/DX2                !
 ! D54   D(10,11,12,26)       -179.9563         estimate D2E/DX2                !
 ! D55   D(25,11,12,13)        179.9907         estimate D2E/DX2                !
 ! D56   D(25,11,12,26)          0.0172         estimate D2E/DX2                !
 ! D57   D(10,11,25,28)        179.9804         estimate D2E/DX2                !
 ! D58   D(10,11,25,29)        -60.4723         estimate D2E/DX2                !
 ! D59   D(10,11,25,30)         60.4067         estimate D2E/DX2                !
 ! D60   D(12,11,25,28)          0.008          estimate D2E/DX2                !
 ! D61   D(12,11,25,29)        119.5552         estimate D2E/DX2                !
 ! D62   D(12,11,25,30)       -119.5657         estimate D2E/DX2                !
 ! D63   D(11,12,13,1)           0.0219         estimate D2E/DX2                !
 ! D64   D(11,12,13,27)        179.9122         estimate D2E/DX2                !
 ! D65   D(26,12,13,1)         179.9953         estimate D2E/DX2                !
 ! D66   D(26,12,13,27)         -0.1144         estimate D2E/DX2                !
 --------------------------------------------------------------------------------
 Trust Radius=3.00D-01 FncErr=1.00D-07 GrdErr=1.00D-06
 Number of steps in this run=    157 maximum allowed number of steps=    180.
 GradGradGradGradGradGradGradGradGradGradGradGradGradGradGradGradGradGrad

                          Input orientation:                          
 ---------------------------------------------------------------------
 Center     Atomic      Atomic             Coordinates (Angstroms)
 Number     Number       Type             X           Y           Z
 ---------------------------------------------------------------------
      1          6           0       -6.333069    1.217221   -0.029774
      2          7           0       -5.055921    0.654303    0.011338
      3          6           0       -3.833977    1.319036   -0.060082
      4          8           0       -3.724469    2.515156   -0.212544
      5          7           0       -2.756193    0.474065    0.029054
      6          6           0       -1.416358    1.045795    0.084592
      7          6           0       -0.366039   -0.047664   -0.042345
      8          6           0        1.046646    0.525927    0.005395
      9          6           0       -6.567291    2.595529   -0.002549
     10          6           0       -7.873408    3.061703   -0.024044
     11          6           0       -8.965665    2.195614   -0.074150
     12          6           0       -8.716069    0.826533   -0.102350
     13          6           0       -7.422698    0.339654   -0.080933
     14          1           0       -5.029254   -0.352209   -0.052704
     15          1           0       -2.883006   -0.414488    0.491843
     16          1           0       -1.275428    1.610416    1.013857
     17          1           0       -1.328565    1.759420   -0.736066
     18          1           0       -0.525364   -0.587337   -0.980535
     19          1           0       -0.493050   -0.775634    0.767866
     20          1           0        1.208001    1.237726   -0.807507
     21          1           0        1.796486   -0.260948   -0.087621
     22          1           0        1.228621    1.050046    0.946630
     23          1           0       -5.745967    3.294054    0.027065
     24         17           0       -8.106999    4.783309    0.012898
     25          6           0      -10.381014    2.700769   -0.098502
     26          1           0       -9.548445    0.135729   -0.142034
     27          1           0       -7.254247   -0.732066   -0.102263
     28          9           0      -11.258590    1.685232   -0.147159
     29          9           0      -10.684241    3.420309    0.990637
     30          9           0      -10.627978    3.475149   -1.163761
 ---------------------------------------------------------------------
                    Distance matrix (angstroms):
                    1          2          3          4          5
     1  C    0.000000
     2  N    1.396308   0.000000
     3  C    2.501349   1.392881   0.000000
     4  O    2.919390   2.299057   1.210760   0.000000
     5  N    3.653736   2.306848   1.372422   2.271999   0.000000
     6  C    4.921028   3.661291   2.437309   2.752215   1.457778
     7  C    6.099634   4.742429   3.727570   4.228010   2.447475
     8  C    7.412106   6.103920   4.945078   5.173787   3.803266
     9  C    1.398333   2.460242   3.017242   2.851700   4.361889
    10  C    2.403079   3.706084   4.399453   4.189026   5.734508
    11  C    2.808876   4.203457   5.206036   5.252752   6.444528
    12  C    2.415904   3.665962   4.907053   5.270642   5.971736
    13  C    1.400011   2.389383   3.720019   4.292672   4.669736
    14  H    2.040483   1.008900   2.054702   3.154330   2.419963
    15  H    3.851947   2.468756   2.052821   3.128424   1.009843
    16  H    5.179142   4.026329   2.790058   2.884514   2.110402
    17  H    5.083098   3.958923   2.632106   2.566236   2.067768
    18  H    6.155470   4.801190   3.927902   4.522117   2.668790
    19  H    6.222020   4.841162   4.029260   4.715143   2.688756
    20  H    7.581097   6.344100   5.097725   5.129822   4.122844
    21  H    8.263050   6.913968   5.848010   6.180882   4.613105
    22  H    7.626302   6.366070   5.168726   5.293707   4.129460
    23  H    2.158971   2.728497   2.750272   2.179576   4.109878
    24  Cl   3.983168   5.133982   5.501384   4.939829   6.870296
    25  C    4.311786   5.705848   6.691364   6.660109   7.944330
    26  H    3.394240   4.524954   5.836272   6.291688   6.802825
    27  H    2.157207   2.601454   3.988364   4.797494   4.658808
    28  F    4.949097   6.289757   7.434148   7.579976   8.590037
    29  F    4.982723   6.347267   7.241924   7.120770   8.512282
    30  F    4.983012   6.354986   7.212862   7.034546   8.508485
                    6          7          8          9         10
     6  C    0.000000
     7  C    1.521491   0.000000
     8  C    2.518516   1.525439   0.000000
     9  C    5.379719   6.741185   7.890206   0.000000
    10  C    6.765292   8.125828   9.273531   1.386983   0.000000
    11  C    7.638019   8.887456  10.150890   2.432542   1.394864
    12  C    7.305396   8.395881   9.767936   2.785059   2.390019
    13  C    6.049972   7.067385   8.471832   2.413884   2.759697
    14  H    3.876375   4.673160   6.139304   3.325242   4.443515
    15  H    2.109345   2.599046   4.069788   4.783156   6.103618
    16  H    1.096445   2.166052   2.754113   5.477896   6.834970
    17  H    1.091076   2.161772   2.777211   5.355499   6.711027
    18  H    2.143708   1.093998   2.163938   6.898693   8.259789
    19  H    2.153361   1.096592   2.155478   6.989613   8.355954
    20  H    2.778478   2.171475   1.092476   7.933899   9.295843
    21  H    3.472693   2.173489   1.090909   8.838521  10.225013
    22  H    2.781913   2.173932   1.092584   8.004105   9.372081
    23  H    4.878883   6.333682   7.335025   1.078604   2.140702
    24  Cl   7.664126   9.124900  10.095275   2.675317   1.737774
    25  C    9.117978  10.385411  11.633235   3.816382   2.534543
    26  H    8.185989   9.184778  10.603298   3.867473   3.373572
    27  H    6.105461   6.922384   8.396366   3.399226   3.844757
    28  F    9.865704  11.030031  12.360667   4.780987   3.656403
    29  F    9.610041  10.934311  12.122782   4.314621   3.009810
    30  F    9.608022  10.907574  12.098003   4.314085   3.009576
                   11         12         13         14         15
    11  C    0.000000
    12  C    1.391933   0.000000
    13  C    2.413583   1.382143   0.000000
    14  H    4.689051   3.870982   2.491595   0.000000
    15  H    6.643171   5.993148   4.637413   2.215127   0.000000
    16  H    7.788837   7.564624   6.371996   4.368142   2.637621
    17  H    7.678131   7.473091   6.291533   4.315212   2.941075
    18  H    8.933366   8.358103   7.017251   4.604474   2.785005
    19  H    9.017900   8.422723   7.069961   4.629230   2.432798
    20  H   10.244943   9.957585   8.707664   6.480816   4.599398
    21  H   11.038966  10.568663   9.238729   6.826439   4.717732
    22  H   10.309113  10.002359   8.741045   6.490454   4.388299
    23  H    3.403421   3.863537   3.398760   3.716891   4.708062
    24  Cl   2.727829   4.005038   4.497015   5.987517   7.384889
    25  C    1.502992   2.506954   3.785077   6.161502   8.140851
    26  H    2.141814   1.082420   2.136380   4.546333   6.718081
    27  H    3.391321   2.136856   1.085087   2.257729   4.422846
    28  F    2.350175   2.683986   4.065591   6.554747   8.658380
    29  F    2.363715   3.434529   4.612630   6.877450   8.707107
    30  F    2.363841   3.434699   4.612772   6.872323   8.823542
                   16         17         18         19         20
    16  H    0.000000
    17  H    1.757059   0.000000
    18  H    3.061097   2.492422   0.000000
    19  H    2.523066   3.063723   1.758808   0.000000
    20  H    3.102207   2.590645   2.522964   3.070667   0.000000
    21  H    3.761902   3.777342   2.508946   2.497745   1.763682
    22  H    2.566865   3.142273   3.077573   2.515793   1.764270
    23  H    4.877922   4.738239   6.582944   6.686127   7.299498
    24  Cl   7.598653   7.460027   9.344085   9.457486  10.000672
    25  C    9.237852   9.123566  10.427054  10.517025  11.702498
    26  H    8.482547   8.399742   9.090759   9.146512  10.833207
    27  H    6.517609   6.459328   6.787501   6.817097   8.717058
    28  F   10.050725   9.947749  11.002782  11.081064  12.492086
    29  F    9.581337   9.657573  11.097275  11.023427  12.223846
    30  F    9.782098   9.466030  10.890370  11.158724  12.050867
                   21         22         23         24         25
    21  H    0.000000
    22  H    1.763760   0.000000
    23  H    8.339052   7.384176   0.000000
    24  Cl  11.114568  10.097668   2.791514   0.000000
    25  C   12.532493  11.772885   4.674550   3.085536   0.000000
    26  H   11.351993  10.870433   4.945953   4.868446   2.697127
    27  H    9.062998   8.731274   4.301311   5.582097   4.643387
    28  F   13.199475  12.551107   5.745230   4.422242   1.343064
    29  F   13.056907  12.146455   5.032987   3.075048   1.340114
    30  F   13.018594  12.284699   5.028409   3.074272   1.339938
                   26         27         28         29         30
    26  H    0.000000
    27  H    2.453160   0.000000
    28  F    2.307722   4.677618   0.000000
    29  F    3.655330   5.495589   2.152892   0.000000
    30  F    3.655276   5.496317   2.152895   2.155830   0.000000
 Stoichiometry    C11H12ClF3N2O
 Framework group  C1[X(C11H12ClF3N2O)]
 Deg. of freedom    84
 Full point group                 C1      NOp   1
 Largest Abelian subgroup         C1      NOp   1
 Largest concise Abelian subgroup C1      NOp   1
                         Standard orientation:                         
 ---------------------------------------------------------------------
 Center     Atomic      Atomic             Coordinates (Angstroms)
 Number     Number       Type             X           Y           Z
 ---------------------------------------------------------------------
      1          6           0       -0.185521   -0.754717   -0.021846
      2          7           0       -1.563890   -0.975466   -0.054157
      3          6           0       -2.577026   -0.024032    0.037749
      4          8           0       -2.378781    1.158839    0.203439
      5          7           0       -3.834366   -0.567486   -0.047666
      6          6           0       -4.986164    0.325417   -0.082303
      7          6           0       -6.278045   -0.468081    0.045525
      8          6           0       -7.499780    0.444964    0.019528
      9          6           0        0.389864    0.519649   -0.037883
     10          6           0        1.771592    0.639727   -0.026485
     11          6           0        2.609305   -0.475190    0.002566
     12          6           0        2.021391   -1.736751    0.019844
     13          6           0        0.646750   -1.880085    0.008172
     14          1           0       -1.844033   -1.943174    0.000076
     15          1           0       -3.940591   -1.453311   -0.520756
     16          1           0       -4.987322    0.918963   -1.004200
     17          1           0       -4.883482    1.027647    0.746417
     18          1           0       -6.252700   -1.042261    0.976389
     19          1           0       -6.346333   -1.194246   -0.773337
     20          1           0       -7.468788    1.164146    0.841307
     21          1           0       -8.423633   -0.127590    0.113117
     22          1           0       -7.551000    1.009870   -0.914280
     23          1           0       -0.228016    1.403637   -0.051191
     24         17           0        2.433221    2.246466   -0.048785
     25          6           0        4.106596   -0.345088    0.015975
     26          1           0        2.652003   -2.616193    0.043173
     27          1           0        0.212579   -2.874446    0.020648
     28          9           0        4.698774   -1.550216    0.044506
     29          9           0        4.572989    0.287903   -1.069246
     30          9           0        4.550551    0.328103    1.086092
 ---------------------------------------------------------------------
 Rotational constants (GHZ):      1.1254728      0.1254812      0.1154813
 Standard basis: 6-311+G(d) (5D, 7F)
 There are   458 symmetry adapted cartesian basis functions of A   symmetry.
 There are   440 symmetry adapted basis functions of A   symmetry.
   440 basis functions,   725 primitive gaussians,   458 cartesian basis functions
    72 alpha electrons       72 beta electrons
       nuclear repulsion energy      1432.9305447897 Hartrees.
 NAtoms=   30 NActive=   30 NUniq=   30 SFac= 1.00D+00 NAtFMM=   60 NAOKFM=F Big=F
 Integral buffers will be    131072 words long.
 Raffenetti 2 integral format.
 Two-electron integral symmetry is turned on.
 Nuclear repulsion after empirical dispersion term =     1432.9292606785 Hartrees.
 One-electron integrals computed using PRISM.
 NBasis=   440 RedAO= T EigKep=  1.98D-06  NBF=   440
 NBsUse=   438 1.00D-06 EigRej=  8.44D-07 NBFU=   438
 ExpMin= 4.38D-02 ExpMax= 1.06D+05 ExpMxC= 3.62D+03 IAcc=3 IRadAn=         5 AccDes= 0.00D+00
 Harris functional with IExCor= 1009 and IRadAn=       5 diagonalized for initial guess.
 HarFok:  IExCor= 1009 AccDes= 0.00D+00 IRadAn=         5 IDoV= 1 UseB2=F ITyADJ=14
 ICtDFT=  3500011 ScaDFX=  1.000000  1.000000  1.000000  1.000000
 FoFCou: FMM=F IPFlag=           0 FMFlag=      100000 FMFlg1=           0
         NFxFlg=           0 DoJE=T BraDBF=F KetDBF=T FulRan=T
         wScrn=  0.000000 ICntrl=     500 IOpCl=  0 I1Cent=   200000004 NGrid=           0
         NMat0=    1 NMatS0=      1 NMatT0=    0 NMatD0=    1 NMtDS0=    0 NMtDT0=    0
 Petite list used in FoFCou.
 Requested convergence on RMS density matrix=1.00D-08 within 128 cycles.
 Requested convergence on MAX density matrix=1.00D-06.
 Requested convergence on             energy=1.00D-06.
 No special actions if energy rises.
 SCF Done:  E(RM062X) =  -1370.79640323     A.U. after   16 cycles
            NFock= 16  Conv=0.34D-08     -V/T= 2.0028

 **********************************************************************

            Population analysis using the SCF density.

 **********************************************************************

 Orbital symmetries:
       Occupied  (A) (A) (A) (A) (A) (A) (A) (A) (A) (A) (A) (A)
                 (A) (A) (A) (A) (A) (A) (A) (A) (A) (A) (A) (A)
                 (A) (A) (A) (A) (A) (A) (A) (A) (A) (A) (A) (A)
                 (A) (A) (A) (A) (A) (A) (A) (A) (A) (A) (A) (A)
                 (A) (A) (A) (A) (A) (A) (A) (A) (A) (A) (A) (A)
                 (A) (A) (A) (A) (A) (A) (A) (A) (A) (A) (A) (A)
       Virtual   (A) (A) (A) (A) (A) (A) (A) (A) (A) (A) (A) (A)
                 (A) (A) (A) (A) (A) (A) (A) (A) (A) (A) (A) (A)
                 (A) (A) (A) (A) (A) (A) (A) (A) (A) (A) (A) (A)
                 (A) (A) (A) (A) (A) (A) (A) (A) (A) (A) (A) (A)
                 (A) (A) (A) (A) (A) (A) (A) (A) (A) (A) (A) (A)
                 (A) (A) (A) (A) (A) (A) (A) (A) (A) (A) (A) (A)
                 (A) (A) (A) (A) (A) (A) (A) (A) (A) (A) (A) (A)
                 (A) (A) (A) (A) (A) (A) (A) (A) (A) (A) (A) (A)
                 (A) (A) (A) (A) (A) (A) (A) (A) (A) (A) (A) (A)
                 (A) (A) (A) (A) (A) (A) (A) (A) (A) (A) (A) (A)
                 (A) (A) (A) (A) (A) (A) (A) (A) (A) (A) (A) (A)
                 (A) (A) (A) (A) (A) (A) (A) (A) (A) (A) (A) (A)
                 (A) (A) (A) (A) (A) (A) (A) (A) (A) (A) (A) (A)
                 (A) (A) (A) (A) (A) (A) (A) (A) (A) (A) (A) (A)
                 (A) (A) (A) (A) (A) (A) (A) (A) (A) (A) (A) (A)
                 (A) (A) (A) (A) (A) (A) (A) (A) (A) (A) (A) (A)
                 (A) (A) (A) (A) (A) (A) (A) (A) (A) (A) (A) (A)
                 (A) (A) (A) (A) (A) (A) (A) (A) (A) (A) (A) (A)
                 (A) (A) (A) (A) (A) (A) (A) (A) (A) (A) (A) (A)
                 (A) (A) (A) (A) (A) (A) (A) (A) (A) (A) (A) (A)
                 (A) (A) (A) (A) (A) (A) (A) (A) (A) (A) (A) (A)
                 (A) (A) (A) (A) (A) (A) (A) (A) (A) (A) (A) (A)
                 (A) (A) (A) (A) (A) (A) (A) (A) (A) (A) (A) (A)
                 (A) (A) (A) (A) (A) (A) (A) (A) (A) (A) (A) (A)
                 (A) (A) (A) (A) (A) (A) (A) (A) (A) (A) (A) (A)
                 (A) (A) (A) (A) (A) (A) (A) (A) (A) (A) (A) (A)
                 (A) (A) (A) (A) (A) (A) (A) (A) (A) (A) (A) (A)
                 (A) (A) (A) (A) (A) (A) (A) (A) (A) (A) (A) (A)
                 (A) (A) (A) (A) (A) (A) (A) (A) (A) (A) (A) (A)
                 (A) (A) (A) (A) (A) (A) (A) (A) (A) (A) (A) (A)
                 (A) (A) (A) (A) (A) (A)
 The electronic state is 1-A.
 Alpha  occ. eigenvalues -- -102.68124 -25.27644 -25.27026 -25.27019 -19.60746
 Alpha  occ. eigenvalues --  -14.80872 -14.78711 -10.80309 -10.69472 -10.62963
 Alpha  occ. eigenvalues --  -10.62509 -10.58472 -10.58220 -10.57774 -10.57000
 Alpha  occ. eigenvalues --  -10.56354 -10.55521 -10.54065  -9.82410  -7.54932
 Alpha  occ. eigenvalues --   -7.54241  -7.54218  -1.46768  -1.37395  -1.37004
 Alpha  occ. eigenvalues --   -1.20218  -1.08469  -1.05078  -1.01458  -0.95275
 Alpha  occ. eigenvalues --   -0.90832  -0.89068  -0.85552  -0.81971  -0.79008
 Alpha  occ. eigenvalues --   -0.74602  -0.72894  -0.70548  -0.69908  -0.69029
 Alpha  occ. eigenvalues --   -0.68553  -0.67108  -0.65084  -0.62459  -0.57920
 Alpha  occ. eigenvalues --   -0.57364  -0.57262  -0.56251  -0.55493  -0.54844
 Alpha  occ. eigenvalues --   -0.54216  -0.53036  -0.52893  -0.52558  -0.51222
 Alpha  occ. eigenvalues --   -0.50875  -0.50713  -0.49784  -0.48505  -0.47189
 Alpha  occ. eigenvalues --   -0.45784  -0.44396  -0.44246  -0.43173  -0.42213
 Alpha  occ. eigenvalues --   -0.41536  -0.38968  -0.38345  -0.36840  -0.34292
 Alpha  occ. eigenvalues --   -0.31958  -0.29639
 Alpha virt. eigenvalues --   -0.01580  -0.01100  -0.00436   0.00838   0.01682
 Alpha virt. eigenvalues --    0.02275   0.02645   0.03115   0.03717   0.04565
 Alpha virt. eigenvalues --    0.05054   0.05218   0.06011   0.06141   0.06442
 Alpha virt. eigenvalues --    0.06674   0.06906   0.07593   0.07999   0.08336
 Alpha virt. eigenvalues --    0.08512   0.09019   0.09602   0.10166   0.11005
 Alpha virt. eigenvalues --    0.11392   0.11652   0.11749   0.12305   0.12956
 Alpha virt. eigenvalues --    0.13359   0.14507   0.14563   0.14961   0.15447
 Alpha virt. eigenvalues --    0.16004   0.16522   0.17507   0.17584   0.17901
 Alpha virt. eigenvalues --    0.18530   0.18824   0.19190   0.19522   0.19886
 Alpha virt. eigenvalues --    0.20149   0.20407   0.21237   0.21339   0.21387
 Alpha virt. eigenvalues --    0.21973   0.22137   0.22668   0.23012   0.23423
 Alpha virt. eigenvalues --    0.23727   0.23821   0.24177   0.24621   0.25737
 Alpha virt. eigenvalues --    0.25951   0.26176   0.26445   0.26898   0.27360
 Alpha virt. eigenvalues --    0.27477   0.27911   0.28228   0.28826   0.29179
 Alpha virt. eigenvalues --    0.29837   0.30243   0.30529   0.30965   0.31306
 Alpha virt. eigenvalues --    0.31652   0.32560   0.32911   0.33319   0.34342
 Alpha virt. eigenvalues --    0.35025   0.35400   0.36249   0.36816   0.37120
 Alpha virt. eigenvalues --    0.37695   0.38211   0.38521   0.39554   0.40165
 Alpha virt. eigenvalues --    0.40607   0.41389   0.42544   0.43208   0.43751
 Alpha virt. eigenvalues --    0.43978   0.44842   0.45832   0.46600   0.47358
 Alpha virt. eigenvalues --    0.47976   0.48827   0.50023   0.50520   0.51200
 Alpha virt. eigenvalues --    0.51480   0.51672   0.52646   0.54628   0.55911
 Alpha virt. eigenvalues --    0.56892   0.57658   0.59040   0.60104   0.60570
 Alpha virt. eigenvalues --    0.61070   0.61744   0.62206   0.63007   0.63598
 Alpha virt. eigenvalues --    0.65306   0.65994   0.66882   0.66903   0.68238
 Alpha virt. eigenvalues --    0.68689   0.69830   0.69922   0.70294   0.71352
 Alpha virt. eigenvalues --    0.71707   0.72367   0.72585   0.72703   0.73266
 Alpha virt. eigenvalues --    0.74241   0.75321   0.75643   0.75978   0.76943
 Alpha virt. eigenvalues --    0.77673   0.79078   0.80360   0.81799   0.82910
 Alpha virt. eigenvalues --    0.84060   0.85570   0.86335   0.88838   0.89664
 Alpha virt. eigenvalues --    0.90534   0.92289   0.92661   0.94094   0.94208
 Alpha virt. eigenvalues --    0.94821   0.96093   0.96218   0.97095   0.97211
 Alpha virt. eigenvalues --    0.98578   1.01749   1.02041   1.04300   1.04534
 Alpha virt. eigenvalues --    1.05792   1.06334   1.06611   1.09255   1.10677
 Alpha virt. eigenvalues --    1.11014   1.13802   1.15105   1.17012   1.19628
 Alpha virt. eigenvalues --    1.21601   1.22848   1.23821   1.24601   1.25579
 Alpha virt. eigenvalues --    1.26455   1.28643   1.29835   1.34231   1.34720
 Alpha virt. eigenvalues --    1.36986   1.38955   1.39906   1.42775   1.43914
 Alpha virt. eigenvalues --    1.45254   1.46054   1.47256   1.47772   1.49879
 Alpha virt. eigenvalues --    1.50631   1.51431   1.53084   1.53894   1.54085
 Alpha virt. eigenvalues --    1.54560   1.57151   1.57775   1.58018   1.58921
 Alpha virt. eigenvalues --    1.59786   1.60505   1.61438   1.61958   1.62986
 Alpha virt. eigenvalues --    1.65701   1.67099   1.71054   1.74411   1.74661
 Alpha virt. eigenvalues --    1.75645   1.77344   1.77589   1.79293   1.80153
 Alpha virt. eigenvalues --    1.81942   1.83142   1.83446   1.84502   1.87268
 Alpha virt. eigenvalues --    1.88561   1.92250   1.92354   1.94238   1.95254
 Alpha virt. eigenvalues --    1.97216   1.97911   1.99921   2.04128   2.05493
 Alpha virt. eigenvalues --    2.08546   2.08893   2.09744   2.12085   2.14846
 Alpha virt. eigenvalues --    2.19108   2.21104   2.21932   2.26158   2.29806
 Alpha virt. eigenvalues --    2.31962   2.32448   2.34034   2.34922   2.37320
 Alpha virt. eigenvalues --    2.39848   2.40950   2.45193   2.47812   2.51516
 Alpha virt. eigenvalues --    2.53289   2.53937   2.54861   2.57172   2.57414
 Alpha virt. eigenvalues --    2.58786   2.61563   2.62181   2.63666   2.65605
 Alpha virt. eigenvalues --    2.69934   2.70685   2.75453   2.80961   2.81233
 Alpha virt. eigenvalues --    2.83468   2.83928   2.85461   2.89101   2.93410
 Alpha virt. eigenvalues --    2.94993   2.96274   2.99547   3.00747   3.02226
 Alpha virt. eigenvalues --    3.04745   3.05161   3.09896   3.10723   3.11911
 Alpha virt. eigenvalues --    3.16336   3.19791   3.23755   3.24087   3.27295
 Alpha virt. eigenvalues --    3.27904   3.29930   3.34966   3.39067   3.40056
 Alpha virt. eigenvalues --    3.41931   3.43508   3.44201   3.50066   3.55993
 Alpha virt. eigenvalues --    3.64075   3.65888   3.69326   3.76908   3.77453
 Alpha virt. eigenvalues --    3.80979   3.82021   3.84709   3.85150   3.87259
 Alpha virt. eigenvalues --    3.87859   3.89040   3.97179   3.97383   3.99979
 Alpha virt. eigenvalues --    4.00861   4.01860   4.01969   4.05035   4.05705
 Alpha virt. eigenvalues --    4.13113   4.23625   4.28260   4.32986   4.52530
 Alpha virt. eigenvalues --    4.57144   4.77007   4.81080   4.87412   4.99293
 Alpha virt. eigenvalues --    5.02276   5.17655   5.19006   5.41569   5.89428
 Alpha virt. eigenvalues --    6.45406   6.48974   6.50483   6.53224   6.56204
 Alpha virt. eigenvalues --    6.58281   6.64418   6.88490   6.91360  10.00492
 Alpha virt. eigenvalues --   23.43960  23.56986  23.66133  23.72192  23.79498
 Alpha virt. eigenvalues --   23.90530  23.92690  23.97032  24.08164  24.11584
 Alpha virt. eigenvalues --   24.19650  25.96378  26.32830  26.80607  35.57538
 Alpha virt. eigenvalues --   35.67412  50.13176  66.89415  66.91827  66.97761
 Alpha virt. eigenvalues --  216.11314
          Condensed to atoms (all electrons):
               1          2          3          4          5          6
     1  C   17.168808   0.070119  -0.995553  -0.189079  -0.321265  -0.676365
     2  N    0.070119   7.960294   0.350036  -0.076207  -0.704146  -0.435940
     3  C   -0.995553   0.350036   8.462857   0.567373   0.011395  -1.115571
     4  O   -0.189079  -0.076207   0.567373   8.066877  -0.172257  -0.114221
     5  N   -0.321265  -0.704146   0.011395  -0.172257   7.873533   0.675003
     6  C   -0.676365  -0.435940  -1.115571  -0.114221   0.675003   8.423263
     7  C    0.004807   0.031032   0.219777   0.017382  -0.160395  -0.886062
     8  C   -0.015246  -0.009502  -0.216715  -0.000896   0.005144   0.353480
     9  C   -0.776524  -0.164077   0.375844   0.282458   0.078183   0.039485
    10  C   -1.866912   0.123775   0.887593   0.017897   0.045432   0.043448
    11  C   -1.675451  -0.122184  -1.249276  -0.011018  -0.006859  -0.088435
    12  C    0.120593   0.082264  -0.155866   0.005348  -0.022206  -0.000955
    13  C   -2.239748  -0.035228  -1.386589  -0.052610  -0.187395  -0.204818
    14  H   -0.028569   0.220233  -0.032830  -0.003986   0.070499   0.024826
    15  H   -0.031298   0.094230   0.034497  -0.001691   0.225757  -0.085456
    16  H    0.005889   0.010170   0.083248  -0.004270  -0.108917   0.389307
    17  H    0.004481   0.011565   0.055227  -0.001064  -0.042153   0.332637
    18  H    0.004330  -0.000251   0.033972  -0.000134   0.001788  -0.090055
    19  H   -0.003970  -0.000808  -0.020874  -0.000261   0.003584  -0.053904
    20  H   -0.000318  -0.000085  -0.009912  -0.000089   0.000037  -0.046668
    21  H    0.000049  -0.000006   0.003315   0.000025  -0.001363   0.075456
    22  H    0.000238   0.000036   0.010711  -0.000037   0.000209  -0.043072
    23  H   -0.020939  -0.023860   0.064385   0.001908   0.003440   0.006145
    24  Cl  -0.156835  -0.001228   0.029445   0.000503   0.002811   0.003417
    25  C   -1.849216   0.003647  -0.148300   0.001075   0.008339  -0.001738
    26  H    0.047983  -0.002987   0.003500  -0.000018  -0.000077   0.000030
    27  H    0.046619  -0.022738  -0.012196   0.000032  -0.000072  -0.000607
    28  F    0.019224  -0.000162  -0.000789   0.000002   0.000001  -0.000006
    29  F    0.009596   0.000035  -0.000688  -0.000004   0.000001  -0.000001
    30  F    0.034261  -0.000037   0.000536   0.000000   0.000003   0.000006
               7          8          9         10         11         12
     1  C    0.004807  -0.015246  -0.776524  -1.866912  -1.675451   0.120593
     2  N    0.031032  -0.009502  -0.164077   0.123775  -0.122184   0.082264
     3  C    0.219777  -0.216715   0.375844   0.887593  -1.249276  -0.155866
     4  O    0.017382  -0.000896   0.282458   0.017897  -0.011018   0.005348
     5  N   -0.160395   0.005144   0.078183   0.045432  -0.006859  -0.022206
     6  C   -0.886062   0.353480   0.039485   0.043448  -0.088435  -0.000955
     7  C    6.312063  -0.169361  -0.005826  -0.004262   0.000848   0.001038
     8  C   -0.169361   6.037599  -0.003450  -0.000002  -0.000607   0.000040
     9  C   -0.005826  -0.003450  10.873066   3.799120  -4.066182  -1.098918
    10  C   -0.004262  -0.000002   3.799120  24.833663  -9.768340  -2.368506
    11  C    0.000848  -0.000607  -4.066182  -9.768340  31.216027  -4.303559
    12  C    0.001038   0.000040  -1.098918  -2.368506  -4.303559  13.740477
    13  C    0.015263  -0.001837  -2.850414  -6.326326   1.913854  -0.362000
    14  H   -0.004140   0.000104   0.072275   0.031647   0.010754  -0.001826
    15  H    0.013537   0.007035   0.007133   0.000029  -0.001230   0.000994
    16  H   -0.071454  -0.005752  -0.000417   0.000401   0.000078  -0.000029
    17  H    0.003549  -0.025127  -0.002355   0.000033   0.000110   0.000107
    18  H    0.443676  -0.051082   0.000237   0.000005   0.000032  -0.000024
    19  H    0.449697  -0.034752  -0.000053   0.000011  -0.000023   0.000028
    20  H    0.009466   0.392905  -0.000071  -0.000003  -0.000002   0.000001
    21  H   -0.118853   0.392971   0.000023   0.000000   0.000000  -0.000000
    22  H    0.014155   0.364467   0.000081   0.000003   0.000001  -0.000001
    23  H   -0.000455   0.000052   0.363891  -0.046128   0.025477  -0.027824
    24  Cl  -0.000174   0.000027   0.578245  -1.197297  -0.544079   0.313555
    25  C   -0.000157  -0.000009  -1.237108  -2.674775  -4.440922   0.053410
    26  H   -0.000000  -0.000000  -0.008828  -0.018556   0.156478   0.247347
    27  H    0.000026   0.000002  -0.013689  -0.000149   0.034870   0.008995
    28  F    0.000000  -0.000000  -0.007239  -0.065287  -0.209601   0.060716
    29  F   -0.000000  -0.000000   0.002085  -0.102914   0.132152  -0.011308
    30  F    0.000000   0.000000   0.039588  -0.063961   0.115086  -0.016713
              13         14         15         16         17         18
     1  C   -2.239748  -0.028569  -0.031298   0.005889   0.004481   0.004330
     2  N   -0.035228   0.220233   0.094230   0.010170   0.011565  -0.000251
     3  C   -1.386589  -0.032830   0.034497   0.083248   0.055227   0.033972
     4  O   -0.052610  -0.003986  -0.001691  -0.004270  -0.001064  -0.000134
     5  N   -0.187395   0.070499   0.225757  -0.108917  -0.042153   0.001788
     6  C   -0.204818   0.024826  -0.085456   0.389307   0.332637  -0.090055
     7  C    0.015263  -0.004140   0.013537  -0.071454   0.003549   0.443676
     8  C   -0.001837   0.000104   0.007035  -0.005752  -0.025127  -0.051082
     9  C   -2.850414   0.072275   0.007133  -0.000417  -0.002355   0.000237
    10  C   -6.326326   0.031647   0.000029   0.000401   0.000033   0.000005
    11  C    1.913854   0.010754  -0.001230   0.000078   0.000110   0.000032
    12  C   -0.362000  -0.001826   0.000994  -0.000029   0.000107  -0.000024
    13  C   16.710753  -0.098556   0.003451   0.000655   0.001674  -0.000108
    14  H   -0.098556   0.385359   0.000701   0.000324  -0.000011  -0.000005
    15  H    0.003451   0.000701   0.403029   0.001571   0.002878  -0.000676
    16  H    0.000655   0.000324   0.001571   0.474256  -0.037305   0.006296
    17  H    0.001674  -0.000011   0.002878  -0.037305   0.423516  -0.007822
    18  H   -0.000108  -0.000005  -0.000676   0.006296  -0.007822   0.448309
    19  H    0.000105   0.000083   0.003758  -0.009487   0.005313  -0.045430
    20  H    0.000015   0.000001  -0.000025  -0.000957   0.003679  -0.008684
    21  H   -0.000006  -0.000000  -0.000027  -0.000098  -0.000220  -0.003325
    22  H   -0.000009  -0.000000   0.000052   0.003337  -0.000209   0.006027
    23  H   -0.029512   0.000200  -0.000039   0.000023  -0.000029   0.000000
    24  Cl   0.248235   0.000114   0.000010  -0.000006  -0.000000   0.000000
    25  C    0.726079   0.002470  -0.000105  -0.000004  -0.000004   0.000001
    26  H   -0.094944   0.000015   0.000000   0.000000  -0.000000  -0.000000
    27  H    0.252739   0.009375   0.000029   0.000000  -0.000000   0.000000
    28  F    0.133003  -0.000000  -0.000000  -0.000000   0.000000   0.000000
    29  F   -0.001441   0.000002  -0.000000  -0.000000   0.000000  -0.000000
    30  F   -0.017737   0.000001   0.000000   0.000000  -0.000000   0.000000
              19         20         21         22         23         24
     1  C   -0.003970  -0.000318   0.000049   0.000238  -0.020939  -0.156835
     2  N   -0.000808  -0.000085  -0.000006   0.000036  -0.023860  -0.001228
     3  C   -0.020874  -0.009912   0.003315   0.010711   0.064385   0.029445
     4  O   -0.000261  -0.000089   0.000025  -0.000037   0.001908   0.000503
     5  N    0.003584   0.000037  -0.001363   0.000209   0.003440   0.002811
     6  C   -0.053904  -0.046668   0.075456  -0.043072   0.006145   0.003417
     7  C    0.449697   0.009466  -0.118853   0.014155  -0.000455  -0.000174
     8  C   -0.034752   0.392905   0.392971   0.364467   0.000052   0.000027
     9  C   -0.000053  -0.000071   0.000023   0.000081   0.363891   0.578245
    10  C    0.000011  -0.000003   0.000000   0.000003  -0.046128  -1.197297
    11  C   -0.000023  -0.000002   0.000000   0.000001   0.025477  -0.544079
    12  C    0.000028   0.000001  -0.000000  -0.000001  -0.027824   0.313555
    13  C    0.000105   0.000015  -0.000006  -0.000009  -0.029512   0.248235
    14  H    0.000083   0.000001  -0.000000  -0.000000   0.000200   0.000114
    15  H    0.003758  -0.000025  -0.000027   0.000052  -0.000039   0.000010
    16  H   -0.009487  -0.000957  -0.000098   0.003337   0.000023  -0.000006
    17  H    0.005313   0.003679  -0.000220  -0.000209  -0.000029  -0.000000
    18  H   -0.045430  -0.008684  -0.003325   0.006027   0.000000   0.000000
    19  H    0.479931   0.006745  -0.003463  -0.008607  -0.000000   0.000000
    20  H    0.006745   0.451538  -0.024133  -0.035826  -0.000000  -0.000000
    21  H   -0.003463  -0.024133   0.435631  -0.025735   0.000000   0.000000
    22  H   -0.008607  -0.035826  -0.025735   0.453615   0.000000  -0.000000
    23  H   -0.000000  -0.000000   0.000000   0.000000   0.346945  -0.010108
    24  Cl   0.000000  -0.000000   0.000000  -0.000000  -0.010108  17.511043
    25  C   -0.000000  -0.000000   0.000000   0.000000   0.014059  -0.231999
    26  H    0.000000   0.000000  -0.000000  -0.000000   0.000053  -0.000009
    27  H   -0.000000  -0.000000   0.000000   0.000000  -0.000031   0.000214
    28  F   -0.000000  -0.000000   0.000000   0.000000   0.000017   0.011225
    29  F    0.000000   0.000000  -0.000000  -0.000000  -0.000018  -0.011649
    30  F   -0.000000  -0.000000   0.000000   0.000000  -0.000030  -0.011172
              25         26         27         28         29         30
     1  C   -1.849216   0.047983   0.046619   0.019224   0.009596   0.034261
     2  N    0.003647  -0.002987  -0.022738  -0.000162   0.000035  -0.000037
     3  C   -0.148300   0.003500  -0.012196  -0.000789  -0.000688   0.000536
     4  O    0.001075  -0.000018   0.000032   0.000002  -0.000004   0.000000
     5  N    0.008339  -0.000077  -0.000072   0.000001   0.000001   0.000003
     6  C   -0.001738   0.000030  -0.000607  -0.000006  -0.000001   0.000006
     7  C   -0.000157  -0.000000   0.000026   0.000000  -0.000000   0.000000
     8  C   -0.000009  -0.000000   0.000002  -0.000000  -0.000000   0.000000
     9  C   -1.237108  -0.008828  -0.013689  -0.007239   0.002085   0.039588
    10  C   -2.674775  -0.018556  -0.000149  -0.065287  -0.102914  -0.063961
    11  C   -4.440922   0.156478   0.034870  -0.209601   0.132152   0.115086
    12  C    0.053410   0.247347   0.008995   0.060716  -0.011308  -0.016713
    13  C    0.726079  -0.094944   0.252739   0.133003  -0.001441  -0.017737
    14  H    0.002470   0.000015   0.009375  -0.000000   0.000002   0.000001
    15  H   -0.000105   0.000000   0.000029  -0.000000  -0.000000   0.000000
    16  H   -0.000004   0.000000   0.000000  -0.000000  -0.000000   0.000000
    17  H   -0.000004  -0.000000  -0.000000   0.000000   0.000000  -0.000000
    18  H    0.000001  -0.000000   0.000000   0.000000  -0.000000   0.000000
    19  H   -0.000000   0.000000  -0.000000  -0.000000   0.000000  -0.000000
    20  H   -0.000000   0.000000  -0.000000  -0.000000   0.000000  -0.000000
    21  H    0.000000  -0.000000   0.000000   0.000000  -0.000000   0.000000
    22  H    0.000000  -0.000000   0.000000   0.000000  -0.000000   0.000000
    23  H    0.014059   0.000053  -0.000031   0.000017  -0.000018  -0.000030
    24  Cl  -0.231999  -0.000009   0.000214   0.011225  -0.011649  -0.011172
    25  C   14.731863  -0.015774   0.025100   0.198807   0.126464   0.062025
    26  H   -0.015774   0.397522  -0.004245   0.009841   0.000163   0.000155
    27  H    0.025100  -0.004245   0.443481   0.000110   0.000041   0.000043
    28  F    0.198807   0.009841   0.000110   9.061504  -0.035860  -0.037316
    29  F    0.126464   0.000163   0.000041  -0.035860   8.987513  -0.050432
    30  F    0.062025   0.000155   0.000043  -0.037316  -0.050432   8.987930
 Mulliken charges:
               1
     1  C   -0.689712
     2  N   -0.357990
     3  C    0.151448
     4  O   -0.333039
     5  N   -0.278056
     6  C   -0.522631
     7  C   -0.115177
     8  C   -1.019488
     9  C   -0.276561
    10  C    0.720362
    11  C   -1.117998
    12  C   -0.265178
    13  C   -0.116548
    14  H    0.340939
    15  H    0.321855
    16  H    0.263140
    17  H    0.271530
    18  H    0.262922
    19  H    0.232379
    20  H    0.262386
    21  H    0.269760
    22  H    0.260565
    23  H    0.332374
    24  Cl   0.465713
    25  C    0.646771
    26  H    0.282352
    27  H    0.232050
    28  F   -0.138191
    29  F   -0.043738
    30  F   -0.042236
 Sum of Mulliken charges =  -0.00000
 Mulliken charges with hydrogens summed into heavy atoms:
               1
     1  C   -0.689712
     2  N   -0.017052
     3  C    0.151448
     4  O   -0.333039
     5  N    0.043798
     6  C    0.012038
     7  C    0.380123
     8  C   -0.226777
     9  C    0.055813
    10  C    0.720362
    11  C   -1.117998
    12  C    0.017174
    13  C    0.115502
    24  Cl   0.465713
    25  C    0.646771
    28  F   -0.138191
    29  F   -0.043738
    30  F   -0.042236
 Electronic spatial extent (au):  <R**2>=           8693.3575
 Charge=             -0.0000 electrons
 Dipole moment (field-independent basis, Debye):
    X=             -6.5463    Y=             -4.8418    Z=             -0.8389  Tot=              8.1854
 Quadrupole moment (field-independent basis, Debye-Ang):
   XX=           -107.3145   YY=           -105.7067   ZZ=           -115.0713
   XY=              6.2872   XZ=              3.0939   YZ=              0.5121
 Traceless Quadrupole moment (field-independent basis, Debye-Ang):
   XX=              2.0497   YY=              3.6575   ZZ=             -5.7071
   XY=              6.2872   XZ=              3.0939   YZ=              0.5121
 Octapole moment (field-independent basis, Debye-Ang**2):
  XXX=           -132.6746  YYY=            -19.8008  ZZZ=              0.5534  XYY=             20.9432
  XXY=            -21.0313  XXZ=             -9.8239  XZZ=             15.5116  YZZ=              4.1433
  YYZ=             -1.9402  XYZ=             -4.0619
 Hexadecapole moment (field-independent basis, Debye-Ang**3):
 XXXX=          -9374.1822 YYYY=           -973.8907 ZZZZ=           -210.8069 XXXY=             71.6121
 XXXZ=             30.3073 YYYX=             34.2575 YYYZ=              2.5516 ZZZX=              2.1558
 ZZZY=              0.6137 XXYY=          -1778.8780 XXZZ=          -1675.2137 YYZZ=           -217.7647
 XXYZ=             18.6054 YYXZ=              8.6766 ZZXY=             -8.7909
 N-N= 1.432929260678D+03 E-N=-6.096503195633D+03  KE= 1.366903900660D+03
 Calling FoFJK, ICntrl=      2127 FMM=F ISym2X=0 I1Cent= 0 IOpClX= 0 NMat=1 NMatS=1 NMatT=0.
 ***** Axes restored to original set *****
 -------------------------------------------------------------------
 Center     Atomic                   Forces (Hartrees/Bohr)
 Number     Number              X              Y              Z
 -------------------------------------------------------------------
      1        6          -0.000007739   -0.000005357    0.000010248
      2        7          -0.000006076   -0.000006709   -0.000010338
      3        6           0.000013560    0.000017647   -0.000000595
      4        8          -0.000008524   -0.000007964   -0.000002776
      5        7           0.000005700    0.000001903    0.000008013
      6        6          -0.000008164   -0.000001672   -0.000002004
      7        6           0.000002423   -0.000007185   -0.000000986
      8        6          -0.000000581   -0.000000146    0.000002389
      9        6           0.000003862   -0.000007537   -0.000001046
     10        6           0.000006137    0.000017632   -0.000004692
     11        6          -0.000000144   -0.000007299    0.000000415
     12        6          -0.000005259    0.000006942    0.000000870
     13        6           0.000007722    0.000002606   -0.000000363
     14        1          -0.000000319   -0.000001609    0.000004177
     15        1          -0.000004410   -0.000000751    0.000000596
     16        1           0.000000158   -0.000000765   -0.000001706
     17        1           0.000001645   -0.000001636   -0.000001828
     18        1          -0.000000569   -0.000002892    0.000002160
     19        1          -0.000001430    0.000001746    0.000001368
     20        1          -0.000000266   -0.000002479   -0.000001057
     21        1          -0.000000688   -0.000002823   -0.000001497
     22        1           0.000000282   -0.000003047   -0.000000929
     23        1           0.000001542    0.000003418   -0.000001656
     24       17           0.000001788   -0.000003677   -0.000001958
     25        6          -0.000007999   -0.000004627   -0.000000519
     26        1           0.000000241    0.000000775    0.000002193
     27        1          -0.000001741    0.000000677    0.000002939
     28        9           0.000007884    0.000009943    0.000001133
     29        9           0.000000505    0.000003547    0.000002416
     30        9           0.000000459    0.000001339   -0.000004971
 -------------------------------------------------------------------
 Cartesian Forces:  Max     0.000017647 RMS     0.000005110

 GradGradGradGradGradGradGradGradGradGradGradGradGradGradGradGradGradGrad
 Berny optimization.
 FormGI is forming the generalized inverse of G from B-inverse, IUseBI=4.
 GSVD:  received Info=                   1 from GESDD.
 Internal  Forces:  Max     0.000017035 RMS     0.000003396
 Search for a local minimum.
 Step number   1 out of a maximum of  157
 All quantities printed in internal units (Hartrees-Bohrs-Radians)
 Mixed Optimization -- En-DIIS/RFO-DIIS
 Second derivative matrix not updated -- first step.
 ITU=  0
     Eigenvalues ---    0.00429   0.00482   0.00726   0.00927   0.01581
     Eigenvalues ---    0.01741   0.01786   0.01815   0.01854   0.01922
     Eigenvalues ---    0.02000   0.02057   0.02121   0.02173   0.02189
     Eigenvalues ---    0.02207   0.02212   0.02241   0.02268   0.03714
     Eigenvalues ---    0.04427   0.04927   0.05503   0.05523   0.05552
     Eigenvalues ---    0.08189   0.09236   0.10592   0.10861   0.12083
     Eigenvalues ---    0.12674   0.14688   0.15899   0.15999   0.16000
     Eigenvalues ---    0.16000   0.16000   0.16000   0.16000   0.21889
     Eigenvalues ---    0.21896   0.22039   0.22308   0.22370   0.23488
     Eigenvalues ---    0.24613   0.24994   0.24996   0.25000   0.25000
     Eigenvalues ---    0.25000   0.25000   0.25000   0.25000   0.29849
     Eigenvalues ---    0.30223   0.31702   0.32065   0.34062   0.34078
     Eigenvalues ---    0.34355   0.34516   0.34528   0.34689   0.34708
     Eigenvalues ---    0.35387   0.35703   0.36163   0.37244   0.42343
     Eigenvalues ---    0.42877   0.45999   0.46033   0.46157   0.46238
     Eigenvalues ---    0.46402   0.46821   0.47190   0.48375   0.50514
     Eigenvalues ---    0.56524   0.57179   0.57219   0.99597
 RFO step:  Lambda=-1.13373477D-08 EMin= 4.29438567D-03
 Linear search not attempted -- first point.
 Iteration  1 RMS(Cart)=  0.00017243 RMS(Int)=  0.00000001
 Iteration  2 RMS(Cart)=  0.00000002 RMS(Int)=  0.00000000
 Variable       Old X    -DE/DX   Delta X   Delta X   Delta X     New X
                                 (Linear)    (Quad)   (Total)
    R1        2.63864  -0.00000   0.00000  -0.00001  -0.00001   2.63863
    R2        2.64247  -0.00000   0.00000  -0.00000  -0.00000   2.64246
    R3        2.64564  -0.00001   0.00000  -0.00001  -0.00001   2.64562
    R4        2.63216   0.00001   0.00000   0.00001   0.00001   2.63218
    R5        1.90654   0.00000   0.00000   0.00000   0.00000   1.90655
    R6        2.28801  -0.00001   0.00000  -0.00001  -0.00001   2.28800
    R7        2.59350  -0.00000   0.00000  -0.00000  -0.00000   2.59350
    R8        2.75480  -0.00001   0.00000  -0.00001  -0.00001   2.75479
    R9        1.90833   0.00000   0.00000   0.00000   0.00000   1.90833
   R10        2.87520   0.00000   0.00000   0.00001   0.00001   2.87521
   R11        2.07198  -0.00000   0.00000  -0.00000  -0.00000   2.07198
   R12        2.06184   0.00000   0.00000   0.00000   0.00000   2.06184
   R13        2.88266   0.00000   0.00000   0.00000   0.00000   2.88266
   R14        2.06736  -0.00000   0.00000  -0.00000  -0.00000   2.06735
   R15        2.07226  -0.00000   0.00000  -0.00000  -0.00000   2.07225
   R16        2.06448   0.00000   0.00000   0.00000   0.00000   2.06448
   R17        2.06152   0.00000   0.00000   0.00000   0.00000   2.06152
   R18        2.06469  -0.00000   0.00000  -0.00000  -0.00000   2.06468
   R19        2.62102  -0.00000   0.00000  -0.00000  -0.00000   2.62102
   R20        2.03827   0.00000   0.00000   0.00001   0.00001   2.03827
   R21        2.63591   0.00001   0.00000   0.00001   0.00001   2.63593
   R22        3.28392  -0.00001   0.00000  -0.00002  -0.00002   3.28390
   R23        2.63037  -0.00000   0.00000  -0.00000  -0.00000   2.63037
   R24        2.84024   0.00000   0.00000   0.00001   0.00001   2.84025
   R25        2.61187   0.00000   0.00000   0.00001   0.00001   2.61188
   R26        2.04548   0.00000   0.00000   0.00000   0.00000   2.04548
   R27        2.05052   0.00000   0.00000   0.00000   0.00000   2.05052
   R28        2.53802  -0.00001   0.00000  -0.00002  -0.00002   2.53800
   R29        2.53245   0.00000   0.00000   0.00001   0.00001   2.53245
   R30        2.53212   0.00000   0.00000   0.00001   0.00001   2.53212
    A1        2.15317  -0.00002   0.00000  -0.00006  -0.00006   2.15311
    A2        2.04908   0.00001   0.00000   0.00005   0.00005   2.04913
    A3        2.08082   0.00000   0.00000   0.00001   0.00001   2.08083
    A4        2.22497  -0.00002   0.00000  -0.00007  -0.00007   2.22490
    A5        2.00921   0.00001   0.00000   0.00005   0.00005   2.00926
    A6        2.03719   0.00001   0.00000   0.00004   0.00004   2.03723
    A7        2.16189  -0.00001   0.00000  -0.00003  -0.00003   2.16186
    A8        1.97337  -0.00000   0.00000  -0.00001  -0.00001   1.97336
    A9        2.14764   0.00001   0.00000   0.00004   0.00004   2.14769
   A10        2.07463   0.00000   0.00000   0.00002   0.00002   2.07466
   A11        2.06335  -0.00000   0.00000  -0.00002  -0.00002   2.06333
   A12        2.02979   0.00000   0.00000   0.00003   0.00003   2.02981
   A13        1.92776   0.00000   0.00000   0.00000   0.00000   1.92776
   A14        1.93091  -0.00000   0.00000  -0.00001  -0.00001   1.93091
   A15        1.87739   0.00000   0.00000   0.00002   0.00002   1.87741
   A16        1.93057   0.00000   0.00000  -0.00000  -0.00000   1.93057
   A17        1.93024  -0.00000   0.00000  -0.00001  -0.00001   1.93023
   A18        1.86535   0.00000   0.00000  -0.00000  -0.00000   1.86535
   A19        1.94599  -0.00000   0.00000  -0.00001  -0.00001   1.94598
   A20        1.90238   0.00000   0.00000  -0.00000  -0.00000   1.90238
   A21        1.91293  -0.00000   0.00000  -0.00001  -0.00001   1.91292
   A22        1.92538   0.00000   0.00000   0.00001   0.00001   1.92539
   A23        1.91108   0.00000   0.00000   0.00000   0.00000   1.91108
   A24        1.86426   0.00000   0.00000   0.00001   0.00001   1.86427
   A25        1.93744   0.00000   0.00000   0.00000   0.00000   1.93744
   A26        1.94191  -0.00000   0.00000  -0.00001  -0.00001   1.94191
   A27        1.94076  -0.00000   0.00000   0.00000   0.00000   1.94076
   A28        1.88073  -0.00000   0.00000  -0.00001  -0.00001   1.88073
   A29        1.87955   0.00000   0.00000   0.00001   0.00001   1.87955
   A30        1.88072   0.00000   0.00000   0.00000   0.00000   1.88072
   A31        2.08143   0.00000   0.00000   0.00001   0.00001   2.08143
   A32        2.10753   0.00000   0.00000   0.00001   0.00001   2.10754
   A33        2.09420  -0.00000   0.00000  -0.00002  -0.00002   2.09418
   A34        2.12853  -0.00001   0.00000  -0.00002  -0.00002   2.12851
   A35        2.04793   0.00000   0.00000   0.00001   0.00001   2.04794
   A36        2.10673   0.00000   0.00000   0.00001   0.00001   2.10674
   A37        2.06126   0.00000   0.00000   0.00001   0.00001   2.06126
   A38        2.12856   0.00000   0.00000  -0.00000  -0.00000   2.12856
   A39        2.09337  -0.00000   0.00000  -0.00001  -0.00001   2.09336
   A40        2.11060   0.00000   0.00000   0.00000   0.00000   2.11060
   A41        2.08355   0.00000   0.00000   0.00001   0.00001   2.08355
   A42        2.08904  -0.00000   0.00000  -0.00001  -0.00001   2.08903
   A43        2.10374  -0.00000   0.00000  -0.00001  -0.00001   2.10372
   A44        2.09324   0.00000   0.00000   0.00001   0.00001   2.09325
   A45        2.08621   0.00000   0.00000   0.00000   0.00000   2.08621
   A46        1.94095  -0.00000   0.00000  -0.00001  -0.00001   1.94094
   A47        1.96099  -0.00000   0.00000   0.00000   0.00000   1.96099
   A48        1.96133  -0.00000   0.00000  -0.00000  -0.00000   1.96133
   A49        1.86250   0.00000   0.00000  -0.00000  -0.00000   1.86250
   A50        1.86268   0.00000   0.00000  -0.00000  -0.00000   1.86268
   A51        1.86932   0.00000   0.00000   0.00002   0.00002   1.86934
    D1       -0.13008   0.00000   0.00000   0.00006   0.00006  -0.13002
    D2       -3.10028  -0.00000   0.00000  -0.00011  -0.00011  -3.10040
    D3        3.02834  -0.00000   0.00000  -0.00001  -0.00001   3.02833
    D4        0.05814  -0.00000   0.00000  -0.00018  -0.00018   0.05795
    D5       -3.12217  -0.00000   0.00000  -0.00006  -0.00006  -3.12223
    D6        0.02774  -0.00000   0.00000  -0.00006  -0.00006   0.02767
    D7        0.00231   0.00000   0.00000   0.00001   0.00001   0.00232
    D8       -3.13097   0.00000   0.00000   0.00001   0.00001  -3.13097
    D9        3.12380   0.00000   0.00000   0.00005   0.00005   3.12384
   D10       -0.01588   0.00000   0.00000   0.00005   0.00005  -0.01583
   D11       -0.00170  -0.00000   0.00000  -0.00002  -0.00002  -0.00172
   D12       -3.14137  -0.00000   0.00000  -0.00002  -0.00002  -3.14138
   D13       -0.04107  -0.00000   0.00000  -0.00021  -0.00021  -0.04128
   D14        3.12551  -0.00000   0.00000  -0.00024  -0.00024   3.12527
   D15        2.92676  -0.00000   0.00000  -0.00004  -0.00004   2.92672
   D16       -0.18984  -0.00000   0.00000  -0.00007  -0.00007  -0.18991
   D17       -3.05022  -0.00000   0.00000  -0.00002  -0.00002  -3.05023
   D18       -0.42416   0.00000   0.00000   0.00005   0.00005  -0.42411
   D19        0.11613  -0.00000   0.00000  -0.00004  -0.00004   0.11608
   D20        2.74219   0.00000   0.00000   0.00002   0.00002   2.74221
   D21       -2.98486   0.00000   0.00000   0.00004   0.00004  -2.98482
   D22        1.15479   0.00000   0.00000   0.00005   0.00005   1.15484
   D23       -0.87672  -0.00000   0.00000   0.00004   0.00004  -0.87668
   D24        0.66258   0.00000   0.00000  -0.00001  -0.00001   0.66257
   D25       -1.48095   0.00000   0.00000  -0.00000  -0.00000  -1.48096
   D26        2.77072  -0.00000   0.00000  -0.00001  -0.00001   2.77071
   D27        3.13628   0.00000   0.00000   0.00006   0.00006   3.13634
   D28        1.00659   0.00000   0.00000   0.00005   0.00005   1.00664
   D29       -1.02804   0.00000   0.00000   0.00005   0.00005  -1.02799
   D30       -1.00317   0.00000   0.00000   0.00005   0.00005  -1.00312
   D31       -3.13287   0.00000   0.00000   0.00005   0.00005  -3.13282
   D32        1.11570   0.00000   0.00000   0.00004   0.00004   1.11574
   D33        1.05997  -0.00000   0.00000   0.00004   0.00004   1.06002
   D34       -1.06972  -0.00000   0.00000   0.00004   0.00004  -1.06968
   D35       -3.10434  -0.00000   0.00000   0.00003   0.00003  -3.10431
   D36       -1.04549   0.00000   0.00000   0.00019   0.00019  -1.04530
   D37       -3.13990   0.00000   0.00000   0.00020   0.00020  -3.13970
   D38        1.04665   0.00000   0.00000   0.00020   0.00020   1.04685
   D39        1.07087   0.00000   0.00000   0.00019   0.00019   1.07106
   D40       -1.02354   0.00000   0.00000   0.00020   0.00020  -1.02334
   D41       -3.12017   0.00000   0.00000   0.00020   0.00020  -3.11997
   D42        3.11775   0.00000   0.00000   0.00020   0.00020   3.11796
   D43        1.02334   0.00000   0.00000   0.00021   0.00021   1.02355
   D44       -1.07329   0.00000   0.00000   0.00021   0.00021  -1.07308
   D45       -0.00167   0.00000   0.00000   0.00001   0.00001  -0.00166
   D46        3.14065  -0.00000   0.00000  -0.00005  -0.00005   3.14060
   D47        3.13167   0.00000   0.00000   0.00001   0.00001   3.13169
   D48       -0.00919  -0.00000   0.00000  -0.00005  -0.00005  -0.00924
   D49        0.00036  -0.00000   0.00000  -0.00002  -0.00002   0.00033
   D50       -3.14076  -0.00000   0.00000  -0.00002  -0.00002  -3.14078
   D51        3.14120   0.00000   0.00000   0.00004   0.00004   3.14124
   D52        0.00008   0.00000   0.00000   0.00004   0.00004   0.00012
   D53        0.00030   0.00000   0.00000   0.00002   0.00002   0.00032
   D54       -3.14083   0.00000   0.00000   0.00001   0.00001  -3.14082
   D55        3.14143   0.00000   0.00000   0.00001   0.00001   3.14144
   D56        0.00030   0.00000   0.00000   0.00001   0.00001   0.00031
   D57        3.14125  -0.00000   0.00000  -0.00001  -0.00001   3.14124
   D58       -1.05544  -0.00000   0.00000  -0.00002  -0.00002  -1.05546
   D59        1.05430   0.00000   0.00000   0.00001   0.00001   1.05430
   D60        0.00014  -0.00000   0.00000  -0.00000  -0.00000   0.00014
   D61        2.08663  -0.00000   0.00000  -0.00001  -0.00001   2.08662
   D62       -2.08682   0.00000   0.00000   0.00001   0.00001  -2.08681
   D63        0.00038   0.00000   0.00000   0.00001   0.00001   0.00039
   D64        3.14006  -0.00000   0.00000   0.00000   0.00000   3.14006
   D65        3.14151   0.00000   0.00000   0.00001   0.00001   3.14152
   D66       -0.00200   0.00000   0.00000   0.00001   0.00001  -0.00199
         Item               Value     Threshold  Converged?
 Maximum Force            0.000017     0.000450     YES
 RMS     Force            0.000003     0.000300     YES
 Maximum Displacement     0.000719     0.001800     YES
 RMS     Displacement     0.000172     0.001200     YES
 Predicted change in Energy=-5.668665D-09
 Optimization completed.
    -- Stationary point found.
                           ----------------------------
                           !   Optimized Parameters   !
                           ! (Angstroms and Degrees)  !
 --------------------------                            --------------------------
 ! Name  Definition              Value          Derivative Info.                !
 --------------------------------------------------------------------------------
 ! R1    R(1,2)                  1.3963         -DE/DX =    0.0                 !
 ! R2    R(1,9)                  1.3983         -DE/DX =    0.0                 !
 ! R3    R(1,13)                 1.4            -DE/DX =    0.0                 !
 ! R4    R(2,3)                  1.3929         -DE/DX =    0.0                 !
 ! R5    R(2,14)                 1.0089         -DE/DX =    0.0                 !
 ! R6    R(3,4)                  1.2108         -DE/DX =    0.0                 !
 ! R7    R(3,5)                  1.3724         -DE/DX =    0.0                 !
 ! R8    R(5,6)                  1.4578         -DE/DX =    0.0                 !
 ! R9    R(5,15)                 1.0098         -DE/DX =    0.0                 !
 ! R10   R(6,7)                  1.5215         -DE/DX =    0.0                 !
 ! R11   R(6,16)                 1.0964         -DE/DX =    0.0                 !
 ! R12   R(6,17)                 1.0911         -DE/DX =    0.0                 !
 ! R13   R(7,8)                  1.5254         -DE/DX =    0.0                 !
 ! R14   R(7,18)                 1.094          -DE/DX =    0.0                 !
 ! R15   R(7,19)                 1.0966         -DE/DX =    0.0                 !
 ! R16   R(8,20)                 1.0925         -DE/DX =    0.0                 !
 ! R17   R(8,21)                 1.0909         -DE/DX =    0.0                 !
 ! R18   R(8,22)                 1.0926         -DE/DX =    0.0                 !
 ! R19   R(9,10)                 1.387          -DE/DX =    0.0                 !
 ! R20   R(9,23)                 1.0786         -DE/DX =    0.0                 !
 ! R21   R(10,11)                1.3949         -DE/DX =    0.0                 !
 ! R22   R(10,24)                1.7378         -DE/DX =    0.0                 !
 ! R23   R(11,12)                1.3919         -DE/DX =    0.0                 !
 ! R24   R(11,25)                1.503          -DE/DX =    0.0                 !
 ! R25   R(12,13)                1.3821         -DE/DX =    0.0                 !
 ! R26   R(12,26)                1.0824         -DE/DX =    0.0                 !
 ! R27   R(13,27)                1.0851         -DE/DX =    0.0                 !
 ! R28   R(25,28)                1.3431         -DE/DX =    0.0                 !
 ! R29   R(25,29)                1.3401         -DE/DX =    0.0                 !
 ! R30   R(25,30)                1.3399         -DE/DX =    0.0                 !
 ! A1    A(2,1,9)              123.3675         -DE/DX =    0.0                 !
 ! A2    A(2,1,13)             117.4034         -DE/DX =    0.0                 !
 ! A3    A(9,1,13)             119.2222         -DE/DX =    0.0                 !
 ! A4    A(1,2,3)              127.4816         -DE/DX =    0.0                 !
 ! A5    A(1,2,14)             115.119          -DE/DX =    0.0                 !
 ! A6    A(3,2,14)             116.7221         -DE/DX =    0.0                 !
 ! A7    A(2,3,4)              123.8671         -DE/DX =    0.0                 !
 ! A8    A(2,3,5)              113.0657         -DE/DX =    0.0                 !
 ! A9    A(4,3,5)              123.0509         -DE/DX =    0.0                 !
 ! A10   A(3,5,6)              118.8677         -DE/DX =    0.0                 !
 ! A11   A(3,5,15)             118.2212         -DE/DX =    0.0                 !
 ! A12   A(6,5,15)             116.2984         -DE/DX =    0.0                 !
 ! A13   A(5,6,7)              110.4526         -DE/DX =    0.0                 !
 ! A14   A(5,6,16)             110.6333         -DE/DX =    0.0                 !
 ! A15   A(5,6,17)             107.5666         -DE/DX =    0.0                 !
 ! A16   A(7,6,16)             110.6137         -DE/DX =    0.0                 !
 ! A17   A(7,6,17)             110.5948         -DE/DX =    0.0                 !
 ! A18   A(16,6,17)            106.8769         -DE/DX =    0.0                 !
 ! A19   A(6,7,8)              111.4969         -DE/DX =    0.0                 !
 ! A20   A(6,7,18)             108.9981         -DE/DX =    0.0                 !
 ! A21   A(6,7,19)             109.6026         -DE/DX =    0.0                 !
 ! A22   A(8,7,18)             110.3161         -DE/DX =    0.0                 !
 ! A23   A(8,7,19)             109.497          -DE/DX =    0.0                 !
 ! A24   A(18,7,19)            106.8143         -DE/DX =    0.0                 !
 ! A25   A(7,8,20)             111.0072         -DE/DX =    0.0                 !
 ! A26   A(7,8,21)             111.2635         -DE/DX =    0.0                 !
 ! A27   A(7,8,22)             111.1974         -DE/DX =    0.0                 !
 ! A28   A(20,8,21)            107.758          -DE/DX =    0.0                 !
 ! A29   A(20,8,22)            107.69           -DE/DX =    0.0                 !
 ! A30   A(21,8,22)            107.7572         -DE/DX =    0.0                 !
 ! A31   A(1,9,10)             119.2569         -DE/DX =    0.0                 !
 ! A32   A(1,9,23)             120.7527         -DE/DX =    0.0                 !
 ! A33   A(10,9,23)            119.9887         -DE/DX =    0.0                 !
 ! A34   A(9,10,11)            121.9559         -DE/DX =    0.0                 !
 ! A35   A(9,10,24)            117.3376         -DE/DX =    0.0                 !
 ! A36   A(11,10,24)           120.7065         -DE/DX =    0.0                 !
 ! A37   A(10,11,12)           118.1013         -DE/DX =    0.0                 !
 ! A38   A(10,11,25)           121.9574         -DE/DX =    0.0                 !
 ! A39   A(12,11,25)           119.9413         -DE/DX =    0.0                 !
 ! A40   A(11,12,13)           120.9284         -DE/DX =    0.0                 !
 ! A41   A(11,12,26)           119.3784         -DE/DX =    0.0                 !
 ! A42   A(13,12,26)           119.6932         -DE/DX =    0.0                 !
 ! A43   A(1,13,12)            120.5353         -DE/DX =    0.0                 !
 ! A44   A(1,13,27)            119.9339         -DE/DX =    0.0                 !
 ! A45   A(12,13,27)           119.5308         -DE/DX =    0.0                 !
 ! A46   A(11,25,28)           111.2084         -DE/DX =    0.0                 !
 ! A47   A(11,25,29)           112.3564         -DE/DX =    0.0                 !
 ! A48   A(11,25,30)           112.376          -DE/DX =    0.0                 !
 ! A49   A(28,25,29)           106.7133         -DE/DX =    0.0                 !
[...]
 05231,0.00004896,0.00003123,0.00002052,-0.00000547,-0.00001702,-0.0000
 0009,0.00001280,-0.00000393,-0.00000234,-0.00001545,-0.00000074,0.0000
 1647,-0.00001299,0.00004804,-0.00000478,-0.00000066,0.00000058,0.00001
 269,0.00001504,-0.00089782,0.00062081,0.00004353,-0.02888616,0.2495498
 1,-0.00020934,-0.00001643,0.00578214,0.00005202,-0.00002976,-0.0000637
 7,-0.00005427,-0.00001700,0.00004398,0.00004993,-0.00000144,0.00006584
 ,0.00004159,-0.00001212,-0.00002493,-0.00001228,-0.00000632,0.00001072
 ,0.00000127,0.00000174,0.00000063,-0.00000019,-0.00000142,-0.00000016,
 0.00010763,-0.00011900,0.00461048,-0.00010673,-0.00358160,-0.02420098,
 0.00024223,-0.00150080,0.00391804,-0.00038937,-0.00007491,0.00407679,0
 .00008464,-0.00001663,-0.00093604,0.00000763,0.00000428,-0.00021277,-0
 .00000231,-0.00000411,-0.00001066,0.00000442,0.00000292,0.00000213,-0.
 00000209,0.00000011,0.00000100,-0.00000046,0.00000141,0.00000097,0.000
 00008,-0.00000095,-0.00000024,-0.00000004,0.,-0.00000005,0.00000113,0.
 00000001,-0.00000016,0.00000020,0.00000071,0.00000081,-0.00000528,0.00
 008525,-0.00302898,0.00027610,0.00538628,0.01324283,-0.01014262,0.0022
 7468,-0.00049704,0.01334981,-0.00141909,0.00063198,-0.00973059,-0.0036
 4788,-0.00014915,0.00220167,0.00215110,-0.00001688,0.00414752,-0.00151
 547,-0.00048593,-0.00129413,-0.00060463,0.00014169,0.00007923,0.000349
 91,0.00004515,0.00003289,-0.00021284,-0.00000566,0.00276532,-0.0050728
 9,-0.00016962,-0.02671562,-0.00721768,-0.00076354,-0.20073113,0.040702
 60,-0.00245425,-0.00472114,0.01944266,0.00034228,0.00900373,-0.0018067
 5,-0.00007711,0.00014434,0.00054630,-0.00000733,-0.00016233,0.00050265
 ,0.00017255,0.00031736,0.00014573,0.00008258,0.00006223,0.00006705,0.0
 0002410,-0.00003850,-0.00001070,-0.00000310,-0.00000370,-0.00003761,0.
 00000140,-0.00002396,0.00004983,-0.00000741,0.00016171,-0.00003989,-0.
 00000476,-0.00001758,0.00004808,0.00001753,-0.00001079,0.00010172,-0.0
 0000787,-0.00169719,0.00619819,0.00016067,0.61050288,0.00244279,-0.004
 18000,0.00007916,-0.00547981,0.00026562,-0.00018137,0.00392057,0.00210
 933,0.00000297,-0.00098047,-0.00126574,0.00006928,-0.00161185,0.000418
 18,0.00014976,0.00052464,0.00027898,-0.00003890,-0.00004581,-0.0001235
 2,-0.00002611,-0.00000735,0.00008330,0.00000356,-0.00740761,-0.0023116
 8,-0.00040426,-0.01589729,0.02784469,0.00026008,0.03134386,-0.10823615
 ,-0.00026010,0.03039186,-0.00440043,0.00068871,-0.00179273,-0.00784993
 ,-0.00037665,-0.00003536,-0.00017136,-0.00000196,0.00008114,-0.0001664
 9,-0.00003670,-0.00013479,-0.00005690,-0.00005051,-0.00003788,-0.00002
 229,0.00000215,0.00001819,0.00000147,-0.00001261,0.00000368,0.00000414
 ,0.00001689,0.00000305,-0.00002009,0.00001350,-0.00005594,0.00000820,0
 .00000069,0.00000090,-0.00001585,-0.00001580,-0.00123815,0.00090135,-0
 .00006584,0.00112332,-0.00755937,-0.00007724,-0.01980470,0.55019331,-0
 .00011113,-0.00003720,-0.00080523,0.00026053,0.00002116,-0.00094160,-0
 .00020812,-0.00020771,0.00003031,-0.00004422,0.00014850,-0.00025730,0.
 00004086,-0.00004672,-0.00000391,-0.00001081,-0.00000402,0.00010345,0.
 00000057,0.00000388,0.00001500,0.00000029,-0.00000490,0.00000540,-0.00
 032271,-0.00028463,0.00522713,-0.00093337,0.00054174,-0.00213308,-0.00
 275199,-0.00004321,-0.06562220,0.00061318,0.00040255,0.00071551,-0.000
 00395,-0.00042841,0.00642116,-0.00000194,-0.00002580,0.00024162,0.0000
 0148,0.00003838,0.00008823,-0.00000504,-0.00001297,-0.00002121,0.00000
 638,0.00001598,-0.00000824,0.00000245,-0.00001567,-0.00001280,-0.00000
 057,0.00001457,-0.00000812,0.00000419,0.00001133,-0.00000504,0.0000037
 8,-0.00000204,0.00000368,-0.00000523,-0.00000705,-0.00000977,-0.000014
 38,0.00002088,0.00104561,0.00004516,0.00006455,-0.00294412,0.00221663,
 0.00016010,0.51895728,-0.00340044,0.00276925,-0.00023117,-0.00112968,-
 0.00116521,0.00001632,0.00017550,0.00056321,-0.00007832,-0.00000344,-0
 .00018034,0.00001219,-0.00025015,-0.00005013,0.00002890,0.00003228,0.0
 0005673,-0.00000133,-0.00001252,-0.00002446,-0.00000279,-0.00000411,0.
 00001217,0.00000055,-0.00027362,0.00097645,0.00004834,0.00071338,0.001
 52376,-0.00008901,0.00840893,0.00312310,0.00018400,-0.22980990,-0.1444
 9505,-0.00877888,-0.01625022,-0.01915482,-0.00104504,-0.00001863,-0.00
 007004,-0.00000210,0.00000692,-0.00002266,-0.00000286,-0.00001076,-0.0
 0000545,-0.00000274,-0.00000229,-0.00000345,-0.00000073,0.00000092,0.0
 0000059,0.00000206,0.00000029,0.00000204,-0.00000230,0.00000088,-0.000
 00094,-0.00000023,-0.00000621,-0.00000041,0.00000001,0.00000094,-0.000
 00096,0.00000004,-0.00002907,-0.00005838,0.00001087,0.00026295,0.00080
 715,0.00001935,0.00031184,0.00113722,0.00010955,0.24429040,0.00317689,
 -0.00005462,-0.00008207,0.00035304,0.00062719,-0.00001469,0.00009172,-
 0.00020367,0.00003589,-0.00002793,0.00004327,0.00000230,0.00008570,0.0
 0004407,-0.00000817,-0.00000147,-0.00002503,-0.00000084,0.00000578,0.0
 0000825,0.00000084,0.00000178,-0.00000403,-0.00000011,0.00081681,-0.00
 039288,0.00003861,0.00217988,-0.00391884,-0.00020103,-0.02358952,-0.01
 423556,-0.00108921,-0.14280926,-0.17982274,-0.00733877,0.01022195,0.01
 168858,0.00048138,-0.00000904,0.00000740,-0.00000429,-0.00000265,0.000
 00693,-0.00000127,0.00000150,0.00000115,0.00000139,0.00000002,0.000000
 45,-0.00000064,-0.00000024,0.00000039,-0.00000102,-0.00000033,-0.00000
 032,0.00000124,-0.00000025,-0.00000012,-0.00000002,0.00000183,0.000000
 62,-0.00000001,-0.00000021,-0.00000002,0.00000001,-0.00004856,0.000031
 99,0.00000495,-0.00078408,-0.00151136,-0.00006464,-0.00367777,-0.00327
 080,-0.00011023,0.15197408,0.18712458,-0.00018709,-0.00008988,0.007335
 15,0.00001935,-0.00000164,0.00004387,-0.00002427,-0.00004343,-0.000149
 09,-0.00000660,0.00002427,0.00003262,0.00000070,-0.00001286,-0.0000317
 2,-0.00000178,0.00000488,0.00001166,-0.00000047,-0.00000256,0.00000591
 ,0.00000013,0.00000070,-0.00000010,0.00003181,0.00006023,-0.00103943,-
 0.00008325,-0.00022110,0.00589179,-0.00048167,-0.00035798,0.00430394,-
 0.00873738,-0.00742317,-0.03893814,-0.00030174,-0.00028155,0.00393505,
 -0.00000519,-0.00001118,0.00005005,0.00000214,-0.00000029,0.00001295,0
 .00000080,-0.00000268,-0.00000237,-0.00000034,0.00000153,-0.00000063,0
 .00000047,-0.00000115,-0.00000165,-0.00000007,0.00000204,-0.00000160,0
 .00000054,0.00000112,-0.00000044,-0.00000007,-0.00000018,0.00000064,-0
 .00000074,-0.00000106,-0.00000097,0.00000055,0.00000898,-0.00047232,-0
 .00001975,-0.00001981,0.00023656,0.00000075,0.00001329,-0.00275366,0.0
 0967079,0.00805652,0.02725328,0.00653473,-0.02313247,-0.00046924,0.002
 22450,-0.00160990,0.00002038,-0.00044572,-0.00053966,0.00008561,0.0000
 2085,0.00049713,-0.00003659,0.00015863,0.00005190,-0.00000943,-0.00007
 085,-0.00003850,0.00000840,0.00000938,0.00001666,0.00000331,0.00000011
 ,-0.00000892,-0.00000162,-0.00353612,-0.00283394,-0.00031167,-0.001713
 84,-0.00048837,-0.00005443,-0.00511183,0.00162468,-0.00026869,-0.00026
 660,0.03066684,0.00063552,-0.06563744,0.04124282,0.00010680,-0.0012052
 2,0.00027565,0.00003450,-0.00005252,0.00000881,-0.00003103,0.00002045,
 0.00000923,0.00000817,0.00001042,0.00000605,-0.00000146,-0.00000364,0.
 00000035,0.00000291,-0.00000237,0.00000043,-0.00000294,0.00000021,0.00
 000254,-0.00000090,0.00000748,-0.00000133,-0.00000025,0.00000036,0.000
 00244,0.00000144,0.00047742,-0.00107009,-0.00001206,0.00018562,0.00010
 897,0.00002416,0.00128566,0.00109320,0.00005281,0.00085167,-0.00028151
 ,0.00013979,0.06741501,0.00752026,-0.01595074,-0.00026278,0.00176182,0
 .00159560,0.00010118,-0.00074033,-0.00032770,0.00014054,0.00015538,0.0
 0073893,-0.00007419,-0.00002493,0.00006606,0.00001481,-0.00004924,-0.0
 0000161,-0.00001102,0.00000289,-0.00000154,0.00000085,-0.00000320,-0.0
 0000130,-0.00000009,-0.00384919,-0.00084382,-0.00024695,-0.00078953,0.
 00071090,0.00001224,0.00200436,0.00174600,-0.00005845,0.00008557,-0.00
 694770,-0.00021277,0.04093620,-0.33500040,-0.00622856,-0.00182181,0.00
 013944,-0.00001554,-0.00006099,-0.00000723,-0.00003007,0.00001286,0.00
 000437,0.00000849,0.00001001,0.00000339,-0.00000143,-0.00000418,0.0000
 0181,0.00000496,-0.00000265,0.00000311,-0.00000473,0.00000109,0.000001
 93,-0.00000212,0.00000317,-0.00000103,-0.00000013,0.00000128,0.0000015
 5,0.00000264,0.00064800,-0.00075048,-0.00002299,0.00007653,-0.00011024
 ,0.00001162,-0.00084234,-0.00008515,-0.00004175,0.00017410,0.00065794,
 0.00012573,-0.04588202,0.35461776,0.00014983,-0.00094248,0.00367351,0.
 00024429,0.00004013,-0.00335945,0.00008880,0.00002945,-0.00085706,0.00
 004551,0.00002910,0.00016264,-0.00002518,0.00001307,0.00004460,0.00000
 049,0.00002098,0.00008071,-0.00000516,-0.00000677,0.00001918,0.,0.0000
 0154,-0.00000337,-0.00027650,-0.00022999,0.00520708,-0.00012458,-0.000
 00684,-0.00070261,-0.00022616,-0.00000970,0.00665352,0.00002476,0.0005
 0140,0.00236508,-0.00001418,-0.00619069,-0.03335028,-0.00009083,-0.000
 11514,0.00095361,-0.00003051,-0.00002335,0.00004316,0.00000836,-0.0000
 0564,-0.00001076,-0.00000663,0.00001052,-0.00000391,0.00000338,-0.0000
 0484,-0.00000685,-0.00000053,0.00000616,-0.00000566,0.00000228,0.00000
 326,-0.00000106,-0.00000043,-0.00000032,0.00000113,-0.00000314,-0.0000
 0302,-0.00000251,-0.00001305,-0.00005750,-0.00005443,0.00002041,0.0000
 2969,-0.00053659,0.00001819,0.00000744,0.00058875,0.00014339,0.0001177
 3,-0.00439955,0.00010110,0.00678378,0.02335017,0.00218569,-0.00134397,
 0.00009983,-0.00300076,0.00041723,-0.00014316,0.00252258,0.00035474,0.
 00009273,-0.00083864,-0.00015765,0.00001098,-0.00120592,0.00053873,0.0
 0013526,0.00038315,0.00017733,-0.00004614,-0.00001939,-0.00010382,-0.0
 0001348,-0.00001082,0.00006316,0.00000230,-0.00226992,-0.00176110,-0.0
 0012427,-0.00468951,0.00896843,0.00005551,-0.03832348,-0.03935468,-0.0
 0223089,-0.00183232,-0.00233549,-0.00011467,-0.00109202,-0.00039935,-0
 .00002453,-0.00006258,-0.00012194,0.00000343,0.00003560,-0.00014111,-0
 .00005940,-0.00008485,-0.00004512,-0.00001986,-0.00001012,-0.00002148,
 -0.00001032,0.00001010,0.00000435,0.00000415,-0.00000011,0.00001387,-0
 .00000362,0.00000874,-0.00001514,0.00000003,-0.00005026,0.00001369,0.0
 0000166,0.00000652,-0.00001518,-0.00000330,-0.00039334,0.00046899,-0.0
 0002499,0.00051468,-0.00032722,-0.00000200,-0.19046807,-0.09167178,-0.
 00548911,-0.00398656,0.00170762,-0.00005506,-0.00018702,0.00019681,-0.
 00000485,0.22027423,0.00112925,-0.00034174,0.00004027,-0.00059250,0.00
 050932,-0.00006539,0.00046211,-0.00021501,0.00006916,-0.00014973,0.000
 15518,-0.00001112,-0.00021583,0.00019236,0.00004055,0.00005671,0.00000
 962,-0.00001734,0.00000260,-0.00002195,0.00000057,-0.00000404,0.000010
 06,-0.00000037,0.00002076,0.00015281,-0.00000882,0.00003976,0.00000715
 ,-0.00002877,-0.00655469,-0.00121841,-0.00038825,0.00346393,-0.0065836
 7,-0.00008411,-0.00029450,0.00220848,0.00004641,-0.00010764,-0.0000464
 5,0.00000536,-0.00000868,-0.00003995,-0.00002751,-0.00001248,-0.000007
 05,0.00000341,0.00000142,-0.00000355,-0.00000576,0.00000018,0.00000194
 ,0.00000624,-0.00000087,0.00000621,-0.00000700,0.00000346,-0.00000180,
 -0.00000365,-0.00001033,0.00000401,0.00000059,0.00000299,-0.00000304,0
 .00000292,-0.00004041,0.00010060,-0.00000531,-0.00024047,0.00133454,0.
 00002098,-0.10003514,-0.16550874,-0.00489075,0.00301080,0.00213799,0.0
 0014251,-0.00018994,0.00005027,-0.00000517,0.15643185,0.27680113,0.000
 07727,-0.00004541,0.00008739,-0.00010594,0.00002116,0.00004258,0.00009
 033,0.00003887,-0.00005644,-0.00001096,-0.00002252,0.00004723,-0.00003
 425,0.00002077,0.00001186,0.00000872,0.00000398,-0.00001571,0.00000044
 ,-0.00000223,-0.00000501,-0.00000045,0.00000230,-0.00000020,-0.0000424
 0,-0.00003552,-0.00045598,-0.00017970,0.00019178,0.00185339,-0.0013877
 5,-0.00127062,0.00826117,0.00003208,-0.00023443,0.00025375,-0.00003822
 ,0.00003810,0.00015338,-0.00000307,-0.00000526,-0.00001555,-0.00000023
 ,-0.00000889,-0.00001707,-0.00000082,0.00000127,0.00000322,-0.00000103
 ,-0.00000314,0.00000067,0.00000018,0.00000215,0.00000240,-0.00000062,-
 0.00000209,0.00000167,-0.00000056,-0.00000196,0.00000073,-0.00000176,0
 .00000055,-0.00000065,0.00000088,0.00000095,0.00000152,-0.00001222,0.0
 0001766,-0.00029295,0.00000533,0.00001914,0.00025435,-0.00572325,-0.00
 467758,-0.07344157,-0.00001462,0.00010896,-0.00040768,-0.00000954,0.00
 000672,-0.00000417,0.00765107,0.00900957,0.08220100,0.00287167,-0.0000
 8388,0.00048678,-0.00364740,0.00025324,-0.00009332,0.00265779,0.001031
 05,0.00011368,-0.00061136,-0.00062159,-0.00001026,-0.00113909,0.000397
 33,0.00009827,0.00035941,0.00017360,-0.00004014,-0.00002247,-0.0000949
 8,-0.00001149,-0.00000838,0.00005811,0.00000232,-0.00018817,0.00072564
 ,-0.00076524,0.00245134,0.00270523,-0.00038058,-0.00985746,0.02722983,
 0.03043681,-0.00324423,-0.00373004,0.00191662,-0.00237618,0.00081177,-
 0.00170014,0.00000139,-0.00013385,-0.00002331,0.00004548,-0.00013051,-
 0.00004055,-0.00008991,-0.00004078,-0.00002468,-0.00001505,-0.00001944
 ,-0.00000545,0.00001152,0.00000160,-0.00000138,0.00000079,0.00001104,0
 .00000031,0.00000647,-0.00001318,0.00000237,-0.00004423,0.00001075,0.0
 0000176,0.00000424,-0.00001393,-0.00000629,0.00003303,-0.00000428,-0.0
 0001573,-0.00266135,-0.00286016,0.00158212,-0.10183848,0.03803342,0.05
 089421,0.00005207,0.00027938,0.00075557,-0.00048891,0.00025184,-0.0002
 7270,0.01231724,-0.02645624,-0.02422135,0.09059934,-0.00211290,0.00051
 322,-0.00032614,0.00305559,-0.00011615,0.00002952,-0.00207678,-0.00114
 840,-0.00005536,0.00041804,0.00071206,-0.00000152,0.00083107,-0.000215
 49,-0.00005563,-0.00026300,-0.00013589,0.00001956,0.00002194,0.0000665
 0,0.00000741,0.00000452,-0.00004211,-0.00000283,0.00104822,-0.00010885
 ,0.00100085,-0.00071363,-0.00718478,-0.00076391,0.01490221,-0.00774839
 ,-0.02189016,0.00088598,0.00194889,-0.00068361,0.00175973,0.00057352,0
 .00124796,-0.00001530,0.00010538,-0.00000215,-0.00003899,0.00009059,0.
 00001632,0.00007196,0.00002970,0.00002428,0.00001591,0.00001169,0.0000
 0056,-0.00000937,0.00000087,0.00000576,-0.00000173,-0.00000609,-0.0000
 0387,-0.00000296,0.00000854,-0.00000434,0.00002926,-0.00000519,-0.0000
 0122,-0.00000079,0.00000945,0.00000783,0.00022850,-0.00011076,0.000059
 24,-0.00291430,0.00229951,0.00087702,0.03770031,-0.13387775,-0.0882826
 2,-0.00042391,0.00053878,-0.00069526,0.00022448,-0.00015363,0.00009245
 ,-0.01417471,-0.05274223,-0.04778909,-0.03397395,0.17762531,-0.0013998
 7,0.00037080,-0.00030779,0.00193309,-0.00003897,0.00013422,-0.00139883
 ,-0.00060486,-0.00009719,0.00033843,0.00037142,0.00007298,0.00060680,-
 0.00017455,-0.00001600,-0.00019292,-0.00010132,-0.00000384,0.00001536,
 0.00004933,-0.00000091,0.00000345,-0.00003090,-0.00000517,0.00083476,-
 0.00008130,0.00038757,-0.00132318,-0.00350767,0.00036439,0.00816501,-0
 .01434114,-0.00760845,0.00295335,0.00104482,-0.00078054,0.00086474,-0.
 00048961,0.00060634,-0.00003610,0.00006141,-0.00004422,-0.00002460,0.0
 0005649,-0.00000965,0.00005438,0.00002678,0.00002176,0.00000623,0.0000
 0698,0.00000333,-0.00000699,0.00000445,0.00000712,-0.00000100,-0.00001
 011,0.00000083,-0.00000366,0.00000358,-0.00000095,0.00002173,-0.000004
 07,-0.00000207,0.00000056,0.00000956,0.00000779,0.00008478,-0.00004684
 ,-0.00006944,0.00056763,0.00232267,0.00003509,0.05249954,-0.08577573,-
 0.19407383,-0.00024855,0.00037974,-0.00045375,0.00034289,-0.00016675,0
 .00008110,-0.01419810,-0.03942106,-0.01242995,-0.05714382,0.14602446,0
 .30170027,0.00282949,-0.00004964,-0.00019627,-0.00353995,0.00024063,-0
 .00022800,0.00258254,0.00101479,-0.00002446,-0.00060805,-0.00059944,0.
 00003796,-0.00110736,0.00038988,0.00015371,0.00034973,0.00016470,-0.00
 003873,-0.00002252,-0.00009313,-0.00001413,-0.00000829,0.00005717,0.00
 000084,-0.00021721,0.00070343,0.00075271,0.00233052,0.00246935,0.00054
 784,-0.00780490,0.02796649,-0.02905306,-0.00298553,-0.00356239,-0.0022
 1754,-0.00241449,0.00068702,0.00163737,-0.00000650,-0.00014392,0.00002
 330,0.00004905,-0.00013136,-0.00004485,-0.00008329,-0.00003886,-0.0000
 2253,-0.00001876,-0.00001795,-0.00000647,0.00001005,0.00000395,0.00000
 090,0.00000158,0.00000809,0.00000154,0.00000589,-0.00001443,0.00000301
 ,-0.00004337,0.00001066,0.00000086,0.00000469,-0.00001245,-0.00000465,
 0.00004284,-0.00000391,0.00000239,-0.00256660,-0.00257359,-0.00187079,
 -0.09677035,0.03608368,-0.04434951,0.00007864,0.00033485,-0.00071790,-
 0.00048043,0.00022823,0.00024365,0.01026715,-0.02971234,0.02392245,0.0
 1482090,-0.00447541,0.00668488,0.08530452,-0.00220016,0.00050948,0.000
 13446,0.00314579,-0.00010392,0.00021330,-0.00214352,-0.00119480,0.0000
 5566,0.00045775,0.00074014,-0.00005708,0.00085286,-0.00022605,-0.00011
 927,-0.00027029,-0.00013738,0.00002876,0.00002250,0.00006835,0.0000131
 4,0.00000467,-0.00004383,0.00000102,0.00115069,-0.00007914,-0.00091616
 ,-0.00082429,-0.00739459,0.00036270,0.01412814,-0.00964202,0.02255967,
 0.00098708,0.00196672,0.00087852,0.00186715,0.00062476,-0.00119536,-0.
 00001449,0.00011682,0.00000884,-0.00004792,0.00009936,0.00003059,0.000
 06795,0.00002738,0.00002179,0.00002208,0.00001248,0.00000083,-0.000008
 88,-0.00000343,0.00000245,-0.00000196,-0.00000140,-0.00000686,-0.00000
 205,0.00001189,-0.00000599,0.00003073,-0.00000571,0.00000008,-0.000002
 30,0.00000757,0.00000520,0.00022219,-0.00011731,-0.00004380,-0.0027801
 6,0.00245247,-0.00086795,0.03566457,-0.14298633,0.09300204,-0.00047442
 ,0.00052039,0.00072398,0.00024447,-0.00015649,-0.00008526,-0.01736706,
 -0.05694804,0.04461481,-0.00379701,0.01906169,-0.00593760,-0.02893411,
 0.19282096,0.00144730,-0.00033145,-0.00016470,-0.00198058,0.00001168,-
 0.00002227,0.00144492,0.00069664,-0.00008285,-0.00035158,-0.00042592,0
 .00010223,-0.00060454,0.00018697,0.00010395,0.00018874,0.00009355,-0.0
 0004241,-0.00001433,-0.00004793,-0.00001660,-0.00000396,0.00003227,-0.
 00000199,-0.00080855,0.00010465,0.00033966,0.00135741,0.00325453,0.000
 62914,-0.00748225,0.01574142,-0.00770519,-0.00300169,-0.00110770,-0.00
 105537,-0.00092053,0.00051800,0.00063175,0.00002903,-0.00006542,-0.000
 04552,0.00003442,-0.00007408,-0.00004082,-0.00004241,-0.00001751,-0.00
 000823,-0.00001587,-0.00001309,-0.00000160,0.00000512,0.00000710,0.000
 00253,0.00000078,-0.00000223,0.00000734,0.00000081,-0.00001143,0.00000
 467,-0.00002315,0.00000511,-0.00000109,0.00000326,-0.00000376,-0.00000
 041,-0.00006044,0.00004772,-0.00008306,-0.00086806,-0.00229097,-0.0003
 2289,-0.04598209,0.09053379,-0.19040145,0.00025430,-0.00031256,-0.0004
 6036,-0.00035793,0.00016677,0.00007402,0.01451077,0.03558185,-0.006033
 38,-0.00153440,0.01114450,-0.08751907,0.04477548,-0.15342249,0.2921139
 6\\0.00000774,0.00000535,-0.00001025,0.00000608,0.00000671,0.00001034,
 -0.00001356,-0.00001765,0.00000059,0.00000852,0.00000796,0.00000278,-0
 .00000571,-0.00000190,-0.00000801,0.00000816,0.00000167,0.00000200,-0.
 00000243,0.00000719,0.00000099,0.00000058,0.00000015,-0.00000239,-0.00
 000387,0.00000754,0.00000105,-0.00000613,-0.00001763,0.00000469,0.0000
 0014,0.00000729,-0.00000042,0.00000525,-0.00000693,-0.00000087,-0.0000
 0770,-0.00000260,0.00000036,0.00000032,0.00000161,-0.00000418,0.000004
 41,0.00000075,-0.00000060,-0.00000016,0.00000076,0.00000170,-0.0000016
 4,0.00000164,0.00000183,0.00000057,0.00000289,-0.00000216,0.00000143,-
 0.00000175,-0.00000137,0.00000027,0.00000248,0.00000106,0.00000069,0.0
 0000282,0.00000150,-0.00000028,0.00000305,0.00000093,-0.00000154,-0.00
 000342,0.00000166,-0.00000179,0.00000368,0.00000196,0.00000800,0.00000
 463,0.00000052,-0.00000024,-0.00000078,-0.00000219,0.00000174,-0.00000
 068,-0.00000294,-0.00000788,-0.00000994,-0.00000113,-0.00000051,-0.000
 00355,-0.00000242,-0.00000046,-0.00000134,0.00000497\\\@


 GROWING OLD ISN'T SO BAD -- WHEN YOU CONSIDER THE ALTERNATIVE.

                     -- MAURICE CHEVALIER
 Job cpu time:       0 days  4 hours 14 minutes 47.9 seconds.
 File lengths (MBytes):  RWF=    581 Int=      0 D2E=      0 Chk=     15 Scr=      1
 Normal termination of Gaussian 09 at Thu Nov 14 10:34:48 2019.
pbs_rusage has been removed.
Please contact help@nci.org.au if you require this functionality.
