 Entering Gaussian System, Link 0=/apps/gaussian/g16c01/g16/g16
 Initial command:
 /apps/gaussian/g16c01/g16/l1.exe "/jobfs/11080153.gadi-pbs/Gau-1082512.inp" -scrdir="/jobfs/11080153.gadi-pbs/"
 Entering Link 1 = /apps/gaussian/g16c01/g16/l1.exe PID=   1082513.
  
 Copyright (c) 1988-2019, Gaussian, Inc.  All Rights Reserved.
  
 This is part of the Gaussian(R) 16 program.  It is based on
 the Gaussian(R) 09 system (copyright 2009, Gaussian, Inc.),
 the Gaussian(R) 03 system (copyright 2003, Gaussian, Inc.),
 the Gaussian(R) 98 system (copyright 1998, Gaussian, Inc.),
 the Gaussian(R) 94 system (copyright 1995, Gaussian, Inc.),
 the Gaussian 92(TM) system (copyright 1992, Gaussian, Inc.),
 the Gaussian 90(TM) system (copyright 1990, Gaussian, Inc.),
 the Gaussian 88(TM) system (copyright 1988, Gaussian, Inc.),
 the Gaussian 86(TM) system (copyright 1986, Carnegie Mellon
 University), and the Gaussian 82(TM) system (copyright 1983,
 Carnegie Mellon University). Gaussian is a federally registered
 trademark of Gaussian, Inc.
  
 This software contains proprietary and confidential information,
 including trade secrets, belonging to Gaussian, Inc.
  
 This software is provided under written license and may be
 used, copied, transmitted, or stored only in accord with that
 written license.
  
 The following legend is applicable only to US Government
 contracts under FAR:
  
                    RESTRICTED RIGHTS LEGEND
  
 Use, reproduction and disclosure by the US Government is
 subject to restrictions as set forth in subparagraphs (a)
 and (c) of the Commercial Computer Software - Restricted
 Rights clause in FAR 52.227-19.
  
 Gaussian, Inc.
 340 Quinnipiac St., Bldg. 40, Wallingford CT 06492
  
  
 ---------------------------------------------------------------
 Warning -- This program may not be used in any manner that
 competes with the business of Gaussian, Inc. or will provide
 assistance to any competitor of Gaussian, Inc.  The licensee
 of this program is prohibited from giving any competitor of
 Gaussian, Inc. access to this program.  By using this program,
 the user acknowledges that Gaussian, Inc. is engaged in the
 business of creating and licensing software in the field of
 computational chemistry and represents and warrants to the
 licensee that it is not a competitor of Gaussian, Inc. and that
 it will not use this program in any manner prohibited above.
 ---------------------------------------------------------------
  

 Cite this work as:
 Gaussian 16, Revision C.01,
 M. J. Frisch, G. W. Trucks, H. B. Schlegel, G. E. Scuseria, 
 M. A. Robb, J. R. Cheeseman, G. Scalmani, V. Barone, 
 G. A. Petersson, H. Nakatsuji, X. Li, M. Caricato, A. V. Marenich, 
 J. Bloino, B. G. Janesko, R. Gomperts, B. Mennucci, H. P. Hratchian, 
 J. V. Ortiz, A. F. Izmaylov, J. L. Sonnenberg, D. Williams-Young, 
 F. Ding, F. Lipparini, F. Egidi, J. Goings, B. Peng, A. Petrone, 
 T. Henderson, D. Ranasinghe, V. G. Zakrzewski, J. Gao, N. Rega, 
 G. Zheng, W. Liang, M. Hada, M. Ehara, K. Toyota, R. Fukuda, 
 J. Hasegawa, M. Ishida, T. Nakajima, Y. Honda, O. Kitao, H. Nakai, 
 T. Vreven, K. Throssell, J. A. Montgomery, Jr., J. E. Peralta, 
 F. Ogliaro, M. J. Bearpark, J. J. Heyd, E. N. Brothers, K. N. Kudin, 
 V. N. Staroverov, T. A. Keith, R. Kobayashi, J. Normand, 
 K. Raghavachari, A. P. Rendell, J. C. Burant, S. S. Iyengar, 
 J. Tomasi, M. Cossi, J. M. Millam, M. Klene, C. Adamo, R. Cammi, 
 J. W. Ochterski, R. L. Martin, K. Morokuma, O. Farkas, 
 J. B. Foresman, and D. J. Fox, Gaussian, Inc., Wallingford CT, 2019.
 
 ******************************************
 Gaussian 16:  ES64L-G16RevC.01  3-Jul-2019
                 9-Sep-2020 
 ******************************************
 %NprocShared=6
 Will use up to    6 processors via shared memory.
 %Mem=192000MB
 %chk=CP19.DSDPBEP86_AUG-cc-PVTZ.chk
 ---------------------------------------------------------------------
 # DSDPBEP86/AUG-cc-PVTZ SCF=Tight INT(grid=ultrafine) MaxDisk=60000MB
 ---------------------------------------------------------------------
 1/38=1,172=1/1;
 2/12=2,17=6,18=5,40=1/2;
 3/5=16,6=1,7=10,11=9,25=1,30=1,74=-77,75=-5/1,2,3;
 4//1;
 5/5=2,32=2,38=5/2;
 8/10=1/1;
 9/16=-3/6;
 6/7=2,8=2,9=2,10=2/1;
 99/5=1,9=1/99;
 --------------------------
 CP19.DSDPBEP86_AUG-cc-PVTZ
 --------------------------
 Symbolic Z-matrix:
 Charge =  0 Multiplicity = 1
 C                    -6.33307   1.21722  -0.02977 
 N                    -5.05592   0.6543    0.01134 
 C                    -3.83398   1.31904  -0.06008 
 O                    -3.72447   2.51516  -0.21254 
 N                    -2.75619   0.47407   0.02905 
 C                    -1.41636   1.04579   0.08459 
 C                    -0.36604  -0.04766  -0.04235 
 C                     1.04665   0.52593   0.00539 
 C                    -6.56729   2.59553  -0.00255 
 C                    -7.87341   3.0617   -0.02404 
 C                    -8.96567   2.19561  -0.07415 
 C                    -8.71607   0.82653  -0.10235 
 C                    -7.4227    0.33965  -0.08093 
 H                    -5.02925  -0.35221  -0.0527 
 H                    -2.88301  -0.41449   0.49184 
 H                    -1.27543   1.61042   1.01386 
 H                    -1.32857   1.75942  -0.73607 
 H                    -0.52536  -0.58734  -0.98054 
 H                    -0.49305  -0.77563   0.76787 
 H                     1.208     1.23773  -0.80751 
 H                     1.79649  -0.26095  -0.08762 
 H                     1.22862   1.05005   0.94663 
 H                    -5.74597   3.29405   0.02707 
 Cl                   -8.107     4.78331   0.0129 
 C                    -10.38101   2.70077  -0.0985 
 H                    -9.54844   0.13573  -0.14203 
 H                    -7.25425  -0.73207  -0.10226 
 F                    -11.25859   1.68523  -0.14716 
 F                    -10.68424   3.42031   0.99064 
 F                    -10.62798   3.47515  -1.16376 
 
                          Input orientation:                          
 ---------------------------------------------------------------------
 Center     Atomic      Atomic             Coordinates (Angstroms)
 Number     Number       Type             X           Y           Z
 ---------------------------------------------------------------------
      1          6           0       -6.333069    1.217221   -0.029774
      2          7           0       -5.055921    0.654303    0.011338
      3          6           0       -3.833977    1.319036   -0.060082
      4          8           0       -3.724469    2.515156   -0.212544
      5          7           0       -2.756193    0.474065    0.029054
      6          6           0       -1.416358    1.045795    0.084592
      7          6           0       -0.366039   -0.047664   -0.042345
      8          6           0        1.046646    0.525927    0.005395
      9          6           0       -6.567291    2.595529   -0.002549
     10          6           0       -7.873408    3.061703   -0.024044
     11          6           0       -8.965665    2.195614   -0.074150
     12          6           0       -8.716069    0.826533   -0.102350
     13          6           0       -7.422698    0.339654   -0.080933
     14          1           0       -5.029254   -0.352209   -0.052704
     15          1           0       -2.883006   -0.414488    0.491843
     16          1           0       -1.275428    1.610416    1.013857
     17          1           0       -1.328565    1.759420   -0.736066
     18          1           0       -0.525364   -0.587337   -0.980535
     19          1           0       -0.493050   -0.775634    0.767866
     20          1           0        1.208001    1.237726   -0.807507
     21          1           0        1.796486   -0.260948   -0.087621
     22          1           0        1.228621    1.050046    0.946630
     23          1           0       -5.745967    3.294054    0.027065
     24         17           0       -8.106999    4.783309    0.012898
     25          6           0      -10.381014    2.700769   -0.098502
     26          1           0       -9.548445    0.135729   -0.142034
     27          1           0       -7.254247   -0.732066   -0.102263
     28          9           0      -11.258590    1.685232   -0.147159
     29          9           0      -10.684241    3.420309    0.990637
     30          9           0      -10.627978    3.475149   -1.163761
 ---------------------------------------------------------------------
                    Distance matrix (angstroms):
                    1          2          3          4          5
     1  C    0.000000
     2  N    1.396308   0.000000
     3  C    2.501349   1.392881   0.000000
     4  O    2.919390   2.299057   1.210760   0.000000
     5  N    3.653736   2.306848   1.372422   2.271999   0.000000
     6  C    4.921028   3.661291   2.437309   2.752215   1.457778
     7  C    6.099634   4.742429   3.727570   4.228010   2.447475
     8  C    7.412106   6.103920   4.945078   5.173787   3.803266
     9  C    1.398333   2.460242   3.017242   2.851700   4.361889
    10  C    2.403079   3.706084   4.399453   4.189026   5.734508
    11  C    2.808876   4.203457   5.206036   5.252752   6.444528
    12  C    2.415904   3.665962   4.907053   5.270642   5.971736
    13  C    1.400011   2.389383   3.720019   4.292672   4.669736
    14  H    2.040483   1.008900   2.054702   3.154330   2.419963
    15  H    3.851947   2.468756   2.052821   3.128424   1.009843
    16  H    5.179142   4.026329   2.790058   2.884514   2.110402
    17  H    5.083098   3.958923   2.632106   2.566236   2.067768
    18  H    6.155470   4.801190   3.927902   4.522117   2.668790
    19  H    6.222020   4.841162   4.029260   4.715143   2.688756
    20  H    7.581097   6.344100   5.097725   5.129822   4.122844
    21  H    8.263050   6.913968   5.848010   6.180882   4.613105
    22  H    7.626302   6.366070   5.168726   5.293707   4.129460
    23  H    2.158971   2.728497   2.750272   2.179576   4.109878
    24  Cl   3.983168   5.133982   5.501384   4.939829   6.870296
    25  C    4.311786   5.705848   6.691364   6.660109   7.944330
    26  H    3.394240   4.524954   5.836272   6.291688   6.802825
    27  H    2.157207   2.601454   3.988364   4.797494   4.658808
    28  F    4.949097   6.289757   7.434148   7.579976   8.590037
    29  F    4.982723   6.347267   7.241924   7.120770   8.512282
    30  F    4.983012   6.354986   7.212862   7.034546   8.508485
                    6          7          8          9         10
     6  C    0.000000
     7  C    1.521491   0.000000
     8  C    2.518516   1.525439   0.000000
     9  C    5.379719   6.741185   7.890206   0.000000
    10  C    6.765292   8.125828   9.273531   1.386983   0.000000
    11  C    7.638019   8.887456  10.150890   2.432542   1.394864
    12  C    7.305396   8.395881   9.767936   2.785059   2.390019
    13  C    6.049972   7.067385   8.471832   2.413884   2.759697
    14  H    3.876375   4.673160   6.139304   3.325242   4.443515
    15  H    2.109345   2.599046   4.069788   4.783156   6.103618
    16  H    1.096445   2.166052   2.754113   5.477896   6.834970
    17  H    1.091076   2.161772   2.777211   5.355499   6.711027
    18  H    2.143708   1.093998   2.163938   6.898693   8.259789
    19  H    2.153361   1.096592   2.155478   6.989613   8.355954
    20  H    2.778478   2.171475   1.092476   7.933899   9.295843
    21  H    3.472693   2.173489   1.090909   8.838521  10.225013
    22  H    2.781913   2.173932   1.092584   8.004105   9.372081
    23  H    4.878883   6.333682   7.335025   1.078604   2.140702
    24  Cl   7.664126   9.124900  10.095275   2.675317   1.737774
    25  C    9.117978  10.385411  11.633235   3.816382   2.534543
    26  H    8.185989   9.184778  10.603298   3.867473   3.373572
    27  H    6.105461   6.922384   8.396366   3.399226   3.844757
    28  F    9.865704  11.030031  12.360667   4.780987   3.656403
    29  F    9.610041  10.934311  12.122782   4.314621   3.009810
    30  F    9.608022  10.907574  12.098003   4.314085   3.009576
                   11         12         13         14         15
    11  C    0.000000
    12  C    1.391933   0.000000
    13  C    2.413583   1.382143   0.000000
    14  H    4.689051   3.870982   2.491595   0.000000
    15  H    6.643171   5.993148   4.637413   2.215127   0.000000
    16  H    7.788837   7.564624   6.371996   4.368142   2.637621
    17  H    7.678131   7.473091   6.291533   4.315212   2.941075
    18  H    8.933366   8.358103   7.017251   4.604474   2.785005
    19  H    9.017900   8.422723   7.069961   4.629230   2.432798
    20  H   10.244943   9.957585   8.707664   6.480816   4.599398
    21  H   11.038966  10.568663   9.238729   6.826439   4.717732
    22  H   10.309113  10.002359   8.741045   6.490454   4.388299
    23  H    3.403421   3.863537   3.398760   3.716891   4.708062
    24  Cl   2.727829   4.005038   4.497015   5.987517   7.384889
    25  C    1.502992   2.506954   3.785077   6.161502   8.140851
    26  H    2.141814   1.082420   2.136380   4.546333   6.718081
    27  H    3.391321   2.136856   1.085087   2.257729   4.422846
    28  F    2.350175   2.683986   4.065591   6.554747   8.658380
    29  F    2.363715   3.434529   4.612630   6.877450   8.707107
    30  F    2.363841   3.434699   4.612772   6.872323   8.823542
                   16         17         18         19         20
    16  H    0.000000
    17  H    1.757059   0.000000
    18  H    3.061097   2.492422   0.000000
    19  H    2.523066   3.063723   1.758808   0.000000
    20  H    3.102207   2.590645   2.522964   3.070667   0.000000
    21  H    3.761902   3.777342   2.508946   2.497745   1.763682
    22  H    2.566865   3.142273   3.077573   2.515793   1.764270
    23  H    4.877922   4.738239   6.582944   6.686127   7.299498
    24  Cl   7.598653   7.460027   9.344085   9.457486  10.000672
    25  C    9.237852   9.123566  10.427054  10.517025  11.702498
    26  H    8.482547   8.399742   9.090759   9.146512  10.833207
    27  H    6.517609   6.459328   6.787501   6.817097   8.717058
    28  F   10.050725   9.947749  11.002782  11.081064  12.492086
    29  F    9.581337   9.657573  11.097275  11.023427  12.223846
    30  F    9.782098   9.466030  10.890370  11.158724  12.050867
                   21         22         23         24         25
    21  H    0.000000
    22  H    1.763760   0.000000
    23  H    8.339052   7.384176   0.000000
    24  Cl  11.114568  10.097668   2.791514   0.000000
    25  C   12.532493  11.772885   4.674550   3.085536   0.000000
    26  H   11.351993  10.870433   4.945953   4.868446   2.697127
    27  H    9.062998   8.731274   4.301311   5.582097   4.643387
    28  F   13.199475  12.551107   5.745230   4.422242   1.343064
    29  F   13.056907  12.146455   5.032987   3.075048   1.340114
    30  F   13.018594  12.284699   5.028409   3.074272   1.339938
                   26         27         28         29         30
    26  H    0.000000
    27  H    2.453160   0.000000
    28  F    2.307722   4.677618   0.000000
    29  F    3.655330   5.495589   2.152892   0.000000
    30  F    3.655276   5.496317   2.152895   2.155830   0.000000
 Stoichiometry    C11H12ClF3N2O
 Framework group  C1[X(C11H12ClF3N2O)]
 Deg. of freedom    84
 Full point group                 C1      NOp   1
 Largest Abelian subgroup         C1      NOp   1
 Largest concise Abelian subgroup C1      NOp   1
                         Standard orientation:                         
 ---------------------------------------------------------------------
 Center     Atomic      Atomic             Coordinates (Angstroms)
 Number     Number       Type             X           Y           Z
 ---------------------------------------------------------------------
      1          6           0       -0.185521   -0.754717   -0.021846
      2          7           0       -1.563890   -0.975466   -0.054157
      3          6           0       -2.577026   -0.024032    0.037749
      4          8           0       -2.378781    1.158839    0.203439
      5          7           0       -3.834366   -0.567486   -0.047666
      6          6           0       -4.986164    0.325417   -0.082303
      7          6           0       -6.278045   -0.468081    0.045525
      8          6           0       -7.499780    0.444964    0.019528
      9          6           0        0.389864    0.519649   -0.037883
     10          6           0        1.771592    0.639727   -0.026485
     11          6           0        2.609305   -0.475190    0.002566
     12          6           0        2.021391   -1.736751    0.019844
     13          6           0        0.646750   -1.880085    0.008172
     14          1           0       -1.844033   -1.943174    0.000076
     15          1           0       -3.940591   -1.453311   -0.520756
     16          1           0       -4.987322    0.918963   -1.004200
     17          1           0       -4.883482    1.027647    0.746417
     18          1           0       -6.252700   -1.042261    0.976389
     19          1           0       -6.346333   -1.194246   -0.773337
     20          1           0       -7.468788    1.164146    0.841307
     21          1           0       -8.423633   -0.127590    0.113117
     22          1           0       -7.551000    1.009870   -0.914280
     23          1           0       -0.228016    1.403637   -0.051191
     24         17           0        2.433221    2.246466   -0.048785
     25          6           0        4.106596   -0.345088    0.015975
     26          1           0        2.652003   -2.616193    0.043173
     27          1           0        0.212579   -2.874446    0.020648
     28          9           0        4.698774   -1.550216    0.044506
     29          9           0        4.572989    0.287903   -1.069246
     30          9           0        4.550551    0.328103    1.086092
 ---------------------------------------------------------------------
 Rotational constants (GHZ):           1.1254728           0.1254812           0.1154813
 Standard basis: Aug-CC-pVTZ (5D, 7F)
 There are  1294 symmetry adapted cartesian basis functions of A   symmetry.
 There are  1108 symmetry adapted basis functions of A   symmetry.
  1108 basis functions,  1662 primitive gaussians,  1294 cartesian basis functions
    72 alpha electrons       72 beta electrons
       nuclear repulsion energy      1432.9305510989 Hartrees.
 NAtoms=   30 NActive=   30 NUniq=   30 SFac= 1.00D+00 NAtFMM=   60 NAOKFM=F Big=F
 Integral buffers will be    131072 words long.
 Regular integral format.
 Two-electron integral symmetry is turned on.
 Nuclear repulsion after empirical dispersion term =     1432.9076805632 Hartrees.
 One-electron integrals computed using PRISM.
 NBasis=  1108 RedAO= T EigKep=  1.53D-06  NBF=  1108
 NBsUse=  1104 1.00D-06 EigRej=  9.36D-07 NBFU=  1104
 ExpMin= 2.53D-02 ExpMax= 4.56D+05 ExpMxC= 1.44D+03 IAcc=3 IRadAn=         5 AccDes= 0.00D+00
 Harris functional with IExCor= 1004 and IRadAn=       5 diagonalized for initial guess.
 HarFok:  IExCor= 1004 AccDes= 0.00D+00 IRadAn=         5 IDoV= 1 UseB2=F ITyADJ=14
 ICtDFT=  3500011 ScaDFX=  1.000000  1.000000  1.000000  1.000000
 FoFCou: FMM=F IPFlag=           0 FMFlag=      100000 FMFlg1=           0
         NFxFlg=           0 DoJE=T BraDBF=F KetDBF=T FulRan=T
         wScrn=  0.000000 ICntrl=       500 IOpCl=  0 I1Cent=   200000004 NGrid=           0
         NMat0=    1 NMatS0=      1 NMatT0=    0 NMatD0=    1 NMtDS0=    0 NMtDT0=    0
 Petite list used in FoFCou.
 Requested convergence on RMS density matrix=1.00D-08 within 128 cycles.
 Requested convergence on MAX density matrix=1.00D-06.
 Requested convergence on             energy=1.00D-06.
 No special actions if energy rises.
 SCF Done:  E(RDSDPBEP86) =  -1367.76781877     A.U. after   14 cycles
            NFock= 14  Conv=0.26D-08     -V/T= 2.0025
 DoSCS=T DFT=T ScalE2(SS,OS)=  0.220000  0.520000
 ExpMin= 2.53D-02 ExpMax= 4.56D+05 ExpMxC= 1.44D+03 IAcc=3 IRadAn=         5 AccDes= 0.00D+00
 HarFok:  IExCor=  205 AccDes= 0.00D+00 IRadAn=         5 IDoV=-2 UseB2=F ITyADJ=14
 ICtDFT= 12500011 ScaDFX=  1.000000  1.000000  1.000000  1.000000
 GSVD:  LWork=        -660 too small for GESVD, short by        2750 words or        2750 for optimal perf.
 Range of M.O.s used for correlation:    23  1104
 NBasis=  1108 NAE=    72 NBE=    72 NFC=    22 NFV=     0
 NROrb=   1082 NOA=    50 NOB=    50 NVA=  1032 NVB=  1032

 **** Warning!!: The largest alpha MO coefficient is  0.11149027D+03

 DoSCS=T DFT=T ScalE2(SS,OS)=  0.220000  0.520000
 Fully direct method using O(OVN) memory.
 JobTyp=1 Pass  1:  I=   1 to  50 NPSUse=  6 ParTrn=T ParDer=T DoDerP=F.
 Spin components of T(2) and E(2):
     alpha-alpha T2 =       0.1750967385D+00 E2=     -0.1097713808D+00
     alpha-beta  T2 =       0.9076639179D+00 E2=     -0.1476357972D+01
     beta-beta   T2 =       0.1750967385D+00 E2=     -0.1097713808D+00
 E2(DSDPBEP86) =    -0.1695900734D+01 E(DSDPBEP86) =    -0.13694637195012D+04

 **********************************************************************

            Population analysis using the SCF Density.

 **********************************************************************

 Orbital symmetries:
       Occupied  (A) (A) (A) (A) (A) (A) (A) (A) (A) (A) (A) (A)
                 (A) (A) (A) (A) (A) (A) (A) (A) (A) (A) (A) (A)
                 (A) (A) (A) (A) (A) (A) (A) (A) (A) (A) (A) (A)
                 (A) (A) (A) (A) (A) (A) (A) (A) (A) (A) (A) (A)
                 (A) (A) (A) (A) (A) (A) (A) (A) (A) (A) (A) (A)
                 (A) (A) (A) (A) (A) (A) (A) (A) (A) (A) (A) (A)
       Virtual   (A) (A) (A) (A) (A) (A) (A) (A) (A) (A) (A) (A)
                 (A) (A) (A) (A) (A) (A) (A) (A) (A) (A) (A) (A)
                 (A) (A) (A) (A) (A) (A) (A) (A) (A) (A) (A) (A)
                 (A) (A) (A) (A) (A) (A) (A) (A) (A) (A) (A) (A)
                 (A) (A) (A) (A) (A) (A) (A) (A) (A) (A) (A) (A)
                 (A) (A) (A) (A) (A) (A) (A) (A) (A) (A) (A) (A)
                 (A) (A) (A) (A) (A) (A) (A) (A) (A) (A) (A) (A)
                 (A) (A) (A) (A) (A) (A) (A) (A) (A) (A) (A) (A)
                 (A) (A) (A) (A) (A) (A) (A) (A) (A) (A) (A) (A)
                 (A) (A) (A) (A) (A) (A) (A) (A) (A) (A) (A) (A)
                 (A) (A) (A) (A) (A) (A) (A) (A) (A) (A) (A) (A)
                 (A) (A) (A) (A) (A) (A) (A) (A) (A) (A) (A) (A)
                 (A) (A) (A) (A) (A) (A) (A) (A) (A) (A) (A) (A)
                 (A) (A) (A) (A) (A) (A) (A) (A) (A) (A) (A) (A)
                 (A) (A) (A) (A) (A) (A) (A) (A) (A) (A) (A) (A)
                 (A) (A) (A) (A) (A) (A) (A) (A) (A) (A) (A) (A)
                 (A) (A) (A) (A) (A) (A) (A) (A) (A) (A) (A) (A)
                 (A) (A) (A) (A) (A) (A) (A) (A) (A) (A) (A) (A)
                 (A) (A) (A) (A) (A) (A) (A) (A) (A) (A) (A) (A)
                 (A) (A) (A) (A) (A) (A) (A) (A) (A) (A) (A) (A)
                 (A) (A) (A) (A) (A) (A) (A) (A) (A) (A) (A) (A)
                 (A) (A) (A) (A) (A) (A) (A) (A) (A) (A) (A) (A)
                 (A) (A) (A) (A) (A) (A) (A) (A) (A) (A) (A) (A)
                 (A) (A) (A) (A) (A) (A) (A) (A) (A) (A) (A) (A)
                 (A) (A) (A) (A) (A) (A) (A) (A) (A) (A) (A) (A)
                 (A) (A) (A) (A) (A) (A) (A) (A) (A) (A) (A) (A)
                 (A) (A) (A) (A) (A) (A) (A) (A) (A) (A) (A) (A)
                 (A) (A) (A) (A) (A) (A) (A) (A) (A) (A) (A) (A)
                 (A) (A) (A) (A) (A) (A) (A) (A) (A) (A) (A) (A)
                 (A) (A) (A) (A) (A) (A) (A) (A) (A) (A) (A) (A)
                 (A) (A) (A) (A) (A) (A) (A) (A) (A) (A) (A) (A)
                 (A) (A) (A) (A) (A) (A) (A) (A) (A) (A) (A) (A)
                 (A) (A) (A) (A) (A) (A) (A) (A) (A) (A) (A) (A)
                 (A) (A) (A) (A) (A) (A) (A) (A) (A) (A) (A) (A)
                 (A) (A) (A) (A) (A) (A) (A) (A) (A) (A) (A) (A)
                 (A) (A) (A) (A) (A) (A) (A) (A) (A) (A) (A) (A)
                 (A) (A) (A) (A) (A) (A) (A) (A) (A) (A) (A) (A)
                 (A) (A) (A) (A) (A) (A) (A) (A) (A) (A) (A) (A)
                 (A) (A) (A) (A) (A) (A) (A) (A) (A) (A) (A) (A)
                 (A) (A) (A) (A) (A) (A) (A) (A) (A) (A) (A) (A)
                 (A) (A) (A) (A) (A) (A) (A) (A) (A) (A) (A) (A)
                 (A) (A) (A) (A) (A) (A) (A) (A) (A) (A) (A) (A)
                 (A) (A) (A) (A) (A) (A) (A) (A) (A) (A) (A) (A)
                 (A) (A) (A) (A) (A) (A) (A) (A) (A) (A) (A) (A)
                 (A) (A) (A) (A) (A) (A) (A) (A) (A) (A) (A) (A)
                 (A) (A) (A) (A) (A) (A) (A) (A) (A) (A) (A) (A)
                 (A) (A) (A) (A) (A) (A) (A) (A) (A) (A) (A) (A)
                 (A) (A) (A) (A) (A) (A) (A) (A) (A) (A) (A) (A)
                 (A) (A) (A) (A) (A) (A) (A) (A) (A) (A) (A) (A)
                 (A) (A) (A) (A) (A) (A) (A) (A) (A) (A) (A) (A)
                 (A) (A) (A) (A) (A) (A) (A) (A) (A) (A) (A) (A)
                 (A) (A) (A) (A) (A) (A) (A) (A) (A) (A) (A) (A)
                 (A) (A) (A) (A) (A) (A) (A) (A) (A) (A) (A) (A)
                 (A) (A) (A) (A) (A) (A) (A) (A) (A) (A) (A) (A)
                 (A) (A) (A) (A) (A) (A) (A) (A) (A) (A) (A) (A)
                 (A) (A) (A) (A) (A) (A) (A) (A) (A) (A) (A) (A)
                 (A) (A) (A) (A) (A) (A) (A) (A) (A) (A) (A) (A)
                 (A) (A) (A) (A) (A) (A) (A) (A) (A) (A) (A) (A)
                 (A) (A) (A) (A) (A) (A) (A) (A) (A) (A) (A) (A)
                 (A) (A) (A) (A) (A) (A) (A) (A) (A) (A) (A) (A)
                 (A) (A) (A) (A) (A) (A) (A) (A) (A) (A) (A) (A)
                 (A) (A) (A) (A) (A) (A) (A) (A) (A) (A) (A) (A)
                 (A) (A) (A) (A) (A) (A) (A) (A) (A) (A) (A) (A)
                 (A) (A) (A) (A) (A) (A) (A) (A) (A) (A) (A) (A)
                 (A) (A) (A) (A) (A) (A) (A) (A) (A) (A) (A) (A)
                 (A) (A) (A) (A) (A) (A) (A) (A) (A) (A) (A) (A)
                 (A) (A) (A) (A) (A) (A) (A) (A) (A) (A) (A) (A)
                 (A) (A) (A) (A) (A) (A) (A) (A) (A) (A) (A) (A)
                 (A) (A) (A) (A) (A) (A) (A) (A) (A) (A) (A) (A)
                 (A) (A) (A) (A) (A) (A) (A) (A) (A) (A) (A) (A)
                 (A) (A) (A) (A) (A) (A) (A) (A) (A) (A) (A) (A)
                 (A) (A) (A) (A) (A) (A) (A) (A) (A) (A) (A) (A)
                 (A) (A) (A) (A) (A) (A) (A) (A) (A) (A) (A) (A)
                 (A) (A) (A) (A) (A) (A) (A) (A) (A) (A) (A) (A)
                 (A) (A) (A) (A) (A) (A) (A) (A) (A) (A) (A) (A)
                 (A) (A) (A) (A) (A) (A) (A) (A) (A) (A) (A) (A)
                 (A) (A) (A) (A) (A) (A) (A) (A) (A) (A) (A) (A)
                 (A) (A) (A) (A) (A) (A) (A) (A) (A) (A) (A) (A)
                 (A) (A) (A) (A) (A) (A) (A) (A) (A) (A) (A) (A)
                 (A) (A) (A) (A) (A) (A) (A) (A) (A) (A) (A) (A)
                 (A) (A) (A) (A) (A) (A) (A) (A) (A) (A) (A) (A)
                 (A) (A) (A) (A) (A) (A) (A) (A) (A) (A) (A) (A)
                 (A) (A) (A) (A) (A) (A) (A) (A) (A) (A) (A) (A)
                 (A) (A) (A) (A) (A) (A) (A) (A) (A) (A) (A) (A)
                 (A) (A) (A) (A) (A) (A) (A) (A) (A) (A) (A) (A)
                 (A) (A) (A) (A) (A) (A) (A) (A) (A) (A) (A) (A)
 The electronic state is 1-A.
 Alpha  occ. eigenvalues -- -103.57423 -25.70753 -25.70145 -25.70139 -19.98278
 Alpha  occ. eigenvalues --  -15.13913 -15.11702 -11.08386 -10.97665 -10.90952
 Alpha  occ. eigenvalues --  -10.90363 -10.86025 -10.85666 -10.85536 -10.84450
 Alpha  occ. eigenvalues --  -10.83762 -10.83136 -10.81762 -10.14932  -7.72617
 Alpha  occ. eigenvalues --   -7.72135  -7.72111  -1.57065  -1.47701  -1.47330
 Alpha  occ. eigenvalues --   -1.29247  -1.16792  -1.13128  -1.09282  -1.02567
 Alpha  occ. eigenvalues --   -0.97804  -0.95959  -0.92277  -0.87750  -0.84796
 Alpha  occ. eigenvalues --   -0.79813  -0.77840  -0.75356  -0.74347  -0.73167
 Alpha  occ. eigenvalues --   -0.72897  -0.71499  -0.69144  -0.66201  -0.61796
 Alpha  occ. eigenvalues --   -0.61582  -0.61167  -0.60028  -0.59097  -0.58459
 Alpha  occ. eigenvalues --   -0.57271  -0.57054  -0.56792  -0.56134  -0.55207
 Alpha  occ. eigenvalues --   -0.54507  -0.54025  -0.52591  -0.51202  -0.49736
 Alpha  occ. eigenvalues --   -0.49118  -0.47312  -0.47061  -0.45486  -0.44763
 Alpha  occ. eigenvalues --   -0.44075  -0.40807  -0.40746  -0.39656  -0.36611
 Alpha  occ. eigenvalues --   -0.32512  -0.30334
 Alpha virt. eigenvalues --    0.00034   0.01410   0.02261   0.02420   0.02987
 Alpha virt. eigenvalues --    0.03381   0.03728   0.04009   0.04532   0.04598
 Alpha virt. eigenvalues --    0.05088   0.05365   0.05926   0.06636   0.06809
 Alpha virt. eigenvalues --    0.06955   0.07298   0.07875   0.08295   0.08774
 Alpha virt. eigenvalues --    0.09296   0.09320   0.09607   0.09927   0.10237
 Alpha virt. eigenvalues --    0.10537   0.10680   0.11004   0.11445   0.11931
 Alpha virt. eigenvalues --    0.12067   0.12232   0.12731   0.12910   0.13186
 Alpha virt. eigenvalues --    0.13399   0.13918   0.14336   0.14365   0.14549
 Alpha virt. eigenvalues --    0.14825   0.15134   0.15812   0.15978   0.16210
 Alpha virt. eigenvalues --    0.16803   0.16948   0.17423   0.17757   0.18037
 Alpha virt. eigenvalues --    0.18532   0.18883   0.19108   0.19218   0.19383
 Alpha virt. eigenvalues --    0.19907   0.20133   0.20590   0.20924   0.21088
 Alpha virt. eigenvalues --    0.21571   0.22301   0.22407   0.22644   0.22772
 Alpha virt. eigenvalues --    0.23454   0.23720   0.23980   0.24261   0.24712
 Alpha virt. eigenvalues --    0.25069   0.25298   0.25431   0.25904   0.26024
 Alpha virt. eigenvalues --    0.26357   0.26915   0.27002   0.27523   0.27818
 Alpha virt. eigenvalues --    0.28252   0.28384   0.28687   0.28904   0.29560
 Alpha virt. eigenvalues --    0.29767   0.29981   0.30152   0.30457   0.31083
 Alpha virt. eigenvalues --    0.31355   0.31521   0.31560   0.31785   0.32338
 Alpha virt. eigenvalues --    0.32663   0.32959   0.33207   0.33283   0.33768
 Alpha virt. eigenvalues --    0.33819   0.34060   0.34525   0.34838   0.35348
 Alpha virt. eigenvalues --    0.35461   0.35820   0.35903   0.36199   0.36468
 Alpha virt. eigenvalues --    0.36838   0.37021   0.37326   0.37348   0.37739
 Alpha virt. eigenvalues --    0.37967   0.38396   0.38577   0.38948   0.39194
 Alpha virt. eigenvalues --    0.39464   0.39579   0.40088   0.40559   0.40751
 Alpha virt. eigenvalues --    0.41133   0.41332   0.41521   0.41913   0.42331
 Alpha virt. eigenvalues --    0.42709   0.42930   0.43141   0.43589   0.43912
 Alpha virt. eigenvalues --    0.43947   0.44170   0.44535   0.44972   0.44985
 Alpha virt. eigenvalues --    0.45479   0.45607   0.45733   0.46357   0.46658
 Alpha virt. eigenvalues --    0.47036   0.47395   0.47517   0.47875   0.48247
 Alpha virt. eigenvalues --    0.48679   0.48775   0.48944   0.49405   0.49725
 Alpha virt. eigenvalues --    0.49941   0.50087   0.50497   0.50742   0.50876
 Alpha virt. eigenvalues --    0.50925   0.51373   0.51785   0.51885   0.52035
 Alpha virt. eigenvalues --    0.52448   0.52970   0.53510   0.53752   0.54178
 Alpha virt. eigenvalues --    0.54410   0.55364   0.55616   0.56477   0.56885
 Alpha virt. eigenvalues --    0.57601   0.58058   0.58521   0.58726   0.59458
 Alpha virt. eigenvalues --    0.59687   0.59845   0.59892   0.60134   0.60722
 Alpha virt. eigenvalues --    0.61485   0.61931   0.62225   0.62801   0.63188
 Alpha virt. eigenvalues --    0.63465   0.63700   0.64629   0.65344   0.65634
 Alpha virt. eigenvalues --    0.65941   0.66407   0.66517   0.67108   0.67769
 Alpha virt. eigenvalues --    0.68612   0.68927   0.69318   0.69691   0.69949
 Alpha virt. eigenvalues --    0.70656   0.71481   0.71833   0.72008   0.72271
 Alpha virt. eigenvalues --    0.73184   0.73398   0.74245   0.74422   0.74655
 Alpha virt. eigenvalues --    0.75019   0.75770   0.76329   0.76891   0.77200
 Alpha virt. eigenvalues --    0.77538   0.77812   0.78642   0.78751   0.78931
 Alpha virt. eigenvalues --    0.79590   0.80301   0.80427   0.80863   0.81110
 Alpha virt. eigenvalues --    0.81830   0.81932   0.82306   0.82428   0.82652
 Alpha virt. eigenvalues --    0.83232   0.83424   0.83993   0.84066   0.84185
 Alpha virt. eigenvalues --    0.84569   0.84903   0.85323   0.85614   0.85799
 Alpha virt. eigenvalues --    0.86349   0.86716   0.86970   0.87344   0.87937
 Alpha virt. eigenvalues --    0.88355   0.88749   0.89101   0.89131   0.89889
 Alpha virt. eigenvalues --    0.90007   0.90473   0.90838   0.91253   0.91384
 Alpha virt. eigenvalues --    0.91651   0.92232   0.92811   0.92890   0.93442
 Alpha virt. eigenvalues --    0.94073   0.94850   0.95257   0.95399   0.95907
 Alpha virt. eigenvalues --    0.96175   0.96884   0.97170   0.97284   0.98029
 Alpha virt. eigenvalues --    0.98226   0.98437   0.98622   0.99100   0.99764
 Alpha virt. eigenvalues --    0.99939   1.00393   1.00758   1.01049   1.01288
 Alpha virt. eigenvalues --    1.01978   1.02549   1.02687   1.03151   1.03433
 Alpha virt. eigenvalues --    1.04046   1.04439   1.04614   1.05434   1.05544
 Alpha virt. eigenvalues --    1.05645   1.06246   1.06340   1.06783   1.07083
 Alpha virt. eigenvalues --    1.07659   1.07795   1.08142   1.08735   1.08762
 Alpha virt. eigenvalues --    1.09147   1.09864   1.09977   1.10454   1.10697
 Alpha virt. eigenvalues --    1.10745   1.11384   1.11933   1.12229   1.12925
 Alpha virt. eigenvalues --    1.13327   1.13493   1.13738   1.14699   1.14996
 Alpha virt. eigenvalues --    1.15646   1.15984   1.16155   1.16417   1.16897
 Alpha virt. eigenvalues --    1.17364   1.18016   1.18235   1.18596   1.18720
 Alpha virt. eigenvalues --    1.19015   1.19531   1.20027   1.20758   1.21140
 Alpha virt. eigenvalues --    1.21250   1.21810   1.23054   1.23173   1.23475
 Alpha virt. eigenvalues --    1.23828   1.24155   1.24565   1.24844   1.25123
 Alpha virt. eigenvalues --    1.26455   1.27248   1.27324   1.27586   1.28065
 Alpha virt. eigenvalues --    1.28427   1.28755   1.29270   1.29533   1.30482
 Alpha virt. eigenvalues --    1.30933   1.31554   1.31932   1.32127   1.32666
 Alpha virt. eigenvalues --    1.33071   1.33441   1.34101   1.34872   1.35291
 Alpha virt. eigenvalues --    1.35634   1.36415   1.36493   1.36648   1.37474
 Alpha virt. eigenvalues --    1.37571   1.38188   1.38814   1.39348   1.40167
 Alpha virt. eigenvalues --    1.40265   1.40927   1.41388   1.42141   1.42710
 Alpha virt. eigenvalues --    1.43771   1.44262   1.44610   1.44841   1.45476
 Alpha virt. eigenvalues --    1.46091   1.47222   1.47675   1.48187   1.48300
 Alpha virt. eigenvalues --    1.49175   1.49674   1.49985   1.50196   1.50287
 Alpha virt. eigenvalues --    1.51307   1.51557   1.52285   1.52390   1.53298
 Alpha virt. eigenvalues --    1.53992   1.54726   1.55241   1.55704   1.56575
 Alpha virt. eigenvalues --    1.56985   1.57377   1.57737   1.58032   1.58553
 Alpha virt. eigenvalues --    1.59055   1.59635   1.60055   1.60477   1.60842
 Alpha virt. eigenvalues --    1.61264   1.61823   1.62509   1.62904   1.63368
 Alpha virt. eigenvalues --    1.63772   1.63889   1.64486   1.65225   1.65897
 Alpha virt. eigenvalues --    1.66170   1.67291   1.67559   1.68133   1.68367
 Alpha virt. eigenvalues --    1.68585   1.69245   1.69710   1.69875   1.70154
 Alpha virt. eigenvalues --    1.70999   1.71760   1.71987   1.72447   1.73530
 Alpha virt. eigenvalues --    1.73963   1.74287   1.74483   1.75274   1.75865
 Alpha virt. eigenvalues --    1.76339   1.76564   1.76870   1.78075   1.78857
 Alpha virt. eigenvalues --    1.79232   1.79764   1.80065   1.80607   1.81399
 Alpha virt. eigenvalues --    1.81516   1.82051   1.82951   1.83248   1.83502
 Alpha virt. eigenvalues --    1.84847   1.85387   1.85733   1.86260   1.86358
 Alpha virt. eigenvalues --    1.87277   1.87602   1.88256   1.88734   1.89245
 Alpha virt. eigenvalues --    1.89780   1.90681   1.91418   1.92181   1.92815
 Alpha virt. eigenvalues --    1.93797   1.94131   1.94635   1.94891   1.95125
 Alpha virt. eigenvalues --    1.95942   1.96759   1.97540   1.97929   1.98588
 Alpha virt. eigenvalues --    1.98906   1.99489   2.00118   2.00961   2.01497
 Alpha virt. eigenvalues --    2.02004   2.02778   2.03187   2.03542   2.04035
 Alpha virt. eigenvalues --    2.04798   2.06787   2.07140   2.07320   2.08733
 Alpha virt. eigenvalues --    2.09198   2.09837   2.10583   2.10656   2.11652
 Alpha virt. eigenvalues --    2.12902   2.13988   2.14644   2.15202   2.15752
 Alpha virt. eigenvalues --    2.16217   2.16658   2.17383   2.18813   2.20377
 Alpha virt. eigenvalues --    2.20885   2.21637   2.21735   2.22383   2.22927
 Alpha virt. eigenvalues --    2.23043   2.24781   2.25183   2.25472   2.26343
 Alpha virt. eigenvalues --    2.27825   2.28593   2.29846   2.30187   2.31364
 Alpha virt. eigenvalues --    2.31902   2.33201   2.33999   2.34557   2.34963
 Alpha virt. eigenvalues --    2.35274   2.36035   2.37321   2.37904   2.38826
 Alpha virt. eigenvalues --    2.39170   2.39930   2.42147   2.42272   2.42912
 Alpha virt. eigenvalues --    2.44296   2.45436   2.46680   2.47338   2.48366
 Alpha virt. eigenvalues --    2.49186   2.49566   2.50202   2.51027   2.51168
 Alpha virt. eigenvalues --    2.53452   2.53760   2.55035   2.55975   2.57521
 Alpha virt. eigenvalues --    2.58058   2.58997   2.59752   2.60767   2.61135
 Alpha virt. eigenvalues --    2.63557   2.64308   2.64624   2.65038   2.65332
 Alpha virt. eigenvalues --    2.67226   2.68039   2.69949   2.70213   2.71317
 Alpha virt. eigenvalues --    2.72306   2.73220   2.74653   2.75346   2.75716
 Alpha virt. eigenvalues --    2.76205   2.76632   2.77479   2.79230   2.80288
 Alpha virt. eigenvalues --    2.82220   2.82479   2.83536   2.85793   2.86110
 Alpha virt. eigenvalues --    2.88214   2.88754   2.90027   2.90349   2.91209
 Alpha virt. eigenvalues --    2.92178   2.92503   2.93760   2.95496   2.95573
 Alpha virt. eigenvalues --    2.95755   2.97869   2.98675   3.00242   3.00559
 Alpha virt. eigenvalues --    3.00942   3.02090   3.02484   3.03690   3.04660
 Alpha virt. eigenvalues --    3.05482   3.06679   3.07375   3.09920   3.10498
 Alpha virt. eigenvalues --    3.10812   3.11764   3.12302   3.13969   3.14692
 Alpha virt. eigenvalues --    3.15737   3.16049   3.16947   3.18536   3.19140
 Alpha virt. eigenvalues --    3.19315   3.20535   3.21126   3.21324   3.22671
 Alpha virt. eigenvalues --    3.23586   3.25294   3.25488   3.25952   3.26494
 Alpha virt. eigenvalues --    3.28876   3.29630   3.29865   3.31036   3.31163
 Alpha virt. eigenvalues --    3.31960   3.32073   3.33233   3.34087   3.35067
 Alpha virt. eigenvalues --    3.35444   3.35962   3.36490   3.37231   3.37924
 Alpha virt. eigenvalues --    3.38508   3.38816   3.40507   3.41897   3.42416
 Alpha virt. eigenvalues --    3.42590   3.42991   3.43535   3.43983   3.44614
 Alpha virt. eigenvalues --    3.45360   3.47012   3.47217   3.47627   3.48505
 Alpha virt. eigenvalues --    3.49567   3.50127   3.50887   3.51104   3.52117
 Alpha virt. eigenvalues --    3.52694   3.53057   3.54150   3.56242   3.57053
 Alpha virt. eigenvalues --    3.57070   3.57912   3.59050   3.59142   3.60294
 Alpha virt. eigenvalues --    3.60761   3.61269   3.61961   3.62163   3.62760
 Alpha virt. eigenvalues --    3.63404   3.63992   3.64262   3.64697   3.65647
 Alpha virt. eigenvalues --    3.66395   3.67957   3.69072   3.69248   3.69846
 Alpha virt. eigenvalues --    3.71251   3.71384   3.72442   3.72826   3.73436
 Alpha virt. eigenvalues --    3.73912   3.74159   3.74846   3.75608   3.76816
 Alpha virt. eigenvalues --    3.77404   3.78410   3.79283   3.79705   3.80318
 Alpha virt. eigenvalues --    3.80641   3.81871   3.82492   3.83077   3.83262
 Alpha virt. eigenvalues --    3.83916   3.84485   3.84612   3.84881   3.85574
 Alpha virt. eigenvalues --    3.85857   3.87244   3.87467   3.88934   3.89168
 Alpha virt. eigenvalues --    3.89621   3.90708   3.91564   3.92175   3.93471
 Alpha virt. eigenvalues --    3.94556   3.94762   3.96252   3.97354   3.98333
 Alpha virt. eigenvalues --    3.99101   3.99196   3.99900   4.00542   4.01917
 Alpha virt. eigenvalues --    4.01954   4.03488   4.05015   4.05213   4.06273
 Alpha virt. eigenvalues --    4.06362   4.07185   4.07722   4.08387   4.08727
 Alpha virt. eigenvalues --    4.09568   4.10650   4.10809   4.11189   4.12246
 Alpha virt. eigenvalues --    4.12544   4.14249   4.14392   4.15011   4.16357
 Alpha virt. eigenvalues --    4.16564   4.16623   4.17727   4.18681   4.19783
 Alpha virt. eigenvalues --    4.21023   4.21983   4.22713   4.23467   4.24162
 Alpha virt. eigenvalues --    4.25110   4.25330   4.26766   4.27042   4.27396
 Alpha virt. eigenvalues --    4.28230   4.29706   4.30484   4.31717   4.32424
 Alpha virt. eigenvalues --    4.33266   4.33810   4.34164   4.34992   4.35514
 Alpha virt. eigenvalues --    4.36205   4.36767   4.38896   4.40006   4.41337
 Alpha virt. eigenvalues --    4.42474   4.42649   4.43372   4.44983   4.45689
 Alpha virt. eigenvalues --    4.46512   4.47743   4.48665   4.49692   4.50536
 Alpha virt. eigenvalues --    4.50686   4.51590   4.53227   4.53653   4.54549
 Alpha virt. eigenvalues --    4.54830   4.55916   4.56590   4.58171   4.59117
 Alpha virt. eigenvalues --    4.60730   4.61536   4.62019   4.62499   4.62889
 Alpha virt. eigenvalues --    4.64416   4.65917   4.66475   4.67473   4.68601
 Alpha virt. eigenvalues --    4.69853   4.70763   4.71331   4.72324   4.72637
 Alpha virt. eigenvalues --    4.74479   4.75314   4.75942   4.76214   4.77436
 Alpha virt. eigenvalues --    4.78864   4.81402   4.81711   4.82163   4.83418
 Alpha virt. eigenvalues --    4.83990   4.84184   4.85077   4.86963   4.87528
 Alpha virt. eigenvalues --    4.88080   4.89596   4.90546   4.92542   4.93460
 Alpha virt. eigenvalues --    4.93898   4.94375   4.96054   4.96953   4.98040
 Alpha virt. eigenvalues --    4.98710   4.99374   5.00284   5.00831   5.01837
 Alpha virt. eigenvalues --    5.05144   5.05406   5.06109   5.06750   5.07830
 Alpha virt. eigenvalues --    5.07997   5.10182   5.11226   5.11690   5.13049
 Alpha virt. eigenvalues --    5.13759   5.14107   5.16344   5.17276   5.17541
 Alpha virt. eigenvalues --    5.19589   5.21819   5.21997   5.22913   5.23532
 Alpha virt. eigenvalues --    5.24718   5.28221   5.30011   5.30243   5.31191
 Alpha virt. eigenvalues --    5.33897   5.34409   5.36726   5.37411   5.38977
 Alpha virt. eigenvalues --    5.40231   5.42048   5.44110   5.44687   5.46327
 Alpha virt. eigenvalues --    5.46965   5.47360   5.48704   5.51583   5.53057
 Alpha virt. eigenvalues --    5.53680   5.54548   5.57505   5.58629   5.59100
 Alpha virt. eigenvalues --    5.59574   5.61811   5.61956   5.63592   5.65053
 Alpha virt. eigenvalues --    5.68407   5.70604   5.71000   5.72469   5.73046
 Alpha virt. eigenvalues --    5.74047   5.75266   5.77876   5.81319   5.82202
 Alpha virt. eigenvalues --    5.83103   5.84230   5.85579   5.87449   5.90879
 Alpha virt. eigenvalues --    5.92420   5.95133   5.97625   5.98241   5.99259
 Alpha virt. eigenvalues --    6.00113   6.01956   6.02119   6.03906   6.04935
 Alpha virt. eigenvalues --    6.06727   6.11056   6.12055   6.13411   6.16298
 Alpha virt. eigenvalues --    6.18352   6.21153   6.22923   6.24655   6.27083
 Alpha virt. eigenvalues --    6.28374   6.37281   6.39726   6.41838   6.49416
 Alpha virt. eigenvalues --    6.52098   6.55776   6.58827   6.60905   6.61519
 Alpha virt. eigenvalues --    6.66378   6.67067   6.67757   6.70179   6.74673
 Alpha virt. eigenvalues --    6.75728   6.80942   6.82181   6.84953   6.88690
 Alpha virt. eigenvalues --    6.89338   6.91839   7.01389   7.06288   7.09741
 Alpha virt. eigenvalues --    7.12237   7.15743   7.21480   7.23376   7.28176
 Alpha virt. eigenvalues --    7.32832   7.44975   7.52235   7.53707   7.60817
 Alpha virt. eigenvalues --    7.78640   7.81484   7.94138   8.47226   8.72952
 Alpha virt. eigenvalues --    8.75526   8.77514   8.80786   8.82287   8.87225
 Alpha virt. eigenvalues --    8.96600   8.97539   9.09072   9.11745   9.13484
 Alpha virt. eigenvalues --    9.13773   9.14428   9.17456   9.19308   9.20846
 Alpha virt. eigenvalues --    9.23105   9.24603   9.28046   9.29379   9.29700
 Alpha virt. eigenvalues --    9.31995   9.34970   9.38015   9.38347   9.39513
 Alpha virt. eigenvalues --    9.47073   9.48444   9.50606   9.52000   9.59550
 Alpha virt. eigenvalues --    9.71310   9.72350   9.78728   9.93079   9.99740
 Alpha virt. eigenvalues --   15.73831  15.75340  15.92521  16.19193  16.29905
 Alpha virt. eigenvalues --   16.56481  17.20977  17.33556  17.65152  18.04311
 Alpha virt. eigenvalues --   18.27958  18.90534  19.52738  20.17475  20.46255
 Alpha virt. eigenvalues --   20.76203  21.38709
          Condensed to atoms (all electrons):
               1          2          3          4          5          6
     1  C    9.239576  -0.241839  -0.678905   0.120756  -0.030093  -0.014568
     2  N   -0.241839   8.091923   0.483322  -0.100704  -0.423454  -0.121943
     3  C   -0.678905   0.483322   6.172749   0.330844   0.080944  -0.371178
     4  O    0.120756  -0.100704   0.330844   8.873796  -0.195346  -0.031861
     5  N   -0.030093  -0.423454   0.080944  -0.195346   7.345693   0.238046
     6  C   -0.014568  -0.121943  -0.371178  -0.031861   0.238046   5.710372
     7  C   -0.004336  -0.033453   0.032044  -0.012091  -0.079129   0.058908
     8  C    0.001505   0.002652  -0.004667  -0.000453  -0.008388  -0.018782
     9  C   -1.165583  -0.403221  -0.015072  -0.167151  -0.004268  -0.012420
    10  C   -0.335411   0.141471   0.025356   0.014898   0.012089  -0.004620
    11  C   -0.104652  -0.001152   0.007006  -0.003257   0.005753   0.001476
    12  C   -0.257993   0.048438  -0.048535   0.001475   0.001981  -0.005468
    13  C   -1.015779  -0.302427   0.082418   0.006625  -0.038207  -0.002441
    14  H   -0.031186   0.199698  -0.121253   0.012629   0.161434   0.004080
    15  H   -0.010521   0.072327  -0.068060   0.002692   0.198594   0.011341
    16  H   -0.013535   0.010081   0.017432   0.013142  -0.075440   0.304764
    17  H   -0.008810  -0.006934  -0.058691  -0.000380  -0.030857   0.430333
    18  H   -0.001175   0.001077   0.016838   0.003460  -0.044523  -0.028986
    19  H   -0.001277  -0.008012   0.001260   0.000501  -0.009914   0.024758
    20  H   -0.000050   0.000121   0.002727  -0.000004   0.003139  -0.007408
    21  H    0.000205  -0.000086   0.000418  -0.000146   0.000268  -0.003801
    22  H    0.000310  -0.000132   0.002080  -0.000249   0.002345  -0.006223
    23  H   -0.028018  -0.109799  -0.102664  -0.076301   0.012428  -0.018605
    24  Cl   0.047277  -0.009133   0.007250  -0.007051   0.001069   0.000088
    25  C    0.025918   0.006610   0.002664  -0.000082   0.000873   0.000158
    26  H    0.022710  -0.056563  -0.013716   0.000691  -0.001010  -0.000424
    27  H   -0.274634   0.114806   0.025961  -0.001524  -0.003753   0.001890
    28  F   -0.016943   0.001181   0.000102   0.000010   0.000033   0.000006
    29  F    0.006744   0.002508   0.001312  -0.000042   0.000033   0.000022
    30  F    0.000088  -0.000278   0.000051  -0.000031  -0.000052  -0.000008
               7          8          9         10         11         12
     1  C   -0.004336   0.001505  -1.165583  -0.335411  -0.104652  -0.257993
     2  N   -0.033453   0.002652  -0.403221   0.141471  -0.001152   0.048438
     3  C    0.032044  -0.004667  -0.015072   0.025356   0.007006  -0.048535
     4  O   -0.012091  -0.000453  -0.167151   0.014898  -0.003257   0.001475
     5  N   -0.079129  -0.008388  -0.004268   0.012089   0.005753   0.001981
     6  C    0.058908  -0.018782  -0.012420  -0.004620   0.001476  -0.005468
     7  C    5.488604   0.122407  -0.000909  -0.000191   0.000310  -0.000102
     8  C    0.122407   5.744872  -0.000564  -0.000013   0.000026  -0.000017
     9  C   -0.000909  -0.000564   9.291372  -0.459032   0.085589  -0.368697
    10  C   -0.000191  -0.000013  -0.459032   7.165850  -0.711847   0.388752
    11  C    0.000310   0.000026   0.085589  -0.711847   7.992257  -1.108158
    12  C   -0.000102  -0.000017  -0.368697   0.388752  -1.108158   8.676203
    13  C   -0.000829  -0.000340   0.175353  -0.106294  -0.128528  -0.182656
    14  H    0.005464  -0.000263   0.025629  -0.000152  -0.011911  -0.009085
    15  H   -0.023243   0.003975   0.002190   0.000391  -0.000291   0.000021
    16  H   -0.000036  -0.006463   0.006466  -0.001004   0.000016  -0.000208
    17  H   -0.016056  -0.010695   0.004270  -0.000432  -0.000012  -0.000418
    18  H    0.415237  -0.018469   0.000099  -0.000017  -0.000002  -0.000037
    19  H    0.424267  -0.025861   0.000238  -0.000065   0.000017  -0.000061
    20  H    0.030233   0.375993   0.000118  -0.000002  -0.000000   0.000007
    21  H   -0.031087   0.449016  -0.000037  -0.000001   0.000003  -0.000001
    22  H    0.033478   0.373809  -0.000107   0.000032   0.000001  -0.000001
    23  H    0.000876  -0.000046  -0.195312  -0.402429   0.037657   0.031305
    24  Cl   0.000041  -0.000005  -0.110264  -0.210177  -0.014016   0.039990
    25  C    0.000007   0.000002   0.023740  -0.244557  -0.250942  -0.426952
    26  H    0.000001   0.000003   0.028646  -0.081500  -0.194138   0.332214
    27  H   -0.000358  -0.000033   0.066245  -0.012692   0.058977  -0.357142
    28  F   -0.000000   0.000000  -0.006312   0.021794  -0.009170  -0.022185
    29  F    0.000000  -0.000000  -0.017088  -0.017393   0.075106  -0.040990
    30  F   -0.000001  -0.000000  -0.010558  -0.016103   0.062742  -0.035168
              13         14         15         16         17         18
     1  C   -1.015779  -0.031186  -0.010521  -0.013535  -0.008810  -0.001175
     2  N   -0.302427   0.199698   0.072327   0.010081  -0.006934   0.001077
     3  C    0.082418  -0.121253  -0.068060   0.017432  -0.058691   0.016838
     4  O    0.006625   0.012629   0.002692   0.013142  -0.000380   0.003460
     5  N   -0.038207   0.161434   0.198594  -0.075440  -0.030857  -0.044523
     6  C   -0.002441   0.004080   0.011341   0.304764   0.430333  -0.028986
     7  C   -0.000829   0.005464  -0.023243  -0.000036  -0.016056   0.415237
     8  C   -0.000340  -0.000263   0.003975  -0.006463  -0.010695  -0.018469
     9  C    0.175353   0.025629   0.002190   0.006466   0.004270   0.000099
    10  C   -0.106294  -0.000152   0.000391  -0.001004  -0.000432  -0.000017
    11  C   -0.128528  -0.011911  -0.000291   0.000016  -0.000012  -0.000002
    12  C   -0.182656  -0.009085   0.000021  -0.000208  -0.000418  -0.000037
    13  C    8.031198   0.013297   0.006366   0.001018   0.001612   0.000142
    14  H    0.013297   0.825194  -0.029119  -0.000534  -0.000656   0.000332
    15  H    0.006366  -0.029119   0.760694   0.026989  -0.008607   0.011816
    16  H    0.001018  -0.000534   0.026989   0.410592   0.029018   0.014162
    17  H    0.001612  -0.000656  -0.008607   0.029018   0.394267  -0.011811
    18  H    0.000142   0.000332   0.011816   0.014162  -0.011811   0.391614
    19  H   -0.000074  -0.000185  -0.008888  -0.006265   0.005116   0.000622
    20  H   -0.000001  -0.000020  -0.000126  -0.006889  -0.008878  -0.001354
    21  H   -0.000050   0.000035   0.000529   0.000614   0.000491   0.001029
    22  H    0.000005   0.000009  -0.000108  -0.010981  -0.006681  -0.002788
    23  H   -0.063888  -0.004318  -0.000075  -0.000137  -0.003524  -0.000078
    24  Cl   0.007770  -0.000204  -0.000098   0.000054   0.000069   0.000000
    25  C    0.005834  -0.000456  -0.000045   0.000013   0.000004   0.000001
    26  H   -0.144406  -0.005631   0.000177  -0.000038  -0.000036  -0.000003
    27  H    0.296299  -0.042036  -0.000921   0.000070   0.000299  -0.000019
    28  F    0.012719   0.000187  -0.000013   0.000001   0.000000  -0.000000
    29  F   -0.002025   0.000013  -0.000015   0.000003   0.000002  -0.000000
    30  F    0.001411  -0.000171   0.000012  -0.000002   0.000002   0.000001
              19         20         21         22         23         24
     1  C   -0.001277  -0.000050   0.000205   0.000310  -0.028018   0.047277
     2  N   -0.008012   0.000121  -0.000086  -0.000132  -0.109799  -0.009133
     3  C    0.001260   0.002727   0.000418   0.002080  -0.102664   0.007250
     4  O    0.000501  -0.000004  -0.000146  -0.000249  -0.076301  -0.007051
     5  N   -0.009914   0.003139   0.000268   0.002345   0.012428   0.001069
     6  C    0.024758  -0.007408  -0.003801  -0.006223  -0.018605   0.000088
     7  C    0.424267   0.030233  -0.031087   0.033478   0.000876   0.000041
     8  C   -0.025861   0.375993   0.449016   0.373809  -0.000046  -0.000005
     9  C    0.000238   0.000118  -0.000037  -0.000107  -0.195312  -0.110264
    10  C   -0.000065  -0.000002  -0.000001   0.000032  -0.402429  -0.210177
    11  C    0.000017  -0.000000   0.000003   0.000001   0.037657  -0.014016
    12  C   -0.000061   0.000007  -0.000001  -0.000001   0.031305   0.039990
    13  C   -0.000074  -0.000001  -0.000050   0.000005  -0.063888   0.007770
    14  H   -0.000185  -0.000020   0.000035   0.000009  -0.004318  -0.000204
    15  H   -0.008888  -0.000126   0.000529  -0.000108  -0.000075  -0.000098
    16  H   -0.006265  -0.006889   0.000614  -0.010981  -0.000137   0.000054
    17  H    0.005116  -0.008878   0.000491  -0.006681  -0.003524   0.000069
    18  H    0.000622  -0.001354   0.001029  -0.002788  -0.000078   0.000000
    19  H    0.368964   0.000381  -0.003952   0.002959   0.000151   0.000009
    20  H    0.000381   0.311814  -0.000665   0.022977   0.000099  -0.000001
    21  H   -0.003952  -0.000665   0.312548  -0.001824  -0.000004   0.000000
    22  H    0.002959   0.022977  -0.001824   0.316298  -0.000004  -0.000003
    23  H    0.000151   0.000099  -0.000004  -0.000004   1.333412   0.045278
    24  Cl   0.000009  -0.000001   0.000000  -0.000003   0.045278  17.718081
    25  C   -0.000001  -0.000000   0.000000  -0.000000   0.007103  -0.054874
    26  H   -0.000012   0.000001   0.000000   0.000001   0.011757   0.002089
    27  H    0.000045  -0.000010  -0.000002  -0.000003  -0.022905  -0.002437
    28  F    0.000000   0.000000   0.000000  -0.000000  -0.000178   0.009849
    29  F    0.000001   0.000000  -0.000000  -0.000000  -0.002689  -0.012661
    30  F   -0.000001  -0.000000  -0.000000   0.000000  -0.002318  -0.012038
              25         26         27         28         29         30
     1  C    0.025918   0.022710  -0.274634  -0.016943   0.006744   0.000088
     2  N    0.006610  -0.056563   0.114806   0.001181   0.002508  -0.000278
     3  C    0.002664  -0.013716   0.025961   0.000102   0.001312   0.000051
     4  O   -0.000082   0.000691  -0.001524   0.000010  -0.000042  -0.000031
     5  N    0.000873  -0.001010  -0.003753   0.000033   0.000033  -0.000052
     6  C    0.000158  -0.000424   0.001890   0.000006   0.000022  -0.000008
     7  C    0.000007   0.000001  -0.000358  -0.000000   0.000000  -0.000001
     8  C    0.000002   0.000003  -0.000033   0.000000  -0.000000  -0.000000
     9  C    0.023740   0.028646   0.066245  -0.006312  -0.017088  -0.010558
    10  C   -0.244557  -0.081500  -0.012692   0.021794  -0.017393  -0.016103
    11  C   -0.250942  -0.194138   0.058977  -0.009170   0.075106   0.062742
    12  C   -0.426952   0.332214  -0.357142  -0.022185  -0.040990  -0.035168
    13  C    0.005834  -0.144406   0.296299   0.012719  -0.002025   0.001411
    14  H   -0.000456  -0.005631  -0.042036   0.000187   0.000013  -0.000171
    15  H   -0.000045   0.000177  -0.000921  -0.000013  -0.000015   0.000012
    16  H    0.000013  -0.000038   0.000070   0.000001   0.000003  -0.000002
    17  H    0.000004  -0.000036   0.000299   0.000000   0.000002   0.000002
    18  H    0.000001  -0.000003  -0.000019  -0.000000  -0.000000   0.000001
    19  H   -0.000001  -0.000012   0.000045   0.000000   0.000001  -0.000001
    20  H   -0.000000   0.000001  -0.000010   0.000000   0.000000  -0.000000
    21  H    0.000000   0.000000  -0.000002   0.000000  -0.000000  -0.000000
    22  H   -0.000000   0.000001  -0.000003  -0.000000  -0.000000   0.000000
    23  H    0.007103   0.011757  -0.022905  -0.000178  -0.002689  -0.002318
    24  Cl  -0.054874   0.002089  -0.002437   0.009849  -0.012661  -0.012038
    25  C    5.226152  -0.052009  -0.007220   0.170584   0.178949   0.184303
    26  H   -0.052009   0.930215  -0.110893   0.012336  -0.003893  -0.000113
    27  H   -0.007220  -0.110893   0.833196  -0.004628   0.000838   0.000582
    28  F    0.170584   0.012336  -0.004628   9.336395  -0.065072  -0.065437
    29  F    0.178949  -0.003893   0.000838  -0.065072   9.318894  -0.019514
    30  F    0.184303  -0.000113   0.000582  -0.065437  -0.019514   9.316459
 Mulliken charges:
               1
     1  C    0.770217
     2  N   -0.357084
     3  C    0.189960
     4  O   -0.784845
     5  N   -0.120289
     6  C   -0.137506
     7  C   -0.410058
     8  C   -0.979201
     9  C   -0.773361
    10  C    0.833299
    11  C    0.211142
    12  C   -0.656513
    13  C   -0.654124
    14  H    0.009178
    15  H    0.052016
    16  H    0.287096
    17  H    0.307994
    18  H    0.252831
    19  H    0.235277
    20  H    0.277800
    21  H    0.276496
    22  H    0.274799
    23  H    0.553225
    24  Cl  -0.445952
    25  C    1.204221
    26  H    0.323545
    27  H    0.442000
    28  F   -0.375259
    29  F   -0.403045
    30  F   -0.403860
 Sum of Mulliken charges =  -0.00000
 Mulliken charges with hydrogens summed into heavy atoms:
               1
     1  C    0.770217
     2  N   -0.347906
     3  C    0.189960
     4  O   -0.784845
     5  N   -0.068272
     6  C    0.457584
     7  C    0.078050
     8  C   -0.150106
     9  C   -0.220136
    10  C    0.833299
    11  C    0.211142
    12  C   -0.332969
    13  C   -0.212124
    24  Cl  -0.445952
    25  C    1.204221
    28  F   -0.375259
    29  F   -0.403045
    30  F   -0.403860
 Electronic spatial extent (au):  <R**2>=           8692.7520
 Charge=             -0.0000 electrons
 Dipole moment (field-independent basis, Debye):
    X=             -6.3467    Y=             -4.8843    Z=             -0.8155  Tot=              8.0500
 Quadrupole moment (field-independent basis, Debye-Ang):
   XX=           -107.4044   YY=           -105.9142   ZZ=           -113.9596
   XY=              6.2516   XZ=              3.0038   YZ=              0.4516
 Traceless Quadrupole moment (field-independent basis, Debye-Ang):
   XX=              1.6883   YY=              3.1785   ZZ=             -4.8668
   XY=              6.2516   XZ=              3.0038   YZ=              0.4516
 Octapole moment (field-independent basis, Debye-Ang**2):
  XXX=           -122.1336  YYY=            -19.7779  ZZZ=              0.5318  XYY=             21.3637
  XXY=            -21.4842  XXZ=             -9.3955  XZZ=             15.7471  YZZ=              3.8949
  YYZ=             -1.8385  XYZ=             -3.7255
 Hexadecapole moment (field-independent basis, Debye-Ang**3):
 XXXX=          -9362.1292 YYYY=           -973.8900 ZZZZ=           -206.7207 XXXY=             70.5720
 XXXZ=             28.7943 YYYX=             30.7623 YYYZ=              2.5867 ZZZX=              2.2070
 ZZZY=              0.6225 XXYY=          -1767.7875 XXZZ=          -1659.0130 YYZZ=           -216.3964
 XXYZ=             17.5954 YYXZ=              8.6332 ZZXY=             -7.9168
 N-N= 1.432907680563D+03 E-N=-6.093926539914D+03  KE= 1.364302375211D+03
 Unable to Open any file for archive entry.
 1\1\GINC-GADI-CPU-CLX-1915\SP\RDSDPBEP86-FC\Aug-CC-pVTZ\C11H12Cl1F3N2O
 1\HIO507\09-Sep-2020\0\\# DSDPBEP86/AUG-cc-PVTZ SCF=Tight INT(grid=ult
 rafine) MaxDisk=60000MB\\CP19.DSDPBEP86_AUG-cc-PVTZ\\0,1\C,0,-6.333069
 3079,1.2172209296,-0.0297743341\N,0,-5.0559207952,0.6543032575,0.01133
 79765\C,0,-3.8339772072,1.3190363472,-0.0600817055\O,0,-3.7244688526,2
 .5151564473,-0.2125443484\N,0,-2.7561925247,0.4740653666,0.029054243\C
 ,0,-1.4163577481,1.0457949276,0.0845918885\C,0,-0.3660391645,-0.047663
 6544,-0.0423451047\C,0,1.0466459308,0.5259266287,0.0053945548\C,0,-6.5
 67290825,2.5955289002,-0.0025492504\C,0,-7.8734078117,3.061702649,-0.0
 240442857\C,0,-8.9656654608,2.195614158,-0.0741504389\C,0,-8.716069205
 2,0.8265330952,-0.1023504397\C,0,-7.4226979591,0.3396537315,-0.0809325
 327\H,0,-5.0292539606,-0.3522090217,-0.0527039582\H,0,-2.883006257,-0.
 4144880293,0.4918430712\H,0,-1.2754276262,1.6104162594,1.013857239\H,0
 ,-1.3285652911,1.7594203219,-0.7360657637\H,0,-0.5253641616,-0.5873365
 106,-0.9805353888\H,0,-0.4930496361,-0.7756340091,0.7678658223\H,0,1.2
 080013083,1.2377257198,-0.8075074831\H,0,1.7964855078,-0.2609479653,-0
 .0876212263\H,0,1.228621229,1.0500458195,0.946630384\H,0,-5.7459671957
 ,3.2940543512,0.027065049\Cl,0,-8.1069986059,4.7833091285,0.012898\C,0
 ,-10.3810141806,2.7007688394,-0.0985018428\H,0,-9.5484446251,0.1357290
 585,-0.1420335305\H,0,-7.2542469943,-0.732066079,-0.1022631828\F,0,-11
 .2585898342,1.6852318988,-0.1471586998\F,0,-10.6842407062,3.4203085286
 ,0.9906365458\F,0,-10.6279780395,3.4751489053,-1.163761258\\Version=ES
 64L-G16RevC.01\State=1-A\HF=-1367.7678188\MP2=-1369.4637195\RMSD=2.588
 e-09\PG=C01 [X(C11H12Cl1F3N2O1)]\\@
 The archive entry for this job was punched.


 In the beginning the Universe was created.
 This has made a lot of people very angry
 and been widely regarded as a bad move.
                               -D.Adams
 Job cpu time:       1 days  0 hours 53 minutes 11.2 seconds.
 Elapsed time:       0 days  4 hours  9 minutes 44.0 seconds.
 File lengths (MBytes):  RWF=    635 Int=      0 D2E=      0 Chk=     81 Scr=      1
 Normal termination of Gaussian 16 at Wed Sep  9 20:31:42 2020.
