 Entering Gaussian System, Link 0=/apps/gaussian/g16c01/g16/g16
 Initial command:
 /apps/gaussian/g16c01/g16/l1.exe "/jobfs/11080149.gadi-pbs/Gau-1879307.inp" -scrdir="/jobfs/11080149.gadi-pbs/"
 Entering Link 1 = /apps/gaussian/g16c01/g16/l1.exe PID=   1879308.
  
 Copyright (c) 1988-2019, Gaussian, Inc.  All Rights Reserved.
  
 This is part of the Gaussian(R) 16 program.  It is based on
 the Gaussian(R) 09 system (copyright 2009, Gaussian, Inc.),
 the Gaussian(R) 03 system (copyright 2003, Gaussian, Inc.),
 the Gaussian(R) 98 system (copyright 1998, Gaussian, Inc.),
 the Gaussian(R) 94 system (copyright 1995, Gaussian, Inc.),
 the Gaussian 92(TM) system (copyright 1992, Gaussian, Inc.),
 the Gaussian 90(TM) system (copyright 1990, Gaussian, Inc.),
 the Gaussian 88(TM) system (copyright 1988, Gaussian, Inc.),
 the Gaussian 86(TM) system (copyright 1986, Carnegie Mellon
 University), and the Gaussian 82(TM) system (copyright 1983,
 Carnegie Mellon University). Gaussian is a federally registered
 trademark of Gaussian, Inc.
  
 This software contains proprietary and confidential information,
 including trade secrets, belonging to Gaussian, Inc.
  
 This software is provided under written license and may be
 used, copied, transmitted, or stored only in accord with that
 written license.
  
 The following legend is applicable only to US Government
 contracts under FAR:
  
                    RESTRICTED RIGHTS LEGEND
  
 Use, reproduction and disclosure by the US Government is
 subject to restrictions as set forth in subparagraphs (a)
 and (c) of the Commercial Computer Software - Restricted
 Rights clause in FAR 52.227-19.
  
 Gaussian, Inc.
 340 Quinnipiac St., Bldg. 40, Wallingford CT 06492
  
  
 ---------------------------------------------------------------
 Warning -- This program may not be used in any manner that
 competes with the business of Gaussian, Inc. or will provide
 assistance to any competitor of Gaussian, Inc.  The licensee
 of this program is prohibited from giving any competitor of
 Gaussian, Inc. access to this program.  By using this program,
 the user acknowledges that Gaussian, Inc. is engaged in the
 business of creating and licensing software in the field of
 computational chemistry and represents and warrants to the
 licensee that it is not a competitor of Gaussian, Inc. and that
 it will not use this program in any manner prohibited above.
 ---------------------------------------------------------------
  

 Cite this work as:
 Gaussian 16, Revision C.01,
 M. J. Frisch, G. W. Trucks, H. B. Schlegel, G. E. Scuseria, 
 M. A. Robb, J. R. Cheeseman, G. Scalmani, V. Barone, 
 G. A. Petersson, H. Nakatsuji, X. Li, M. Caricato, A. V. Marenich, 
 J. Bloino, B. G. Janesko, R. Gomperts, B. Mennucci, H. P. Hratchian, 
 J. V. Ortiz, A. F. Izmaylov, J. L. Sonnenberg, D. Williams-Young, 
 F. Ding, F. Lipparini, F. Egidi, J. Goings, B. Peng, A. Petrone, 
 T. Henderson, D. Ranasinghe, V. G. Zakrzewski, J. Gao, N. Rega, 
 G. Zheng, W. Liang, M. Hada, M. Ehara, K. Toyota, R. Fukuda, 
 J. Hasegawa, M. Ishida, T. Nakajima, Y. Honda, O. Kitao, H. Nakai, 
 T. Vreven, K. Throssell, J. A. Montgomery, Jr., J. E. Peralta, 
 F. Ogliaro, M. J. Bearpark, J. J. Heyd, E. N. Brothers, K. N. Kudin, 
 V. N. Staroverov, T. A. Keith, R. Kobayashi, J. Normand, 
 K. Raghavachari, A. P. Rendell, J. C. Burant, S. S. Iyengar, 
 J. Tomasi, M. Cossi, J. M. Millam, M. Klene, C. Adamo, R. Cammi, 
 J. W. Ochterski, R. L. Martin, K. Morokuma, O. Farkas, 
 J. B. Foresman, and D. J. Fox, Gaussian, Inc., Wallingford CT, 2019.
 
 ******************************************
 Gaussian 16:  ES64L-G16RevC.01  3-Jul-2019
                 9-Sep-2020 
 ******************************************
 %NprocShared=6
 Will use up to    6 processors via shared memory.
 %Mem=192000MB
 %chk=CP19_c2.DSDPBEP86_AUG-cc-PVTZ.chk
 ---------------------------------------------------------------------
 # DSDPBEP86/AUG-cc-PVTZ SCF=Tight INT(grid=ultrafine) MaxDisk=60000MB
 ---------------------------------------------------------------------
 1/38=1,172=1/1;
 2/12=2,17=6,18=5,40=1/2;
 3/5=16,6=1,7=10,11=9,25=1,30=1,74=-77,75=-5/1,2,3;
 4//1;
 5/5=2,32=2,38=5/2;
 8/10=1/1;
 9/16=-3/6;
 6/7=2,8=2,9=2,10=2/1;
 99/5=1,9=1/99;
 -----------------------------
 CP19_c2.DSDPBEP86_AUG-cc-PVTZ
 -----------------------------
 Symbolic Z-matrix:
 Charge =  0 Multiplicity = 1
 C                    -6.27233   1.41578  -0.00063 
 N                    -5.02289   0.79305   0.03503 
 C                    -3.77284   1.40724   0.01608 
 O                    -3.60958   2.60706   0.01466 
 N                    -2.73402   0.51055   0.03089 
 C                    -1.37073   1.01004  -0.09898 
 C                    -0.36909  -0.1078    0.15048 
 C                     1.06725   0.39116   0.02811 
 C                    -7.39352   0.59329   0.16659 
 C                    -8.66886   1.12429   0.12268 
 C                    -8.8674    2.48935  -0.08729 
 C                    -7.74628   3.29601  -0.25061 
 C                    -6.45719   2.78556  -0.21061 
 H                    -5.03836  -0.19671   0.23011 
 H                    -2.90377  -0.42265  -0.3157 
 H                    -1.24188   1.8107    0.63102 
 H                    -1.21476   1.45391  -1.08935 
 H                    -0.53705  -0.91914  -0.56781 
 H                    -0.54234  -0.5259    1.14647 
 H                     1.26237   0.79228  -0.96928 
 H                     1.78216  -0.41271   0.20914 
 H                     1.26882   1.18535   0.75072 
 H                    -7.276    -0.47224   0.33076 
 Cl                   -10.00899   0.03803   0.33704 
 C                    -10.24471   3.08768  -0.13902 
 H                    -7.88386   4.35753  -0.41325 
 H                    -5.60663   3.43679  -0.3324 
 F                    -10.19535   4.41081  -0.35147 
 F                    -10.98851   2.56428  -1.12447 
 F                    -10.92214   2.90319   1.00325 
 
                          Input orientation:                          
 ---------------------------------------------------------------------
 Center     Atomic      Atomic             Coordinates (Angstroms)
 Number     Number       Type             X           Y           Z
 ---------------------------------------------------------------------
      1          6           0       -6.272330    1.415781   -0.000627
      2          7           0       -5.022891    0.793053    0.035029
      3          6           0       -3.772837    1.407244    0.016082
      4          8           0       -3.609579    2.607064    0.014657
      5          7           0       -2.734019    0.510549    0.030889
      6          6           0       -1.370734    1.010042   -0.098984
      7          6           0       -0.369094   -0.107796    0.150478
      8          6           0        1.067254    0.391156    0.028113
      9          6           0       -7.393523    0.593294    0.166589
     10          6           0       -8.668859    1.124292    0.122679
     11          6           0       -8.867396    2.489349   -0.087287
     12          6           0       -7.746277    3.296005   -0.250613
     13          6           0       -6.457189    2.785561   -0.210609
     14          1           0       -5.038362   -0.196710    0.230105
     15          1           0       -2.903769   -0.422650   -0.315704
     16          1           0       -1.241884    1.810700    0.631022
     17          1           0       -1.214758    1.453909   -1.089355
     18          1           0       -0.537053   -0.919144   -0.567805
     19          1           0       -0.542340   -0.525902    1.146467
     20          1           0        1.262366    0.792277   -0.969278
     21          1           0        1.782156   -0.412714    0.209145
     22          1           0        1.268820    1.185350    0.750716
     23          1           0       -7.275997   -0.472242    0.330756
     24         17           0      -10.008993    0.038026    0.337043
     25          6           0      -10.244711    3.087685   -0.139018
     26          1           0       -7.883864    4.357528   -0.413249
     27          1           0       -5.606634    3.436785   -0.332399
     28          9           0      -10.195351    4.410805   -0.351470
     29          9           0      -10.988508    2.564282   -1.124473
     30          9           0      -10.922142    2.903191    1.003251
 ---------------------------------------------------------------------
                    Distance matrix (angstroms):
                    1          2          3          4          5
     1  C    0.000000
     2  N    1.396482   0.000000
     3  C    2.499564   1.392919   0.000000
     4  O    2.917127   2.299673   1.210877   0.000000
     5  N    3.652408   2.306243   1.372378   2.272057   0.000000
     6  C    4.919344   3.661050   2.437439   2.752421   1.457706
     7  C    6.098550   4.741590   3.728119   4.229617   2.447350
     8  C    7.410815   6.103395   4.945610   5.175249   3.803149
     9  C    1.400543   2.382669   3.714100   4.289124   4.662214
    10  C    2.417337   3.662033   4.905350   5.273195   5.967196
    11  C    2.809701   4.203879   5.209239   5.260122   6.445768
    12  C    2.402135   3.709878   4.407581   4.202056   5.741144
    13  C    1.398057   2.467314   3.026036   2.862077   4.369896
    14  H    2.043537   1.008923   2.054271   3.154201   2.418656
    15  H    3.850495   2.468122   2.052772   3.128334   1.009853
    16  H    5.085305   3.960659   2.635650   2.572952   2.068096
    17  H    5.173569   4.025276   2.787101   2.878155   2.110220
    18  H    6.218277   4.839190   4.027816   4.713154   2.688702
    19  H    6.157821   4.801070   3.930768   4.528182   2.668746
    20  H    7.622249   6.364988   5.167434   5.291259   4.129261
    21  H    8.262091   6.913237   5.848715   6.182855   4.613028
    22  H    7.581989   6.344425   5.099728   5.134377   4.122648
    23  H    2.163745   2.600945   3.987935   4.798402   4.656755
    24  Cl   3.996858   5.051979   6.392763   6.903360   7.296729
    25  C    4.312102   5.706403   6.688281   6.654291   7.942354
    26  H    3.379523   4.592560   5.078292   4.638614   6.443400
    27  H    2.153528   2.732230   2.757406   2.190231   4.116643
    28  F    4.948065   6.323912   7.099659   6.838122   8.427910
    29  F    4.982411   6.330110   7.396318   7.466461   8.584245
    30  F    4.984065   6.339661   7.370545   7.385024   8.585778
                    6          7          8          9         10
     6  C    0.000000
     7  C    1.521537   0.000000
     8  C    2.518523   1.525458   0.000000
     9  C    6.043029   7.059348   8.464324   0.000000
    10  C    7.302384   8.390763   9.764134   1.382160   0.000000
    11  C    7.641232   8.889478  10.154457   2.414907   1.395308
    12  C    6.774671   8.134468   9.284081   2.757380   2.388900
    13  C    5.388594   6.750318   7.899835   2.413512   2.786105
    14  H    3.875054   4.670793   6.137176   2.484940   3.864853
    15  H    2.109448   2.596350   4.068109   4.628460   5.985104
    16  H    1.091130   2.161785   2.776819   6.288119   7.475929
    17  H    1.096440   2.165931   2.754225   6.363584   7.559186
    18  H    2.153271   1.096552   2.155413   7.059603   8.413005
    19  H    2.143948   1.093993   2.163909   7.010812   8.355333
    20  H    2.781734   2.173855   1.092591   8.732365   9.996590
    21  H    3.472736   2.173544   1.090901   9.230761  10.563786
    22  H    2.778483   2.171469   1.092488   8.702179   9.957691
    23  H    6.103604   6.918861   8.393265   1.084495   2.128915
    24  Cl   8.703703   9.642806  11.086180   2.679190   1.738357
    25  C    9.114037  10.383772  11.630123   3.800612   2.531148
    26  H    7.329754   8.759491   9.800481   3.840066   3.370052
    27  H    4.887373   6.342638   7.344836   3.395203   3.864187
    28  F    9.460592  10.827051  11.964445   4.763614   3.654609
    29  F    9.796370  11.024403  12.304159   4.298319   3.001622
    30  F    9.799405  11.007274  12.288484   4.299625   3.002861
                   11         12         13         14         15
    11  C    0.000000
    12  C    1.390783   0.000000
    13  C    2.431470   1.387048   0.000000
    14  H    4.687979   4.445555   3.331853   0.000000
    15  H    6.640539   6.105941   4.788576   2.214824   0.000000
    16  H    7.689275   6.729825   5.371973   4.313198   2.940409
    17  H    7.787113   6.837949   5.479833   4.368692   2.640600
    18  H    9.013508   8.357093   6.992885   4.628213   2.431338
    19  H    8.939824   8.273785   6.913240   4.600250   2.779380
    20  H   10.308735   9.377674   8.008762   6.489667   4.388608
    21  H   11.041865  10.235087   8.848274   6.823970   4.715237
    22  H   10.254049   9.312867   7.948335   6.477783   4.597109
    23  H    3.387968   3.841723   3.402470   2.256781   4.420040
    24  Cl   2.737204   4.009944   4.523736   4.977319   7.150000
    25  C    1.502558   2.509586   3.800228   6.166812   8.138987
    26  H    2.136277   1.082687   2.132498   5.408500   6.903692
    27  H    3.404450   2.145828   1.078132   3.720435   4.711794
    28  F    2.350586   2.692752   4.078617   6.939882   8.748185
    29  F    2.362306   3.436730   4.627847   6.697925   8.656725
    30  F    2.362736   3.436946   4.628510   6.695223   8.780385
                   16         17         18         19         20
    16  H    0.000000
    17  H    1.757194   0.000000
    18  H    3.063662   2.522435   0.000000
    19  H    2.492941   3.061160   1.758805   0.000000
    20  H    3.141562   2.566772   2.515561   3.077488   0.000000
    21  H    3.777085   3.761898   2.497769   2.508917   1.763764
    22  H    2.590178   3.102603   3.070598   2.522955   1.764349
    23  H    6.458522   6.516548   6.813259   6.783097   8.728845
    24  Cl   8.949357   9.020970   9.563083   9.517915  11.371846
    25  C    9.125489   9.225639  10.510812  10.432953  11.763122
    26  H    7.189766   7.305142   9.046700   8.954250   9.832279
    27  H    4.756404   4.877843   6.688063   6.598259   7.387976
    28  F    9.374988   9.483605  11.033489  10.945114  12.031405
    29  F    9.932086   9.836684  11.030732  11.127841  12.379338
    30  F    9.748820  10.035573  11.177143  10.932497  12.522342
                   21         22         23         24         25
    21  H    0.000000
    22  H    1.763696   0.000000
    23  H    9.059165   8.714234   0.000000
    24  Cl  11.800454  11.343568   2.780230   0.000000
    25  C   12.530744  11.703500   4.659080   3.095580   0.000000
    26  H   10.796969   9.756493   4.924401   4.872085   2.694680
    27  H    8.349020   7.315324   4.301981   5.601828   4.655215
    28  F   12.924446  11.960167   5.729940   4.430573   1.340977
    29  F   13.180702  12.476373   5.012076   3.078546   1.341009
    30  F   13.153897  12.313988   5.013997   3.080072   1.340794
                   26         27         28         29         30
    26  H    0.000000
    27  H    2.457658   0.000000
    28  F    2.312926   4.690991   0.000000
    29  F    3.655186   5.509375   2.153203   0.000000
    30  F    3.654135   5.506660   2.153229   2.155567   0.000000
 Stoichiometry    C11H12ClF3N2O
 Framework group  C1[X(C11H12ClF3N2O)]
 Deg. of freedom    84
 Full point group                 C1      NOp   1
 Largest Abelian subgroup         C1      NOp   1
 Largest concise Abelian subgroup C1      NOp   1
                         Standard orientation:                         
 ---------------------------------------------------------------------
 Center     Atomic      Atomic             Coordinates (Angstroms)
 Number     Number       Type             X           Y           Z
 ---------------------------------------------------------------------
      1          6           0        0.226956    0.173145    0.025176
      2          7           0        1.568767    0.559214    0.050765
      3          6           0        2.686621   -0.266785   -0.040619
      4          8           0        2.629617   -1.464626   -0.208400
      5          7           0        3.870869    0.421091    0.047745
      6          6           0        5.120286   -0.329133    0.079774
      7          6           0        6.309309    0.613527   -0.032888
      8          6           0        7.630715   -0.148292   -0.009693
      9          6           0       -0.725624    1.199428   -0.004054
     10          6           0       -2.076313    0.906188   -0.008264
     11          6           0       -2.520171   -0.416437    0.014904
     12          6           0       -1.564773   -1.426749    0.042472
     13          6           0       -0.204307   -1.156546    0.047429
     14          1           0        1.734042    1.552932   -0.005232
     15          1           0        3.871308    1.311910    0.523395
     16          1           0        5.105682   -1.029994   -0.756376
     17          1           0        5.187965   -0.927713    0.995908
     18          1           0        6.287453    1.333483    0.793921
     19          1           0        6.220006    1.190922   -0.957799
     20          1           0        7.744593   -0.713288    0.918513
     21          1           0        8.480467    0.530806   -0.092222
     22          1           0        7.688753   -0.857001   -0.839086
     23          1           0       -0.415983    2.238630   -0.021652
     24         17           0       -3.196126    2.235351   -0.043290
     25          6           0       -3.983399   -0.757950    0.011185
     26          1           0       -1.893407   -2.458215    0.059513
     27          1           0        0.513418   -1.960947    0.060820
     28          9           0       -4.175882   -2.084778    0.037610
     29          9           0       -4.625160   -0.251855    1.074348
     30          9           0       -4.610108   -0.296699   -1.080700
 ---------------------------------------------------------------------
 Rotational constants (GHZ):           1.0957442           0.1212632           0.1115976
 Standard basis: Aug-CC-pVTZ (5D, 7F)
 There are  1294 symmetry adapted cartesian basis functions of A   symmetry.
 There are  1108 symmetry adapted basis functions of A   symmetry.
  1108 basis functions,  1662 primitive gaussians,  1294 cartesian basis functions
    72 alpha electrons       72 beta electrons
       nuclear repulsion energy      1425.2033832715 Hartrees.
 NAtoms=   30 NActive=   30 NUniq=   30 SFac= 1.00D+00 NAtFMM=   60 NAOKFM=F Big=F
 Integral buffers will be    131072 words long.
 Regular integral format.
 Two-electron integral symmetry is turned on.
 Nuclear repulsion after empirical dispersion term =     1425.1805443652 Hartrees.
 One-electron integrals computed using PRISM.
 NBasis=  1108 RedAO= T EigKep=  1.31D-06  NBF=  1108
 NBsUse=  1104 1.00D-06 EigRej=  9.11D-07 NBFU=  1104
 ExpMin= 2.53D-02 ExpMax= 4.56D+05 ExpMxC= 1.44D+03 IAcc=3 IRadAn=         5 AccDes= 0.00D+00
 Harris functional with IExCor= 1004 and IRadAn=       5 diagonalized for initial guess.
 HarFok:  IExCor= 1004 AccDes= 0.00D+00 IRadAn=         5 IDoV= 1 UseB2=F ITyADJ=14
 ICtDFT=  3500011 ScaDFX=  1.000000  1.000000  1.000000  1.000000
 FoFCou: FMM=F IPFlag=           0 FMFlag=      100000 FMFlg1=           0
         NFxFlg=           0 DoJE=T BraDBF=F KetDBF=T FulRan=T
         wScrn=  0.000000 ICntrl=       500 IOpCl=  0 I1Cent=   200000004 NGrid=           0
         NMat0=    1 NMatS0=      1 NMatT0=    0 NMatD0=    1 NMtDS0=    0 NMtDT0=    0
 Petite list used in FoFCou.
 Requested convergence on RMS density matrix=1.00D-08 within 128 cycles.
 Requested convergence on MAX density matrix=1.00D-06.
 Requested convergence on             energy=1.00D-06.
 No special actions if energy rises.
 SCF Done:  E(RDSDPBEP86) =  -1367.76812758     A.U. after   13 cycles
            NFock= 13  Conv=0.97D-08     -V/T= 2.0025
 DoSCS=T DFT=T ScalE2(SS,OS)=  0.220000  0.520000
 ExpMin= 2.53D-02 ExpMax= 4.56D+05 ExpMxC= 1.44D+03 IAcc=3 IRadAn=         5 AccDes= 0.00D+00
 HarFok:  IExCor=  205 AccDes= 0.00D+00 IRadAn=         5 IDoV=-2 UseB2=F ITyADJ=14
 ICtDFT= 12500011 ScaDFX=  1.000000  1.000000  1.000000  1.000000
 GSVD:  LWork=        -660 too small for GESVD, short by        2750 words or        2750 for optimal perf.
 Range of M.O.s used for correlation:    23  1104
 NBasis=  1108 NAE=    72 NBE=    72 NFC=    22 NFV=     0
 NROrb=   1082 NOA=    50 NOB=    50 NVA=  1032 NVB=  1032

 **** Warning!!: The largest alpha MO coefficient is  0.95520012D+02

 DoSCS=T DFT=T ScalE2(SS,OS)=  0.220000  0.520000
 Fully direct method using O(OVN) memory.
 JobTyp=1 Pass  1:  I=   1 to  50 NPSUse=  6 ParTrn=T ParDer=T DoDerP=F.
 Spin components of T(2) and E(2):
     alpha-alpha T2 =       0.1750337366D+00 E2=     -0.1097490878D+00
     alpha-beta  T2 =       0.9075243012D+00 E2=     -0.1476249909D+01
     beta-beta   T2 =       0.1750337366D+00 E2=     -0.1097490878D+00
 E2(DSDPBEP86) =    -0.1695748085D+01 E(DSDPBEP86) =    -0.13694638756627D+04

 **********************************************************************

            Population analysis using the SCF Density.

 **********************************************************************

 Orbital symmetries:
       Occupied  (A) (A) (A) (A) (A) (A) (A) (A) (A) (A) (A) (A)
                 (A) (A) (A) (A) (A) (A) (A) (A) (A) (A) (A) (A)
                 (A) (A) (A) (A) (A) (A) (A) (A) (A) (A) (A) (A)
                 (A) (A) (A) (A) (A) (A) (A) (A) (A) (A) (A) (A)
                 (A) (A) (A) (A) (A) (A) (A) (A) (A) (A) (A) (A)
                 (A) (A) (A) (A) (A) (A) (A) (A) (A) (A) (A) (A)
       Virtual   (A) (A) (A) (A) (A) (A) (A) (A) (A) (A) (A) (A)
                 (A) (A) (A) (A) (A) (A) (A) (A) (A) (A) (A) (A)
                 (A) (A) (A) (A) (A) (A) (A) (A) (A) (A) (A) (A)
                 (A) (A) (A) (A) (A) (A) (A) (A) (A) (A) (A) (A)
                 (A) (A) (A) (A) (A) (A) (A) (A) (A) (A) (A) (A)
                 (A) (A) (A) (A) (A) (A) (A) (A) (A) (A) (A) (A)
                 (A) (A) (A) (A) (A) (A) (A) (A) (A) (A) (A) (A)
                 (A) (A) (A) (A) (A) (A) (A) (A) (A) (A) (A) (A)
                 (A) (A) (A) (A) (A) (A) (A) (A) (A) (A) (A) (A)
                 (A) (A) (A) (A) (A) (A) (A) (A) (A) (A) (A) (A)
                 (A) (A) (A) (A) (A) (A) (A) (A) (A) (A) (A) (A)
                 (A) (A) (A) (A) (A) (A) (A) (A) (A) (A) (A) (A)
                 (A) (A) (A) (A) (A) (A) (A) (A) (A) (A) (A) (A)
                 (A) (A) (A) (A) (A) (A) (A) (A) (A) (A) (A) (A)
                 (A) (A) (A) (A) (A) (A) (A) (A) (A) (A) (A) (A)
                 (A) (A) (A) (A) (A) (A) (A) (A) (A) (A) (A) (A)
                 (A) (A) (A) (A) (A) (A) (A) (A) (A) (A) (A) (A)
                 (A) (A) (A) (A) (A) (A) (A) (A) (A) (A) (A) (A)
                 (A) (A) (A) (A) (A) (A) (A) (A) (A) (A) (A) (A)
                 (A) (A) (A) (A) (A) (A) (A) (A) (A) (A) (A) (A)
                 (A) (A) (A) (A) (A) (A) (A) (A) (A) (A) (A) (A)
                 (A) (A) (A) (A) (A) (A) (A) (A) (A) (A) (A) (A)
                 (A) (A) (A) (A) (A) (A) (A) (A) (A) (A) (A) (A)
                 (A) (A) (A) (A) (A) (A) (A) (A) (A) (A) (A) (A)
                 (A) (A) (A) (A) (A) (A) (A) (A) (A) (A) (A) (A)
                 (A) (A) (A) (A) (A) (A) (A) (A) (A) (A) (A) (A)
                 (A) (A) (A) (A) (A) (A) (A) (A) (A) (A) (A) (A)
                 (A) (A) (A) (A) (A) (A) (A) (A) (A) (A) (A) (A)
                 (A) (A) (A) (A) (A) (A) (A) (A) (A) (A) (A) (A)
                 (A) (A) (A) (A) (A) (A) (A) (A) (A) (A) (A) (A)
                 (A) (A) (A) (A) (A) (A) (A) (A) (A) (A) (A) (A)
                 (A) (A) (A) (A) (A) (A) (A) (A) (A) (A) (A) (A)
                 (A) (A) (A) (A) (A) (A) (A) (A) (A) (A) (A) (A)
                 (A) (A) (A) (A) (A) (A) (A) (A) (A) (A) (A) (A)
                 (A) (A) (A) (A) (A) (A) (A) (A) (A) (A) (A) (A)
                 (A) (A) (A) (A) (A) (A) (A) (A) (A) (A) (A) (A)
                 (A) (A) (A) (A) (A) (A) (A) (A) (A) (A) (A) (A)
                 (A) (A) (A) (A) (A) (A) (A) (A) (A) (A) (A) (A)
                 (A) (A) (A) (A) (A) (A) (A) (A) (A) (A) (A) (A)
                 (A) (A) (A) (A) (A) (A) (A) (A) (A) (A) (A) (A)
                 (A) (A) (A) (A) (A) (A) (A) (A) (A) (A) (A) (A)
                 (A) (A) (A) (A) (A) (A) (A) (A) (A) (A) (A) (A)
                 (A) (A) (A) (A) (A) (A) (A) (A) (A) (A) (A) (A)
                 (A) (A) (A) (A) (A) (A) (A) (A) (A) (A) (A) (A)
                 (A) (A) (A) (A) (A) (A) (A) (A) (A) (A) (A) (A)
                 (A) (A) (A) (A) (A) (A) (A) (A) (A) (A) (A) (A)
                 (A) (A) (A) (A) (A) (A) (A) (A) (A) (A) (A) (A)
                 (A) (A) (A) (A) (A) (A) (A) (A) (A) (A) (A) (A)
                 (A) (A) (A) (A) (A) (A) (A) (A) (A) (A) (A) (A)
                 (A) (A) (A) (A) (A) (A) (A) (A) (A) (A) (A) (A)
                 (A) (A) (A) (A) (A) (A) (A) (A) (A) (A) (A) (A)
                 (A) (A) (A) (A) (A) (A) (A) (A) (A) (A) (A) (A)
                 (A) (A) (A) (A) (A) (A) (A) (A) (A) (A) (A) (A)
                 (A) (A) (A) (A) (A) (A) (A) (A) (A) (A) (A) (A)
                 (A) (A) (A) (A) (A) (A) (A) (A) (A) (A) (A) (A)
                 (A) (A) (A) (A) (A) (A) (A) (A) (A) (A) (A) (A)
                 (A) (A) (A) (A) (A) (A) (A) (A) (A) (A) (A) (A)
                 (A) (A) (A) (A) (A) (A) (A) (A) (A) (A) (A) (A)
                 (A) (A) (A) (A) (A) (A) (A) (A) (A) (A) (A) (A)
                 (A) (A) (A) (A) (A) (A) (A) (A) (A) (A) (A) (A)
                 (A) (A) (A) (A) (A) (A) (A) (A) (A) (A) (A) (A)
                 (A) (A) (A) (A) (A) (A) (A) (A) (A) (A) (A) (A)
                 (A) (A) (A) (A) (A) (A) (A) (A) (A) (A) (A) (A)
                 (A) (A) (A) (A) (A) (A) (A) (A) (A) (A) (A) (A)
                 (A) (A) (A) (A) (A) (A) (A) (A) (A) (A) (A) (A)
                 (A) (A) (A) (A) (A) (A) (A) (A) (A) (A) (A) (A)
                 (A) (A) (A) (A) (A) (A) (A) (A) (A) (A) (A) (A)
                 (A) (A) (A) (A) (A) (A) (A) (A) (A) (A) (A) (A)
                 (A) (A) (A) (A) (A) (A) (A) (A) (A) (A) (A) (A)
                 (A) (A) (A) (A) (A) (A) (A) (A) (A) (A) (A) (A)
                 (A) (A) (A) (A) (A) (A) (A) (A) (A) (A) (A) (A)
                 (A) (A) (A) (A) (A) (A) (A) (A) (A) (A) (A) (A)
                 (A) (A) (A) (A) (A) (A) (A) (A) (A) (A) (A) (A)
                 (A) (A) (A) (A) (A) (A) (A) (A) (A) (A) (A) (A)
                 (A) (A) (A) (A) (A) (A) (A) (A) (A) (A) (A) (A)
                 (A) (A) (A) (A) (A) (A) (A) (A) (A) (A) (A) (A)
                 (A) (A) (A) (A) (A) (A) (A) (A) (A) (A) (A) (A)
                 (A) (A) (A) (A) (A) (A) (A) (A) (A) (A) (A) (A)
                 (A) (A) (A) (A) (A) (A) (A) (A) (A) (A) (A) (A)
                 (A) (A) (A) (A) (A) (A) (A) (A) (A) (A) (A) (A)
                 (A) (A) (A) (A) (A) (A) (A) (A) (A) (A) (A) (A)
                 (A) (A) (A) (A) (A) (A) (A) (A) (A) (A) (A) (A)
                 (A) (A) (A) (A) (A) (A) (A) (A) (A) (A) (A) (A)
                 (A) (A) (A) (A) (A) (A) (A) (A) (A) (A) (A) (A)
                 (A) (A) (A) (A) (A) (A) (A) (A) (A) (A) (A) (A)
                 (A) (A) (A) (A) (A) (A) (A) (A) (A) (A) (A) (A)
 The electronic state is 1-A.
 Alpha  occ. eigenvalues -- -103.58129 -25.70772 -25.70212 -25.70209 -19.98315
 Alpha  occ. eigenvalues --  -15.13927 -15.11721 -11.08428 -10.97695 -10.91326
 Alpha  occ. eigenvalues --  -10.90379 -10.86067 -10.85683 -10.85205 -10.84927
 Alpha  occ. eigenvalues --  -10.83321 -10.83165 -10.81797 -10.15633  -7.73318
 Alpha  occ. eigenvalues --   -7.72835  -7.72816  -1.57119  -1.47764  -1.47375
 Alpha  occ. eigenvalues --   -1.29265  -1.16827  -1.13159  -1.09591  -1.02709
 Alpha  occ. eigenvalues --   -0.97899  -0.96054  -0.92356  -0.87672  -0.84882
 Alpha  occ. eigenvalues --   -0.79450  -0.78799  -0.75372  -0.74123  -0.73223
 Alpha  occ. eigenvalues --   -0.72978  -0.71094  -0.69251  -0.66349  -0.61770
 Alpha  occ. eigenvalues --   -0.61623  -0.61275  -0.59717  -0.59601  -0.58636
 Alpha  occ. eigenvalues --   -0.57311  -0.57096  -0.56776  -0.56181  -0.55264
 Alpha  occ. eigenvalues --   -0.54558  -0.53967  -0.52650  -0.51321  -0.49935
 Alpha  occ. eigenvalues --   -0.49043  -0.47423  -0.47089  -0.45579  -0.44802
 Alpha  occ. eigenvalues --   -0.44096  -0.41474  -0.41002  -0.39646  -0.36601
 Alpha  occ. eigenvalues --   -0.32750  -0.30315
 Alpha virt. eigenvalues --    0.00191   0.01507   0.02329   0.02488   0.03215
 Alpha virt. eigenvalues --    0.03436   0.03470   0.03765   0.04597   0.04762
 Alpha virt. eigenvalues --    0.04966   0.05310   0.06081   0.06574   0.06819
 Alpha virt. eigenvalues --    0.07110   0.07259   0.07521   0.08339   0.08479
 Alpha virt. eigenvalues --    0.09451   0.09647   0.09828   0.09908   0.10098
 Alpha virt. eigenvalues --    0.10363   0.10661   0.11190   0.11228   0.11631
 Alpha virt. eigenvalues --    0.11931   0.12138   0.12987   0.13108   0.13297
 Alpha virt. eigenvalues --    0.13696   0.13805   0.13930   0.14119   0.14316
 Alpha virt. eigenvalues --    0.14895   0.14966   0.15629   0.16136   0.16252
 Alpha virt. eigenvalues --    0.16996   0.17188   0.17295   0.17633   0.17786
 Alpha virt. eigenvalues --    0.18241   0.18403   0.18972   0.19035   0.19353
 Alpha virt. eigenvalues --    0.19609   0.20074   0.20407   0.20924   0.21353
 Alpha virt. eigenvalues --    0.21849   0.22340   0.22538   0.22732   0.23010
 Alpha virt. eigenvalues --    0.23183   0.23459   0.23668   0.24219   0.24668
 Alpha virt. eigenvalues --    0.24994   0.25246   0.25514   0.25890   0.26236
 Alpha virt. eigenvalues --    0.26358   0.27046   0.27147   0.27233   0.27940
 Alpha virt. eigenvalues --    0.28101   0.28520   0.28606   0.29042   0.29376
 Alpha virt. eigenvalues --    0.29864   0.30214   0.30314   0.30512   0.30887
 Alpha virt. eigenvalues --    0.31050   0.31238   0.31759   0.32155   0.32189
 Alpha virt. eigenvalues --    0.32544   0.32710   0.32954   0.33205   0.33609
 Alpha virt. eigenvalues --    0.33899   0.34003   0.34093   0.34400   0.35082
 Alpha virt. eigenvalues --    0.35470   0.35783   0.36156   0.36339   0.36618
 Alpha virt. eigenvalues --    0.36847   0.36997   0.37219   0.37440   0.37836
 Alpha virt. eigenvalues --    0.38153   0.38347   0.38571   0.38977   0.39361
 Alpha virt. eigenvalues --    0.39493   0.39851   0.40251   0.40452   0.40599
 Alpha virt. eigenvalues --    0.41047   0.41401   0.41670   0.41857   0.42207
 Alpha virt. eigenvalues --    0.42452   0.42641   0.42753   0.43326   0.43531
 Alpha virt. eigenvalues --    0.43816   0.44231   0.44293   0.44775   0.44870
 Alpha virt. eigenvalues --    0.44958   0.46019   0.46149   0.46220   0.46671
 Alpha virt. eigenvalues --    0.46702   0.47359   0.47592   0.47809   0.48305
 Alpha virt. eigenvalues --    0.48483   0.48761   0.49063   0.49422   0.49859
 Alpha virt. eigenvalues --    0.50201   0.50297   0.50366   0.50835   0.51025
 Alpha virt. eigenvalues --    0.51176   0.51463   0.51638   0.51881   0.52260
 Alpha virt. eigenvalues --    0.52527   0.53037   0.53637   0.53888   0.54101
 Alpha virt. eigenvalues --    0.55054   0.55449   0.55784   0.56355   0.56627
 Alpha virt. eigenvalues --    0.56783   0.57249   0.57649   0.58520   0.59230
 Alpha virt. eigenvalues --    0.59682   0.59885   0.60196   0.60890   0.61189
 Alpha virt. eigenvalues --    0.61693   0.61986   0.62398   0.62990   0.63005
 Alpha virt. eigenvalues --    0.63300   0.63927   0.64633   0.64900   0.65124
 Alpha virt. eigenvalues --    0.65517   0.66422   0.66892   0.67551   0.67883
 Alpha virt. eigenvalues --    0.68476   0.68677   0.68827   0.69488   0.69516
 Alpha virt. eigenvalues --    0.70055   0.70782   0.71413   0.71641   0.72682
 Alpha virt. eigenvalues --    0.73309   0.73603   0.73650   0.74497   0.75019
 Alpha virt. eigenvalues --    0.75625   0.76110   0.76277   0.76740   0.76827
 Alpha virt. eigenvalues --    0.77420   0.77952   0.78316   0.78696   0.79020
 Alpha virt. eigenvalues --    0.79465   0.79801   0.80429   0.81173   0.81354
 Alpha virt. eigenvalues --    0.81967   0.82206   0.82288   0.82618   0.83031
 Alpha virt. eigenvalues --    0.83225   0.83636   0.83740   0.83992   0.84453
 Alpha virt. eigenvalues --    0.84995   0.85184   0.85324   0.85604   0.85823
 Alpha virt. eigenvalues --    0.86448   0.86785   0.87107   0.87588   0.87965
 Alpha virt. eigenvalues --    0.88348   0.88747   0.89125   0.89317   0.89686
 Alpha virt. eigenvalues --    0.89912   0.90290   0.90833   0.91114   0.91778
 Alpha virt. eigenvalues --    0.91896   0.92309   0.92590   0.92878   0.93045
 Alpha virt. eigenvalues --    0.93506   0.94325   0.94742   0.94967   0.95510
 Alpha virt. eigenvalues --    0.96090   0.96900   0.97040   0.97510   0.97705
 Alpha virt. eigenvalues --    0.97950   0.98334   0.98954   0.99070   0.99498
 Alpha virt. eigenvalues --    1.00254   1.00468   1.00835   1.01481   1.01630
 Alpha virt. eigenvalues --    1.02094   1.02320   1.02643   1.02986   1.03600
 Alpha virt. eigenvalues --    1.04144   1.04476   1.04541   1.04909   1.05317
 Alpha virt. eigenvalues --    1.05529   1.05994   1.06561   1.07030   1.07227
 Alpha virt. eigenvalues --    1.07393   1.07583   1.07810   1.08401   1.08529
 Alpha virt. eigenvalues --    1.08767   1.09474   1.10096   1.10439   1.10602
 Alpha virt. eigenvalues --    1.11060   1.11188   1.11704   1.12176   1.12258
 Alpha virt. eigenvalues --    1.12785   1.13553   1.13614   1.14137   1.14572
 Alpha virt. eigenvalues --    1.15244   1.15637   1.16033   1.16477   1.16774
 Alpha virt. eigenvalues --    1.17430   1.17687   1.18120   1.18414   1.18653
 Alpha virt. eigenvalues --    1.19214   1.19687   1.20018   1.20319   1.21033
 Alpha virt. eigenvalues --    1.21555   1.22098   1.22282   1.22710   1.23507
 Alpha virt. eigenvalues --    1.23779   1.24204   1.24409   1.25432   1.26227
 Alpha virt. eigenvalues --    1.26365   1.26625   1.27310   1.27318   1.28342
 Alpha virt. eigenvalues --    1.28646   1.28921   1.29296   1.29613   1.30584
 Alpha virt. eigenvalues --    1.30729   1.31351   1.31643   1.31826   1.32387
 Alpha virt. eigenvalues --    1.33126   1.33406   1.33638   1.34707   1.35304
 Alpha virt. eigenvalues --    1.35687   1.36340   1.36634   1.36713   1.36901
 Alpha virt. eigenvalues --    1.37515   1.38006   1.38663   1.39546   1.40117
 Alpha virt. eigenvalues --    1.40415   1.41158   1.42143   1.42475   1.43307
 Alpha virt. eigenvalues --    1.43715   1.43900   1.44404   1.44911   1.45670
 Alpha virt. eigenvalues --    1.46071   1.46379   1.46985   1.47963   1.48391
 Alpha virt. eigenvalues --    1.48522   1.49557   1.49921   1.50188   1.50540
 Alpha virt. eigenvalues --    1.51525   1.51679   1.52385   1.52829   1.53361
 Alpha virt. eigenvalues --    1.54101   1.54646   1.55065   1.55587   1.56138
 Alpha virt. eigenvalues --    1.56383   1.57274   1.57628   1.58083   1.58397
 Alpha virt. eigenvalues --    1.59129   1.59507   1.59851   1.60863   1.61273
 Alpha virt. eigenvalues --    1.61436   1.61935   1.62263   1.62840   1.63532
 Alpha virt. eigenvalues --    1.63585   1.63953   1.64865   1.64933   1.65961
 Alpha virt. eigenvalues --    1.66382   1.66838   1.67187   1.67792   1.68255
 Alpha virt. eigenvalues --    1.69000   1.69367   1.69504   1.70040   1.70947
 Alpha virt. eigenvalues --    1.71111   1.71452   1.72149   1.72574   1.72746
 Alpha virt. eigenvalues --    1.73505   1.74148   1.74728   1.74824   1.75538
 Alpha virt. eigenvalues --    1.76439   1.76798   1.77203   1.77596   1.78683
 Alpha virt. eigenvalues --    1.79098   1.79350   1.80139   1.80698   1.81192
 Alpha virt. eigenvalues --    1.81560   1.82263   1.83085   1.83823   1.84100
 Alpha virt. eigenvalues --    1.84808   1.85107   1.85834   1.86208   1.86792
 Alpha virt. eigenvalues --    1.87305   1.87860   1.88156   1.88399   1.89015
 Alpha virt. eigenvalues --    1.89950   1.90596   1.90945   1.91752   1.92701
 Alpha virt. eigenvalues --    1.93077   1.93557   1.94397   1.95069   1.95400
 Alpha virt. eigenvalues --    1.96092   1.96805   1.97124   1.97427   1.98376
 Alpha virt. eigenvalues --    1.98783   1.99170   1.99377   2.00048   2.00525
 Alpha virt. eigenvalues --    2.01656   2.03067   2.03658   2.03950   2.04240
 Alpha virt. eigenvalues --    2.05164   2.06368   2.06813   2.07613   2.08606
 Alpha virt. eigenvalues --    2.09632   2.10072   2.10565   2.10910   2.11640
 Alpha virt. eigenvalues --    2.13559   2.14484   2.15011   2.15513   2.15975
 Alpha virt. eigenvalues --    2.16652   2.17079   2.17713   2.18647   2.18789
 Alpha virt. eigenvalues --    2.20213   2.21436   2.22059   2.22739   2.23371
 Alpha virt. eigenvalues --    2.23941   2.24596   2.25238   2.26199   2.26421
 Alpha virt. eigenvalues --    2.27174   2.27773   2.29909   2.30410   2.31153
 Alpha virt. eigenvalues --    2.31856   2.32774   2.33342   2.34290   2.35044
 Alpha virt. eigenvalues --    2.35768   2.36053   2.38228   2.38437   2.38992
 Alpha virt. eigenvalues --    2.39363   2.39936   2.40599   2.42309   2.43785
 Alpha virt. eigenvalues --    2.44162   2.45819   2.46862   2.47365   2.47868
 Alpha virt. eigenvalues --    2.48406   2.49716   2.50260   2.51211   2.51421
 Alpha virt. eigenvalues --    2.53117   2.54242   2.55759   2.56203   2.56552
 Alpha virt. eigenvalues --    2.57499   2.58171   2.59491   2.60734   2.61740
 Alpha virt. eigenvalues --    2.62284   2.63145   2.63897   2.64991   2.65878
 Alpha virt. eigenvalues --    2.66619   2.67530   2.68992   2.70373   2.71060
 Alpha virt. eigenvalues --    2.71680   2.72565   2.74797   2.74955   2.75737
 Alpha virt. eigenvalues --    2.76462   2.77622   2.78300   2.79254   2.80306
 Alpha virt. eigenvalues --    2.82063   2.82578   2.83269   2.84955   2.86541
 Alpha virt. eigenvalues --    2.87965   2.88443   2.89547   2.90197   2.90292
 Alpha virt. eigenvalues --    2.90738   2.92351   2.93694   2.94527   2.95030
 Alpha virt. eigenvalues --    2.96840   2.97228   2.98849   3.00048   3.00847
 Alpha virt. eigenvalues --    3.00987   3.01492   3.02139   3.02784   3.04565
 Alpha virt. eigenvalues --    3.05304   3.05749   3.07457   3.08333   3.10443
 Alpha virt. eigenvalues --    3.11020   3.12075   3.12344   3.14397   3.15007
 Alpha virt. eigenvalues --    3.15630   3.17325   3.17662   3.18405   3.18818
 Alpha virt. eigenvalues --    3.19688   3.20596   3.20793   3.21699   3.22857
 Alpha virt. eigenvalues --    3.23939   3.25050   3.25621   3.25955   3.27898
 Alpha virt. eigenvalues --    3.28538   3.29250   3.29526   3.29977   3.30858
 Alpha virt. eigenvalues --    3.31523   3.32245   3.32907   3.33196   3.34837
 Alpha virt. eigenvalues --    3.35367   3.35876   3.36440   3.36897   3.37485
 Alpha virt. eigenvalues --    3.37725   3.39311   3.40115   3.40635   3.41457
 Alpha virt. eigenvalues --    3.42449   3.43047   3.43459   3.44798   3.45106
 Alpha virt. eigenvalues --    3.45786   3.46197   3.47111   3.47515   3.49190
 Alpha virt. eigenvalues --    3.49379   3.50504   3.50654   3.51669   3.52363
 Alpha virt. eigenvalues --    3.53397   3.53652   3.54627   3.55298   3.56738
 Alpha virt. eigenvalues --    3.56906   3.58183   3.59040   3.59404   3.60093
 Alpha virt. eigenvalues --    3.60748   3.60876   3.61350   3.62044   3.62733
 Alpha virt. eigenvalues --    3.63238   3.63493   3.64083   3.64953   3.65880
 Alpha virt. eigenvalues --    3.66274   3.67264   3.68470   3.69471   3.70430
 Alpha virt. eigenvalues --    3.71077   3.71620   3.72485   3.72751   3.73348
 Alpha virt. eigenvalues --    3.74099   3.74394   3.74960   3.76287   3.77038
 Alpha virt. eigenvalues --    3.77341   3.78007   3.78451   3.79214   3.80084
 Alpha virt. eigenvalues --    3.80602   3.81411   3.81925   3.82542   3.83037
 Alpha virt. eigenvalues --    3.83684   3.84100   3.84559   3.84713   3.85676
 Alpha virt. eigenvalues --    3.85857   3.87249   3.87934   3.89117   3.89475
 Alpha virt. eigenvalues --    3.90118   3.90418   3.91533   3.92306   3.94062
 Alpha virt. eigenvalues --    3.94536   3.94923   3.96229   3.96720   3.97026
 Alpha virt. eigenvalues --    3.98675   3.99086   4.00260   4.00829   4.01699
 Alpha virt. eigenvalues --    4.03235   4.04210   4.04724   4.05738   4.06051
 Alpha virt. eigenvalues --    4.06811   4.06984   4.07784   4.08378   4.08803
 Alpha virt. eigenvalues --    4.09049   4.09914   4.10451   4.10948   4.12550
 Alpha virt. eigenvalues --    4.12862   4.13450   4.13984   4.14906   4.15452
 Alpha virt. eigenvalues --    4.16978   4.17273   4.17644   4.19190   4.20235
 Alpha virt. eigenvalues --    4.21078   4.22074   4.22694   4.23523   4.24368
 Alpha virt. eigenvalues --    4.24825   4.26576   4.26728   4.27546   4.28613
 Alpha virt. eigenvalues --    4.29418   4.29682   4.30952   4.31097   4.31988
 Alpha virt. eigenvalues --    4.32237   4.33389   4.33438   4.34418   4.35548
 Alpha virt. eigenvalues --    4.36002   4.38136   4.38735   4.39692   4.40325
 Alpha virt. eigenvalues --    4.41153   4.41617   4.43286   4.43690   4.45786
 Alpha virt. eigenvalues --    4.45942   4.48466   4.48849   4.50038   4.50802
 Alpha virt. eigenvalues --    4.51049   4.51930   4.53079   4.53869   4.53968
 Alpha virt. eigenvalues --    4.55947   4.56580   4.57273   4.57950   4.59219
 Alpha virt. eigenvalues --    4.60989   4.62651   4.62786   4.63302   4.63750
 Alpha virt. eigenvalues --    4.64651   4.64886   4.67107   4.67900   4.68574
 Alpha virt. eigenvalues --    4.69537   4.70017   4.71100   4.72253   4.72747
 Alpha virt. eigenvalues --    4.74503   4.74966   4.75764   4.75903   4.77189
 Alpha virt. eigenvalues --    4.78172   4.80689   4.81594   4.82132   4.83694
 Alpha virt. eigenvalues --    4.84321   4.84528   4.85345   4.87572   4.88292
 Alpha virt. eigenvalues --    4.88748   4.89423   4.91276   4.91935   4.93553
 Alpha virt. eigenvalues --    4.93626   4.94297   4.95059   4.96835   4.97079
 Alpha virt. eigenvalues --    4.97194   4.99429   5.00422   5.01051   5.02767
 Alpha virt. eigenvalues --    5.04745   5.05564   5.06290   5.06904   5.07620
 Alpha virt. eigenvalues --    5.09637   5.10628   5.10958   5.12231   5.12424
 Alpha virt. eigenvalues --    5.13695   5.14391   5.16118   5.17282   5.17571
 Alpha virt. eigenvalues --    5.18700   5.21434   5.22289   5.22894   5.23974
 Alpha virt. eigenvalues --    5.24714   5.27512   5.29183   5.30922   5.31521
 Alpha virt. eigenvalues --    5.33269   5.34098   5.35324   5.37534   5.38521
 Alpha virt. eigenvalues --    5.40034   5.42583   5.44375   5.45251   5.46247
 Alpha virt. eigenvalues --    5.47602   5.48659   5.48918   5.51680   5.52921
 Alpha virt. eigenvalues --    5.53999   5.57434   5.58228   5.58669   5.58886
 Alpha virt. eigenvalues --    5.59407   5.61566   5.62975   5.64675   5.64762
 Alpha virt. eigenvalues --    5.66966   5.70447   5.70763   5.71665   5.72565
 Alpha virt. eigenvalues --    5.74174   5.75209   5.77973   5.81489   5.82081
 Alpha virt. eigenvalues --    5.82661   5.83516   5.85361   5.87358   5.90374
 Alpha virt. eigenvalues --    5.91767   5.95663   5.97914   5.98624   5.99492
 Alpha virt. eigenvalues --    6.00210   6.01987   6.02184   6.03805   6.04784
 Alpha virt. eigenvalues --    6.05271   6.10001   6.11058   6.13503   6.17073
 Alpha virt. eigenvalues --    6.17427   6.20426   6.22397   6.25703   6.27614
 Alpha virt. eigenvalues --    6.30943   6.36514   6.40817   6.42162   6.49463
 Alpha virt. eigenvalues --    6.50939   6.54428   6.58761   6.60800   6.63231
 Alpha virt. eigenvalues --    6.66149   6.66682   6.68024   6.69256   6.71651
 Alpha virt. eigenvalues --    6.75964   6.81000   6.83095   6.83956   6.88360
 Alpha virt. eigenvalues --    6.90166   6.92839   7.01350   7.07934   7.09817
 Alpha virt. eigenvalues --    7.10925   7.15334   7.20692   7.23265   7.28124
 Alpha virt. eigenvalues --    7.32842   7.44716   7.52133   7.53528   7.60621
 Alpha virt. eigenvalues --    7.78610   7.81035   7.93500   8.43719   8.72841
 Alpha virt. eigenvalues --    8.75462   8.77465   8.80975   8.82152   8.86972
 Alpha virt. eigenvalues --    8.96670   8.97471   9.08982   9.11775   9.12958
 Alpha virt. eigenvalues --    9.13661   9.14451   9.17203   9.19246   9.20733
 Alpha virt. eigenvalues --    9.22815   9.24464   9.28122   9.29351   9.29582
 Alpha virt. eigenvalues --    9.32047   9.34949   9.38000   9.38221   9.39440
 Alpha virt. eigenvalues --    9.46984   9.48381   9.50449   9.52131   9.59335
 Alpha virt. eigenvalues --    9.71153   9.72343   9.78667   9.93051   9.99829
 Alpha virt. eigenvalues --   15.71157  15.74371  16.00859  16.15194  16.24713
 Alpha virt. eigenvalues --   16.59304  17.21909  17.33194  17.64607  18.03929
 Alpha virt. eigenvalues --   18.22321  18.88985  19.50137  20.04402  20.34675
 Alpha virt. eigenvalues --   20.94584  21.40875
          Condensed to atoms (all electrons):
               1          2          3          4          5          6
     1  C    9.681317  -0.141277  -1.179674   0.237291  -0.262630  -0.050417
     2  N   -0.141277   8.668977   0.219553  -0.026519  -0.590418  -0.204379
     3  C   -1.179674   0.219553   6.443509   0.241329   0.299304  -0.269313
     4  O    0.237291  -0.026519   0.241329   8.898350  -0.233785  -0.052058
     5  N   -0.262630  -0.590418   0.299304  -0.233785   7.423795   0.230110
     6  C   -0.050417  -0.204379  -0.269313  -0.052058   0.230110   5.710542
     7  C   -0.014785  -0.049845   0.050007  -0.017699  -0.083671   0.064940
     8  C    0.001557   0.005128  -0.004842   0.000271  -0.011184  -0.022131
     9  C   -0.419799  -0.444961  -0.035212   0.024619  -0.083470  -0.019605
    10  C   -0.872603   0.321927   0.087022  -0.012763   0.060734   0.001484
    11  C    0.059936   0.014221  -0.004950   0.005530  -0.015983   0.002310
    12  C    0.218882  -0.070065  -0.153229   0.049003  -0.037883  -0.014152
    13  C   -1.329257  -0.385152   0.192024  -0.215929   0.126982   0.007814
    14  H    0.027425   0.251814  -0.178066   0.021707   0.160619   0.001890
    15  H   -0.016590   0.073453  -0.067151   0.000203   0.211185   0.012107
    16  H   -0.004069  -0.020634  -0.057298  -0.003534  -0.017889   0.435645
    17  H   -0.016644   0.005107   0.025218   0.010028  -0.073404   0.301559
    18  H   -0.000584  -0.015081   0.002075   0.000167  -0.011890   0.029636
    19  H   -0.003487  -0.005802   0.022957   0.002659  -0.050141  -0.027948
    20  H    0.000575   0.000430   0.001054  -0.000256   0.003284  -0.006175
    21  H   -0.000034  -0.000498   0.000783  -0.000191  -0.000798  -0.003587
    22  H    0.000200   0.000774   0.001932   0.000159   0.003094  -0.006892
    23  H   -0.148282  -0.127493  -0.067621   0.004936  -0.039411  -0.004566
    24  Cl   0.087196  -0.064747  -0.008269   0.000224  -0.003546  -0.000076
    25  C    0.043071   0.006824   0.000089   0.000830  -0.001072   0.000113
    26  H    0.165689  -0.107122  -0.065566   0.010236  -0.012207  -0.001831
    27  H   -0.707413   0.068846   0.189490  -0.133330   0.074016   0.010532
    28  F   -0.018535   0.001835  -0.000065   0.000052   0.000016  -0.000005
    29  F    0.003972   0.004764   0.001054  -0.000005   0.000080   0.000011
    30  F   -0.000611   0.002350   0.000244  -0.000015   0.000024  -0.000012
               7          8          9         10         11         12
     1  C   -0.014785   0.001557  -0.419799  -0.872603   0.059936   0.218882
     2  N   -0.049845   0.005128  -0.444961   0.321927   0.014221  -0.070065
     3  C    0.050007  -0.004842  -0.035212   0.087022  -0.004950  -0.153229
     4  O   -0.017699   0.000271   0.024619  -0.012763   0.005530   0.049003
     5  N   -0.083671  -0.011184  -0.083470   0.060734  -0.015983  -0.037883
     6  C    0.064940  -0.022131  -0.019605   0.001484   0.002310  -0.014152
     7  C    5.497310   0.125656   0.000531   0.000610  -0.000034  -0.000480
     8  C    0.125656   5.742820  -0.000122  -0.000092   0.000048  -0.000002
     9  C    0.000531  -0.000122   8.792466  -0.611479  -0.055081  -0.139230
    10  C    0.000610  -0.000092  -0.611479   7.187420  -0.424368   0.125427
    11  C   -0.000034   0.000048  -0.055081  -0.424368   8.208247  -1.517969
    12  C   -0.000480  -0.000002  -0.139230   0.125427  -1.517969   9.795459
    13  C    0.001647  -0.000081  -0.159869   0.182982   0.054299  -0.878593
    14  H    0.002105  -0.000146  -0.046324  -0.019149   0.007483  -0.008764
    15  H   -0.021902   0.004683   0.003501   0.000883  -0.000430   0.000523
    16  H   -0.018356  -0.009687  -0.000772   0.000495  -0.000081  -0.000941
    17  H    0.001077  -0.006870   0.000838   0.000302   0.000043  -0.001659
    18  H    0.425328  -0.023757  -0.000156  -0.000112   0.000062  -0.000059
    19  H    0.417789  -0.020045   0.000358   0.000037   0.000008  -0.000030
    20  H    0.032678   0.374406  -0.000001  -0.000014   0.000005   0.000042
    21  H   -0.029244   0.448035  -0.000048   0.000010  -0.000003  -0.000002
    22  H    0.030212   0.375277   0.000043  -0.000018   0.000009  -0.000001
    23  H   -0.000346   0.000030   0.290651  -0.329812   0.046721   0.065203
    24  Cl  -0.000021   0.000001  -0.060995  -0.254816  -0.017898   0.082412
    25  C   -0.000015   0.000002  -0.004670  -0.189185  -0.293555  -0.538675
    26  H   -0.000136   0.000013   0.161235  -0.156793  -0.524357   0.635567
    27  H    0.001677  -0.000279  -0.166735   0.081686   0.061824  -0.686435
    28  F   -0.000000  -0.000000  -0.012462   0.026060  -0.017523  -0.039211
    29  F    0.000001   0.000000  -0.028501  -0.004628   0.090736  -0.060108
    30  F    0.000000  -0.000000  -0.022351  -0.011566   0.071857  -0.050577
              13         14         15         16         17         18
     1  C   -1.329257   0.027425  -0.016590  -0.004069  -0.016644  -0.000584
     2  N   -0.385152   0.251814   0.073453  -0.020634   0.005107  -0.015081
     3  C    0.192024  -0.178066  -0.067151  -0.057298   0.025218   0.002075
     4  O   -0.215929   0.021707   0.000203  -0.003534   0.010028   0.000167
     5  N    0.126982   0.160619   0.211185  -0.017889  -0.073404  -0.011890
     6  C    0.007814   0.001890   0.012107   0.435645   0.301559   0.029636
     7  C    0.001647   0.002105  -0.021902  -0.018356   0.001077   0.425328
     8  C   -0.000081  -0.000146   0.004683  -0.009687  -0.006870  -0.023757
     9  C   -0.159869  -0.046324   0.003501  -0.000772   0.000838  -0.000156
    10  C    0.182982  -0.019149   0.000883   0.000495   0.000302  -0.000112
    11  C    0.054299   0.007483  -0.000430  -0.000081   0.000043   0.000062
    12  C   -0.878593  -0.008764   0.000523  -0.000941  -0.001659  -0.000059
    13  C    8.705967   0.000422   0.004789   0.002090   0.007828  -0.000229
    14  H    0.000422   0.851991  -0.035600  -0.001497  -0.001574  -0.000968
    15  H    0.004789  -0.035600   0.757277  -0.009787   0.026221  -0.009550
    16  H    0.002090  -0.001497  -0.009787   0.394515   0.027951   0.005243
    17  H    0.007828  -0.001574   0.026221   0.027951   0.412801  -0.005481
    18  H   -0.000229  -0.000968  -0.009550   0.005243  -0.005481   0.369142
    19  H    0.000703  -0.000612   0.011722  -0.011768   0.015341   0.002326
    20  H   -0.000165   0.000067  -0.000075  -0.006550  -0.011075   0.002922
    21  H    0.000029   0.000010   0.000545   0.000451   0.000651  -0.004120
    22  H    0.000047   0.000038  -0.000119  -0.008881  -0.006946   0.000311
    23  H   -0.077024  -0.042489  -0.001069   0.000044  -0.000252   0.000036
    24  Cl  -0.018669  -0.000107   0.000029  -0.000011  -0.000014   0.000003
    25  C    0.052297   0.000894  -0.000086  -0.000011  -0.000000   0.000002
    26  H   -0.492880   0.004093  -0.000069  -0.000291  -0.000248   0.000009
    27  H    0.537850  -0.008768   0.001031  -0.001263   0.001747   0.000102
    28  F    0.023692   0.000202  -0.000014  -0.000004   0.000000   0.000000
    29  F    0.005904  -0.000219  -0.000004   0.000002   0.000001   0.000000
    30  F    0.005815  -0.000304   0.000008   0.000001   0.000000  -0.000001
              19         20         21         22         23         24
     1  C   -0.003487   0.000575  -0.000034   0.000200  -0.148282   0.087196
     2  N   -0.005802   0.000430  -0.000498   0.000774  -0.127493  -0.064747
     3  C    0.022957   0.001054   0.000783   0.001932  -0.067621  -0.008269
     4  O    0.002659  -0.000256  -0.000191   0.000159   0.004936   0.000224
     5  N   -0.050141   0.003284  -0.000798   0.003094  -0.039411  -0.003546
     6  C   -0.027948  -0.006175  -0.003587  -0.006892  -0.004566  -0.000076
     7  C    0.417789   0.032678  -0.029244   0.030212  -0.000346  -0.000021
     8  C   -0.020045   0.374406   0.448035   0.375277   0.000030   0.000001
     9  C    0.000358  -0.000001  -0.000048   0.000043   0.290651  -0.060995
    10  C    0.000037  -0.000014   0.000010  -0.000018  -0.329812  -0.254816
    11  C    0.000008   0.000005  -0.000003   0.000009   0.046721  -0.017898
    12  C   -0.000030   0.000042  -0.000002  -0.000001   0.065203   0.082412
    13  C    0.000703  -0.000165   0.000029   0.000047  -0.077024  -0.018669
    14  H   -0.000612   0.000067   0.000010   0.000038  -0.042489  -0.000107
    15  H    0.011722  -0.000075   0.000545  -0.000119  -0.001069   0.000029
    16  H   -0.011768  -0.006550   0.000451  -0.008881   0.000044  -0.000011
    17  H    0.015341  -0.011075   0.000651  -0.006946  -0.000252  -0.000014
    18  H    0.002326   0.002922  -0.004120   0.000311   0.000036   0.000003
    19  H    0.396320  -0.003118   0.001080  -0.001075  -0.000019  -0.000000
    20  H   -0.003118   0.316285  -0.001902   0.022660   0.000008   0.000000
    21  H    0.001080  -0.001902   0.312673  -0.000627  -0.000006  -0.000000
    22  H   -0.001075   0.022660  -0.000627   0.312354  -0.000000   0.000000
    23  H   -0.000019   0.000008  -0.000006  -0.000000   1.050817   0.021487
    24  Cl  -0.000000   0.000000  -0.000000   0.000000   0.021487  17.747371
    25  C    0.000001   0.000001  -0.000000   0.000000   0.008336  -0.034059
    26  H   -0.000003   0.000005  -0.000002   0.000006   0.010907   0.003781
    27  H    0.000065  -0.000059   0.000018   0.000019  -0.037416  -0.007047
    28  F   -0.000000   0.000000  -0.000000   0.000000  -0.000358   0.009343
    29  F   -0.000000  -0.000000   0.000000   0.000000  -0.001726  -0.011279
    30  F    0.000001   0.000000   0.000000  -0.000000  -0.001624  -0.010850
              25         26         27         28         29         30
     1  C    0.043071   0.165689  -0.707413  -0.018535   0.003972  -0.000611
     2  N    0.006824  -0.107122   0.068846   0.001835   0.004764   0.002350
     3  C    0.000089  -0.065566   0.189490  -0.000065   0.001054   0.000244
     4  O    0.000830   0.010236  -0.133330   0.000052  -0.000005  -0.000015
     5  N   -0.001072  -0.012207   0.074016   0.000016   0.000080   0.000024
     6  C    0.000113  -0.001831   0.010532  -0.000005   0.000011  -0.000012
     7  C   -0.000015  -0.000136   0.001677  -0.000000   0.000001   0.000000
     8  C    0.000002   0.000013  -0.000279  -0.000000   0.000000  -0.000000
     9  C   -0.004670   0.161235  -0.166735  -0.012462  -0.028501  -0.022351
    10  C   -0.189185  -0.156793   0.081686   0.026060  -0.004628  -0.011566
    11  C   -0.293555  -0.524357   0.061824  -0.017523   0.090736   0.071857
    12  C   -0.538675   0.635567  -0.686435  -0.039211  -0.060108  -0.050577
    13  C    0.052297  -0.492880   0.537850   0.023692   0.005904   0.005815
    14  H    0.000894   0.004093  -0.008768   0.000202  -0.000219  -0.000304
    15  H   -0.000086  -0.000069   0.001031  -0.000014  -0.000004   0.000008
    16  H   -0.000011  -0.000291  -0.001263  -0.000004   0.000002   0.000001
    17  H   -0.000000  -0.000248   0.001747   0.000000   0.000001   0.000000
    18  H    0.000002   0.000009   0.000102   0.000000   0.000000  -0.000001
    19  H    0.000001  -0.000003   0.000065  -0.000000  -0.000000   0.000001
    20  H    0.000001   0.000005  -0.000059   0.000000  -0.000000   0.000000
    21  H   -0.000000  -0.000002   0.000018  -0.000000   0.000000   0.000000
    22  H    0.000000   0.000006   0.000019   0.000000   0.000000  -0.000000
    23  H    0.008336   0.010907  -0.037416  -0.000358  -0.001726  -0.001624
    24  Cl  -0.034059   0.003781  -0.007047   0.009343  -0.011279  -0.010850
    25  C    5.308612  -0.076780  -0.022659   0.191717   0.175171   0.189197
    26  H   -0.076780   1.467439  -0.322171   0.008951  -0.004368  -0.000743
    27  H   -0.022659  -0.322171   1.421584  -0.003115   0.000996   0.000506
    28  F    0.191717   0.008951  -0.003115   9.327339  -0.066571  -0.066754
    29  F    0.175171  -0.004368   0.000996  -0.066571   9.322359  -0.019459
    30  F    0.189197  -0.000743   0.000506  -0.066754  -0.019459   9.321446
 Mulliken charges:
               1
     1  C    0.659582
     2  N   -0.392010
     3  C    0.313614
     4  O   -0.811511
     5  N   -0.063862
     6  C   -0.125546
     7  C   -0.415032
     8  C   -0.978692
     9  C   -0.962398
    10  C    0.810318
    11  C    0.248894
    12  C   -0.774452
    13  C   -0.355332
    14  H    0.013829
    15  H    0.054288
    16  H    0.306888
    17  H    0.287453
    18  H    0.234625
    19  H    0.252684
    20  H    0.274971
    21  H    0.276777
    22  H    0.277424
    23  H    0.380339
    24  Cl  -0.459444
    25  C    1.183610
    26  H    0.297636
    27  H    0.644702
    28  F   -0.364592
    29  F   -0.408181
    30  F   -0.406583
 Sum of Mulliken charges =  -0.00000
 Mulliken charges with hydrogens summed into heavy atoms:
               1
     1  C    0.659582
     2  N   -0.378182
     3  C    0.313614
     4  O   -0.811511
     5  N   -0.009574
     6  C    0.468796
     7  C    0.072278
     8  C   -0.149520
     9  C   -0.582059
    10  C    0.810318
    11  C    0.248894
    12  C   -0.476816
    13  C    0.289370
    24  Cl  -0.459444
    25  C    1.183610
    28  F   -0.364592
    29  F   -0.408181
    30  F   -0.406583
 Electronic spatial extent (au):  <R**2>=           8969.9089
 Charge=              0.0000 electrons
 Dipole moment (field-independent basis, Debye):
    X=              6.2408    Y=              3.0670    Z=              0.8590  Tot=              7.0065
 Quadrupole moment (field-independent basis, Debye-Ang):
   XX=           -110.1524   YY=           -109.0495   ZZ=           -113.9547
   XY=             10.0341   XZ=              3.0165   YZ=              0.2392
 Traceless Quadrupole moment (field-independent basis, Debye-Ang):
   XX=              0.8998   YY=              2.0027   ZZ=             -2.9025
   XY=             10.0341   XZ=              3.0165   YZ=              0.2392
 Octapole moment (field-independent basis, Debye-Ang**2):
  XXX=            119.4897  YYY=              0.1194  ZZZ=             -0.3626  XYY=            -22.9166
  XXY=             27.9867  XXZ=              9.2098  XZZ=            -15.4394  YZZ=             -4.4474
  YYZ=              2.4532  XYZ=              2.7858
 Hexadecapole moment (field-independent basis, Debye-Ang**3):
 XXXX=          -9687.4792 YYYY=          -1008.7048 ZZZZ=           -206.7113 XXXY=             71.8786
 XXXZ=             26.5855 YYYX=             72.3382 YYYZ=              1.3011 ZZZX=              0.0480
 ZZZY=              0.9626 XXYY=          -1861.1949 XXZZ=          -1721.2582 YYZZ=           -211.5578
 XXYZ=             13.2613 YYXZ=              8.2248 ZZXY=             11.7481
 N-N= 1.425180544365D+03 E-N=-6.078318627909D+03  KE= 1.364303265867D+03
 Unable to Open any file for archive entry.
 1\1\GINC-GADI-CPU-CLX-1827\SP\RDSDPBEP86-FC\Aug-CC-pVTZ\C11H12Cl1F3N2O
 1\HIO507\09-Sep-2020\0\\# DSDPBEP86/AUG-cc-PVTZ SCF=Tight INT(grid=ult
 rafine) MaxDisk=60000MB\\CP19_c2.DSDPBEP86_AUG-cc-PVTZ\\0,1\C,0,-6.272
 33042,1.4157811597,-0.0006268092\N,0,-5.0228905115,0.793053056,0.03502
 88231\C,0,-3.772836679,1.4072440652,0.0160819501\O,0,-3.609579486,2.60
 70636568,0.0146574578\N,0,-2.7340192472,0.5105491394,0.0308891718\C,0,
 -1.3707340862,1.0100418431,-0.098984489\C,0,-0.3690942356,-0.107796229
 2,0.1504779418\C,0,1.0672538533,0.3911555746,0.0281129047\C,0,-7.39352
 34681,0.5932937771,0.1665888279\C,0,-8.6688587036,1.1242917509,0.12267
 86916\C,0,-8.8673955835,2.4893488258,-0.0872874356\C,0,-7.7462770605,3
 .296005243,-0.2506130266\C,0,-6.457188542,2.7855613836,-0.2106085962\H
 ,0,-5.0383620591,-0.1967102376,0.2301051026\H,0,-2.9037689183,-0.42264
 99675,-0.3157040869\H,0,-1.2418841584,1.8107001969,0.6310220645\H,0,-1
 .2147580036,1.4539093437,-1.0893548604\H,0,-0.5370531127,-0.9191438891
 ,-0.5678051958\H,0,-0.5423395604,-0.5259023146,1.1464668854\H,0,1.2623
 655568,0.792277158,-0.9692775949\H,0,1.7821559004,-0.4127141529,0.2091
 445643\H,0,1.268819724,1.1853501596,0.7507164431\H,0,-7.2759974095,-0.
 4722417649,0.3307563214\Cl,0,-10.0089927485,0.0380259625,0.3370431866\
 C,0,-10.2447112205,3.0876849677,-0.1390183572\H,0,-7.8838643184,4.3575
 280509,-0.4132489856\H,0,-5.606634186,3.4367851958,-0.3323987941\F,0,-
 10.1953508559,4.4108054742,-0.3514700238\F,0,-10.988508358,2.564281718
 2,-1.1244726977\F,0,-10.9221421016,2.9031908532,1.003250616\\Version=E
 S64L-G16RevC.01\State=1-A\HF=-1367.7681276\MP2=-1369.4638757\RMSD=9.74
 3e-09\PG=C01 [X(C11H12Cl1F3N2O1)]\\@
 The archive entry for this job was punched.


 IF YOU DON'T HAVE THE LAW - ARGUE THE FACTS.
 IF YOU DON'T HAVE THE FACTS - ARGUE THE LAW.
 IF YOU DON'T HAVE EITHER - POUND THE TABLE.
 Job cpu time:       0 days 22 hours 49 minutes 16.3 seconds.
 Elapsed time:       0 days  3 hours 49 minutes 10.4 seconds.
 File lengths (MBytes):  RWF=    635 Int=      0 D2E=      0 Chk=     81 Scr=      1
 Normal termination of Gaussian 16 at Wed Sep  9 20:11:07 2020.
