 Entering Gaussian System, Link 0=/apps/gaussian/g09e01/g09/g09
 Initial command:
 /apps/gaussian/g09e01/g09/l1.exe "/jobfs/local/3578995.r-man2/Gau-37069.inp" -scrdir="/jobfs/local/3578995.r-man2/"
 Entering Link 1 = /apps/gaussian/g09e01/g09/l1.exe PID=     37070.
  
 Copyright (c) 1988,1990,1992,1993,1995,1998,2003,2009,2015,
            Gaussian, Inc.  All Rights Reserved.
  
 This is part of the Gaussian(R) 09 program.  It is based on
 the Gaussian(R) 03 system (copyright 2003, Gaussian, Inc.),
 the Gaussian(R) 98 system (copyright 1998, Gaussian, Inc.),
 the Gaussian(R) 94 system (copyright 1995, Gaussian, Inc.),
 the Gaussian 92(TM) system (copyright 1992, Gaussian, Inc.),
 the Gaussian 90(TM) system (copyright 1990, Gaussian, Inc.),
 the Gaussian 88(TM) system (copyright 1988, Gaussian, Inc.),
 the Gaussian 86(TM) system (copyright 1986, Carnegie Mellon
 University), and the Gaussian 82(TM) system (copyright 1983,
 Carnegie Mellon University). Gaussian is a federally registered
 trademark of Gaussian, Inc.
  
 This software contains proprietary and confidential information,
 including trade secrets, belonging to Gaussian, Inc.
  
 This software is provided under written license and may be
 used, copied, transmitted, or stored only in accord with that
 written license.
  
 The following legend is applicable only to US Government
 contracts under FAR:
  
                    RESTRICTED RIGHTS LEGEND
  
 Use, reproduction and disclosure by the US Government is
 subject to restrictions as set forth in subparagraphs (a)
 and (c) of the Commercial Computer Software - Restricted
 Rights clause in FAR 52.227-19.
  
 Gaussian, Inc.
 340 Quinnipiac St., Bldg. 40, Wallingford CT 06492
  
  
 ---------------------------------------------------------------
 Warning -- This program may not be used in any manner that
 competes with the business of Gaussian, Inc. or will provide
 assistance to any competitor of Gaussian, Inc.  The licensee
 of this program is prohibited from giving any competitor of
 Gaussian, Inc. access to this program.  By using this program,
 the user acknowledges that Gaussian, Inc. is engaged in the
 business of creating and licensing software in the field of
 computational chemistry and represents and warrants to the
 licensee that it is not a competitor of Gaussian, Inc. and that
 it will not use this program in any manner prohibited above.
 ---------------------------------------------------------------
  

 Cite this work as:
 Gaussian 09, Revision E.01,
 M. J. Frisch, G. W. Trucks, H. B. Schlegel, G. E. Scuseria, 
 M. A. Robb, J. R. Cheeseman, G. Scalmani, V. Barone, B. Mennucci, 
 G. A. Petersson, H. Nakatsuji, M. Caricato, X. Li, H. P. Hratchian, 
 A. F. Izmaylov, J. Bloino, G. Zheng, J. L. Sonnenberg, M. Hada, 
 M. Ehara, K. Toyota, R. Fukuda, J. Hasegawa, M. Ishida, T. Nakajima, 
 Y. Honda, O. Kitao, H. Nakai, T. Vreven, J. A. Montgomery, Jr., 
 J. E. Peralta, F. Ogliaro, M. Bearpark, J. J. Heyd, E. Brothers, 
 K. N. Kudin, V. N. Staroverov, T. Keith, R. Kobayashi, J. Normand, 
 K. Raghavachari, A. Rendell, J. C. Burant, S. S. Iyengar, J. Tomasi, 
 M. Cossi, N. Rega, J. M. Millam, M. Klene, J. E. Knox, J. B. Cross, 
 V. Bakken, C. Adamo, J. Jaramillo, R. Gomperts, R. E. Stratmann, 
 O. Yazyev, A. J. Austin, R. Cammi, C. Pomelli, J. W. Ochterski, 
 R. L. Martin, K. Morokuma, V. G. Zakrzewski, G. A. Voth, 
 P. Salvador, J. J. Dannenberg, S. Dapprich, A. D. Daniels, 
 O. Farkas, J. B. Foresman, J. V. Ortiz, J. Cioslowski, 
 and D. J. Fox, Gaussian, Inc., Wallingford CT, 2013.
 
 ******************************************
 Gaussian 09:  ES64L-G09RevE.01 30-Nov-2015
                14-Nov-2019 
 ******************************************
 %chk=CP19.M062X_6-311pGd_opt_water_GD3.chk
 %mem=196608000
 %nproc=4
 Will use up to    4 processors via shared memory.
 ----------------------------------------------------------------------
 # M062X/6-311+G* SCF=Tight INT(grid=ultrafine) OPT IOP(2/17=4) Empiric
 alDispersion=GD3 SCRF=(SMD,Solvent=h2o) maxdisk=2147483648
 ----------------------------------------------------------------------
 1/14=-1,18=20,19=15,26=4,38=1/1,3;
 2/9=110,12=2,17=4,18=5,40=1/2;
 3/5=4,6=6,7=11,11=2,16=1,25=1,30=1,70=32201,71=1,72=1,74=-55,75=-5,124=31/1,2,3;
 4//1;
 5/5=2,32=2,38=5,53=1/2;
 6/7=2,8=2,9=2,10=2,28=1/1;
 7//1,2,3,16;
 1/14=-1,18=20,19=15,26=4/3(2);
 2/9=110,17=4/2;
 99//99;
 2/9=110,17=4/2;
 3/5=4,6=6,7=11,11=2,16=1,25=1,30=1,70=32205,71=1,72=1,74=-55,75=-5,124=31/1,2,3;
 4/5=5,16=3,69=1/1;
 5/5=2,32=2,38=5,53=1/2;
 7//1,2,3,16;
 1/14=-1,18=20,19=15,26=4/3(-5);
 2/9=110,17=4/2;
 6/7=2,8=2,9=2,10=2,19=2,28=1/1;
 99/9=1/99;
 ---------------------------------
 CP19.M062X_6-311pGd_opt_water_GD3
 ---------------------------------
 Symbolic Z-matrix:
 Charge =  0 Multiplicity = 1
 C                    -6.32211   1.23712   0.0021 
 N                    -5.04751   0.68198   0.04833 
 C                    -3.83024   1.33636  -0.03152 
 O                    -3.73168   2.55845  -0.15948 
 N                    -2.75613   0.52606   0.03237 
 C                    -1.40374   1.06932  -0.01006 
 C                    -0.38185  -0.054     0.03766 
 C                     1.03869   0.49618   0.00642 
 C                    -6.57783   2.6118    0.08336 
 C                    -7.88799   3.05979   0.04244 
 C                    -8.96778   2.18653  -0.07236 
 C                    -8.69989   0.82004  -0.14263 
 C                    -7.40206   0.34936  -0.10734 
 H                    -5.02031  -0.33053   0.06408 
 H                    -2.87326  -0.46556   0.19132 
 H                    -1.25546   1.75033   0.83349 
 H                    -1.27992   1.65264  -0.92629 
 H                    -0.54391  -0.72512  -0.81137 
 H                    -0.53564  -0.64385   0.94683 
 H                     1.21512   1.07564  -0.90345 
 H                     1.77341  -0.31044   0.0367 
 H                     1.22478   1.15083   0.86167 
 H                    -5.77402   3.32327   0.18167 
 Cl                   -8.14488   4.78361   0.14902 
 C                    -10.38122   2.67826  -0.11886 
 H                    -9.51752   0.11565  -0.22909 
 H                    -7.21344  -0.71671  -0.16524 
 F                    -11.25722   1.67122  -0.23926 
 F                    -10.73158   3.35759   0.98943 
 F                    -10.60836   3.50652  -1.15571 
 

 GradGradGradGradGradGradGradGradGradGradGradGradGradGradGradGradGradGrad
 Berny optimization.
 Initialization pass.
                           ----------------------------
                           !    Initial Parameters    !
                           ! (Angstroms and Degrees)  !
 --------------------------                            --------------------------
 ! Name  Definition              Value          Derivative Info.                !
 --------------------------------------------------------------------------------
 ! R1    R(1,2)                  1.391          estimate D2E/DX2                !
 ! R2    R(1,9)                  1.4006         estimate D2E/DX2                !
 ! R3    R(1,13)                 1.4023         estimate D2E/DX2                !
 ! R4    R(2,3)                  1.3843         estimate D2E/DX2                !
 ! R5    R(2,14)                 1.013          estimate D2E/DX2                !
 ! R6    R(3,4)                  1.2327         estimate D2E/DX2                !
 ! R7    R(3,5)                  1.347          estimate D2E/DX2                !
 ! R8    R(5,6)                  1.458          estimate D2E/DX2                !
 ! R9    R(5,15)                 1.0111         estimate D2E/DX2                !
 ! R10   R(6,7)                  1.5193         estimate D2E/DX2                !
 ! R11   R(6,16)                 1.0942         estimate D2E/DX2                !
 ! R12   R(6,17)                 1.0932         estimate D2E/DX2                !
 ! R13   R(7,8)                  1.5237         estimate D2E/DX2                !
 ! R14   R(7,18)                 1.0943         estimate D2E/DX2                !
 ! R15   R(7,19)                 1.0946         estimate D2E/DX2                !
 ! R16   R(8,20)                 1.0931         estimate D2E/DX2                !
 ! R17   R(8,21)                 1.0915         estimate D2E/DX2                !
 ! R18   R(8,22)                 1.093          estimate D2E/DX2                !
 ! R19   R(9,10)                 1.3852         estimate D2E/DX2                !
 ! R20   R(9,23)                 1.0779         estimate D2E/DX2                !
 ! R21   R(10,11)                1.3935         estimate D2E/DX2                !
 ! R22   R(10,24)                1.7461         estimate D2E/DX2                !
 ! R23   R(11,12)                1.3943         estimate D2E/DX2                !
 ! R24   R(11,25)                1.4972         estimate D2E/DX2                !
 ! R25   R(12,13)                1.381          estimate D2E/DX2                !
 ! R26   R(12,26)                1.0827         estimate D2E/DX2                !
 ! R27   R(13,27)                1.0842         estimate D2E/DX2                !
 ! R28   R(25,28)                1.3402         estimate D2E/DX2                !
 ! R29   R(25,29)                1.3463         estimate D2E/DX2                !
 ! R30   R(25,30)                1.3464         estimate D2E/DX2                !
 ! A1    A(2,1,9)              123.8536         estimate D2E/DX2                !
 ! A2    A(2,1,13)             117.1047         estimate D2E/DX2                !
 ! A3    A(9,1,13)             119.0305         estimate D2E/DX2                !
 ! A4    A(1,2,3)              127.9635         estimate D2E/DX2                !
 ! A5    A(1,2,14)             115.0887         estimate D2E/DX2                !
 ! A6    A(3,2,14)             116.7291         estimate D2E/DX2                !
 ! A7    A(2,3,4)              123.0203         estimate D2E/DX2                !
 ! A8    A(2,3,5)              114.4617         estimate D2E/DX2                !
 ! A9    A(4,3,5)              122.5164         estimate D2E/DX2                !
 ! A10   A(3,5,6)              120.9381         estimate D2E/DX2                !
 ! A11   A(3,5,15)             120.3356         estimate D2E/DX2                !
 ! A12   A(6,5,15)             118.5189         estimate D2E/DX2                !
 ! A13   A(5,6,7)              110.3318         estimate D2E/DX2                !
 ! A14   A(5,6,16)             109.581          estimate D2E/DX2                !
 ! A15   A(5,6,17)             109.1631         estimate D2E/DX2                !
 ! A16   A(7,6,16)             110.1688         estimate D2E/DX2                !
 ! A17   A(7,6,17)             110.1609         estimate D2E/DX2                !
 ! A18   A(16,6,17)            107.379          estimate D2E/DX2                !
 ! A19   A(6,7,8)              111.0661         estimate D2E/DX2                !
 ! A20   A(6,7,18)             109.2357         estimate D2E/DX2                !
 ! A21   A(6,7,19)             109.2689         estimate D2E/DX2                !
 ! A22   A(8,7,18)             110.0971         estimate D2E/DX2                !
 ! A23   A(8,7,19)             110.0355         estimate D2E/DX2                !
 ! A24   A(18,7,19)            107.0452         estimate D2E/DX2                !
 ! A25   A(7,8,20)             111.0373         estimate D2E/DX2                !
 ! A26   A(7,8,21)             111.1094         estimate D2E/DX2                !
 ! A27   A(7,8,22)             111.0363         estimate D2E/DX2                !
 ! A28   A(20,8,21)            107.8311         estimate D2E/DX2                !
 ! A29   A(20,8,22)            107.8392         estimate D2E/DX2                !
 ! A30   A(21,8,22)            107.8369         estimate D2E/DX2                !
 ! A31   A(1,9,10)             119.2343         estimate D2E/DX2                !
 ! A32   A(1,9,23)             121.1271         estimate D2E/DX2                !
 ! A33   A(10,9,23)            119.6379         estimate D2E/DX2                !
 ! A34   A(9,10,11)            122.1858         estimate D2E/DX2                !
 ! A35   A(9,10,24)            117.1688         estimate D2E/DX2                !
 ! A36   A(11,10,24)           120.6447         estimate D2E/DX2                !
 ! A37   A(10,11,12)           117.9993         estimate D2E/DX2                !
 ! A38   A(10,11,25)           121.8885         estimate D2E/DX2                !
 ! A39   A(12,11,25)           120.1122         estimate D2E/DX2                !
 ! A40   A(11,12,13)           120.8851         estimate D2E/DX2                !
 ! A41   A(11,12,26)           119.7729         estimate D2E/DX2                !
 ! A42   A(13,12,26)           119.3417         estimate D2E/DX2                !
 ! A43   A(1,13,12)            120.6625         estimate D2E/DX2                !
 ! A44   A(1,13,27)            119.5176         estimate D2E/DX2                !
 ! A45   A(12,13,27)           119.8199         estimate D2E/DX2                !
 ! A46   A(11,25,28)           111.9052         estimate D2E/DX2                !
 ! A47   A(11,25,29)           112.6951         estimate D2E/DX2                !
 ! A48   A(11,25,30)           112.6577         estimate D2E/DX2                !
 ! A49   A(28,25,29)           106.4403         estimate D2E/DX2                !
 ! A50   A(28,25,30)           106.4277         estimate D2E/DX2                !
 ! A51   A(29,25,30)           106.2386         estimate D2E/DX2                !
 ! D1    D(9,1,2,3)            -10.9804         estimate D2E/DX2                !
 ! D2    D(9,1,2,14)           174.6172         estimate D2E/DX2                !
 ! D3    D(13,1,2,3)           170.2558         estimate D2E/DX2                !
 ! D4    D(13,1,2,14)           -4.1466         estimate D2E/DX2                !
 ! D5    D(2,1,9,10)          -179.2743         estimate D2E/DX2                !
 ! D6    D(2,1,9,23)             0.4279         estimate D2E/DX2                !
 ! D7    D(13,1,9,10)           -0.5329         estimate D2E/DX2                !
 ! D8    D(13,1,9,23)          179.1694         estimate D2E/DX2                !
 ! D9    D(2,1,13,12)          179.1982         estimate D2E/DX2                !
 ! D10   D(2,1,13,27)           -0.8375         estimate D2E/DX2                !
 ! D11   D(9,1,13,12)            0.3724         estimate D2E/DX2                !
 ! D12   D(9,1,13,27)         -179.6634         estimate D2E/DX2                !
 ! D13   D(1,2,3,4)              0.0488         estimate D2E/DX2                !
 ! D14   D(1,2,3,5)           -179.493          estimate D2E/DX2                !
 ! D15   D(14,2,3,4)           174.3725         estimate D2E/DX2                !
 ! D16   D(14,2,3,5)            -5.1692         estimate D2E/DX2                !
 ! D17   D(2,3,5,6)           -178.7011         estimate D2E/DX2                !
 ! D18   D(2,3,5,15)            -4.0127         estimate D2E/DX2                !
 ! D19   D(4,3,5,6)              1.7546         estimate D2E/DX2                !
 ! D20   D(4,3,5,15)           176.443          estimate D2E/DX2                !
 ! D21   D(3,5,6,7)           -178.3654         estimate D2E/DX2                !
 ! D22   D(3,5,6,16)            60.1632         estimate D2E/DX2                !
 ! D23   D(3,5,6,17)           -57.1746         estimate D2E/DX2                !
 ! D24   D(15,5,6,7)             6.8517         estimate D2E/DX2                !
 ! D25   D(15,5,6,16)         -114.6196         estimate D2E/DX2                !
 ! D26   D(15,5,6,17)          128.0425         estimate D2E/DX2                !
 ! D27   D(5,6,7,8)           -179.5064         estimate D2E/DX2                !
 ! D28   D(5,6,7,18)            58.8657         estimate D2E/DX2                !
 ! D29   D(5,6,7,19)           -57.9334         estimate D2E/DX2                !
 ! D30   D(16,6,7,8)           -58.3846         estimate D2E/DX2                !
 ! D31   D(16,6,7,18)          179.9875         estimate D2E/DX2                !
 ! D32   D(16,6,7,19)           63.1884         estimate D2E/DX2                !
 ! D33   D(17,6,7,8)            59.8987         estimate D2E/DX2                !
 ! D34   D(17,6,7,18)          -61.7292         estimate D2E/DX2                !
 ! D35   D(17,6,7,19)         -178.5283         estimate D2E/DX2                !
 ! D36   D(6,7,8,20)           -59.7657         estimate D2E/DX2                !
 ! D37   D(6,7,8,21)          -179.7763         estimate D2E/DX2                !
 ! D38   D(6,7,8,22)            60.2065         estimate D2E/DX2                !
 ! D39   D(18,7,8,20)           61.3574         estimate D2E/DX2                !
 ! D40   D(18,7,8,21)          -58.6532         estimate D2E/DX2                !
 ! D41   D(18,7,8,22)         -178.6705         estimate D2E/DX2                !
 ! D42   D(19,7,8,20)          179.1108         estimate D2E/DX2                !
 ! D43   D(19,7,8,21)           59.1002         estimate D2E/DX2                !
 ! D44   D(19,7,8,22)          -60.9171         estimate D2E/DX2                !
 ! D45   D(1,9,10,11)            0.2454         estimate D2E/DX2                !
 ! D46   D(1,9,10,24)          179.9569         estimate D2E/DX2                !
 ! D47   D(23,9,10,11)        -179.4614         estimate D2E/DX2                !
 ! D48   D(23,9,10,24)           0.2501         estimate D2E/DX2                !
 ! D49   D(9,10,11,12)           0.2113         estimate D2E/DX2                !
 ! D50   D(9,10,11,25)        -179.8698         estimate D2E/DX2                !
 ! D51   D(24,10,11,12)       -179.4904         estimate D2E/DX2                !
 ! D52   D(24,10,11,25)          0.4285         estimate D2E/DX2                !
 ! D53   D(10,11,12,13)         -0.379          estimate D2E/DX2                !
 ! D54   D(10,11,12,26)        179.8083         estimate D2E/DX2                !
 ! D55   D(25,11,12,13)        179.7006         estimate D2E/DX2                !
 ! D56   D(25,11,12,26)         -0.1121         estimate D2E/DX2                !
 ! D57   D(10,11,25,28)        179.6183         estimate D2E/DX2                !
 ! D58   D(10,11,25,29)        -60.461          estimate D2E/DX2                !
 ! D59   D(10,11,25,30)         59.74           estimate D2E/DX2                !
 ! D60   D(12,11,25,28)         -0.4645         estimate D2E/DX2                !
 ! D61   D(12,11,25,29)        119.4563         estimate D2E/DX2                !
 ! D62   D(12,11,25,30)       -120.3428         estimate D2E/DX2                !
 ! D63   D(11,12,13,1)           0.0903         estimate D2E/DX2                !
 ! D64   D(11,12,13,27)       -179.8738         estimate D2E/DX2                !
 ! D65   D(26,12,13,1)         179.9038         estimate D2E/DX2                !
 ! D66   D(26,12,13,27)         -0.0604         estimate D2E/DX2                !
 --------------------------------------------------------------------------------
 Trust Radius=3.00D-01 FncErr=1.00D-07 GrdErr=1.00D-06
 Number of steps in this run=    157 maximum allowed number of steps=    180.
 GradGradGradGradGradGradGradGradGradGradGradGradGradGradGradGradGradGrad

                          Input orientation:                          
 ---------------------------------------------------------------------
 Center     Atomic      Atomic             Coordinates (Angstroms)
 Number     Number       Type             X           Y           Z
 ---------------------------------------------------------------------
      1          6           0       -6.322108    1.237124    0.002101
      2          7           0       -5.047507    0.681977    0.048327
      3          6           0       -3.830243    1.336363   -0.031519
      4          8           0       -3.731677    2.558452   -0.159476
      5          7           0       -2.756129    0.526061    0.032374
      6          6           0       -1.403735    1.069325   -0.010062
      7          6           0       -0.381848   -0.053998    0.037660
      8          6           0        1.038689    0.496182    0.006417
      9          6           0       -6.577833    2.611802    0.083363
     10          6           0       -7.887992    3.059791    0.042441
     11          6           0       -8.967784    2.186534   -0.072360
     12          6           0       -8.699887    0.820042   -0.142626
     13          6           0       -7.402061    0.349360   -0.107337
     14          1           0       -5.020308   -0.330533    0.064078
     15          1           0       -2.873257   -0.465558    0.191320
     16          1           0       -1.255460    1.750327    0.833492
     17          1           0       -1.279923    1.652636   -0.926288
     18          1           0       -0.543912   -0.725124   -0.811366
     19          1           0       -0.535644   -0.643853    0.946833
     20          1           0        1.215120    1.075640   -0.903453
     21          1           0        1.773406   -0.310437    0.036700
     22          1           0        1.224783    1.150834    0.861672
     23          1           0       -5.774019    3.323268    0.181668
     24         17           0       -8.144876    4.783608    0.149019
     25          6           0      -10.381216    2.678259   -0.118857
     26          1           0       -9.517525    0.115647   -0.229091
     27          1           0       -7.213436   -0.716705   -0.165238
     28          9           0      -11.257221    1.671216   -0.239260
     29          9           0      -10.731583    3.357590    0.989426
     30          9           0      -10.608364    3.506522   -1.155709
 ---------------------------------------------------------------------
                    Distance matrix (angstroms):
                    1          2          3          4          5
     1  C    0.000000
     2  N    1.391018   0.000000
     3  C    2.494067   1.384315   0.000000
     4  O    2.912447   2.301250   1.232717   0.000000
     5  N    3.636307   2.296732   1.346994   2.262546   0.000000
     6  C    4.921249   3.664768   2.441251   2.767515   1.458049
     7  C    6.079059   4.723363   3.718779   4.252660   2.444117
     8  C    7.397996   6.089176   4.941037   5.199699   3.795025
     9  C    1.400621   2.463199   3.031368   2.856995   4.354117
    10  C    2.403276   3.704374   4.409196   4.191309   5.723278
    11  C    2.811854   4.200812   5.207570   5.250022   6.430613
    12  C    2.418417   3.659973   4.898201   5.263599   5.953596
    13  C    1.402284   2.383021   3.706455   4.284219   4.651389
    14  H    2.038645   1.012998   2.050350   3.171244   2.421005
    15  H    3.850909   2.462651   2.052413   3.163002   1.011084
    16  H    5.159991   4.017148   2.747566   2.787598   2.095859
    17  H    5.143752   4.010829   2.721171   2.723895   2.089831
    18  H    6.156272   4.795975   3.957001   4.622626   2.677922
    19  H    6.157415   4.787698   3.966461   4.657608   2.671234
    20  H    7.593149   6.346760   5.126786   5.217570   4.116872
    21  H    8.242177   6.892741   5.841017   6.210873   4.606130
    22  H    7.596174   6.342159   5.136682   5.252678   4.114090
    23  H    2.164403   2.742629   2.787742   2.207370   4.117562
    24  Cl   3.990190   5.140740   5.525591   4.952051   6.868690
    25  C    4.309044   5.697503   6.687568   6.650743   7.924442
    26  H    3.394385   4.514282   5.820168   6.280779   6.778884
    27  H    2.154047   2.587116   3.959667   4.780098   4.631533
    28  F    4.960043   6.294588   7.437425   7.578085   8.582175
    29  F    4.991458   6.352423   7.263345   7.138437   8.517122
    30  F    4.986249   6.352234   7.205298   7.012856   8.482469
                    6          7          8          9         10
     6  C    0.000000
     7  C    1.519337   0.000000
     8  C    2.508825   1.523680   0.000000
     9  C    5.399930   6.745281   7.905263   0.000000
    10  C    6.783090   8.126372   9.287575   1.385239   0.000000
    11  C    7.646363   8.874141  10.148547   2.432482   1.393452
    12  C    7.301613   8.365778   9.745100   2.786502   2.389540
    13  C    6.042162   7.033286   8.442794   2.415443   2.757717
    14  H    3.878749   4.646772   6.115410   3.329203   4.440538
    15  H    2.134459   2.529845   4.032674   4.817228   6.131707
    16  H    1.094227   2.156881   2.742272   5.443573   6.806684
    17  H    1.093185   2.156000   2.753777   5.477887   6.825328
    18  H    2.145094   1.094313   2.159858   6.952971   8.306027
    19  H    2.145742   1.094613   2.159302   6.917581   8.282025
    20  H    2.767055   2.170733   1.093052   8.003981   9.364733
    21  H    3.464124   2.170456   1.091494   8.847872  10.232355
    22  H    2.770500   2.170686   1.093006   7.976278   9.346546
    23  H    4.921016   6.364132   7.378084   1.077944   2.134874
    24  Cl   7.698324   9.147647  10.136086   2.678932   1.746108
    25  C    9.121166  10.367116  11.627184   3.809335   2.527400
    26  H    8.172579   9.141145  10.565696   3.869135   3.375958
    27  H    6.080016   6.866654   8.342549   3.397757   3.841885
    28  F    9.874512  11.014844  12.354371   4.783875   3.655023
    29  F    9.656286  10.939004  12.152912   4.316340   3.011888
    30  F    9.590497  10.894176  12.085799   4.310569   3.005920
                   11         12         13         14         15
    11  C    0.000000
    12  C    1.394276   0.000000
    13  C    2.414108   1.380993   0.000000
    14  H    4.683674   3.860810   2.482818   0.000000
    15  H    6.651795   5.976111   4.611220   2.155052   0.000000
    16  H    7.777582   7.565563   6.374055   4.369904   2.817765
    17  H    7.753544   7.507544   6.312669   4.347904   2.876545
    18  H    8.943461   8.327946   6.977419   4.578234   2.549235
    19  H    8.952700   8.365691   7.017509   4.581446   2.463134
    20  H   10.276981   9.947440   8.684301   6.464828   4.504292
    21  H   11.028142  10.535654   9.200287   6.793799   4.651822
    22  H   10.287541   9.980837   8.718014   6.467748   4.456010
    23  H    3.399534   3.864196   3.402672   3.732582   4.771763
    24  Cl   2.733310   4.012848   4.503338   5.993712   7.439456
    25  C    1.497246   2.506073   3.781438   6.150254   8.145505
    26  H    2.148337   1.082672   2.131814   4.528795   6.682876
    27  H    3.393399   2.138140   1.084171   2.238643   4.362036
    28  F    2.352643   2.696997   4.077618   6.557293   8.662682
    29  F    2.368491   3.442162   4.619313   6.861281   8.775347
    30  F    2.368020   3.447578   4.620296   6.887470   8.799079
                   16         17         18         19         20
    16  H    0.000000
    17  H    1.762660   0.000000
    18  H    3.056095   2.491718   0.000000
    19  H    2.502615   3.055552   1.760096   0.000000
    20  H    3.094503   2.560993   2.519013   3.073335   0.000000
    21  H    3.749087   3.755505   2.502228   2.504240   1.765440
    22  H    2.551821   3.118038   3.073525   2.515403   1.766753
    23  H    4.828705   4.920923   6.688020   6.615445   7.421414
    24  Cl   7.558661   7.621473   9.436266   9.380526  10.122561
    25  C    9.222118   9.194422  10.432407  10.445450  11.732817
    26  H    8.488991   8.408716   9.031703   9.090315  10.796574
    27  H    6.525426   6.434248   6.700753   6.770149   8.648584
    28  F   10.059437  10.000941  10.992940  11.032615  12.504205
    29  F    9.612727   9.793401  11.122052  10.953106  12.309102
    30  F    9.722035   9.513640  10.923305  11.095314  12.073425
                   21         22         23         24         25
    21  H    0.000000
    22  H    1.765468   0.000000
    23  H    8.377855   7.359694   0.000000
    24  Cl  11.150526  10.074494   2.784712   0.000000
    25  C   12.517641  11.747071   4.661826   3.083095   0.000000
    26  H   11.302093  10.847052   4.946857   4.880266   2.706491
    27  H    8.998286   8.703205   4.302749   5.587467   4.643572
    28  F   13.183336  12.541262   5.742121   4.418646   1.340155
    29  F   13.066631  12.158979   5.023056   3.070971   1.346306
    30  F   13.011504  12.232843   5.019268   3.066274   1.346357
                   26         27         28         29         30
    26  H    0.000000
    27  H    2.450656   0.000000
    28  F    2.333762   4.696791   0.000000
    29  F    3.670003   5.505496   2.151702   0.000000
    30  F    3.680569   5.508377   2.151567   2.153826   0.000000
 Stoichiometry    C11H12ClF3N2O
 Framework group  C1[X(C11H12ClF3N2O)]
 Deg. of freedom    84
 Full point group                 C1      NOp   1
 Largest Abelian subgroup         C1      NOp   1
 Largest concise Abelian subgroup C1      NOp   1
                         Standard orientation:                         
 ---------------------------------------------------------------------
 Center     Atomic      Atomic             Coordinates (Angstroms)
 Number     Number       Type             X           Y           Z
 ---------------------------------------------------------------------
      1          6           0       -0.196351   -0.732750   -0.062597
      2          7           0       -1.570102   -0.946308   -0.108786
      3          6           0       -2.582228   -0.011596    0.026277
      4          8           0       -2.368275    1.187941    0.213166
      5          7           0       -3.826496   -0.521319   -0.053553
      6          6           0       -4.997706    0.341872    0.041703
      7          6           0       -6.270282   -0.484348   -0.037662
      8          6           0       -7.505772    0.403236    0.048125
      9          6           0        0.397265    0.535662   -0.084729
     10          6           0        1.778347    0.636971   -0.049567
     11          6           0        2.603770   -0.484498    0.002335
     12          6           0        2.000354   -1.741381    0.014115
     13          6           0        0.625525   -1.868010   -0.016732
     14          1           0       -1.851988   -1.917288   -0.171267
     15          1           0       -3.964588   -1.501211   -0.261001
     16          1           0       -4.976033    1.079842   -0.765925
     17          1           0       -4.963113    0.890688    0.986509
     18          1           0       -6.276077   -1.216516    0.775613
     19          1           0       -6.277457   -1.047387   -0.976338
     20          1           0       -7.523116    0.961886    0.987472
     21          1           0       -8.420437   -0.190008   -0.004866
     22          1           0       -7.527432    1.125841   -0.771652
     23          1           0       -0.201804    1.430491   -0.133326
     24         17           0        2.460968    2.243816   -0.080694
     25          6           0        4.095858   -0.367180    0.043009
     26          1           0        2.614489   -2.632258    0.050937
     27          1           0        0.174511   -2.853845   -0.004877
     28          9           0        4.690385   -1.566966    0.098398
     29          9           0        4.597516    0.257047   -1.039221
     30          9           0        4.532798    0.324018    1.112591
 ---------------------------------------------------------------------
 Rotational constants (GHZ):      1.1259668      0.1253837      0.1154219
 Standard basis: 6-311+G(d) (5D, 7F)
 There are   458 symmetry adapted cartesian basis functions of A   symmetry.
 There are   440 symmetry adapted basis functions of A   symmetry.
   440 basis functions,   725 primitive gaussians,   458 cartesian basis functions
    72 alpha electrons       72 beta electrons
       nuclear repulsion energy      1432.5857563196 Hartrees.
 NAtoms=   30 NActive=   30 NUniq=   30 SFac= 1.00D+00 NAtFMM=   60 NAOKFM=F Big=F
 Integral buffers will be    131072 words long.
 Raffenetti 2 integral format.
 Two-electron integral symmetry is turned on.
 Nuclear repulsion after empirical dispersion term =     1432.5844735175 Hartrees.
 ------------------------------------------------------------------------------
 Polarizable Continuum Model (PCM)
 =================================
 Model                : PCM (using non-symmetric T matrix).
 Atomic radii         : SMD-Coulomb.
 Polarization charges : Total charges.
 Charge compensation  : None.
 Solution method      : On-the-fly selection.
 Cavity type          : VdW (van der Waals Surface) (Alpha=1.000).
 Cavity algorithm     : GePol (No added spheres)
                        Default sphere list used, NSphG=   30.
                        Lebedev-Laikov grids with approx.  5.0 points / Ang**2.
                        Smoothing algorithm: York/Karplus (Gamma=1.0000).
                        Polarization charges: spherical gaussians, with
                                              point-specific exponents (IZeta= 3).
                        Self-potential: point-specific (ISelfS= 7).
                        Self-field    : sphere-specific E.n sum rule (ISelfD= 2).
 1st derivatives      : Analytical E(r).r(x)/FMM algorithm (CHGder, D1EAlg=3).
                        Cavity 1st derivative terms included.
 Solvent              : Water, Eps=  78.355300 Eps(inf)=   1.777849
 ------------------------------------------------------------------------------
 ------------------------------------------------------------------------------
 Atomic radii for non-electrostatic terms: SMD-CDS.
 ------------------------------------------------------------------------------
 Nuclear repulsion after PCM non-electrostatic terms =     1432.5952305556 Hartrees.
 One-electron integrals computed using PRISM.
 NBasis=   440 RedAO= T EigKep=  1.99D-06  NBF=   440
 NBsUse=   438 1.00D-06 EigRej=  8.87D-07 NBFU=   438
 ExpMin= 4.38D-02 ExpMax= 1.06D+05 ExpMxC= 3.62D+03 IAcc=3 IRadAn=         5 AccDes= 0.00D+00
 Harris functional with IExCor= 1009 and IRadAn=       5 diagonalized for initial guess.
 HarFok:  IExCor= 1009 AccDes= 0.00D+00 IRadAn=         5 IDoV= 1 UseB2=F ITyADJ=14
 ICtDFT=  3500011 ScaDFX=  1.000000  1.000000  1.000000  1.000000
 FoFCou: FMM=F IPFlag=           0 FMFlag=      100000 FMFlg1=           0
         NFxFlg=           0 DoJE=T BraDBF=F KetDBF=T FulRan=T
         wScrn=  0.000000 ICntrl=     500 IOpCl=  0 I1Cent=   200000004 NGrid=           0
         NMat0=    1 NMatS0=      1 NMatT0=    0 NMatD0=    1 NMtDS0=    0 NMtDT0=    0
 Petite list used in FoFCou.
 Requested convergence on RMS density matrix=1.00D-08 within 128 cycles.
 Requested convergence on MAX density matrix=1.00D-06.
 Requested convergence on             energy=1.00D-06.
 No special actions if energy rises.
 Inv3:  Mode=1 IEnd=    17337648.
 Iteration    1 A*A^-1 deviation from unit magnitude is 6.00D-15 for   2370.
 Iteration    1 A*A^-1 deviation from orthogonality  is 3.07D-15 for   1875    209.
 Iteration    1 A^-1*A deviation from unit magnitude is 6.22D-15 for   2390.
 Iteration    1 A^-1*A deviation from orthogonality  is 1.95D-09 for   1189   1156.
 Iteration    2 A*A^-1 deviation from unit magnitude is 3.77D-15 for    601.
 Iteration    2 A*A^-1 deviation from orthogonality  is 2.78D-15 for   1276    610.
 Iteration    2 A^-1*A deviation from unit magnitude is 1.11D-15 for    601.
 Iteration    2 A^-1*A deviation from orthogonality  is 2.87D-16 for   2366   2224.
 Error on total polarization charges =  0.04490
 SCF Done:  E(RM062X) =  -1370.81640948     A.U. after   15 cycles
            NFock= 15  Conv=0.42D-08     -V/T= 2.0029
 SMD-CDS (non-electrostatic) energy       (kcal/mol) =       6.75
 (included in total energy above)

 **********************************************************************

            Population analysis using the SCF density.

 **********************************************************************

 Orbital symmetries:
       Occupied  (A) (A) (A) (A) (A) (A) (A) (A) (A) (A) (A) (A)
                 (A) (A) (A) (A) (A) (A) (A) (A) (A) (A) (A) (A)
                 (A) (A) (A) (A) (A) (A) (A) (A) (A) (A) (A) (A)
                 (A) (A) (A) (A) (A) (A) (A) (A) (A) (A) (A) (A)
                 (A) (A) (A) (A) (A) (A) (A) (A) (A) (A) (A) (A)
                 (A) (A) (A) (A) (A) (A) (A) (A) (A) (A) (A) (A)
       Virtual   (A) (A) (A) (A) (A) (A) (A) (A) (A) (A) (A) (A)
                 (A) (A) (A) (A) (A) (A) (A) (A) (A) (A) (A) (A)
                 (A) (A) (A) (A) (A) (A) (A) (A) (A) (A) (A) (A)
                 (A) (A) (A) (A) (A) (A) (A) (A) (A) (A) (A) (A)
                 (A) (A) (A) (A) (A) (A) (A) (A) (A) (A) (A) (A)
                 (A) (A) (A) (A) (A) (A) (A) (A) (A) (A) (A) (A)
                 (A) (A) (A) (A) (A) (A) (A) (A) (A) (A) (A) (A)
                 (A) (A) (A) (A) (A) (A) (A) (A) (A) (A) (A) (A)
                 (A) (A) (A) (A) (A) (A) (A) (A) (A) (A) (A) (A)
                 (A) (A) (A) (A) (A) (A) (A) (A) (A) (A) (A) (A)
                 (A) (A) (A) (A) (A) (A) (A) (A) (A) (A) (A) (A)
                 (A) (A) (A) (A) (A) (A) (A) (A) (A) (A) (A) (A)
                 (A) (A) (A) (A) (A) (A) (A) (A) (A) (A) (A) (A)
                 (A) (A) (A) (A) (A) (A) (A) (A) (A) (A) (A) (A)
                 (A) (A) (A) (A) (A) (A) (A) (A) (A) (A) (A) (A)
                 (A) (A) (A) (A) (A) (A) (A) (A) (A) (A) (A) (A)
                 (A) (A) (A) (A) (A) (A) (A) (A) (A) (A) (A) (A)
                 (A) (A) (A) (A) (A) (A) (A) (A) (A) (A) (A) (A)
                 (A) (A) (A) (A) (A) (A) (A) (A) (A) (A) (A) (A)
                 (A) (A) (A) (A) (A) (A) (A) (A) (A) (A) (A) (A)
                 (A) (A) (A) (A) (A) (A) (A) (A) (A) (A) (A) (A)
                 (A) (A) (A) (A) (A) (A) (A) (A) (A) (A) (A) (A)
                 (A) (A) (A) (A) (A) (A) (A) (A) (A) (A) (A) (A)
                 (A) (A) (A) (A) (A) (A) (A) (A) (A) (A) (A) (A)
                 (A) (A) (A) (A) (A) (A) (A) (A) (A) (A) (A) (A)
                 (A) (A) (A) (A) (A) (A) (A) (A) (A) (A) (A) (A)
                 (A) (A) (A) (A) (A) (A) (A) (A) (A) (A) (A) (A)
                 (A) (A) (A) (A) (A) (A) (A) (A) (A) (A) (A) (A)
                 (A) (A) (A) (A) (A) (A) (A) (A) (A) (A) (A) (A)
                 (A) (A) (A) (A) (A) (A) (A) (A) (A) (A) (A) (A)
                 (A) (A) (A) (A) (A) (A)
 The electronic state is 1-A.
 Alpha  occ. eigenvalues -- -102.68940 -25.28667 -25.28231 -25.28227 -19.60199
 Alpha  occ. eigenvalues --  -14.79313 -14.77219 -10.81233 -10.68780 -10.63045
 Alpha  occ. eigenvalues --  -10.61839 -10.58138 -10.57022 -10.56686 -10.56149
 Alpha  occ. eigenvalues --  -10.55753 -10.53065 -10.51755  -9.83228  -7.55740
 Alpha  occ. eigenvalues --   -7.55066  -7.55048  -1.47802  -1.38454  -1.38038
 Alpha  occ. eigenvalues --   -1.19043  -1.07193  -1.03837  -1.01419  -0.95171
 Alpha  occ. eigenvalues --   -0.90157  -0.87763  -0.85238  -0.81880  -0.78102
 Alpha  occ. eigenvalues --   -0.74065  -0.72625  -0.70145  -0.70033  -0.68782
 Alpha  occ. eigenvalues --   -0.67879  -0.66817  -0.63770  -0.61534  -0.58424
 Alpha  occ. eigenvalues --   -0.58388  -0.56336  -0.56060  -0.55067  -0.54327
 Alpha  occ. eigenvalues --   -0.54147  -0.53294  -0.52701  -0.52099  -0.51892
 Alpha  occ. eigenvalues --   -0.51122  -0.50194  -0.48807  -0.46818  -0.46028
 Alpha  occ. eigenvalues --   -0.45928  -0.43616  -0.42806  -0.42132  -0.40019
 Alpha  occ. eigenvalues --   -0.39394  -0.39215  -0.38614  -0.36551  -0.33398
 Alpha  occ. eigenvalues --   -0.31902  -0.28697
 Alpha virt. eigenvalues --   -0.00926  -0.00048   0.00999   0.02124   0.02620
 Alpha virt. eigenvalues --    0.03176   0.03550   0.03870   0.04624   0.05066
 Alpha virt. eigenvalues --    0.05141   0.05624   0.06047   0.06609   0.07120
 Alpha virt. eigenvalues --    0.07557   0.07812   0.07994   0.08621   0.09208
 Alpha virt. eigenvalues --    0.09279   0.09327   0.09927   0.10783   0.11020
 Alpha virt. eigenvalues --    0.11873   0.12038   0.12493   0.12606   0.13355
 Alpha virt. eigenvalues --    0.13635   0.14802   0.15445   0.15660   0.15812
 Alpha virt. eigenvalues --    0.17007   0.17586   0.18268   0.18402   0.19030
 Alpha virt. eigenvalues --    0.19432   0.19576   0.20153   0.20336   0.20820
 Alpha virt. eigenvalues --    0.20873   0.21138   0.21565   0.21746   0.22560
 Alpha virt. eigenvalues --    0.22717   0.22992   0.23428   0.23964   0.24237
 Alpha virt. eigenvalues --    0.24574   0.24811   0.25366   0.25481   0.25951
 Alpha virt. eigenvalues --    0.26347   0.27292   0.27398   0.27579   0.28301
 Alpha virt. eigenvalues --    0.28469   0.28806   0.29106   0.29598   0.30093
 Alpha virt. eigenvalues --    0.30444   0.30856   0.31363   0.31655   0.32001
 Alpha virt. eigenvalues --    0.32137   0.32786   0.33315   0.33929   0.34987
 Alpha virt. eigenvalues --    0.35485   0.35969   0.36465   0.36603   0.37078
 Alpha virt. eigenvalues --    0.37799   0.38141   0.38869   0.39463   0.40488
 Alpha virt. eigenvalues --    0.41207   0.41482   0.42495   0.43253   0.44520
 Alpha virt. eigenvalues --    0.44563   0.45574   0.46771   0.47103   0.48077
 Alpha virt. eigenvalues --    0.48809   0.49388   0.49944   0.50216   0.50795
 Alpha virt. eigenvalues --    0.51765   0.52927   0.54192   0.54604   0.56285
 Alpha virt. eigenvalues --    0.57164   0.58828   0.59657   0.60545   0.61054
 Alpha virt. eigenvalues --    0.61631   0.62131   0.62675   0.63846   0.65270
 Alpha virt. eigenvalues --    0.66235   0.66983   0.67922   0.68665   0.68749
 Alpha virt. eigenvalues --    0.69131   0.69850   0.70512   0.70945   0.71642
 Alpha virt. eigenvalues --    0.72511   0.73148   0.73708   0.73812   0.74657
 Alpha virt. eigenvalues --    0.74815   0.75829   0.77128   0.77977   0.79168
 Alpha virt. eigenvalues --    0.79622   0.80470   0.81704   0.82687   0.84189
 Alpha virt. eigenvalues --    0.85745   0.87234   0.88222   0.89661   0.89910
 Alpha virt. eigenvalues --    0.91007   0.92353   0.94246   0.94539   0.95099
 Alpha virt. eigenvalues --    0.95782   0.96224   0.96550   0.96907   0.97645
 Alpha virt. eigenvalues --    0.98883   1.01247   1.04001   1.04522   1.05144
 Alpha virt. eigenvalues --    1.06122   1.07494   1.09528   1.10022   1.11256
 Alpha virt. eigenvalues --    1.12709   1.13443   1.16004   1.18532   1.20297
 Alpha virt. eigenvalues --    1.21090   1.23410   1.24007   1.25452   1.25970
 Alpha virt. eigenvalues --    1.26840   1.29750   1.30842   1.32559   1.33863
 Alpha virt. eigenvalues --    1.35365   1.38088   1.40100   1.43047   1.44527
 Alpha virt. eigenvalues --    1.44931   1.46450   1.46681   1.48886   1.49360
 Alpha virt. eigenvalues --    1.49949   1.51440   1.52915   1.53887   1.54051
 Alpha virt. eigenvalues --    1.56126   1.57120   1.57189   1.57666   1.59041
 Alpha virt. eigenvalues --    1.61025   1.61174   1.62267   1.63452   1.63647
 Alpha virt. eigenvalues --    1.65562   1.69049   1.73377   1.75267   1.75978
 Alpha virt. eigenvalues --    1.77992   1.78480   1.79930   1.80402   1.80921
 Alpha virt. eigenvalues --    1.82832   1.83710   1.85217   1.85889   1.88447
 Alpha virt. eigenvalues --    1.89636   1.92333   1.92811   1.95224   1.96810
 Alpha virt. eigenvalues --    1.97609   1.98825   1.99553   2.05098   2.07570
 Alpha virt. eigenvalues --    2.08366   2.08405   2.11517   2.14465   2.15362
 Alpha virt. eigenvalues --    2.19636   2.22210   2.25186   2.25746   2.27505
 Alpha virt. eigenvalues --    2.31284   2.33256   2.34262   2.35334   2.39059
 Alpha virt. eigenvalues --    2.40118   2.41472   2.46696   2.48215   2.52476
 Alpha virt. eigenvalues --    2.55498   2.55874   2.56907   2.57734   2.58396
 Alpha virt. eigenvalues --    2.60601   2.61303   2.63930   2.65271   2.68118
 Alpha virt. eigenvalues --    2.71027   2.72062   2.78747   2.81761   2.83060
 Alpha virt. eigenvalues --    2.84915   2.85574   2.87631   2.89521   2.94970
 Alpha virt. eigenvalues --    2.96184   2.97217   2.99407   3.00988   3.01677
 Alpha virt. eigenvalues --    3.04567   3.07412   3.10097   3.12310   3.13832
 Alpha virt. eigenvalues --    3.18083   3.22438   3.24107   3.25469   3.27666
 Alpha virt. eigenvalues --    3.29550   3.30673   3.35373   3.38667   3.40295
 Alpha virt. eigenvalues --    3.40846   3.42432   3.44779   3.50589   3.57985
 Alpha virt. eigenvalues --    3.66255   3.68088   3.69609   3.77730   3.79814
 Alpha virt. eigenvalues --    3.80878   3.83284   3.83576   3.83880   3.86166
 Alpha virt. eigenvalues --    3.86841   3.87848   3.96682   3.98247   3.98953
 Alpha virt. eigenvalues --    4.00176   4.01322   4.02725   4.05513   4.06852
 Alpha virt. eigenvalues --    4.13170   4.22344   4.26564   4.30814   4.55004
 Alpha virt. eigenvalues --    4.58635   4.76463   4.81305   4.90330   4.97249
 Alpha virt. eigenvalues --    5.01097   5.17272   5.21832   5.41416   5.88635
 Alpha virt. eigenvalues --    6.44276   6.47869   6.49295   6.52219   6.54751
 Alpha virt. eigenvalues --    6.57136   6.63381   6.85743   6.90199   9.99380
 Alpha virt. eigenvalues --   23.44142  23.59808  23.65777  23.74587  23.82343
 Alpha virt. eigenvalues --   23.90722  23.92870  23.97919  24.08333  24.12185
 Alpha virt. eigenvalues --   24.20190  25.95374  26.31777  26.79092  35.60028
 Alpha virt. eigenvalues --   35.70884  50.13085  66.88224  66.90791  66.96576
 Alpha virt. eigenvalues --  216.10231
          Condensed to atoms (all electrons):
               1          2          3          4          5          6
     1  C   16.244032   0.107107  -0.802970  -0.121961  -0.346852  -0.612666
     2  N    0.107107   7.718326   0.462619  -0.109669  -0.477628  -0.414282
     3  C   -0.802970   0.462619   8.164649   0.600369   0.217490  -1.072285
     4  O   -0.121961  -0.109669   0.600369   8.286751  -0.191223  -0.116081
     5  N   -0.346852  -0.477628   0.217490  -0.191223   7.572944   0.543601
     6  C   -0.612666  -0.414282  -1.072285  -0.116081   0.543601   8.532894
     7  C   -0.005306   0.031884   0.228065   0.017578  -0.131663  -0.992624
     8  C   -0.020894  -0.014311  -0.280144  -0.003422   0.006705   0.437044
     9  C   -0.005577  -0.245362   0.170338   0.207911   0.107116  -0.059612
    10  C   -1.661403   0.080941   0.660166   0.019108   0.071199   0.022005
    11  C   -1.962705  -0.112111  -1.321142  -0.024729  -0.002165  -0.098784
    12  C    0.211576   0.117100  -0.047273   0.005905  -0.033260   0.006431
    13  C   -2.248751  -0.050475  -1.192981  -0.042678  -0.171731  -0.170162
    14  H   -0.016307   0.247043  -0.047436  -0.000440   0.055112   0.013697
    15  H   -0.019564   0.067714   0.029454  -0.001832   0.256016  -0.060401
    16  H    0.004319   0.004218   0.025680  -0.000390  -0.060641   0.391992
    17  H    0.004844   0.009656   0.070202   0.001051  -0.052604   0.323244
    18  H    0.000720  -0.001169   0.000499  -0.000107   0.007134  -0.066752
    19  H   -0.000239  -0.001143   0.002945  -0.000144   0.005819  -0.071460
    20  H   -0.000100  -0.000085  -0.003827  -0.000057  -0.000267  -0.049335
    21  H    0.000123   0.000011   0.006840   0.000023  -0.001396   0.087201
    22  H   -0.000045   0.000002   0.001087  -0.000044   0.000266  -0.048283
    23  H   -0.010859  -0.018920   0.051851  -0.002522   0.001657   0.005295
    24  Cl  -0.199915  -0.001293   0.036694   0.000318   0.002914   0.003951
    25  C   -2.008412  -0.001812  -0.190662  -0.000846   0.007642  -0.003533
    26  H    0.031194  -0.002147   0.003092  -0.000013  -0.000057   0.000025
    27  H    0.040089  -0.017839  -0.014350  -0.000023  -0.000136  -0.000635
    28  F    0.021463  -0.000206  -0.000747   0.000001   0.000001  -0.000006
    29  F    0.007865  -0.000037  -0.000883  -0.000004   0.000001  -0.000002
    30  F    0.037611  -0.000027   0.000725   0.000001   0.000003   0.000006
               7          8          9         10         11         12
     1  C   -0.005306  -0.020894  -0.005577  -1.661403  -1.962705   0.211576
     2  N    0.031884  -0.014311  -0.245362   0.080941  -0.112111   0.117100
     3  C    0.228065  -0.280144   0.170338   0.660166  -1.321142  -0.047273
     4  O    0.017578  -0.003422   0.207911   0.019108  -0.024729   0.005905
     5  N   -0.131663   0.006705   0.107116   0.071199  -0.002165  -0.033260
     6  C   -0.992624   0.437044  -0.059612   0.022005  -0.098784   0.006431
     7  C    6.469360  -0.241395  -0.022050  -0.006869  -0.000381   0.002298
     8  C   -0.241395   6.168523  -0.005869  -0.000218  -0.000838   0.000168
     9  C   -0.022050  -0.005869  10.462885   3.322588  -3.794963  -0.856924
    10  C   -0.006869  -0.000218   3.322588  23.119182  -8.813976  -1.623124
    11  C   -0.000381  -0.000838  -3.794963  -8.813976  29.015551  -3.899984
    12  C    0.002298   0.000168  -0.856924  -1.623124  -3.899984  12.901414
    13  C    0.021703  -0.001747  -2.486945  -5.545047   2.108446  -0.830991
    14  H   -0.002576   0.000107   0.073482   0.028487   0.009299  -0.013376
    15  H   -0.009108   0.002708  -0.001556  -0.001256  -0.001184   0.001853
    16  H   -0.029620  -0.010587  -0.004245  -0.000050  -0.000018   0.000050
    17  H   -0.007436  -0.026355   0.004502   0.000588   0.000269  -0.000066
    18  H    0.454062  -0.047247  -0.000472  -0.000027  -0.000004   0.000024
    19  H    0.459010  -0.048989   0.000643   0.000045   0.000012  -0.000024
    20  H    0.016045   0.382008  -0.000039  -0.000001  -0.000000   0.000000
    21  H   -0.123318   0.380348   0.000031   0.000001   0.000000  -0.000000
    22  H    0.016839   0.375508   0.000010  -0.000001  -0.000000   0.000000
    23  H   -0.000272   0.000041   0.344090  -0.068012   0.047700  -0.025155
    24  Cl  -0.000223   0.000028   0.554548  -1.199334  -0.537376   0.295144
    25  C   -0.000290  -0.000015  -1.504146  -2.915090  -3.702551  -0.199175
    26  H    0.000000   0.000000  -0.008768  -0.017746   0.107475   0.295010
    27  H   -0.000031   0.000000  -0.004330  -0.001129   0.018838  -0.023905
    28  F    0.000000  -0.000000  -0.006091  -0.053819  -0.163062   0.035869
    29  F   -0.000000  -0.000000  -0.002330  -0.099550   0.122134  -0.005595
    30  F   -0.000000   0.000000   0.048682  -0.032091   0.067543  -0.014153
              13         14         15         16         17         18
     1  C   -2.248751  -0.016307  -0.019564   0.004319   0.004844   0.000720
     2  N   -0.050475   0.247043   0.067714   0.004218   0.009656  -0.001169
     3  C   -1.192981  -0.047436   0.029454   0.025680   0.070202   0.000499
     4  O   -0.042678  -0.000440  -0.001832  -0.000390   0.001051  -0.000107
     5  N   -0.171731   0.055112   0.256016  -0.060641  -0.052604   0.007134
     6  C   -0.170162   0.013697  -0.060401   0.391992   0.323244  -0.066752
     7  C    0.021703  -0.002576  -0.009108  -0.029620  -0.007436   0.454062
     8  C   -0.001747   0.000107   0.002708  -0.010587  -0.026355  -0.047247
     9  C   -2.486945   0.073482  -0.001556  -0.004245   0.004502  -0.000472
    10  C   -5.545047   0.028487  -0.001256  -0.000050   0.000588  -0.000027
    11  C    2.108446   0.009299  -0.001184  -0.000018   0.000269  -0.000004
    12  C   -0.830991  -0.013376   0.001853   0.000050  -0.000066   0.000024
    13  C   15.245413  -0.069946   0.006047   0.000893   0.000182   0.000150
    14  H   -0.069946   0.266752   0.001670   0.000032   0.000007   0.000010
    15  H    0.006047   0.001670   0.280018   0.002105   0.001740  -0.001690
    16  H    0.000893   0.000032   0.002105   0.440761  -0.043706   0.005645
    17  H    0.000182   0.000007   0.001740  -0.043706   0.438031  -0.008297
    18  H    0.000150   0.000010  -0.001690   0.005645  -0.008297   0.435551
    19  H   -0.000235   0.000039  -0.000449  -0.008264   0.005380  -0.041262
    20  H    0.000009   0.000000  -0.000038  -0.000499   0.003498  -0.008264
    21  H   -0.000009   0.000000  -0.000033  -0.000023  -0.000081  -0.003134
    22  H    0.000002  -0.000000   0.000002   0.003263  -0.000416   0.005854
    23  H   -0.014401   0.000041  -0.000012   0.000000  -0.000002   0.000000
    24  Cl   0.232671   0.000275  -0.000021   0.000004   0.000007   0.000000
    25  C    1.056341   0.002753  -0.000081  -0.000002   0.000004  -0.000000
    26  H   -0.084987   0.000008   0.000000   0.000000  -0.000000  -0.000000
    27  H    0.313131   0.004721  -0.000026  -0.000000   0.000000  -0.000000
    28  F    0.110631  -0.000001  -0.000000  -0.000000   0.000000  -0.000000
    29  F    0.003062   0.000002   0.000000  -0.000000   0.000000  -0.000000
    30  F   -0.017477   0.000001   0.000000   0.000000  -0.000000   0.000000
              19         20         21         22         23         24
     1  C   -0.000239  -0.000100   0.000123  -0.000045  -0.010859  -0.199915
     2  N   -0.001143  -0.000085   0.000011   0.000002  -0.018920  -0.001293
     3  C    0.002945  -0.003827   0.006840   0.001087   0.051851   0.036694
     4  O   -0.000144  -0.000057   0.000023  -0.000044  -0.002522   0.000318
     5  N    0.005819  -0.000267  -0.001396   0.000266   0.001657   0.002914
     6  C   -0.071460  -0.049335   0.087201  -0.048283   0.005295   0.003951
     7  C    0.459010   0.016045  -0.123318   0.016839  -0.000272  -0.000223
     8  C   -0.048989   0.382008   0.380348   0.375508   0.000041   0.000028
     9  C    0.000643  -0.000039   0.000031   0.000010   0.344090   0.554548
    10  C    0.000045  -0.000001   0.000001  -0.000001  -0.068012  -1.199334
    11  C    0.000012  -0.000000   0.000000  -0.000000   0.047700  -0.537376
    12  C   -0.000024   0.000000  -0.000000   0.000000  -0.025155   0.295144
    13  C   -0.000235   0.000009  -0.000009   0.000002  -0.014401   0.232671
    14  H    0.000039   0.000000   0.000000  -0.000000   0.000041   0.000275
    15  H   -0.000449  -0.000038  -0.000033   0.000002  -0.000012  -0.000021
    16  H   -0.008264  -0.000499  -0.000023   0.003263   0.000000   0.000004
    17  H    0.005380   0.003498  -0.000081  -0.000416  -0.000002   0.000007
    18  H   -0.041262  -0.008264  -0.003134   0.005854   0.000000   0.000000
    19  H    0.437463   0.005913  -0.003127  -0.008257  -0.000000   0.000000
    20  H    0.005913   0.445904  -0.024230  -0.036589  -0.000000  -0.000000
    21  H   -0.003127  -0.024230   0.424824  -0.024498   0.000000  -0.000000
    22  H   -0.008257  -0.036589  -0.024498   0.445640  -0.000000  -0.000000
    23  H   -0.000000  -0.000000   0.000000  -0.000000   0.345396  -0.010269
    24  Cl   0.000000  -0.000000  -0.000000  -0.000000  -0.010269  17.588379
    25  C    0.000000  -0.000000   0.000000  -0.000000   0.015776  -0.172718
    26  H   -0.000000   0.000000  -0.000000   0.000000   0.000043  -0.000231
    27  H   -0.000000  -0.000000   0.000000   0.000000   0.000005   0.000260
    28  F    0.000000  -0.000000   0.000000  -0.000000   0.000022   0.011000
    29  F    0.000000   0.000000  -0.000000  -0.000000  -0.000027  -0.013064
    30  F   -0.000000  -0.000000   0.000000  -0.000000  -0.000049  -0.014144
              25         26         27         28         29         30
     1  C   -2.008412   0.031194   0.040089   0.021463   0.007865   0.037611
     2  N   -0.001812  -0.002147  -0.017839  -0.000206  -0.000037  -0.000027
     3  C   -0.190662   0.003092  -0.014350  -0.000747  -0.000883   0.000725
     4  O   -0.000846  -0.000013  -0.000023   0.000001  -0.000004   0.000001
     5  N    0.007642  -0.000057  -0.000136   0.000001   0.000001   0.000003
     6  C   -0.003533   0.000025  -0.000635  -0.000006  -0.000002   0.000006
     7  C   -0.000290   0.000000  -0.000031   0.000000  -0.000000  -0.000000
     8  C   -0.000015   0.000000   0.000000  -0.000000  -0.000000   0.000000
     9  C   -1.504146  -0.008768  -0.004330  -0.006091  -0.002330   0.048682
    10  C   -2.915090  -0.017746  -0.001129  -0.053819  -0.099550  -0.032091
    11  C   -3.702551   0.107475   0.018838  -0.163062   0.122134   0.067543
    12  C   -0.199175   0.295010  -0.023905   0.035869  -0.005595  -0.014153
    13  C    1.056341  -0.084987   0.313131   0.110631   0.003062  -0.017477
    14  H    0.002753   0.000008   0.004721  -0.000001   0.000002   0.000001
    15  H   -0.000081   0.000000  -0.000026  -0.000000   0.000000   0.000000
    16  H   -0.000002   0.000000  -0.000000  -0.000000  -0.000000   0.000000
    17  H    0.000004  -0.000000   0.000000   0.000000   0.000000  -0.000000
    18  H   -0.000000  -0.000000  -0.000000  -0.000000  -0.000000   0.000000
    19  H    0.000000  -0.000000  -0.000000   0.000000   0.000000  -0.000000
    20  H   -0.000000   0.000000  -0.000000  -0.000000   0.000000  -0.000000
    21  H    0.000000  -0.000000   0.000000   0.000000  -0.000000   0.000000
    22  H   -0.000000   0.000000   0.000000  -0.000000  -0.000000  -0.000000
    23  H    0.015776   0.000043   0.000005   0.000022  -0.000027  -0.000049
    24  Cl  -0.172718  -0.000231   0.000260   0.011000  -0.013064  -0.014144
    25  C   14.580519  -0.007785   0.019052   0.194603   0.126532   0.060203
    26  H   -0.007785   0.358461  -0.003006   0.009143   0.000100   0.000183
    27  H    0.019052  -0.003006   0.369878   0.000039   0.000031   0.000030
    28  F    0.194603   0.009143   0.000039   9.056794  -0.035272  -0.036517
    29  F    0.126532   0.000100   0.000031  -0.035272   9.014151  -0.045680
    30  F    0.060203   0.000183   0.000030  -0.036517  -0.045680   9.017270
 Mulliken charges:
               1
     1  C   -0.666418
     2  N   -0.378104
     3  C    0.241935
     4  O   -0.522829
     5  N   -0.385994
     6  C   -0.530481
     7  C   -0.143681
     8  C   -1.051157
     9  C   -0.287546
    10  C    0.714436
    11  C   -1.061291
    12  C   -0.299838
    13  C   -0.170119
    14  H    0.446547
    15  H    0.447923
    16  H    0.279081
    17  H    0.275759
    18  H    0.268775
    19  H    0.266323
    20  H    0.269957
    21  H    0.280446
    22  H    0.269661
    23  H    0.338581
    24  Cl   0.422393
    25  C    0.643692
    26  H    0.320006
    27  H    0.299338
    28  F   -0.143844
    29  F   -0.071433
    30  F   -0.072118
 Sum of Mulliken charges =  -0.00000
 Mulliken charges with hydrogens summed into heavy atoms:
               1
     1  C   -0.666418
     2  N    0.068443
     3  C    0.241935
     4  O   -0.522829
     5  N    0.061929
     6  C    0.024360
     7  C    0.391417
     8  C   -0.231093
     9  C    0.051035
    10  C    0.714436
    11  C   -1.061291
    12  C    0.020169
    13  C    0.129219
    24  Cl   0.422393
    25  C    0.643692
    28  F   -0.143844
    29  F   -0.071433
    30  F   -0.072118
 Electronic spatial extent (au):  <R**2>=           8695.7729
 Charge=             -0.0000 electrons
 Dipole moment (field-independent basis, Debye):
    X=             -8.6975    Y=             -8.5465    Z=             -1.0425  Tot=             12.2383
 Quadrupole moment (field-independent basis, Debye-Ang):
   XX=           -105.2054   YY=           -103.3403   ZZ=           -115.7877
   XY=             11.4009   XZ=              2.7552   YZ=             -0.0246
 Traceless Quadrupole moment (field-independent basis, Debye-Ang):
   XX=              2.9058   YY=              4.7708   ZZ=             -7.6766
   XY=             11.4009   XZ=              2.7552   YZ=             -0.0246
 Octapole moment (field-independent basis, Debye-Ang**2):
  XXX=           -189.8646  YYY=            -40.2380  ZZZ=              1.4539  XYY=             15.3831
  XXY=            -54.1082  XXZ=             -8.6272  XZZ=             13.9586  YZZ=              2.1755
  YYZ=             -3.2928  XYZ=             -1.3041
 Hexadecapole moment (field-independent basis, Debye-Ang**3):
 XXXX=          -9322.8418 YYYY=           -950.8995 ZZZZ=           -213.0642 XXXY=            164.9373
 XXXZ=             32.7475 YYYX=             45.5541 YYYZ=              0.4882 ZZZX=              2.7209
 ZZZY=              0.1228 XXYY=          -1761.5310 XXZZ=          -1682.5817 YYZZ=           -217.8320
 XXYZ=              6.5991 YYXZ=             12.0265 ZZXY=             -9.2309
 N-N= 1.432595230556D+03 E-N=-6.096282076624D+03  KE= 1.366861754040D+03
 D1PCM: PCM CHGder 1st derivatives, ID1Alg=3 FixD1E=F DoIter=F DoCFld=F I1PDM=0.
 Calling FoFJK, ICntrl=      2127 FMM=F ISym2X=0 I1Cent= 0 IOpClX= 0 NMat=1 NMatS=1 NMatT=0.
 ***** Axes restored to original set *****
 -------------------------------------------------------------------
 Center     Atomic                   Forces (Hartrees/Bohr)
 Number     Number              X              Y              Z
 -------------------------------------------------------------------
      1        6           0.000001974    0.000001033   -0.000004298
      2        7          -0.000010621   -0.000007221    0.000010156
      3        6           0.000012709    0.000023088   -0.000000984
      4        8          -0.000003319   -0.000012449    0.000003119
      5        7          -0.000003090   -0.000004109   -0.000011486
      6        6           0.000002490    0.000000795    0.000007515
      7        6          -0.000004134   -0.000002350    0.000002055
      8        6           0.000002230   -0.000001046    0.000000436
      9        6           0.000003164   -0.000005269   -0.000001804
     10        6           0.000000990   -0.000006456    0.000003374
     11        6          -0.000001489    0.000006255   -0.000000233
     12        6          -0.000001184    0.000003289   -0.000003429
     13        6          -0.000000772    0.000004686   -0.000000601
     14        1          -0.000001636   -0.000000774   -0.000001892
     15        1          -0.000001607   -0.000002113    0.000001027
     16        1          -0.000002142   -0.000000920    0.000001084
     17        1           0.000001917   -0.000003102   -0.000001108
     18        1          -0.000000167   -0.000001115   -0.000000528
     19        1          -0.000000250   -0.000001733    0.000001741
     20        1          -0.000000204   -0.000002396    0.000001536
     21        1          -0.000000760   -0.000003699    0.000002239
     22        1          -0.000000444   -0.000002326    0.000003123
     23        1          -0.000000924    0.000003556    0.000000732
     24       17          -0.000000177    0.000005593   -0.000002100
     25        6           0.000006415   -0.000002232   -0.000000784
     26        1          -0.000000392    0.000001159   -0.000002274
     27        1          -0.000001175    0.000000791   -0.000001773
     28        9          -0.000001673   -0.000001692   -0.000001944
     29        9           0.000000887    0.000003846   -0.000001567
     30        9           0.000003386    0.000006911   -0.000001334
 -------------------------------------------------------------------
 Cartesian Forces:  Max     0.000023088 RMS     0.000004576

 GradGradGradGradGradGradGradGradGradGradGradGradGradGradGradGradGradGrad
 Berny optimization.
 FormGI is forming the generalized inverse of G from B-inverse, IUseBI=4.
 GSVD:  received Info=                   1 from GESDD.
 Internal  Forces:  Max     0.000012525 RMS     0.000002245
 Search for a local minimum.
 Step number   1 out of a maximum of  157
 All quantities printed in internal units (Hartrees-Bohrs-Radians)
 Mixed Optimization -- En-DIIS/RFO-DIIS
 Second derivative matrix not updated -- first step.
 ITU=  0
     Eigenvalues ---    0.00453   0.00510   0.00802   0.00924   0.01538
     Eigenvalues ---    0.01609   0.01811   0.01872   0.01899   0.02001
     Eigenvalues ---    0.02098   0.02145   0.02168   0.02183   0.02212
     Eigenvalues ---    0.02223   0.02242   0.02266   0.02393   0.03782
     Eigenvalues ---    0.04490   0.04960   0.05558   0.05566   0.05574
     Eigenvalues ---    0.08126   0.09169   0.10566   0.10703   0.12031
     Eigenvalues ---    0.12645   0.15954   0.15968   0.16000   0.16000
     Eigenvalues ---    0.16000   0.16000   0.16000   0.16000   0.21888
     Eigenvalues ---    0.21918   0.22009   0.22013   0.22370   0.23486
     Eigenvalues ---    0.24614   0.24994   0.24999   0.25000   0.25000
     Eigenvalues ---    0.25000   0.25000   0.25000   0.25000   0.30015
     Eigenvalues ---    0.30430   0.30867   0.32668   0.34285   0.34319
     Eigenvalues ---    0.34329   0.34447   0.34462   0.34468   0.34641
     Eigenvalues ---    0.35495   0.35673   0.36244   0.37210   0.42139
     Eigenvalues ---    0.42799   0.45474   0.45791   0.45932   0.46110
     Eigenvalues ---    0.47142   0.47261   0.48322   0.48607   0.55666
     Eigenvalues ---    0.55804   0.55815   0.57170   0.89964
 RFO step:  Lambda= 0.00000000D+00 EMin= 4.52708600D-03
 Linear search not attempted -- first point.
 Iteration  1 RMS(Cart)=  0.00014553 RMS(Int)=  0.00000001
 Iteration  2 RMS(Cart)=  0.00000002 RMS(Int)=  0.00000000
 Variable       Old X    -DE/DX   Delta X   Delta X   Delta X     New X
                                 (Linear)    (Quad)   (Total)
    R1        2.62864  -0.00000   0.00000  -0.00001  -0.00001   2.62863
    R2        2.64679  -0.00000   0.00000  -0.00001  -0.00001   2.64678
    R3        2.64993  -0.00000   0.00000  -0.00000  -0.00000   2.64993
    R4        2.61598   0.00001   0.00000   0.00002   0.00002   2.61600
    R5        1.91429   0.00000   0.00000   0.00000   0.00000   1.91429
    R6        2.32950  -0.00001   0.00000  -0.00001  -0.00001   2.32948
    R7        2.54545  -0.00000   0.00000  -0.00000  -0.00000   2.54545
    R8        2.75531   0.00000   0.00000   0.00001   0.00001   2.75532
    R9        1.91067   0.00000   0.00000   0.00000   0.00000   1.91068
   R10        2.87113  -0.00000   0.00000  -0.00000  -0.00000   2.87113
   R11        2.06779  -0.00000   0.00000  -0.00000  -0.00000   2.06779
   R12        2.06582   0.00000   0.00000   0.00000   0.00000   2.06582
   R13        2.87934   0.00000   0.00000   0.00001   0.00001   2.87934
   R14        2.06795   0.00000   0.00000   0.00000   0.00000   2.06795
   R15        2.06852   0.00000   0.00000   0.00000   0.00000   2.06852
   R16        2.06557   0.00000   0.00000   0.00000   0.00000   2.06557
   R17        2.06262   0.00000   0.00000   0.00000   0.00000   2.06263
   R18        2.06548   0.00000   0.00000   0.00000   0.00000   2.06548
   R19        2.61772  -0.00000   0.00000  -0.00000  -0.00000   2.61772
   R20        2.03702   0.00000   0.00000   0.00000   0.00000   2.03702
   R21        2.63324  -0.00000   0.00000  -0.00001  -0.00001   2.63323
   R22        3.29967   0.00000   0.00000   0.00001   0.00001   3.29968
   R23        2.63480  -0.00000   0.00000  -0.00001  -0.00001   2.63479
   R24        2.82939  -0.00001   0.00000  -0.00002  -0.00002   2.82936
   R25        2.60970  -0.00000   0.00000  -0.00000  -0.00000   2.60970
   R26        2.04595   0.00000   0.00000   0.00000   0.00000   2.04596
   R27        2.04879   0.00000   0.00000   0.00000   0.00000   2.04879
   R28        2.53253   0.00000   0.00000   0.00001   0.00001   2.53253
   R29        2.54415   0.00000   0.00000   0.00000   0.00000   2.54415
   R30        2.54425   0.00000   0.00000   0.00000   0.00000   2.54425
    A1        2.16165  -0.00000   0.00000  -0.00001  -0.00001   2.16165
    A2        2.04386   0.00000   0.00000   0.00001   0.00001   2.04387
    A3        2.07747  -0.00000   0.00000  -0.00000  -0.00000   2.07747
    A4        2.23338  -0.00001   0.00000  -0.00003  -0.00003   2.23335
    A5        2.00868   0.00000   0.00000   0.00001   0.00001   2.00868
    A6        2.03731   0.00000   0.00000   0.00002   0.00002   2.03733
    A7        2.14711  -0.00000   0.00000  -0.00001  -0.00001   2.14710
    A8        1.99773  -0.00000   0.00000  -0.00001  -0.00001   1.99772
    A9        2.13831   0.00000   0.00000   0.00002   0.00002   2.13833
   A10        2.11077  -0.00000   0.00000  -0.00001  -0.00001   2.11076
   A11        2.10025  -0.00000   0.00000  -0.00001  -0.00001   2.10024
   A12        2.06854   0.00000   0.00000  -0.00000  -0.00000   2.06854
   A13        1.92565   0.00000   0.00000  -0.00000  -0.00000   1.92565
   A14        1.91255  -0.00000   0.00000  -0.00001  -0.00001   1.91254
   A15        1.90526   0.00000   0.00000   0.00000   0.00000   1.90526
   A16        1.92281   0.00000   0.00000   0.00001   0.00001   1.92281
   A17        1.92267  -0.00000   0.00000  -0.00001  -0.00001   1.92266
   A18        1.87412   0.00000   0.00000   0.00001   0.00001   1.87413
   A19        1.93847   0.00000   0.00000   0.00000   0.00000   1.93847
   A20        1.90652  -0.00000   0.00000  -0.00000  -0.00000   1.90652
   A21        1.90710  -0.00000   0.00000   0.00000   0.00000   1.90710
   A22        1.92156  -0.00000   0.00000  -0.00001  -0.00001   1.92155
   A23        1.92048  -0.00000   0.00000  -0.00001  -0.00001   1.92047
   A24        1.86829   0.00000   0.00000   0.00001   0.00001   1.86830
   A25        1.93797  -0.00000   0.00000  -0.00000  -0.00000   1.93796
   A26        1.93922  -0.00000   0.00000  -0.00001  -0.00001   1.93922
   A27        1.93795  -0.00000   0.00000  -0.00000  -0.00000   1.93795
   A28        1.88201   0.00000   0.00000   0.00000   0.00000   1.88201
   A29        1.88215   0.00000   0.00000   0.00001   0.00001   1.88216
   A30        1.88211   0.00000   0.00000   0.00000   0.00000   1.88211
   A31        2.08103  -0.00000   0.00000  -0.00000  -0.00000   2.08103
   A32        2.11407   0.00000   0.00000   0.00002   0.00002   2.11409
   A33        2.08808  -0.00000   0.00000  -0.00002  -0.00002   2.08805
   A34        2.13254   0.00000   0.00000   0.00000   0.00000   2.13255
   A35        2.04498   0.00000   0.00000   0.00000   0.00000   2.04499
   A36        2.10565  -0.00000   0.00000  -0.00001  -0.00001   2.10564
   A37        2.05948   0.00000   0.00000   0.00000   0.00000   2.05948
   A38        2.12736  -0.00000   0.00000  -0.00000  -0.00000   2.12735
   A39        2.09635   0.00000   0.00000   0.00000   0.00000   2.09635
   A40        2.10984  -0.00000   0.00000  -0.00001  -0.00001   2.10984
   A41        2.09043   0.00000   0.00000   0.00001   0.00001   2.09044
   A42        2.08291   0.00000   0.00000  -0.00000  -0.00000   2.08291
   A43        2.10596   0.00000   0.00000   0.00000   0.00000   2.10596
   A44        2.08597   0.00000   0.00000   0.00000   0.00000   2.08598
   A45        2.09125  -0.00000   0.00000  -0.00001  -0.00001   2.09125
   A46        1.95311  -0.00000   0.00000   0.00000   0.00000   1.95312
   A47        1.96690   0.00000   0.00000  -0.00000  -0.00000   1.96690
   A48        1.96625  -0.00000   0.00000  -0.00001  -0.00001   1.96623
   A49        1.85773   0.00000   0.00000   0.00001   0.00001   1.85774
   A50        1.85751   0.00000   0.00000   0.00002   0.00002   1.85754
   A51        1.85421  -0.00000   0.00000  -0.00002  -0.00002   1.85420
    D1       -0.19164  -0.00000   0.00000  -0.00008  -0.00008  -0.19173
    D2        3.04765   0.00000   0.00000   0.00005   0.00005   3.04770
    D3        2.97152  -0.00000   0.00000  -0.00010  -0.00010   2.97142
    D4       -0.07237   0.00000   0.00000   0.00003   0.00003  -0.07234
    D5       -3.12893   0.00000   0.00000   0.00000   0.00000  -3.12892
    D6        0.00747   0.00000   0.00000   0.00000   0.00000   0.00747
    D7       -0.00930   0.00000   0.00000   0.00002   0.00002  -0.00928
    D8        3.12710   0.00000   0.00000   0.00002   0.00002   3.12712
    D9        3.12760   0.00000   0.00000   0.00003   0.00003   3.12762
   D10       -0.01462   0.00000   0.00000   0.00000   0.00000  -0.01462
   D11        0.00650   0.00000   0.00000   0.00001   0.00001   0.00651
   D12       -3.13572  -0.00000   0.00000  -0.00002  -0.00002  -3.13573
   D13        0.00085   0.00000   0.00000   0.00014   0.00014   0.00099
   D14       -3.13274   0.00000   0.00000   0.00010   0.00010  -3.13264
   D15        3.04337   0.00000   0.00000   0.00000   0.00000   3.04338
   D16       -0.09022  -0.00000   0.00000  -0.00004  -0.00004  -0.09026
   D17       -3.11892   0.00000   0.00000   0.00018   0.00018  -3.11874
   D18       -0.07003  -0.00000   0.00000  -0.00006  -0.00006  -0.07009
   D19        0.03062   0.00000   0.00000   0.00014   0.00014   0.03076
   D20        3.07951  -0.00000   0.00000  -0.00010  -0.00010   3.07941
   D21       -3.11306  -0.00000   0.00000  -0.00032  -0.00032  -3.11338
   D22        1.05005  -0.00000   0.00000  -0.00032  -0.00032   1.04973
   D23       -0.99789  -0.00000   0.00000  -0.00033  -0.00033  -0.99822
   D24        0.11958   0.00000   0.00000  -0.00009  -0.00009   0.11950
   D25       -2.00049  -0.00000   0.00000  -0.00009  -0.00009  -2.00058
   D26        2.23476  -0.00000   0.00000  -0.00010  -0.00010   2.23467
   D27       -3.13298   0.00000   0.00000  -0.00003  -0.00003  -3.13301
   D28        1.02740   0.00000   0.00000  -0.00002  -0.00002   1.02738
   D29       -1.01113  -0.00000   0.00000  -0.00003  -0.00003  -1.01116
   D30       -1.01900  -0.00000   0.00000  -0.00004  -0.00004  -1.01904
   D31        3.14138  -0.00000   0.00000  -0.00003  -0.00003   3.14135
   D32        1.10284  -0.00000   0.00000  -0.00004  -0.00004   1.10280
   D33        1.04543   0.00000   0.00000  -0.00002  -0.00002   1.04541
   D34       -1.07738   0.00000   0.00000  -0.00002  -0.00002  -1.07739
   D35       -3.11591  -0.00000   0.00000  -0.00003  -0.00003  -3.11594
   D36       -1.04311  -0.00000   0.00000  -0.00003  -0.00003  -1.04314
   D37       -3.13769  -0.00000   0.00000  -0.00003  -0.00003  -3.13772
   D38        1.05080   0.00000   0.00000  -0.00003  -0.00003   1.05077
   D39        1.07089  -0.00000   0.00000  -0.00003  -0.00003   1.07085
   D40       -1.02369  -0.00000   0.00000  -0.00003  -0.00003  -1.02373
   D41       -3.11839   0.00000   0.00000  -0.00003  -0.00003  -3.11842
   D42        3.12607  -0.00000   0.00000  -0.00003  -0.00003   3.12604
   D43        1.03149  -0.00000   0.00000  -0.00003  -0.00003   1.03146
   D44       -1.06320   0.00000   0.00000  -0.00003  -0.00003  -1.06323
   D45        0.00428  -0.00000   0.00000  -0.00003  -0.00003   0.00425
   D46        3.14084   0.00000   0.00000   0.00008   0.00008   3.14092
   D47       -3.13219  -0.00000   0.00000  -0.00003  -0.00003  -3.13222
   D48        0.00437   0.00000   0.00000   0.00007   0.00007   0.00444
   D49        0.00369   0.00000   0.00000   0.00001   0.00001   0.00369
   D50       -3.13932   0.00000   0.00000   0.00004   0.00004  -3.13928
   D51       -3.13270  -0.00000   0.00000  -0.00010  -0.00010  -3.13280
   D52        0.00748  -0.00000   0.00000  -0.00006  -0.00006   0.00741
   D53       -0.00662   0.00000   0.00000   0.00002   0.00002  -0.00659
   D54        3.13825   0.00000   0.00000   0.00001   0.00001   3.13826
   D55        3.13637  -0.00000   0.00000  -0.00001  -0.00001   3.13635
   D56       -0.00196  -0.00000   0.00000  -0.00002  -0.00002  -0.00198
   D57        3.13493  -0.00000   0.00000  -0.00008  -0.00008   3.13485
   D58       -1.05524   0.00000   0.00000  -0.00007  -0.00007  -1.05531
   D59        1.04266  -0.00000   0.00000  -0.00010  -0.00010   1.04256
   D60       -0.00811   0.00000   0.00000  -0.00004  -0.00004  -0.00815
   D61        2.08491   0.00000   0.00000  -0.00003  -0.00003   2.08488
   D62       -2.10038  -0.00000   0.00000  -0.00006  -0.00006  -2.10044
   D63        0.00158  -0.00000   0.00000  -0.00003  -0.00003   0.00155
   D64       -3.13939  -0.00000   0.00000  -0.00001  -0.00001  -3.13940
   D65        3.13991  -0.00000   0.00000  -0.00002  -0.00002   3.13989
   D66       -0.00105   0.00000   0.00000   0.00000   0.00000  -0.00105
         Item               Value     Threshold  Converged?
 Maximum Force            0.000013     0.000450     YES
 RMS     Force            0.000002     0.000300     YES
 Maximum Displacement     0.000673     0.001800     YES
 RMS     Displacement     0.000146     0.001200     YES
 Predicted change in Energy=-4.359844D-09
 Optimization completed.
    -- Stationary point found.
                           ----------------------------
                           !   Optimized Parameters   !
                           ! (Angstroms and Degrees)  !
 --------------------------                            --------------------------
 ! Name  Definition              Value          Derivative Info.                !
 --------------------------------------------------------------------------------
 ! R1    R(1,2)                  1.391          -DE/DX =    0.0                 !
 ! R2    R(1,9)                  1.4006         -DE/DX =    0.0                 !
 ! R3    R(1,13)                 1.4023         -DE/DX =    0.0                 !
 ! R4    R(2,3)                  1.3843         -DE/DX =    0.0                 !
 ! R5    R(2,14)                 1.013          -DE/DX =    0.0                 !
 ! R6    R(3,4)                  1.2327         -DE/DX =    0.0                 !
 ! R7    R(3,5)                  1.347          -DE/DX =    0.0                 !
 ! R8    R(5,6)                  1.458          -DE/DX =    0.0                 !
 ! R9    R(5,15)                 1.0111         -DE/DX =    0.0                 !
 ! R10   R(6,7)                  1.5193         -DE/DX =    0.0                 !
 ! R11   R(6,16)                 1.0942         -DE/DX =    0.0                 !
 ! R12   R(6,17)                 1.0932         -DE/DX =    0.0                 !
 ! R13   R(7,8)                  1.5237         -DE/DX =    0.0                 !
 ! R14   R(7,18)                 1.0943         -DE/DX =    0.0                 !
 ! R15   R(7,19)                 1.0946         -DE/DX =    0.0                 !
 ! R16   R(8,20)                 1.0931         -DE/DX =    0.0                 !
 ! R17   R(8,21)                 1.0915         -DE/DX =    0.0                 !
 ! R18   R(8,22)                 1.093          -DE/DX =    0.0                 !
 ! R19   R(9,10)                 1.3852         -DE/DX =    0.0                 !
 ! R20   R(9,23)                 1.0779         -DE/DX =    0.0                 !
 ! R21   R(10,11)                1.3935         -DE/DX =    0.0                 !
 ! R22   R(10,24)                1.7461         -DE/DX =    0.0                 !
 ! R23   R(11,12)                1.3943         -DE/DX =    0.0                 !
 ! R24   R(11,25)                1.4972         -DE/DX =    0.0                 !
 ! R25   R(12,13)                1.381          -DE/DX =    0.0                 !
 ! R26   R(12,26)                1.0827         -DE/DX =    0.0                 !
 ! R27   R(13,27)                1.0842         -DE/DX =    0.0                 !
 ! R28   R(25,28)                1.3402         -DE/DX =    0.0                 !
 ! R29   R(25,29)                1.3463         -DE/DX =    0.0                 !
 ! R30   R(25,30)                1.3464         -DE/DX =    0.0                 !
 ! A1    A(2,1,9)              123.8536         -DE/DX =    0.0                 !
 ! A2    A(2,1,13)             117.1047         -DE/DX =    0.0                 !
 ! A3    A(9,1,13)             119.0305         -DE/DX =    0.0                 !
 ! A4    A(1,2,3)              127.9635         -DE/DX =    0.0                 !
 ! A5    A(1,2,14)             115.0887         -DE/DX =    0.0                 !
 ! A6    A(3,2,14)             116.7291         -DE/DX =    0.0                 !
 ! A7    A(2,3,4)              123.0203         -DE/DX =    0.0                 !
 ! A8    A(2,3,5)              114.4617         -DE/DX =    0.0                 !
 ! A9    A(4,3,5)              122.5164         -DE/DX =    0.0                 !
 ! A10   A(3,5,6)              120.9381         -DE/DX =    0.0                 !
 ! A11   A(3,5,15)             120.3356         -DE/DX =    0.0                 !
 ! A12   A(6,5,15)             118.5189         -DE/DX =    0.0                 !
 ! A13   A(5,6,7)              110.3318         -DE/DX =    0.0                 !
 ! A14   A(5,6,16)             109.581          -DE/DX =    0.0                 !
 ! A15   A(5,6,17)             109.1631         -DE/DX =    0.0                 !
 ! A16   A(7,6,16)             110.1688         -DE/DX =    0.0                 !
 ! A17   A(7,6,17)             110.1609         -DE/DX =    0.0                 !
[...]
 596,-0.00000128,-0.00000074,-0.00000637,0.00000227,0.00000145,0.000001
 77,-0.00000206,0.00001783,0.00000383,-0.00000022,0.00000185,0.00000197
 ,0.00000175,-0.00118722,0.00119522,0.00015394,-0.02960144,0.23712292,-
 0.00048152,0.00019176,0.00581639,0.00025496,-0.00013637,-0.00004427,-0
 .00019113,-0.00008961,0.00004910,0.00010070,0.00002866,0.00001859,0.00
 008558,-0.00003115,-0.00002249,-0.00001672,-0.00001244,0.00002099,0.00
 000178,0.00000513,-0.00000076,0.00000074,-0.00000286,0.00000012,0.0005
 1885,-0.00117766,0.00420033,-0.00023852,-0.00914976,-0.02385930,0.0008
 9903,-0.00342983,0.00326702,-0.00085901,-0.00036137,0.00403846,0.00005
 089,-0.00008060,-0.00105876,0.00002877,0.00001976,-0.00019700,0.000000
 68,0.00000691,-0.00001089,0.00000579,0.00000264,0.00000086,0.00000372,
 0.00000135,-0.00000082,0.00000012,-0.00000009,0.00000002,-0.00000010,-
 0.00000038,-0.00000009,0.00000008,0.00000025,-0.00000022,0.00000145,0.
 00000036,-0.00000008,0.00000027,0.00000023,-0.00000014,0.00005971,0.00
 037190,-0.00286083,0.00004411,0.01414995,0.01393015,-0.01254113,0.0052
 0902,-0.00053594,0.01660020,-0.00237659,0.00057141,-0.00993044,-0.0061
 1590,0.00011081,0.00182036,0.00323864,-0.00025648,0.00378062,-0.001134
 91,-0.00008008,-0.00071423,-0.00039824,0.00009602,0.00007879,0.0002694
 8,-0.00001411,0.00004251,-0.00012377,0.00001083,0.00645966,-0.00805650
 ,-0.00021976,-0.03197231,-0.00754981,-0.00198576,-0.20165750,0.0411201
 4,-0.00520498,-0.00720688,0.02081514,0.00067176,0.01065875,-0.00125506
 ,-0.00035610,0.00041344,0.00092361,0.00024824,-0.00003452,0.00039296,0
 .00000581,0.00028288,0.00006653,0.00002741,0.00024155,0.00005023,-0.00
 003252,-0.00000470,-0.00002260,-0.00000912,-0.00000427,-0.00002163,0.0
 0001158,0.00000477,0.00000635,-0.00000495,0.00006405,0.00001122,-0.000
 00082,0.00000558,0.00000614,0.00000328,0.00005957,0.00009855,-0.000020
 92,-0.00178932,0.00563644,0.00043151,0.59337366,0.00321968,-0.00571695
 ,-0.00004737,-0.00602063,0.00109590,-0.00010267,0.00365574,0.00214824,
 -0.00001828,-0.00080966,-0.00105735,0.00012543,-0.00141984,0.00045525,
 0.00001815,0.00027348,0.00015077,-0.00003601,-0.00003024,-0.00010075,0
 .00000323,-0.00001630,0.00004663,-0.00000344,-0.00817814,0.00023550,-0
 .00092674,-0.01410733,0.02158211,0.00083476,0.03119336,-0.10520226,-0.
 00081247,0.03064235,-0.00675564,0.00099937,-0.00214703,-0.00637010,-0.
 00074843,-0.00022751,-0.00032139,-0.00011180,0.00001013,-0.00014391,-0
 .00000317,-0.00010659,-0.00002665,-0.00001144,-0.00009187,-0.00001911,
 0.00001424,0.00000291,0.00000856,0.00000285,0.00000215,0.00000797,-0.0
 0000340,-0.00000238,-0.00000256,0.00000259,-0.00002401,-0.00000464,0.0
 0000028,-0.00000285,-0.00000262,-0.00000191,-0.00101465,0.00069742,-0.
 00012178,0.00117874,-0.00401329,0.00013862,-0.01590796,0.51353876,-0.0
 0021204,-0.00008162,-0.00110991,0.00040009,-0.00007803,-0.00075779,-0.
 00024194,-0.00021165,-0.00013492,-0.00008608,0.00012604,-0.00005923,0.
 00010769,-0.00003065,0.00006656,-0.00002201,-0.00001215,0.00003508,0.0
 0000239,0.00000634,0.00000050,0.00000132,-0.00000519,0.00000016,-0.000
 68656,-0.00064383,0.00534981,-0.00212252,0.00117788,-0.00348204,-0.006
 20926,-0.00047039,-0.06258045,0.00140243,0.00073759,0.00161557,0.00011
 989,-0.00095248,0.00655645,0.00000518,0.00003722,0.00012307,0.00000436
 ,0.00001646,0.00003777,0.00001265,-0.00000557,-0.00000535,0.00000030,0
 .00000990,-0.00000948,0.00000233,-0.00000342,-0.00000129,0.00000007,0.
 00000224,-0.00000100,0.00000164,0.00000104,-0.00000106,0.00000181,0.00
 000041,0.00000010,-0.00000142,-0.00000208,-0.00000075,-0.00007197,-0.0
 0003196,0.00109883,0.00014096,0.00036575,-0.00297593,0.00724760,0.0026
 0661,0.46167896,-0.00300954,0.00254469,-0.00036105,-0.00133357,-0.0011
 4030,-0.00000495,0.00035756,0.00067682,-0.00012229,-0.00006596,-0.0002
 5033,0.00002348,-0.00031930,-0.00003611,0.00002297,0.00004505,0.000065
 90,-0.00000261,-0.00001415,-0.00002641,0.00000167,-0.00000403,0.000012
 61,-0.00000093,-0.00033584,0.00079743,0.00009954,0.00043375,0.00151961
 ,-0.00018948,0.00914787,0.00433442,0.00050743,-0.22477170,-0.14559084,
 -0.01895649,-0.01640003,-0.01917066,-0.00237726,0.00003191,-0.00008666
 ,0.00002257,0.00000957,-0.00002557,0.00000058,-0.00001454,-0.00000693,
 -0.00000251,-0.00001373,-0.00000607,0.00000269,0.00000035,0.00000177,0
 .00000123,0.00000046,0.00000169,-0.00000138,-0.00000016,-0.00000064,0.
 00000056,-0.00000586,-0.00000126,0.00000004,-0.00000029,-0.00000066,-0
 .00000044,0.00002266,-0.00010344,0.00001775,0.00030004,0.00088091,0.00
 006547,-0.00080970,0.00019086,0.00016812,0.23772039,0.00321002,-0.0001
 5403,-0.00032471,0.00027437,0.00065673,0.00000265,0.00013180,-0.000171
 46,0.00007259,-0.00001359,0.00002811,-0.00000287,0.00007461,0.00004845
 ,-0.00000996,-0.00000164,-0.00002603,-0.00000282,0.00000542,0.00000642
 ,-0.00000058,0.00000157,-0.00000345,0.00000029,0.00061642,-0.00017166,
 0.00008512,0.00243154,-0.00322106,-0.00043514,-0.02229646,-0.01436208,
 -0.00231554,-0.14470903,-0.18538017,-0.01652794,0.01007224,0.01166932,
 0.00099850,-0.00004009,-0.00000062,-0.00002439,-0.00000374,0.00000431,
 -0.00000087,-0.00000028,0.00000189,0.00000081,0.00000109,0.00000160,-0
 .00000059,-0.00000010,0.,-0.00000011,-0.00000015,-0.00000016,0.0000001
 7,-0.00000007,0.00000008,-0.00000005,0.00000142,0.00000050,0.00000001,
 0.00000002,0.00000013,0.00000004,-0.00007686,0.00006624,0.00002106,-0.
 00071292,-0.00157169,-0.00016818,-0.00237650,-0.00195562,-0.00007227,0
 .15270484,0.19168530,-0.00029620,-0.00047901,0.00766265,-0.00007286,-0
 .00000235,-0.00010918,0.00003470,-0.00002692,-0.00026121,-0.00002794,0
 .00000430,0.00004288,-0.00001311,0.00000136,-0.00000584,0.00000207,0.0
 0000348,0.00001864,-0.00000030,-0.00000201,0.00000282,-0.00000031,0.00
 000100,-0.00000010,-0.00002768,0.00021814,-0.00113881,-0.00013089,-0.0
 0052726,0.00568367,-0.00118027,-0.00088631,0.00428233,-0.01890738,-0.0
 1657463,-0.04130860,-0.00034426,-0.00061569,0.00482381,-0.00000530,-0.
 00000171,0.00005904,0.00000233,-0.00000305,-0.00000188,0.00000297,-0.0
 0000082,-0.00000082,-0.00000554,0.00000043,-0.00000095,0.,0.00000010,-
 0.00000010,-0.00000007,0.00000046,-0.00000030,0.00000025,0.00000015,-0
 .00000008,-0.00000042,-0.00000005,-0.00000010,-0.00000031,-0.00000017,
 -0.00000009,0.00001349,0.00002967,-0.00044090,-0.00003502,-0.00004127,
 0.00033641,0.00009576,0.00012837,-0.00361622,0.02055031,0.01820631,0.0
 2880610,0.00604241,-0.02347795,-0.00140072,0.00235639,-0.00123281,0.00
 010599,-0.00019151,-0.00029749,0.00006937,-0.00004595,0.00023642,-0.00
 002461,0.00012323,-0.00000321,-0.00002123,-0.00002421,-0.00002458,0.00
 001091,0.00000550,0.00001144,-0.00000022,0.00000157,-0.00000494,-0.000
 00112,-0.00349934,-0.00267957,-0.00062259,-0.00145304,-0.00044635,-0.0
 0008013,-0.00485504,0.00153945,-0.00048279,-0.00140818,0.02994329,0.00
 164807,-0.06705575,0.04902901,0.00166027,-0.00260980,-0.00054447,-0.00
 051570,-0.00001090,0.00001447,-0.00000413,0.00000866,0.00000421,0.0000
 0232,0.00000860,0.00000272,-0.00000215,-0.00000026,-0.00000060,0.00000
 004,-0.00000048,-0.00000065,0.00000013,0.00000012,0.00000024,-0.000000
 32,0.00000239,0.00000034,0.00000003,0.00000049,0.00000028,0.00000032,0
 .00045513,-0.00108139,-0.00003491,0.00017854,0.00017740,0.00004593,0.0
 0129232,0.00092299,0.00010376,0.00126232,-0.00044180,0.00026898,0.0706
 5240,0.00589383,-0.01429000,-0.00085903,0.00172816,0.00102594,0.000290
 21,-0.00032827,0.00010499,0.00012865,0.00007402,0.00029167,-0.00004728
 ,-0.00001073,-0.00004128,-0.00001162,-0.00000195,0.00000839,-0.0000066
 0,-0.00000153,-0.00000269,-0.00000004,-0.00000017,0.00000128,-0.000000
 39,-0.00312008,-0.00098962,-0.00053142,-0.00084499,0.00063833,0.000035
 05,0.00146515,0.00166168,-0.00024269,0.00008378,-0.00469010,-0.0004506
 7,0.04792316,-0.33976605,-0.01694030,-0.00120005,0.00007516,0.00000152
 ,-0.00000372,0.00000131,-0.00000042,0.00000083,0.00000099,0.00000123,0
 .00000439,-0.00000042,0.00000086,-0.00000014,0.00000105,0.00000090,-0.
 00000028,0.00000074,-0.00000052,-0.00000004,-0.00000017,0.00000018,-0.
 00000026,0.00000013,0.00000006,0.00000023,-0.00000006,-0.00000007,0.00
 052372,-0.00062693,0.00000571,0.00008129,-0.00018363,0.00001849,-0.000
 74360,0.00006341,-0.00006828,-0.00000534,0.00060670,0.00034114,-0.0520
 9614,0.35637498,-0.00005512,-0.00218926,0.00411167,0.00012751,-0.00034
 286,-0.00279789,0.00023648,0.00005271,-0.00082946,0.00001289,-0.000028
 57,0.00015778,-0.00005338,0.00006018,0.00008965,0.00001229,0.00000750,
 0.00009582,0.00000024,-0.00000320,0.00000259,-0.00000043,0.00000074,-0
 .00000149,-0.00055440,-0.00045589,0.00530816,-0.00001120,0.00004710,-0
 .00079667,-0.00052697,-0.00029734,0.00689491,-0.00024985,0.00098688,0.
 00308443,0.00186997,-0.01704216,-0.03702254,-0.00042107,0.00056725,0.0
 0011016,-0.00000358,-0.00001386,-0.00003042,0.00001148,-0.00000193,-0.
 00000665,-0.00001996,0.00000177,-0.00000529,-0.00000024,-0.00000076,-0
 .00000036,0.00000030,0.00000143,-0.00000103,0.00000051,0.00000066,-0.0
 0000037,-0.00000068,-0.00000008,-0.00000047,-0.00000071,-0.00000060,-0
 .00000036,0.00001219,-0.00005293,-0.00024223,0.00003345,0.00003670,-0.
 00052716,0.00000208,0.00002034,0.00038165,0.00029098,0.00031694,-0.004
 69696,-0.00067084,0.01834531,0.02642269,0.00255656,-0.00170928,0.00007
 127,-0.00355582,0.00054536,-0.00011244,0.00227108,0.00123001,-0.000029
 00,-0.00065880,-0.00059968,0.00009520,-0.00091617,0.00029822,0.0000155
 1,0.00017668,0.00010828,-0.00002351,-0.00001976,-0.00006536,0.00000360
 ,-0.00001072,0.00003071,-0.00000265,-0.00300446,-0.00157514,-0.0003361
 7,-0.00392861,0.00984887,0.00027579,-0.03845830,-0.04027989,-0.0056457
 4,-0.00074590,-0.00242042,-0.00000160,-0.00141005,-0.00065073,-0.00001
 228,-0.00011538,-0.00020246,-0.00004299,0.00000560,-0.00009106,-0.0000
 0222,-0.00006578,-0.00001733,-0.00000651,-0.00005597,-0.00001346,0.000
 00800,0.00000085,0.00000593,0.00000250,0.00000076,0.00000547,-0.000002
 94,-0.00000114,-0.00000174,0.00000109,-0.00001601,-0.00000267,0.000000
 18,-0.00000131,-0.00000158,-0.00000065,-0.00048809,0.00048201,0.000004
 68,0.00033165,-0.00075887,-0.00006679,-0.18309801,-0.08618936,-0.01294
 797,-0.00275108,0.00099821,0.00003820,-0.00019496,0.00017231,-0.000002
 59,0.21422243,0.00130127,-0.00041754,0.00004551,-0.00107154,0.00032971
 ,-0.00004803,0.00069451,0.00033574,0.00001824,-0.00016825,-0.00018122,
 0.00002618,-0.00025171,0.00010044,0.00000428,0.00004828,0.00002161,-0.
 00000935,-0.00000412,-0.00001699,0.00000157,-0.00000271,0.00000772,-0.
 00000078,-0.00041593,-0.00010686,-0.00006058,0.00031066,0.00186187,0.0
 0002606,-0.00722814,-0.00215000,-0.00130054,0.00347489,-0.00496550,-0.
 00019521,-0.00042268,0.00136131,0.00010795,-0.00005340,-0.00005705,-0.
 00001809,0.00000018,-0.00002700,-0.00000064,-0.00001962,-0.00000409,-0
 .00000101,-0.00001630,-0.00000326,0.00000158,-0.00000024,0.00000204,0.
 00000097,0.00000016,0.00000167,-0.00000107,-0.00000021,-0.00000042,0.0
 0000002,-0.00000427,-0.00000063,0.00000008,-0.00000023,-0.00000032,0.0
 0000015,-0.00010100,0.00012875,0.00001649,-0.00036345,0.00013842,-0.00
 006275,-0.09995343,-0.15747432,-0.01191805,0.00328850,0.00157303,0.000
 17974,-0.00010013,0.00002872,-0.00000468,0.15525328,0.27505737,0.00019
 921,-0.00010099,0.00017118,-0.00025262,0.00006020,0.00001602,0.0001664
 6,0.00009936,-0.00001862,-0.00002431,-0.00005227,0.00001989,-0.0000659
 3,0.00002236,-0.00000729,0.00001123,0.00000633,-0.00001220,-0.00000148
 ,-0.00000423,-0.00000053,-0.00000105,0.00000256,0.00000135,-0.00012997
 ,-0.00010969,-0.00050594,-0.00039548,0.00054341,0.00209856,-0.00331695
 ,-0.00313732,0.00734127,0.00015984,-0.00050997,-0.00011443,-0.00011843
 ,0.00004600,0.00004144,-0.00000973,-0.00001460,0.00000170,-0.00000006,
 -0.00000784,-0.00000520,-0.00000570,0.00000013,0.00000017,-0.00000301,
 -0.00000195,0.00000190,0.00000053,0.00000041,0.00000050,-0.00000008,0.
 00000011,0.00000014,-0.00000022,-0.00000023,0.00000024,-0.00000102,-0.
 00000011,-0.00000002,-0.00000025,0.00000012,0.00000010,-0.00002726,0.0
 0005761,-0.00029286,-0.00000393,-0.00004784,0.00024337,-0.01375240,-0.
 01139056,-0.06831906,0.00022951,0.00010741,0.00024172,-0.00001671,0.00
 000895,0.00002636,0.01855232,0.02273867,0.08285687,0.00351994,-0.00085
 536,0.00052525,-0.00444819,0.00057333,-0.00006878,0.00263715,0.0016454
 3,0.00003728,-0.00049027,-0.00087553,0.00006860,-0.00101309,0.00029631
 ,0.00000183,0.00018988,0.00011009,-0.00003403,-0.00002143,-0.00007257,
 0.00000293,-0.00001193,0.00003340,-0.00000219,-0.00109319,0.00159614,-
 0.00080156,0.00384567,0.00266088,-0.00023245,-0.01240072,0.02646089,0.
 03168279,-0.00307027,-0.00444108,0.00197665,-0.00283212,0.00096592,-0.
 00166979,-0.00009447,-0.00025540,-0.00009792,0.00000901,-0.00010389,-0
 .00000343,-0.00007714,-0.00001689,-0.00000652,-0.00006239,-0.00001492,
 0.00000974,0.00000167,0.00000571,0.00000244,0.00000094,0.00000608,-0.0
 0000317,-0.00000127,-0.00000167,0.00000132,-0.00001723,-0.00000305,0.0
 0000028,-0.00000153,-0.00000171,-0.00000093,0.00000915,0.00001754,-0.0
 0005484,-0.00287783,-0.00283885,0.00135194,-0.09768466,0.03381142,0.04
 818450,0.00022816,0.00002565,0.00065970,-0.00052556,0.00023333,-0.0002
 9355,0.01217745,-0.02321243,-0.02327982,0.09114431,-0.00248075,0.00124
 371,-0.00028023,0.00338281,-0.00045216,-0.00001192,-0.00196004,-0.0012
 5156,-0.00002191,0.00032273,0.00066347,-0.00005613,0.00074597,-0.00021
 741,0.00000140,-0.00014011,-0.00007581,0.00002506,0.00001611,0.0000532
 6,-0.00000303,0.00000842,-0.00002454,0.00000157,0.00155386,-0.00113322
 ,0.00100273,-0.00160256,-0.00535222,-0.00110754,0.01589600,-0.00677973
 ,-0.02134424,0.00060790,0.00269773,-0.00068027,0.00196713,0.00015583,0
 .00118794,0.00007131,0.00018953,0.00006659,-0.00000685,0.00007786,0.00
 000423,0.00005794,0.00001232,0.00000481,0.00004694,0.00001059,-0.00000
 747,-0.00000141,-0.00000438,-0.00000146,-0.00000093,-0.00000441,0.0000
 0209,0.00000102,0.00000115,-0.00000107,0.00001251,0.00000230,-0.000000
 24,0.00000137,0.00000124,0.00000092,0.00015052,-0.00005347,0.00011441,
 -0.00325410,0.00096150,0.00086174,0.03510727,-0.11472160,-0.07339539,-
 0.00023920,0.00034691,-0.00056570,0.00024052,-0.00014747,0.00009787,-0
 .01340931,-0.05179068,-0.05073548,-0.03259346,0.15881630,-0.00186333,0
 .00087793,-0.00021622,0.00241903,-0.00028697,0.00005666,-0.00143351,-0
 .00088584,-0.00000854,0.00028663,0.00046294,-0.00003190,0.00056018,-0.
 00016306,-0.00000230,-0.00010321,-0.00005932,0.00001401,0.00001271,0.0
 0003958,-0.00000333,0.00000644,-0.00001900,0.00000133,0.00122343,-0.00
 072013,0.00036278,-0.00222081,-0.00296919,0.00030450,0.00923304,-0.013
 83095,-0.00878366,0.00270241,0.00199089,-0.00093416,0.00117204,-0.0007
 2302,0.00050467,0.00004155,0.00013777,0.00003765,-0.00000522,0.0000577
 5,-0.00000193,0.00004255,0.00001045,0.00000433,0.00003413,0.00000748,-
 0.00000451,-0.00000078,-0.00000272,-0.00000076,-0.00000061,-0.00000395
 ,0.00000206,0.00000049,0.00000060,-0.00000046,0.00000950,0.00000176,-0
 .00000026,0.00000129,0.00000126,0.00000075,0.00006170,-0.00003776,0.00
 000685,0.00027582,0.00169383,0.00019685,0.05352459,-0.07219514,-0.1725
 8220,-0.00013962,0.00030730,-0.00018364,0.00037643,-0.00014393,0.00014
 009,-0.01470221,-0.04336430,-0.02023585,-0.06050993,0.12995592,0.29320
 971,0.00334328,-0.00071290,-0.00014891,-0.00418908,0.00048779,-0.00021
 356,0.00249575,0.00154393,-0.00007534,-0.00048254,-0.00081961,0.000079
 23,-0.00095205,0.00028450,0.00003816,0.00018106,0.00010186,-0.00002387
 ,-0.00002031,-0.00006831,0.00000464,-0.00001051,0.00003102,-0.00000314
 ,-0.00108532,0.00144547,0.00070147,0.00348978,0.00216153,0.00074884,-0
 .00789237,0.02895199,-0.02802988,-0.00261836,-0.00387605,-0.00270003,-
 0.00276373,0.00068098,0.00164961,-0.00008648,-0.00022708,-0.00003073,0
 .00000913,-0.00009819,-0.00000037,-0.00007003,-0.00001737,-0.00000741,
 -0.00006204,-0.00001185,0.00000757,0.00000082,0.00000612,0.00000236,0.
 00000166,0.00000498,-0.00000279,-0.00000125,-0.00000169,0.00000136,-0.
 00001623,-0.00000288,0.00000019,-0.00000146,-0.00000152,-0.00000083,0.
 00002088,0.00000480,0.00003497,-0.00266205,-0.00227786,-0.00209827,-0.
 08773106,0.03119254,-0.03530531,0.00028940,0.00012403,-0.00062088,-0.0
 0051510,0.00017308,0.00025422,0.00775327,-0.03098190,0.02208730,0.0129
 5996,-0.00450162,0.00899528,0.08061497,-0.00277965,0.00131288,0.000076
 67,0.00371962,-0.00045748,0.00023799,-0.00216908,-0.00135445,0.0000511
 0,0.00039957,0.00072325,-0.00006186,0.00081831,-0.00024214,-0.00003261
 ,-0.00015589,-0.00008601,0.00001734,0.00001763,0.00005845,-0.00000241,
 0.00000864,-0.00002635,0.00000248,0.00184453,-0.00115042,-0.00082513,-
 0.00198831,-0.00575202,0.00005161,0.01448496,-0.01207111,0.02301996,0.
 00093076,0.00283668,0.00132400,0.00219845,0.00021495,-0.00120529,0.000
 07681,0.00020113,0.00004698,-0.00000837,0.00008458,-0.00000071,0.00006
 079,0.00001500,0.00000699,0.00005523,0.00000958,-0.00000673,-0.0000011
 1,-0.00000509,-0.00000180,-0.00000132,-0.00000437,0.00000212,0.0000012
 8,0.00000148,-0.00000146,0.00001389,0.00000265,-0.00000012,0.00000132,
 0.00000121,0.00000089,0.00015369,-0.00003816,-0.00008376,-0.00300477,0
 .00138006,-0.00109472,0.03308478,-0.13614176,0.08289553,-0.00032962,0.
 00032231,0.00061230,0.00030929,-0.00014703,-0.00010924,-0.02099032,-0.
 06375250,0.04241943,-0.00315530,0.01677498,-0.00014017,-0.02359582,0.1
 9728970,0.00188881,-0.00078896,-0.00004237,-0.00243296,0.00026083,-0.0
 0009408,0.00145335,0.00089324,-0.00004940,-0.00030134,-0.00047180,0.00
 005402,-0.00056491,0.00016575,0.00001807,0.00010461,0.00006165,-0.0000
 1706,-0.00001246,-0.00003954,0.00000071,-0.00000641,0.00001866,-0.0000
 0160,-0.00116784,0.00074537,0.00019629,0.00229016,0.00233468,0.0010408
 2,-0.00717072,0.01687955,-0.00781886,-0.00281525,-0.00192861,-0.001619
 14,-0.00117736,0.00077202,0.00060556,-0.00004197,-0.00013341,-0.000023
 18,0.00000575,-0.00005828,-0.00000321,-0.00004105,-0.00000978,-0.00000
 413,-0.00003669,-0.00000788,0.00000529,0.00000080,0.00000409,0.0000015
 2,0.00000040,0.00000260,-0.00000087,-0.00000110,-0.00000121,0.00000114
 ,-0.00000949,-0.00000178,0.00000002,-0.00000073,-0.00000051,-0.0000003
 9,-0.00003108,0.00003083,-0.00001795,-0.00116718,-0.00176209,-0.000559
 94,-0.04058476,0.08163978,-0.16130783,0.00015411,-0.00023316,-0.000194
 30,-0.00041438,0.00012500,0.00013339,0.01486993,0.03381757,-0.00355079
 ,0.00255364,0.01488478,-0.09185252,0.03465612,-0.14719940,0.26510079\\
 -0.00000198,-0.00000106,0.00000430,0.00001062,0.00000722,-0.00001016,-
 0.00001270,-0.00002310,0.00000098,0.00000332,0.00001245,-0.00000312,0.
 00000309,0.00000411,0.00001149,-0.00000249,-0.00000080,-0.00000751,0.0
 0000413,0.00000235,-0.00000205,-0.00000223,0.00000105,-0.00000044,-0.0
 0000318,0.00000528,0.00000180,-0.00000097,0.00000646,-0.00000337,0.000
 00149,-0.00000628,0.00000023,0.00000116,-0.00000325,0.00000343,0.00000
 080,-0.00000468,0.00000060,0.00000164,0.00000078,0.00000189,0.00000161
 ,0.00000211,-0.00000103,0.00000214,0.00000092,-0.00000108,-0.00000192,
 0.00000310,0.00000111,0.00000017,0.00000111,0.00000053,0.00000025,0.00
 000173,-0.00000174,0.00000021,0.00000240,-0.00000154,0.00000076,0.0000
 0370,-0.00000224,0.00000044,0.00000233,-0.00000312,0.00000093,-0.00000
 355,-0.00000073,0.00000018,-0.00000558,0.00000210,-0.00000642,0.000002
 22,0.00000078,0.00000039,-0.00000116,0.00000227,0.00000118,-0.00000079
 ,0.00000177,0.00000167,0.00000169,0.00000194,-0.00000089,-0.00000384,0
 .00000157,-0.00000339,-0.00000691,0.00000133\\\@


 WE STILL HAVE JUDGEMENT HERE,
 THAT WE TEACH BUT BLOODY INSTRUCTIONS,
 WHICH, BEING TAUGHT,
 RETURN TO PLAGUE THE INVENTOR.
           MACBETH ACT I, SCENE VII
 Job cpu time:       0 days  4 hours 21 minutes 33.0 seconds.
 File lengths (MBytes):  RWF=    686 Int=      0 D2E=      0 Chk=     23 Scr=      1
 Normal termination of Gaussian 09 at Thu Nov 14 10:35:45 2019.
pbs_rusage has been removed.
Please contact help@nci.org.au if you require this functionality.
