 Entering Gaussian System, Link 0=/apps/gaussian/g09e01/g09/g09
 Initial command:
 /apps/gaussian/g09e01/g09/l1.exe "/jobfs/local/3578989.r-man2/Gau-23053.inp" -scrdir="/jobfs/local/3578989.r-man2/"
 Entering Link 1 = /apps/gaussian/g09e01/g09/l1.exe PID=     23054.
  
 Copyright (c) 1988,1990,1992,1993,1995,1998,2003,2009,2015,
            Gaussian, Inc.  All Rights Reserved.
  
 This is part of the Gaussian(R) 09 program.  It is based on
 the Gaussian(R) 03 system (copyright 2003, Gaussian, Inc.),
 the Gaussian(R) 98 system (copyright 1998, Gaussian, Inc.),
 the Gaussian(R) 94 system (copyright 1995, Gaussian, Inc.),
 the Gaussian 92(TM) system (copyright 1992, Gaussian, Inc.),
 the Gaussian 90(TM) system (copyright 1990, Gaussian, Inc.),
 the Gaussian 88(TM) system (copyright 1988, Gaussian, Inc.),
 the Gaussian 86(TM) system (copyright 1986, Carnegie Mellon
 University), and the Gaussian 82(TM) system (copyright 1983,
 Carnegie Mellon University). Gaussian is a federally registered
 trademark of Gaussian, Inc.
  
 This software contains proprietary and confidential information,
 including trade secrets, belonging to Gaussian, Inc.
  
 This software is provided under written license and may be
 used, copied, transmitted, or stored only in accord with that
 written license.
  
 The following legend is applicable only to US Government
 contracts under FAR:
  
                    RESTRICTED RIGHTS LEGEND
  
 Use, reproduction and disclosure by the US Government is
 subject to restrictions as set forth in subparagraphs (a)
 and (c) of the Commercial Computer Software - Restricted
 Rights clause in FAR 52.227-19.
  
 Gaussian, Inc.
 340 Quinnipiac St., Bldg. 40, Wallingford CT 06492
  
  
 ---------------------------------------------------------------
 Warning -- This program may not be used in any manner that
 competes with the business of Gaussian, Inc. or will provide
 assistance to any competitor of Gaussian, Inc.  The licensee
 of this program is prohibited from giving any competitor of
 Gaussian, Inc. access to this program.  By using this program,
 the user acknowledges that Gaussian, Inc. is engaged in the
 business of creating and licensing software in the field of
 computational chemistry and represents and warrants to the
 licensee that it is not a competitor of Gaussian, Inc. and that
 it will not use this program in any manner prohibited above.
 ---------------------------------------------------------------
  

 Cite this work as:
 Gaussian 09, Revision E.01,
 M. J. Frisch, G. W. Trucks, H. B. Schlegel, G. E. Scuseria, 
 M. A. Robb, J. R. Cheeseman, G. Scalmani, V. Barone, B. Mennucci, 
 G. A. Petersson, H. Nakatsuji, M. Caricato, X. Li, H. P. Hratchian, 
 A. F. Izmaylov, J. Bloino, G. Zheng, J. L. Sonnenberg, M. Hada, 
 M. Ehara, K. Toyota, R. Fukuda, J. Hasegawa, M. Ishida, T. Nakajima, 
 Y. Honda, O. Kitao, H. Nakai, T. Vreven, J. A. Montgomery, Jr., 
 J. E. Peralta, F. Ogliaro, M. Bearpark, J. J. Heyd, E. Brothers, 
 K. N. Kudin, V. N. Staroverov, T. Keith, R. Kobayashi, J. Normand, 
 K. Raghavachari, A. Rendell, J. C. Burant, S. S. Iyengar, J. Tomasi, 
 M. Cossi, N. Rega, J. M. Millam, M. Klene, J. E. Knox, J. B. Cross, 
 V. Bakken, C. Adamo, J. Jaramillo, R. Gomperts, R. E. Stratmann, 
 O. Yazyev, A. J. Austin, R. Cammi, C. Pomelli, J. W. Ochterski, 
 R. L. Martin, K. Morokuma, V. G. Zakrzewski, G. A. Voth, 
 P. Salvador, J. J. Dannenberg, S. Dapprich, A. D. Daniels, 
 O. Farkas, J. B. Foresman, J. V. Ortiz, J. Cioslowski, 
 and D. J. Fox, Gaussian, Inc., Wallingford CT, 2013.
 
 ******************************************
 Gaussian 09:  ES64L-G09RevE.01 30-Nov-2015
                14-Nov-2019 
 ******************************************
 %chk=CP19_c2.M062X_6-311pGd_opt_water_GD3.chk
 %mem=196608000
 %nproc=4
 Will use up to    4 processors via shared memory.
 ----------------------------------------------------------------------
 # M062X/6-311+G* SCF=Tight INT(grid=ultrafine) OPT IOP(2/17=4) Empiric
 alDispersion=GD3 SCRF=(SMD,Solvent=h2o) maxdisk=2147483648
 ----------------------------------------------------------------------
 1/14=-1,18=20,19=15,26=4,38=1/1,3;
 2/9=110,12=2,17=4,18=5,40=1/2;
 3/5=4,6=6,7=11,11=2,16=1,25=1,30=1,70=32201,71=1,72=1,74=-55,75=-5,124=31/1,2,3;
 4//1;
 5/5=2,32=2,38=5,53=1/2;
 6/7=2,8=2,9=2,10=2,28=1/1;
 7//1,2,3,16;
 1/14=-1,18=20,19=15,26=4/3(2);
 2/9=110,17=4/2;
 99//99;
 2/9=110,17=4/2;
 3/5=4,6=6,7=11,11=2,16=1,25=1,30=1,70=32205,71=1,72=1,74=-55,75=-5,124=31/1,2,3;
 4/5=5,16=3,69=1/1;
 5/5=2,32=2,38=5,53=1/2;
 7//1,2,3,16;
 1/14=-1,18=20,19=15,26=4/3(-5);
 2/9=110,17=4/2;
 6/7=2,8=2,9=2,10=2,19=2,28=1/1;
 99/9=1/99;
 ------------------------------------
 CP19_c2.M062X_6-311pGd_opt_water_GD3
 ------------------------------------
 Symbolic Z-matrix:
 Charge =  0 Multiplicity = 1
 C                    -6.25946   1.43968  -0.05639 
 N                    -5.01179   0.825    -0.03603 
 C                    -3.76562   1.42847  -0.04321 
 O                    -3.60968   2.65036  -0.08323 
 N                    -2.73097   0.56667   0.00149 
 C                    -1.35407   1.04541   0.00832 
 C                    -0.38891  -0.12742   0.04824 
 C                     1.05732   0.35203   0.05519 
 C                    -7.36447   0.61291   0.20075 
 C                    -8.64156   1.13338   0.18039 
 C                    -8.86884   2.48517  -0.08869 
 C                    -7.76759   3.29472  -0.34524 
 C                    -6.47408   2.79367  -0.33619 
 H                    -5.02614  -0.18064   0.08352 
 H                    -2.89724  -0.43061   0.027 
 H                    -1.19825   1.69213   0.87653 
 H                    -1.17558   1.64991  -0.88552 
 H                    -0.56703  -0.77057  -0.81918 
 H                    -0.58948  -0.7293    0.94009 
 H                     1.28048   0.93914  -0.83938 
 H                     1.75037  -0.49075   0.0833 
 H                     1.25864   0.98015   0.92675 
 H                    -7.21307  -0.43838   0.41721 
 Cl                   -9.96819   0.04845   0.50857 
 C                    -10.2498   3.06203  -0.10912 
 H                    -7.91774   4.34454  -0.56395 
 H                    -5.64765   3.45113  -0.55086 
 F                    -10.24248   4.37194  -0.39003 
 F                    -11.0413   2.47905  -1.02927 
 F                    -10.88431   2.92851   1.07107 
 

 GradGradGradGradGradGradGradGradGradGradGradGradGradGradGradGradGradGrad
 Berny optimization.
 Initialization pass.
                           ----------------------------
                           !    Initial Parameters    !
                           ! (Angstroms and Degrees)  !
 --------------------------                            --------------------------
 ! Name  Definition              Value          Derivative Info.                !
 --------------------------------------------------------------------------------
 ! R1    R(1,2)                  1.391          estimate D2E/DX2                !
 ! R2    R(1,9)                  1.4038         estimate D2E/DX2                !
 ! R3    R(1,13)                 1.3992         estimate D2E/DX2                !
 ! R4    R(2,3)                  1.3846         estimate D2E/DX2                !
 ! R5    R(2,14)                 1.0128         estimate D2E/DX2                !
 ! R6    R(3,4)                  1.2325         estimate D2E/DX2                !
 ! R7    R(3,5)                  1.3473         estimate D2E/DX2                !
 ! R8    R(5,6)                  1.4578         estimate D2E/DX2                !
 ! R9    R(5,15)                 1.0114         estimate D2E/DX2                !
 ! R10   R(6,7)                  1.5194         estimate D2E/DX2                !
 ! R11   R(6,16)                 1.0938         estimate D2E/DX2                !
 ! R12   R(6,17)                 1.0937         estimate D2E/DX2                !
 ! R13   R(7,8)                  1.5236         estimate D2E/DX2                !
 ! R14   R(7,18)                 1.0944         estimate D2E/DX2                !
 ! R15   R(7,19)                 1.0945         estimate D2E/DX2                !
 ! R16   R(8,20)                 1.093          estimate D2E/DX2                !
 ! R17   R(8,21)                 1.0915         estimate D2E/DX2                !
 ! R18   R(8,22)                 1.093          estimate D2E/DX2                !
 ! R19   R(9,10)                 1.3792         estimate D2E/DX2                !
 ! R20   R(9,23)                 1.084          estimate D2E/DX2                !
 ! R21   R(10,11)                1.3969         estimate D2E/DX2                !
 ! R22   R(10,24)                1.7449         estimate D2E/DX2                !
 ! R23   R(11,12)                1.3907         estimate D2E/DX2                !
 ! R24   R(11,25)                1.4967         estimate D2E/DX2                !
 ! R25   R(12,13)                1.3872         estimate D2E/DX2                !
 ! R26   R(12,26)                1.0828         estimate D2E/DX2                !
 ! R27   R(13,27)                1.0776         estimate D2E/DX2                !
 ! R28   R(25,28)                1.3397         estimate D2E/DX2                !
 ! R29   R(25,29)                1.3465         estimate D2E/DX2                !
 ! R30   R(25,30)                1.3466         estimate D2E/DX2                !
 ! A1    A(2,1,9)              116.302          estimate D2E/DX2                !
 ! A2    A(2,1,13)             124.6202         estimate D2E/DX2                !
 ! A3    A(9,1,13)             119.0662         estimate D2E/DX2                !
 ! A4    A(1,2,3)              127.9227         estimate D2E/DX2                !
 ! A5    A(1,2,14)             115.3263         estimate D2E/DX2                !
 ! A6    A(3,2,14)             116.4943         estimate D2E/DX2                !
 ! A7    A(2,3,4)              123.1029         estimate D2E/DX2                !
 ! A8    A(2,3,5)              114.3436         estimate D2E/DX2                !
 ! A9    A(4,3,5)              122.5532         estimate D2E/DX2                !
 ! A10   A(3,5,6)              121.0264         estimate D2E/DX2                !
 ! A11   A(3,5,15)             120.3528         estimate D2E/DX2                !
 ! A12   A(6,5,15)             118.6202         estimate D2E/DX2                !
 ! A13   A(5,6,7)              110.2794         estimate D2E/DX2                !
 ! A14   A(5,6,16)             109.4177         estimate D2E/DX2                !
 ! A15   A(5,6,17)             109.3797         estimate D2E/DX2                !
 ! A16   A(7,6,16)             110.1851         estimate D2E/DX2                !
 ! A17   A(7,6,17)             110.1474         estimate D2E/DX2                !
 ! A18   A(16,6,17)            107.3776         estimate D2E/DX2                !
 ! A19   A(6,7,8)              111.1099         estimate D2E/DX2                !
 ! A20   A(6,7,18)             109.2321         estimate D2E/DX2                !
 ! A21   A(6,7,19)             109.238          estimate D2E/DX2                !
 ! A22   A(8,7,18)             110.0608         estimate D2E/DX2                !
 ! A23   A(8,7,19)             110.0765         estimate D2E/DX2                !
 ! A24   A(18,7,19)            107.0286         estimate D2E/DX2                !
 ! A25   A(7,8,20)             111.0437         estimate D2E/DX2                !
 ! A26   A(7,8,21)             111.0898         estimate D2E/DX2                !
 ! A27   A(7,8,22)             111.0574         estimate D2E/DX2                !
 ! A28   A(20,8,21)            107.8286         estimate D2E/DX2                !
 ! A29   A(20,8,22)            107.8381         estimate D2E/DX2                !
 ! A30   A(21,8,22)            107.8321         estimate D2E/DX2                !
 ! A31   A(1,9,10)             120.2587         estimate D2E/DX2                !
 ! A32   A(1,9,23)             119.856          estimate D2E/DX2                !
 ! A33   A(10,9,23)            119.8852         estimate D2E/DX2                !
 ! A34   A(9,10,11)            121.2428         estimate D2E/DX2                !
 ! A35   A(9,10,24)            117.8121         estimate D2E/DX2                !
 ! A36   A(11,10,24)           120.9446         estimate D2E/DX2                !
 ! A37   A(10,11,12)           118.0357         estimate D2E/DX2                !
 ! A38   A(10,11,25)           121.7154         estimate D2E/DX2                !
 ! A39   A(12,11,25)           120.2485         estimate D2E/DX2                !
 ! A40   A(11,12,13)           121.7992         estimate D2E/DX2                !
 ! A41   A(11,12,26)           119.4619         estimate D2E/DX2                !
 ! A42   A(13,12,26)           118.738          estimate D2E/DX2                !
 ! A43   A(1,13,12)            119.5952         estimate D2E/DX2                !
 ! A44   A(1,13,27)            120.8371         estimate D2E/DX2                !
 ! A45   A(12,13,27)           119.5665         estimate D2E/DX2                !
 ! A46   A(11,25,28)           112.0034         estimate D2E/DX2                !
 ! A47   A(11,25,29)           112.632          estimate D2E/DX2                !
 ! A48   A(11,25,30)           112.6167         estimate D2E/DX2                !
 ! A49   A(28,25,29)           106.4552         estimate D2E/DX2                !
 ! A50   A(28,25,30)           106.457          estimate D2E/DX2                !
 ! A51   A(29,25,30)           106.2015         estimate D2E/DX2                !
 ! D1    D(9,1,2,3)           -168.815          estimate D2E/DX2                !
 ! D2    D(9,1,2,14)             5.11           estimate D2E/DX2                !
 ! D3    D(13,1,2,3)            12.4403         estimate D2E/DX2                !
 ! D4    D(13,1,2,14)         -173.6347         estimate D2E/DX2                !
 ! D5    D(2,1,9,10)          -178.9971         estimate D2E/DX2                !
 ! D6    D(2,1,9,23)             1.0715         estimate D2E/DX2                !
 ! D7    D(13,1,9,10)           -0.1789         estimate D2E/DX2                !
 ! D8    D(13,1,9,23)          179.8896         estimate D2E/DX2                !
 ! D9    D(2,1,13,12)          179.164          estimate D2E/DX2                !
 ! D10   D(2,1,13,27)           -0.452          estimate D2E/DX2                !
 ! D11   D(9,1,13,12)            0.4515         estimate D2E/DX2                !
 ! D12   D(9,1,13,27)         -179.1645         estimate D2E/DX2                !
 ! D13   D(1,2,3,4)             -0.7335         estimate D2E/DX2                !
 ! D14   D(1,2,3,5)            179.0727         estimate D2E/DX2                !
 ! D15   D(14,2,3,4)          -174.5977         estimate D2E/DX2                !
 ! D16   D(14,2,3,5)             5.2084         estimate D2E/DX2                !
 ! D17   D(2,3,5,6)           -179.6443         estimate D2E/DX2                !
 ! D18   D(2,3,5,15)             0.6247         estimate D2E/DX2                !
 ! D19   D(4,3,5,6)              0.1631         estimate D2E/DX2                !
 ! D20   D(4,3,5,15)          -179.5679         estimate D2E/DX2                !
 ! D21   D(3,5,6,7)           -179.4487         estimate D2E/DX2                !
 ! D22   D(3,5,6,16)            59.1994         estimate D2E/DX2                !
 ! D23   D(3,5,6,17)           -58.1682         estimate D2E/DX2                !
 ! D24   D(15,5,6,7)             0.2869         estimate D2E/DX2                !
 ! D25   D(15,5,6,16)         -121.065          estimate D2E/DX2                !
 ! D26   D(15,5,6,17)          121.5673         estimate D2E/DX2                !
 ! D27   D(5,6,7,8)            179.9692         estimate D2E/DX2                !
 ! D28   D(5,6,7,18)            58.3608         estimate D2E/DX2                !
 ! D29   D(5,6,7,19)           -58.3988         estimate D2E/DX2                !
 ! D30   D(16,6,7,8)           -59.1364         estimate D2E/DX2                !
 ! D31   D(16,6,7,18)          179.2551         estimate D2E/DX2                !
 ! D32   D(16,6,7,19)           62.4955         estimate D2E/DX2                !
 ! D33   D(17,6,7,8)            59.1469         estimate D2E/DX2                !
 ! D34   D(17,6,7,18)          -62.4615         estimate D2E/DX2                !
 ! D35   D(17,6,7,19)         -179.2212         estimate D2E/DX2                !
 ! D36   D(6,7,8,20)           -59.9687         estimate D2E/DX2                !
 ! D37   D(6,7,8,21)          -179.9673         estimate D2E/DX2                !
 ! D38   D(6,7,8,22)            60.0204         estimate D2E/DX2                !
 ! D39   D(18,7,8,20)           61.1544         estimate D2E/DX2                !
 ! D40   D(18,7,8,21)          -58.8443         estimate D2E/DX2                !
 ! D41   D(18,7,8,22)         -178.8565         estimate D2E/DX2                !
 ! D42   D(19,7,8,20)          178.8903         estimate D2E/DX2                !
 ! D43   D(19,7,8,21)           58.8917         estimate D2E/DX2                !
 ! D44   D(19,7,8,22)          -61.1206         estimate D2E/DX2                !
 ! D45   D(1,9,10,11)           -0.2539         estimate D2E/DX2                !
 ! D46   D(1,9,10,24)          179.9858         estimate D2E/DX2                !
 ! D47   D(23,9,10,11)         179.6776         estimate D2E/DX2                !
 ! D48   D(23,9,10,24)          -0.0827         estimate D2E/DX2                !
 ! D49   D(9,10,11,12)           0.4016         estimate D2E/DX2                !
 ! D50   D(9,10,11,25)        -179.8004         estimate D2E/DX2                !
 ! D51   D(24,10,11,12)       -179.8456         estimate D2E/DX2                !
 ! D52   D(24,10,11,25)         -0.0475         estimate D2E/DX2                !
 ! D53   D(10,11,12,13)         -0.1207         estimate D2E/DX2                !
 ! D54   D(10,11,12,26)        179.5436         estimate D2E/DX2                !
 ! D55   D(25,11,12,13)       -179.9219         estimate D2E/DX2                !
 ! D56   D(25,11,12,26)         -0.2575         estimate D2E/DX2                !
 ! D57   D(10,11,25,28)       -179.8458         estimate D2E/DX2                !
 ! D58   D(10,11,25,29)        -59.8801         estimate D2E/DX2                !
 ! D59   D(10,11,25,30)         60.197          estimate D2E/DX2                !
 ! D60   D(12,11,25,28)         -0.0521         estimate D2E/DX2                !
 ! D61   D(12,11,25,29)        119.9136         estimate D2E/DX2                !
 ! D62   D(12,11,25,30)       -120.0093         estimate D2E/DX2                !
 ! D63   D(11,12,13,1)          -0.3045         estimate D2E/DX2                !
 ! D64   D(11,12,13,27)        179.3165         estimate D2E/DX2                !
 ! D65   D(26,12,13,1)        -179.9712         estimate D2E/DX2                !
 ! D66   D(26,12,13,27)         -0.3502         estimate D2E/DX2                !
 --------------------------------------------------------------------------------
 Trust Radius=3.00D-01 FncErr=1.00D-07 GrdErr=1.00D-06
 Number of steps in this run=    157 maximum allowed number of steps=    180.
 GradGradGradGradGradGradGradGradGradGradGradGradGradGradGradGradGradGrad

                          Input orientation:                          
 ---------------------------------------------------------------------
 Center     Atomic      Atomic             Coordinates (Angstroms)
 Number     Number       Type             X           Y           Z
 ---------------------------------------------------------------------
      1          6           0       -6.259460    1.439676   -0.056385
      2          7           0       -5.011794    0.825004   -0.036034
      3          6           0       -3.765623    1.428469   -0.043209
      4          8           0       -3.609685    2.650363   -0.083225
      5          7           0       -2.730966    0.566667    0.001492
      6          6           0       -1.354069    1.045412    0.008315
      7          6           0       -0.388911   -0.127422    0.048243
      8          6           0        1.057316    0.352035    0.055191
      9          6           0       -7.364471    0.612908    0.200750
     10          6           0       -8.641559    1.133380    0.180394
     11          6           0       -8.868836    2.485170   -0.088691
     12          6           0       -7.767592    3.294716   -0.345241
     13          6           0       -6.474077    2.793669   -0.336195
     14          1           0       -5.026145   -0.180635    0.083522
     15          1           0       -2.897239   -0.430610    0.027004
     16          1           0       -1.198252    1.692135    0.876528
     17          1           0       -1.175580    1.649907   -0.885521
     18          1           0       -0.567033   -0.770570   -0.819179
     19          1           0       -0.589475   -0.729300    0.940085
     20          1           0        1.280476    0.939138   -0.839376
     21          1           0        1.750367   -0.490750    0.083295
     22          1           0        1.258642    0.980150    0.926753
     23          1           0       -7.213072   -0.438382    0.417210
     24         17           0       -9.968186    0.048454    0.508574
     25          6           0      -10.249801    3.062034   -0.109123
     26          1           0       -7.917742    4.344535   -0.563947
     27          1           0       -5.647649    3.451128   -0.550863
     28          9           0      -10.242484    4.371937   -0.390025
     29          9           0      -11.041296    2.479047   -1.029266
     30          9           0      -10.884306    2.928506    1.071074
 ---------------------------------------------------------------------
                    Distance matrix (angstroms):
                    1          2          3          4          5
     1  C    0.000000
     2  N    1.391009   0.000000
     3  C    2.493897   1.384617   0.000000
     4  O    2.913382   2.302189   1.232454   0.000000
     5  N    3.635350   2.295719   1.347300   2.262988   0.000000
     6  C    4.921635   3.664628   2.442331   2.769847   1.457768
     7  C    6.077013   4.720727   3.719051   4.255203   2.443187
     8  C    7.398014   6.088194   4.942583   5.204072   3.794736
     9  C    1.403821   2.374055   3.698157   4.281388   4.638018
    10  C    2.413354   3.649264   4.889972   5.262175   5.940394
    11  C    2.811217   4.199488   5.211667   5.261748   6.431348
    12  C    2.408127   3.713424   4.426044   4.215690   5.738474
    13  C    1.399160   2.470629   3.047185   2.879109   4.368575
    14  H    2.041090   1.012822   2.047973   3.169971   2.415168
    15  H    3.848305   2.460057   2.053094   3.164195   1.011365
    16  H    5.152658   4.015942   2.739859   2.766647   2.093221
    17  H    5.155337   4.014801   2.732553   2.751265   2.092708
    18  H    6.153923   4.786969   3.958393   4.637040   2.672883
    19  H    6.151922   4.788066   3.963679   4.646607   2.673288
    20  H    7.596989   6.344371   5.131904   5.235812   4.115514
    21  H    8.240351   6.890012   5.841707   6.214859   4.605123
    22  H    7.596024   6.345817   5.136638   5.245024   4.116314
    23  H    2.158882   2.578216   3.947407   4.772335   4.612182
    24  Cl   4.001166   5.046330   6.378142   6.895701   7.273447
    25  C    4.307859   5.696171   6.687110   6.652915   7.922877
    26  H    3.383153   4.594598   5.100462   4.654103   6.441635
    27  H    2.159805   2.750616   2.809072   2.239019   4.139113
    28  F    4.957212   6.329784   7.122781   6.859443   8.429488
    29  F    4.989263   6.330660   7.416970   7.493543   8.589601
    30  F    4.987683   6.335362   7.359850   7.370881   8.555656
                    6          7          8          9         10
     6  C    0.000000
     7  C    1.519428   0.000000
     8  C    2.509530   1.523646   0.000000
     9  C    6.029015   7.016393   8.427083   0.000000
    10  C    7.290052   8.349448   9.731101   1.379224   0.000000
    11  C    7.652061   8.874317  10.153790   2.419144   1.396925
    12  C    6.805708   8.143144   9.311215   2.766353   2.389872
    13  C    5.421215   6.760902   7.926956   2.415953   2.778741
    14  H    3.872078   4.637673   6.106802   2.472088   3.848017
    15  H    2.135501   2.526675   4.031356   4.590781   5.955401
    16  H    1.093766   2.156821   2.749191   6.296321   7.496641
    17  H    1.093716   2.156307   2.748679   6.368494   7.559353
    18  H    2.145218   1.094435   2.159461   7.011378   8.355964
    19  H    2.145321   1.094471   2.159686   6.946129   8.299564
    20  H    2.769603   2.170776   1.093042   8.713403   9.976193
    21  H    3.464525   2.170195   1.091511   9.182163  10.518524
    22  H    2.770206   2.170927   1.093015   8.661410   9.929476
    23  H    6.057785   6.841199   8.315956   1.083968   2.137075
    24  Cl   8.686034   9.591941  11.038994   2.681920   1.744908
    25  C    9.122204  10.365063  11.628498   3.797284   2.527839
    26  H    7.368413   8.778182   9.842513   3.849144   3.374829
    27  H    4.953280   6.388996   7.411358   3.401161   3.856189
    28  F    9.498861  10.841088  12.001804   4.770983   3.657403
    29  F    9.847551  11.019437  12.331935   4.302843   3.005468
    30  F    9.772457  10.978988  12.258570   4.302173   3.007608
                   11         12         13         14         15
    11  C    0.000000
    12  C    1.390654   0.000000
    13  C    2.427200   1.387196   0.000000
    14  H    4.680005   4.447184   3.334539   0.000000
    15  H    6.646437   6.143042   4.829250   2.144276   0.000000
    16  H    7.771641   6.871479   5.524346   4.334615   2.848560
    17  H    7.779382   6.815565   5.448304   4.372274   2.850503
    18  H    8.947255   8.282465   6.915940   4.587654   2.502291
    19  H    8.940862   8.328874   6.976298   4.551788   2.499742
    20  H   10.293797   9.362716   7.989090   6.471406   4.481086
    21  H   11.029648  10.252070   8.865938   6.783604   4.648336
    22  H   10.288927   9.404685   8.042314   6.446472   4.480083
    23  H    3.397742   3.850305   3.399983   2.227202   4.333443
    24  Cl   2.739139   4.013706   4.523122   4.965573   7.103499
    25  C    1.496748   2.504247   3.792054   6.151308   8.141084
    26  H    2.141888   1.082819   2.131016   5.409040   6.953897
    27  H    3.394513   2.135628   1.077645   3.738772   4.792346
    28  F    2.353211   2.699536   4.085917   6.939766   8.785840
    29  F    2.367341   3.442433   4.630208   6.670401   8.712489
    30  F    2.367218   3.442958   4.631275   6.705227   8.727369
                   16         17         18         19         20
    16  H    0.000000
    17  H    1.762701   0.000000
    18  H    3.055941   2.496685   0.000000
    19  H    2.497598   3.055648   1.759891   0.000000
    20  H    3.107318   2.557251   2.517300   3.073579   0.000000
    21  H    3.753473   3.752623   2.502619   2.503169   1.765418
    22  H    2.558471   3.107788   3.073497   2.517525   1.766740
    23  H    6.397510   6.519921   6.768223   6.650569   8.695799
    24  Cl   8.930219   9.045334   9.529711   9.420791  11.364096
    25  C    9.207533   9.216202  10.437865  10.430577  11.746797
    26  H    7.366257   7.267818   8.958927   9.039326   9.812227
    27  H    4.992858   4.832783   6.611156   6.729341   7.375110
    28  F    9.517543   9.479647  10.965578  10.998745  12.031817
    29  F   10.056679   9.901539  10.968789  11.109113  12.419075
    30  F    9.766581   9.986112  11.122155  10.926127  12.473545
                   21         22         23         24         25
    21  H    0.000000
    22  H    1.765435   0.000000
    23  H    8.969809   8.604754   0.000000
    24  Cl  11.738657  11.273180   2.799287   0.000000
    25  C   12.516522  11.741019   4.663868   3.089097   0.000000
    26  H   10.829185   9.886723   4.933105   4.879645   2.700031
    27  H    8.406616   7.482375   4.303023   5.600682   4.639647
    28  F   12.949835  12.062919   5.741789   4.424390   1.339704
    29  F   13.178927  12.544368   5.025832   3.069902   1.346478
    30  F   13.126385  12.299110   5.024085   3.074148   1.346584
                   26         27         28         29         30
    26  H    0.000000
    27  H    2.439605   0.000000
    28  F    2.331399   4.688951   0.000000
    29  F    3.667854   5.501385   2.151689   0.000000
    30  F    3.671366   5.506940   2.151799   2.153621   0.000000
 Stoichiometry    C11H12ClF3N2O
 Framework group  C1[X(C11H12ClF3N2O)]
 Deg. of freedom    84
 Full point group                 C1      NOp   1
 Largest Abelian subgroup         C1      NOp   1
 Largest concise Abelian subgroup C1      NOp   1
                         Standard orientation:                         
 ---------------------------------------------------------------------
 Center     Atomic      Atomic             Coordinates (Angstroms)
 Number     Number       Type             X           Y           Z
 ---------------------------------------------------------------------
      1          6           0       -0.233429    0.137203   -0.092801
      2          7           0       -1.571468    0.514332   -0.141088
      3          6           0       -2.688341   -0.290549    0.006987
      4          8           0       -2.621372   -1.506365    0.197381
      5          7           0       -3.861400    0.367612   -0.070306
      6          6           0       -5.129325   -0.337250    0.073302
      7          6           0       -6.290144    0.632871   -0.068214
      8          6           0       -7.626132   -0.084917    0.078119
      9          6           0        0.704818    1.179612   -0.031250
     10          6           0        2.054802    0.898716   -0.001297
     11          6           0        2.521672   -0.417656   -0.025770
     12          6           0        1.584026   -1.442647   -0.090039
     13          6           0        0.221364   -1.185539   -0.126954
     14          1           0       -1.738529    1.510996   -0.208626
     15          1           0       -3.877711    1.365490   -0.234113
     16          1           0       -5.164175   -0.827522    1.050411
     17          1           0       -5.197627   -1.119986   -0.687536
     18          1           0       -6.232707    1.123781   -1.044685
     19          1           0       -6.199660    1.416610    0.690358
     20          1           0       -7.741512   -0.858884   -0.685035
     21          1           0       -8.459793    0.612179   -0.024168
     22          1           0       -7.709096   -0.564630    1.056727
     23          1           0        0.366685    2.209185   -0.006056
     24         17           0        3.164600    2.243061    0.074790
     25          6           0        3.984002   -0.734690    0.010751
     26          1           0        1.920660   -2.471438   -0.117664
     27          1           0       -0.473328   -2.007136   -0.187775
     28          9           0        4.212548   -2.054280   -0.024652
     29          9           0        4.655495   -0.203289   -1.028342
     30          9           0        4.586375   -0.272908    1.123044
 ---------------------------------------------------------------------
 Rotational constants (GHZ):      1.0956733      0.1213827      0.1117289
 Standard basis: 6-311+G(d) (5D, 7F)
 There are   458 symmetry adapted cartesian basis functions of A   symmetry.
 There are   440 symmetry adapted basis functions of A   symmetry.
   440 basis functions,   725 primitive gaussians,   458 cartesian basis functions
    72 alpha electrons       72 beta electrons
       nuclear repulsion energy      1425.1757057764 Hartrees.
 NAtoms=   30 NActive=   30 NUniq=   30 SFac= 1.00D+00 NAtFMM=   60 NAOKFM=F Big=F
 Integral buffers will be    131072 words long.
 Raffenetti 2 integral format.
 Two-electron integral symmetry is turned on.
 Nuclear repulsion after empirical dispersion term =     1425.1744319808 Hartrees.
 ------------------------------------------------------------------------------
 Polarizable Continuum Model (PCM)
 =================================
 Model                : PCM (using non-symmetric T matrix).
 Atomic radii         : SMD-Coulomb.
 Polarization charges : Total charges.
 Charge compensation  : None.
 Solution method      : On-the-fly selection.
 Cavity type          : VdW (van der Waals Surface) (Alpha=1.000).
 Cavity algorithm     : GePol (No added spheres)
                        Default sphere list used, NSphG=   30.
                        Lebedev-Laikov grids with approx.  5.0 points / Ang**2.
                        Smoothing algorithm: York/Karplus (Gamma=1.0000).
                        Polarization charges: spherical gaussians, with
                                              point-specific exponents (IZeta= 3).
                        Self-potential: point-specific (ISelfS= 7).
                        Self-field    : sphere-specific E.n sum rule (ISelfD= 2).
 1st derivatives      : Analytical E(r).r(x)/FMM algorithm (CHGder, D1EAlg=3).
                        Cavity 1st derivative terms included.
 Solvent              : Water, Eps=  78.355300 Eps(inf)=   1.777849
 ------------------------------------------------------------------------------
 ------------------------------------------------------------------------------
 Atomic radii for non-electrostatic terms: SMD-CDS.
 ------------------------------------------------------------------------------
 Nuclear repulsion after PCM non-electrostatic terms =     1425.1851960598 Hartrees.
 One-electron integrals computed using PRISM.
 NBasis=   440 RedAO= T EigKep=  1.56D-06  NBF=   440
 NBsUse=   438 1.00D-06 EigRej=  8.97D-07 NBFU=   438
 ExpMin= 4.38D-02 ExpMax= 1.06D+05 ExpMxC= 3.62D+03 IAcc=3 IRadAn=         5 AccDes= 0.00D+00
 Harris functional with IExCor= 1009 and IRadAn=       5 diagonalized for initial guess.
 HarFok:  IExCor= 1009 AccDes= 0.00D+00 IRadAn=         5 IDoV= 1 UseB2=F ITyADJ=14
 ICtDFT=  3500011 ScaDFX=  1.000000  1.000000  1.000000  1.000000
 FoFCou: FMM=F IPFlag=           0 FMFlag=      100000 FMFlg1=           0
         NFxFlg=           0 DoJE=T BraDBF=F KetDBF=T FulRan=T
         wScrn=  0.000000 ICntrl=     500 IOpCl=  0 I1Cent=   200000004 NGrid=           0
         NMat0=    1 NMatS0=      1 NMatT0=    0 NMatD0=    1 NMtDS0=    0 NMtDT0=    0
 Petite list used in FoFCou.
 Requested convergence on RMS density matrix=1.00D-08 within 128 cycles.
 Requested convergence on MAX density matrix=1.00D-06.
 Requested convergence on             energy=1.00D-06.
 No special actions if energy rises.
 Inv3:  Mode=1 IEnd=    17467707.
 Iteration    1 A*A^-1 deviation from unit magnitude is 4.33D-15 for   2392.
 Iteration    1 A*A^-1 deviation from orthogonality  is 2.18D-15 for   1860    484.
 Iteration    1 A^-1*A deviation from unit magnitude is 4.66D-15 for   2381.
 Iteration    1 A^-1*A deviation from orthogonality  is 3.62D-10 for   1384   1335.
 Iteration    2 A*A^-1 deviation from unit magnitude is 3.00D-15 for     21.
 Iteration    2 A*A^-1 deviation from orthogonality  is 3.52D-15 for   1769    467.
 Iteration    2 A^-1*A deviation from unit magnitude is 9.99D-16 for   2233.
 Iteration    2 A^-1*A deviation from orthogonality  is 4.53D-16 for   2412   2196.
 Error on total polarization charges =  0.04526
 SCF Done:  E(RM062X) =  -1370.81621650     A.U. after   15 cycles
            NFock= 15  Conv=0.41D-08     -V/T= 2.0029
 SMD-CDS (non-electrostatic) energy       (kcal/mol) =       6.75
 (included in total energy above)

 **********************************************************************

            Population analysis using the SCF density.

 **********************************************************************

 Orbital symmetries:
       Occupied  (A) (A) (A) (A) (A) (A) (A) (A) (A) (A) (A) (A)
                 (A) (A) (A) (A) (A) (A) (A) (A) (A) (A) (A) (A)
                 (A) (A) (A) (A) (A) (A) (A) (A) (A) (A) (A) (A)
                 (A) (A) (A) (A) (A) (A) (A) (A) (A) (A) (A) (A)
                 (A) (A) (A) (A) (A) (A) (A) (A) (A) (A) (A) (A)
                 (A) (A) (A) (A) (A) (A) (A) (A) (A) (A) (A) (A)
       Virtual   (A) (A) (A) (A) (A) (A) (A) (A) (A) (A) (A) (A)
                 (A) (A) (A) (A) (A) (A) (A) (A) (A) (A) (A) (A)
                 (A) (A) (A) (A) (A) (A) (A) (A) (A) (A) (A) (A)
                 (A) (A) (A) (A) (A) (A) (A) (A) (A) (A) (A) (A)
                 (A) (A) (A) (A) (A) (A) (A) (A) (A) (A) (A) (A)
                 (A) (A) (A) (A) (A) (A) (A) (A) (A) (A) (A) (A)
                 (A) (A) (A) (A) (A) (A) (A) (A) (A) (A) (A) (A)
                 (A) (A) (A) (A) (A) (A) (A) (A) (A) (A) (A) (A)
                 (A) (A) (A) (A) (A) (A) (A) (A) (A) (A) (A) (A)
                 (A) (A) (A) (A) (A) (A) (A) (A) (A) (A) (A) (A)
                 (A) (A) (A) (A) (A) (A) (A) (A) (A) (A) (A) (A)
                 (A) (A) (A) (A) (A) (A) (A) (A) (A) (A) (A) (A)
                 (A) (A) (A) (A) (A) (A) (A) (A) (A) (A) (A) (A)
                 (A) (A) (A) (A) (A) (A) (A) (A) (A) (A) (A) (A)
                 (A) (A) (A) (A) (A) (A) (A) (A) (A) (A) (A) (A)
                 (A) (A) (A) (A) (A) (A) (A) (A) (A) (A) (A) (A)
                 (A) (A) (A) (A) (A) (A) (A) (A) (A) (A) (A) (A)
                 (A) (A) (A) (A) (A) (A) (A) (A) (A) (A) (A) (A)
                 (A) (A) (A) (A) (A) (A) (A) (A) (A) (A) (A) (A)
                 (A) (A) (A) (A) (A) (A) (A) (A) (A) (A) (A) (A)
                 (A) (A) (A) (A) (A) (A) (A) (A) (A) (A) (A) (A)
                 (A) (A) (A) (A) (A) (A) (A) (A) (A) (A) (A) (A)
                 (A) (A) (A) (A) (A) (A) (A) (A) (A) (A) (A) (A)
                 (A) (A) (A) (A) (A) (A) (A) (A) (A) (A) (A) (A)
                 (A) (A) (A) (A) (A) (A) (A) (A) (A) (A) (A) (A)
                 (A) (A) (A) (A) (A) (A) (A) (A) (A) (A) (A) (A)
                 (A) (A) (A) (A) (A) (A) (A) (A) (A) (A) (A) (A)
                 (A) (A) (A) (A) (A) (A) (A) (A) (A) (A) (A) (A)
                 (A) (A) (A) (A) (A) (A) (A) (A) (A) (A) (A) (A)
                 (A) (A) (A) (A) (A) (A) (A) (A) (A) (A) (A) (A)
                 (A) (A) (A) (A) (A) (A)
 The electronic state is 1-A.
 Alpha  occ. eigenvalues -- -102.69055 -25.28664 -25.28225 -25.28223 -19.60160
 Alpha  occ. eigenvalues --  -14.79271 -14.77200 -10.81220 -10.68751 -10.63090
 Alpha  occ. eigenvalues --  -10.61830 -10.58119 -10.56963 -10.56686 -10.56506
 Alpha  occ. eigenvalues --  -10.55395 -10.53066 -10.51756  -9.83340  -7.55854
 Alpha  occ. eigenvalues --   -7.55177  -7.55160  -1.47798  -1.38456  -1.38027
 Alpha  occ. eigenvalues --   -1.18994  -1.07200  -1.03811  -1.01448  -0.95194
 Alpha  occ. eigenvalues --   -0.90185  -0.87748  -0.85266  -0.81763  -0.78144
 Alpha  occ. eigenvalues --   -0.73786  -0.73124  -0.70139  -0.69986  -0.68762
 Alpha  occ. eigenvalues --   -0.68271  -0.65932  -0.63938  -0.61635  -0.58418
 Alpha  occ. eigenvalues --   -0.58368  -0.56251  -0.55761  -0.55429  -0.54243
 Alpha  occ. eigenvalues --   -0.54141  -0.53465  -0.52676  -0.52094  -0.51932
 Alpha  occ. eigenvalues --   -0.51130  -0.50079  -0.48851  -0.46814  -0.45978
 Alpha  occ. eigenvalues --   -0.45872  -0.43735  -0.42682  -0.42131  -0.40017
 Alpha  occ. eigenvalues --   -0.39406  -0.39306  -0.38735  -0.36469  -0.33242
 Alpha  occ. eigenvalues --   -0.31960  -0.28702
 Alpha virt. eigenvalues --   -0.00835  -0.00135   0.01029   0.02089   0.02586
 Alpha virt. eigenvalues --    0.03068   0.03672   0.03876   0.04583   0.04972
 Alpha virt. eigenvalues --    0.05113   0.05584   0.06475   0.06511   0.06811
 Alpha virt. eigenvalues --    0.07654   0.07707   0.08039   0.08303   0.09246
 Alpha virt. eigenvalues --    0.09507   0.09675   0.10050   0.10508   0.11018
 Alpha virt. eigenvalues --    0.11559   0.12257   0.12617   0.12808   0.13386
 Alpha virt. eigenvalues --    0.13742   0.14715   0.15086   0.15453   0.16001
 Alpha virt. eigenvalues --    0.17258   0.17369   0.18084   0.18361   0.18715
 Alpha virt. eigenvalues --    0.19333   0.19596   0.19934   0.20451   0.20666
 Alpha virt. eigenvalues --    0.20947   0.21226   0.21526   0.21883   0.22068
 Alpha virt. eigenvalues --    0.23093   0.23260   0.23790   0.24044   0.24367
 Alpha virt. eigenvalues --    0.24725   0.24908   0.25073   0.25580   0.25887
 Alpha virt. eigenvalues --    0.26368   0.26928   0.27501   0.27698   0.28104
 Alpha virt. eigenvalues --    0.28298   0.29078   0.29420   0.29701   0.30158
 Alpha virt. eigenvalues --    0.30340   0.30557   0.31084   0.31713   0.31994
 Alpha virt. eigenvalues --    0.32291   0.32834   0.33485   0.33855   0.34458
 Alpha virt. eigenvalues --    0.34909   0.35900   0.36479   0.36906   0.37252
 Alpha virt. eigenvalues --    0.37663   0.38215   0.39156   0.39816   0.40410
 Alpha virt. eigenvalues --    0.41000   0.41531   0.42691   0.43691   0.43919
 Alpha virt. eigenvalues --    0.44637   0.45807   0.46220   0.47086   0.48026
 Alpha virt. eigenvalues --    0.48446   0.49565   0.49859   0.50244   0.50504
 Alpha virt. eigenvalues --    0.52488   0.53208   0.54117   0.55383   0.56744
 Alpha virt. eigenvalues --    0.57860   0.58456   0.59179   0.60297   0.60781
 Alpha virt. eigenvalues --    0.61348   0.62437   0.63277   0.63748   0.64834
 Alpha virt. eigenvalues --    0.65733   0.65962   0.68115   0.68465   0.68891
 Alpha virt. eigenvalues --    0.69756   0.70357   0.70788   0.71367   0.72046
 Alpha virt. eigenvalues --    0.72644   0.73030   0.73740   0.73773   0.74375
 Alpha virt. eigenvalues --    0.75061   0.75976   0.76991   0.78078   0.79008
 Alpha virt. eigenvalues --    0.79350   0.80936   0.81695   0.82571   0.83589
 Alpha virt. eigenvalues --    0.85358   0.87293   0.87916   0.89261   0.90766
 Alpha virt. eigenvalues --    0.91084   0.92133   0.93805   0.94210   0.94947
 Alpha virt. eigenvalues --    0.95567   0.96002   0.96193   0.97027   0.98170
 Alpha virt. eigenvalues --    0.98780   1.01210   1.03855   1.04567   1.05172
 Alpha virt. eigenvalues --    1.05542   1.07804   1.08708   1.10441   1.11598
 Alpha virt. eigenvalues --    1.12832   1.13243   1.16405   1.18438   1.20145
 Alpha virt. eigenvalues --    1.20796   1.23016   1.23742   1.25094   1.25776
 Alpha virt. eigenvalues --    1.28454   1.30266   1.30448   1.33254   1.33578
 Alpha virt. eigenvalues --    1.35324   1.37750   1.39222   1.42452   1.43467
 Alpha virt. eigenvalues --    1.45199   1.46371   1.46817   1.47944   1.49539
 Alpha virt. eigenvalues --    1.49957   1.52802   1.53019   1.53197   1.53867
 Alpha virt. eigenvalues --    1.55939   1.56178   1.57270   1.57674   1.59535
 Alpha virt. eigenvalues --    1.61032   1.61626   1.62430   1.62961   1.63635
 Alpha virt. eigenvalues --    1.65222   1.68826   1.73291   1.74900   1.75417
 Alpha virt. eigenvalues --    1.78048   1.78339   1.80069   1.80635   1.82209
 Alpha virt. eigenvalues --    1.83152   1.84781   1.85259   1.85540   1.86784
 Alpha virt. eigenvalues --    1.89888   1.92370   1.92416   1.94796   1.97278
 Alpha virt. eigenvalues --    1.97497   1.99160   1.99325   2.05513   2.07941
 Alpha virt. eigenvalues --    2.08434   2.09377   2.10854   2.13908   2.14882
 Alpha virt. eigenvalues --    2.20966   2.21621   2.25487   2.26012   2.27198
 Alpha virt. eigenvalues --    2.30982   2.32524   2.34326   2.35533   2.38734
 Alpha virt. eigenvalues --    2.41288   2.41646   2.46296   2.48769   2.52341
 Alpha virt. eigenvalues --    2.55572   2.56001   2.56806   2.57706   2.59014
 Alpha virt. eigenvalues --    2.60533   2.61845   2.63901   2.65338   2.68050
 Alpha virt. eigenvalues --    2.70996   2.72202   2.77468   2.81753   2.82724
 Alpha virt. eigenvalues --    2.84110   2.84954   2.89807   2.90891   2.93085
 Alpha virt. eigenvalues --    2.95441   2.98210   2.99585   3.01060   3.02366
 Alpha virt. eigenvalues --    3.04591   3.07304   3.10236   3.12362   3.13800
 Alpha virt. eigenvalues --    3.18016   3.20819   3.24521   3.25562   3.27747
 Alpha virt. eigenvalues --    3.29499   3.30670   3.34942   3.38667   3.40229
 Alpha virt. eigenvalues --    3.40897   3.42067   3.44765   3.51030   3.57942
 Alpha virt. eigenvalues --    3.66729   3.68030   3.69624   3.77658   3.79825
 Alpha virt. eigenvalues --    3.80810   3.83399   3.83581   3.83887   3.86173
 Alpha virt. eigenvalues --    3.86655   3.87966   3.96438   3.98135   3.98997
 Alpha virt. eigenvalues --    4.00187   4.01261   4.02877   4.05503   4.06845
 Alpha virt. eigenvalues --    4.12852   4.22352   4.26576   4.30863   4.55056
 Alpha virt. eigenvalues --    4.58677   4.76612   4.81231   4.90370   4.97277
 Alpha virt. eigenvalues --    5.01292   5.17365   5.21875   5.40887   5.88380
 Alpha virt. eigenvalues --    6.43933   6.48090   6.49284   6.52125   6.54619
 Alpha virt. eigenvalues --    6.57075   6.62806   6.85770   6.90238   9.99357
 Alpha virt. eigenvalues --   23.44034  23.59883  23.65673  23.74607  23.82351
 Alpha virt. eigenvalues --   23.90638  23.92687  23.97801  24.08387  24.12244
 Alpha virt. eigenvalues --   24.20007  25.95233  26.31168  26.82117  35.59971
 Alpha virt. eigenvalues --   35.70791  50.13125  66.88242  66.90945  66.96666
 Alpha virt. eigenvalues --  216.10220
          Condensed to atoms (all electrons):
               1          2          3          4          5          6
     1  C   16.803513  -0.003364  -1.045172  -0.142178  -0.290142  -0.532765
     2  N   -0.003364   7.733642   0.466096  -0.116619  -0.492772  -0.381191
     3  C   -1.045172   0.466096   7.864027   0.580480   0.187011  -0.967539
     4  O   -0.142178  -0.116619   0.580480   8.292689  -0.189839  -0.118004
     5  N   -0.290142  -0.492772   0.187011  -0.189839   7.589488   0.482531
     6  C   -0.532765  -0.381191  -0.967539  -0.118004   0.482531   8.254959
     7  C   -0.026706   0.026924   0.179634   0.016698  -0.120778  -0.920387
     8  C   -0.016243  -0.013003  -0.255189  -0.003372   0.004891   0.405594
     9  C    2.100851  -0.122528  -0.016325  -0.031734  -0.043307  -0.017460
    10  C   -1.379224  -0.013564  -1.232123  -0.005334   0.016989  -0.071667
    11  C   -3.939007  -0.008509   0.070755   0.009794   0.061021   0.016381
    12  C   -3.254652   0.163540  -0.123281   0.062094  -0.012549  -0.032925
    13  C   -0.354576  -0.155468   0.042965   0.174446  -0.019365  -0.102111
    14  H   -0.033104   0.247873  -0.050129  -0.000379   0.054621   0.011022
    15  H   -0.016635   0.068219   0.028152  -0.001901   0.255831  -0.061596
    16  H    0.003602   0.010461   0.075109   0.000441  -0.055792   0.320901
    17  H    0.009377   0.002598   0.018566   0.000251  -0.056971   0.396328
    18  H    0.000667  -0.000885   0.009028  -0.000102   0.006187  -0.072655
    19  H   -0.000129  -0.001594  -0.006921  -0.000139   0.007246  -0.064098
    20  H   -0.000147  -0.000028  -0.002028  -0.000050   0.000220  -0.051216
    21  H    0.000122   0.000009   0.006783   0.000022  -0.001437   0.088081
    22  H   -0.000035  -0.000057  -0.001421  -0.000044  -0.000274  -0.046326
    23  H    0.000867  -0.017938  -0.016234  -0.000038   0.000161  -0.000916
    24  Cl  -0.283865  -0.010458  -0.046438  -0.000043   0.000544  -0.001527
    25  C   -1.175390   0.012022  -0.041437   0.000355   0.009882   0.001956
    26  H    0.035255  -0.001519   0.005763   0.000020   0.000025   0.000075
    27  H   -0.030831  -0.016047   0.049159  -0.004501   0.001458   0.006395
    28  F    0.029741  -0.000008   0.000469  -0.000001   0.000005   0.000005
    29  F    0.018958  -0.000134  -0.000552   0.000001   0.000000  -0.000003
    30  F    0.024689  -0.000140   0.000317  -0.000001   0.000000   0.000001
               7          8          9         10         11         12
     1  C   -0.026706  -0.016243   2.100851  -1.379224  -3.939007  -3.254652
     2  N    0.026924  -0.013003  -0.122528  -0.013564  -0.008509   0.163540
     3  C    0.179634  -0.255189  -0.016325  -1.232123   0.070755  -0.123281
     4  O    0.016698  -0.003372  -0.031734  -0.005334   0.009794   0.062094
     5  N   -0.120778   0.004891  -0.043307   0.016989   0.061021  -0.012549
     6  C   -0.920387   0.405594  -0.017460  -0.071667   0.016381  -0.032925
     7  C    6.445879  -0.225638   0.010876  -0.000266  -0.002624  -0.002833
     8  C   -0.225638   6.153757   0.000248  -0.000472  -0.000053  -0.000752
     9  C    0.010876   0.000248  10.649129   1.866150  -3.805531  -1.789558
    10  C   -0.000266  -0.000472   1.866150  30.789492 -12.959365  -3.481784
    11  C   -0.002624  -0.000053  -3.805531 -12.959365  31.197391   1.547770
    12  C   -0.002833  -0.000752  -1.789558  -3.481784   1.547770  15.387567
    13  C   -0.010811  -0.005926  -1.265758  -6.818646  -1.645276  -1.898082
    14  H   -0.002035   0.000030  -0.020218  -0.009739   0.024904   0.009974
    15  H   -0.011079   0.002460   0.002233  -0.002242  -0.001386   0.001781
    16  H   -0.011316  -0.023943  -0.000535   0.000124   0.000070   0.000849
    17  H   -0.025043  -0.012417   0.002561   0.000268  -0.000200  -0.001898
    18  H    0.455622  -0.051865  -0.000424  -0.000023   0.000016   0.000093
    19  H    0.457708  -0.044638   0.000475   0.000049  -0.000002  -0.000064
    20  H    0.019612   0.378669   0.000004  -0.000000  -0.000000  -0.000000
    21  H   -0.124327   0.380506  -0.000013  -0.000000   0.000000   0.000001
    22  H    0.013329   0.379521   0.000004   0.000000  -0.000000  -0.000001
    23  H   -0.000023  -0.000002   0.303047   0.002784   0.076678  -0.027492
    24  Cl  -0.000051  -0.000003   0.324033  -1.256701  -0.500208   0.348343
    25  C   -0.000321   0.000006  -1.684113   0.237351  -3.270432  -1.032604
    26  H    0.000002   0.000000  -0.007073  -0.063334   0.012371   0.336085
    27  H   -0.000199   0.000044  -0.017919  -0.000452   0.038797  -0.032463
    28  F   -0.000000   0.000000  -0.018745  -0.171813  -0.141820   0.124052
    29  F   -0.000000  -0.000000   0.026802  -0.180352   0.223501   0.037409
    30  F   -0.000000   0.000000   0.024197  -0.182733   0.254478   0.021222
              13         14         15         16         17         18
     1  C   -0.354576  -0.033104  -0.016635   0.003602   0.009377   0.000667
     2  N   -0.155468   0.247873   0.068219   0.010461   0.002598  -0.000885
     3  C    0.042965  -0.050129   0.028152   0.075109   0.018566   0.009028
     4  O    0.174446  -0.000379  -0.001901   0.000441   0.000251  -0.000102
     5  N   -0.019365   0.054621   0.255831  -0.055792  -0.056971   0.006187
     6  C   -0.102111   0.011022  -0.061596   0.320901   0.396328  -0.072655
     7  C   -0.010811  -0.002035  -0.011079  -0.011316  -0.025043   0.455622
     8  C   -0.005926   0.000030   0.002460  -0.023943  -0.012417  -0.051865
     9  C   -1.265758  -0.020218   0.002233  -0.000535   0.002561  -0.000424
    10  C   -6.818646  -0.009739  -0.002242   0.000124   0.000268  -0.000023
    11  C   -1.645276   0.024904  -0.001386   0.000070  -0.000200   0.000016
    12  C   -1.898082   0.009974   0.001781   0.000849  -0.001898   0.000093
    13  C   17.544867   0.045677   0.004395   0.005997  -0.010191   0.000874
    14  H    0.045677   0.267571   0.001703  -0.000002   0.000047   0.000041
    15  H    0.004395   0.001703   0.277876   0.002498   0.001379  -0.001090
    16  H    0.005997  -0.000002   0.002498   0.436831  -0.043814   0.005445
    17  H   -0.010191   0.000047   0.001379  -0.043814   0.442094  -0.008209
    18  H    0.000874   0.000041  -0.001090   0.005445  -0.008209   0.436424
    19  H   -0.000815   0.000005  -0.001468  -0.008256   0.005572  -0.041281
    20  H    0.000002  -0.000000  -0.000010  -0.000476   0.003270  -0.008280
    21  H    0.000034   0.000000  -0.000033  -0.000058  -0.000044  -0.003156
    22  H   -0.000022   0.000000  -0.000031   0.003466  -0.000429   0.005877
    23  H   -0.014408   0.004895  -0.000050   0.000001  -0.000000  -0.000000
    24  Cl   0.377390   0.001192  -0.000017   0.000001   0.000001   0.000000
    25  C   -0.427351   0.002684  -0.000065   0.000001  -0.000005   0.000000
    26  H   -0.012924  -0.000008   0.000000  -0.000000  -0.000000  -0.000000
    27  H    0.318969   0.000034   0.000009  -0.000008  -0.000002   0.000000
    28  F    0.186309   0.000002  -0.000000  -0.000000   0.000000   0.000000
    29  F    0.009504  -0.000000   0.000000   0.000000  -0.000000   0.000000
    30  F   -0.003100  -0.000001   0.000000  -0.000000  -0.000000  -0.000000
              19         20         21         22         23         24
     1  C   -0.000129  -0.000147   0.000122  -0.000035   0.000867  -0.283865
     2  N   -0.001594  -0.000028   0.000009  -0.000057  -0.017938  -0.010458
     3  C   -0.006921  -0.002028   0.006783  -0.001421  -0.016234  -0.046438
     4  O   -0.000139  -0.000050   0.000022  -0.000044  -0.000038  -0.000043
     5  N    0.007246   0.000220  -0.001437  -0.000274   0.000161   0.000544
     6  C   -0.064098  -0.051216   0.088081  -0.046326  -0.000916  -0.001527
     7  C    0.457708   0.019612  -0.124327   0.013329  -0.000023  -0.000051
     8  C   -0.044638   0.378669   0.380506   0.379521  -0.000002  -0.000003
     9  C    0.000475   0.000004  -0.000013   0.000004   0.303047   0.324033
    10  C    0.000049  -0.000000  -0.000000   0.000000   0.002784  -1.256701
    11  C   -0.000002  -0.000000   0.000000  -0.000000   0.076678  -0.500208
    12  C   -0.000064  -0.000000   0.000001  -0.000001  -0.027492   0.348343
    13  C   -0.000815   0.000002   0.000034  -0.000022  -0.014408   0.377390
    14  H    0.000005  -0.000000   0.000000   0.000000   0.004895   0.001192
    15  H   -0.001468  -0.000010  -0.000033  -0.000031  -0.000050  -0.000017
    16  H   -0.008256  -0.000476  -0.000058   0.003466   0.000001   0.000001
    17  H    0.005572   0.003270  -0.000044  -0.000429  -0.000000   0.000001
    18  H   -0.041281  -0.008280  -0.003156   0.005877  -0.000000   0.000000
    19  H    0.436264   0.005881  -0.003075  -0.008230  -0.000000   0.000000
    20  H    0.005881   0.446184  -0.024388  -0.036633  -0.000000  -0.000000
    21  H   -0.003075  -0.024388   0.424867  -0.024342   0.000000  -0.000000
    22  H   -0.008230  -0.036633  -0.024342   0.445679  -0.000000  -0.000000
    23  H   -0.000000  -0.000000   0.000000  -0.000000   0.353985  -0.008199
    24  Cl   0.000000  -0.000000  -0.000000  -0.000000  -0.008199  17.689075
    25  C   -0.000000  -0.000000   0.000000  -0.000000   0.024094  -0.033502
    26  H   -0.000000   0.000000  -0.000000   0.000000   0.000027  -0.000307
    27  H    0.000000  -0.000000   0.000000  -0.000000  -0.000001   0.000313
    28  F   -0.000000  -0.000000   0.000000  -0.000000   0.000025   0.012940
    29  F   -0.000000  -0.000000   0.000000  -0.000000  -0.000019  -0.013622
    30  F    0.000000  -0.000000   0.000000  -0.000000  -0.000019  -0.012430
              25         26         27         28         29         30
     1  C   -1.175390   0.035255  -0.030831   0.029741   0.018958   0.024689
     2  N    0.012022  -0.001519  -0.016047  -0.000008  -0.000134  -0.000140
     3  C   -0.041437   0.005763   0.049159   0.000469  -0.000552   0.000317
     4  O    0.000355   0.000020  -0.004501  -0.000001   0.000001  -0.000001
     5  N    0.009882   0.000025   0.001458   0.000005   0.000000   0.000000
     6  C    0.001956   0.000075   0.006395   0.000005  -0.000003   0.000001
     7  C   -0.000321   0.000002  -0.000199  -0.000000  -0.000000  -0.000000
     8  C    0.000006   0.000000   0.000044   0.000000  -0.000000   0.000000
     9  C   -1.684113  -0.007073  -0.017919  -0.018745   0.026802   0.024197
    10  C    0.237351  -0.063334  -0.000452  -0.171813  -0.180352  -0.182733
    11  C   -3.270432   0.012371   0.038797  -0.141820   0.223501   0.254478
    12  C   -1.032604   0.336085  -0.032463   0.124052   0.037409   0.021222
    13  C   -0.427351  -0.012924   0.318969   0.186309   0.009504  -0.003100
    14  H    0.002684  -0.000008   0.000034   0.000002  -0.000000  -0.000001
    15  H   -0.000065   0.000000   0.000009  -0.000000   0.000000   0.000000
    16  H    0.000001  -0.000000  -0.000008  -0.000000   0.000000  -0.000000
    17  H   -0.000005  -0.000000  -0.000002   0.000000  -0.000000  -0.000000
    18  H    0.000000  -0.000000   0.000000   0.000000   0.000000  -0.000000
    19  H   -0.000000  -0.000000   0.000000  -0.000000  -0.000000   0.000000
    20  H   -0.000000   0.000000  -0.000000  -0.000000  -0.000000  -0.000000
    21  H    0.000000  -0.000000   0.000000   0.000000   0.000000   0.000000
    22  H   -0.000000   0.000000  -0.000000  -0.000000  -0.000000  -0.000000
    23  H    0.024094   0.000027  -0.000001   0.000025  -0.000019  -0.000019
    24  Cl  -0.033502  -0.000307   0.000313   0.012940  -0.013622  -0.012430
    25  C   12.634500   0.012723   0.012846   0.127665   0.018807   0.014737
    26  H    0.012723   0.358063  -0.002393   0.010898   0.000234   0.000100
    27  H    0.012846  -0.002393   0.360115   0.000017   0.000025   0.000033
    28  F    0.127665   0.010898   0.000017   9.060192  -0.035277  -0.035992
    29  F    0.018807   0.000234   0.000025  -0.035277   9.009818  -0.047452
    30  F    0.014737   0.000100   0.000033  -0.035992  -0.047452   9.009910
 Mulliken charges:
               1
     1  C   -0.503479
     2  N   -0.375561
     3  C    0.220477
     4  O   -0.523009
     5  N   -0.394886
     6  C   -0.541843
     7  C   -0.141847
     8  C   -1.052209
     9  C   -0.469371
    10  C    0.916631
    11  C   -1.259514
    12  C   -0.349842
    13  C    0.033401
    14  H    0.443340
    15  H    0.451068
    16  H    0.278403
    17  H    0.276910
    18  H    0.267696
    19  H    0.267512
    20  H    0.269415
    21  H    0.280446
    22  H    0.269967
    23  H    0.318775
    24  Cl   0.413539
    25  C    0.555591
    26  H    0.315916
    27  H    0.316602
    28  F   -0.148663
    29  F   -0.067647
    30  F   -0.067817
 Sum of Mulliken charges =  -0.00000
 Mulliken charges with hydrogens summed into heavy atoms:
               1
     1  C   -0.503479
     2  N    0.067779
     3  C    0.220477
     4  O   -0.523009
     5  N    0.056182
     6  C    0.013470
     7  C    0.393361
     8  C   -0.232382
     9  C   -0.150596
    10  C    0.916631
    11  C   -1.259514
    12  C   -0.033926
    13  C    0.350003
    24  Cl   0.413539
    25  C    0.555591
    28  F   -0.148663
    29  F   -0.067647
    30  F   -0.067817
 Electronic spatial extent (au):  <R**2>=           8962.3480
 Charge=             -0.0000 electrons
 Dipole moment (field-independent basis, Debye):
    X=             -8.4056    Y=              5.5587    Z=             -1.0457  Tot=             10.1315
 Quadrupole moment (field-independent basis, Debye-Ang):
   XX=           -110.7083   YY=           -108.2883   ZZ=           -115.8027
   XY=            -18.4043   XZ=              2.1629   YZ=              0.5686
 Traceless Quadrupole moment (field-independent basis, Debye-Ang):
   XX=              0.8915   YY=              3.3114   ZZ=             -4.2029
   XY=            -18.4043   XZ=              2.1629   YZ=              0.5686
 Octapole moment (field-independent basis, Debye-Ang**2):
  XXX=           -183.7620  YYY=             11.0614  ZZZ=              1.6809  XYY=             20.3389
  XXY=             52.6950  XXZ=             -7.3202  XZZ=             13.9627  YZZ=             -3.3224
  YYZ=             -4.2509  XYZ=             -0.0380
 Hexadecapole moment (field-independent basis, Debye-Ang**3):
 XXXX=          -9705.0937 YYYY=          -1008.0962 ZZZZ=           -214.0637 XXXY=           -192.2385
 XXXZ=             28.8056 YYYX=           -100.2326 YYYZ=              3.6028 ZZZX=             -1.0186
 ZZZY=             -1.5881 XXYY=          -1865.2026 XXZZ=          -1743.6375 YYZZ=           -214.8775
 XXYZ=              1.9112 YYXZ=             12.7564 ZZXY=            -12.7824
 N-N= 1.425185196060D+03 E-N=-6.081105109196D+03  KE= 1.366861371166D+03
 D1PCM: PCM CHGder 1st derivatives, ID1Alg=3 FixD1E=F DoIter=F DoCFld=F I1PDM=0.
 Calling FoFJK, ICntrl=      2127 FMM=F ISym2X=0 I1Cent= 0 IOpClX= 0 NMat=1 NMatS=1 NMatT=0.
 ***** Axes restored to original set *****
 -------------------------------------------------------------------
 Center     Atomic                   Forces (Hartrees/Bohr)
 Number     Number              X              Y              Z
 -------------------------------------------------------------------
      1        6          -0.000005265    0.000005956   -0.000007865
      2        7           0.000023239    0.000009453    0.000007538
      3        6          -0.000023853   -0.000028452    0.000013394
      4        8           0.000004007    0.000019017   -0.000001189
      5        7           0.000008229    0.000002055   -0.000022176
      6        6          -0.000004889   -0.000006072    0.000005109
      7        6           0.000006182    0.000006186    0.000000027
      8        6          -0.000006729   -0.000005865   -0.000000201
      9        6          -0.000004142    0.000001057   -0.000002160
     10        6          -0.000003747   -0.000014818    0.000002821
     11        6           0.000014377    0.000008477   -0.000003936
     12        6          -0.000006030   -0.000003378    0.000001195
     13        6           0.000001032    0.000000846    0.000000092
     14        1           0.000000253   -0.000001213   -0.000004723
     15        1          -0.000000603    0.000001586    0.000009814
     16        1           0.000000850   -0.000000787    0.000004044
     17        1          -0.000000319    0.000003806    0.000003017
     18        1          -0.000000975   -0.000000363   -0.000000580
     19        1          -0.000001602   -0.000003903   -0.000000571
     20        1           0.000001120    0.000001368    0.000002240
     21        1           0.000000649    0.000000616    0.000003160
     22        1           0.000000312    0.000001770    0.000002560
     23        1           0.000000629   -0.000001073   -0.000003388
     24       17           0.000002481    0.000002244   -0.000005070
     25        6          -0.000013530    0.000004148   -0.000000379
     26        1          -0.000000846    0.000001288    0.000001439
     27        1           0.000002994   -0.000003231   -0.000000300
     28        9           0.000000736   -0.000004257    0.000001516
     29        9           0.000003488    0.000002293   -0.000003078
     30        9           0.000001952    0.000001248   -0.000002351
 -------------------------------------------------------------------
 Cartesian Forces:  Max     0.000028452 RMS     0.000007234

 GradGradGradGradGradGradGradGradGradGradGradGradGradGradGradGradGradGrad
 Berny optimization.
 FormGI is forming the generalized inverse of G from B-inverse, IUseBI=4.
 GSVD:  received Info=                   1 from GESDD.
 Internal  Forces:  Max     0.000019401 RMS     0.000003179
 Search for a local minimum.
 Step number   1 out of a maximum of  157
 All quantities printed in internal units (Hartrees-Bohrs-Radians)
 Mixed Optimization -- En-DIIS/RFO-DIIS
 Second derivative matrix not updated -- first step.
 ITU=  0
     Eigenvalues ---    0.00453   0.00509   0.00809   0.00928   0.01524
     Eigenvalues ---    0.01612   0.01811   0.01873   0.01895   0.02002
     Eigenvalues ---    0.02094   0.02141   0.02169   0.02180   0.02215
     Eigenvalues ---    0.02225   0.02237   0.02269   0.02389   0.03777
     Eigenvalues ---    0.04496   0.04958   0.05560   0.05568   0.05572
     Eigenvalues ---    0.08133   0.09162   0.10589   0.10690   0.12037
     Eigenvalues ---    0.12640   0.15962   0.16000   0.16000   0.16000
     Eigenvalues ---    0.16000   0.16000   0.16000   0.16000   0.21889
     Eigenvalues ---    0.21916   0.22000   0.22015   0.22375   0.23482
     Eigenvalues ---    0.24609   0.24994   0.25000   0.25000   0.25000
     Eigenvalues ---    0.25000   0.25000   0.25000   0.25000   0.30018
     Eigenvalues ---    0.30422   0.30986   0.32721   0.34301   0.34305
     Eigenvalues ---    0.34381   0.34387   0.34463   0.34467   0.34639
     Eigenvalues ---    0.35519   0.35656   0.36280   0.37245   0.42074
     Eigenvalues ---    0.42784   0.45503   0.45745   0.45927   0.46061
     Eigenvalues ---    0.47144   0.47252   0.48268   0.48749   0.55600
     Eigenvalues ---    0.55754   0.55778   0.57271   0.90071
 RFO step:  Lambda=-1.69311797D-08 EMin= 4.53149900D-03
 Linear search not attempted -- first point.
 Iteration  1 RMS(Cart)=  0.00027149 RMS(Int)=  0.00000002
 Iteration  2 RMS(Cart)=  0.00000005 RMS(Int)=  0.00000000
 Variable       Old X    -DE/DX   Delta X   Delta X   Delta X     New X
                                 (Linear)    (Quad)   (Total)
    R1        2.62863   0.00001   0.00000   0.00001   0.00001   2.62864
    R2        2.65284   0.00000   0.00000   0.00001   0.00001   2.65284
    R3        2.64403  -0.00000   0.00000  -0.00001  -0.00001   2.64402
    R4        2.61655  -0.00002   0.00000  -0.00004  -0.00004   2.61651
    R5        1.91396   0.00000   0.00000   0.00000   0.00000   1.91396
    R6        2.32900   0.00002   0.00000   0.00002   0.00002   2.32902
    R7        2.54603   0.00000   0.00000   0.00000   0.00000   2.54603
    R8        2.75478  -0.00001   0.00000  -0.00002  -0.00002   2.75477
    R9        1.91120  -0.00000   0.00000  -0.00000  -0.00000   1.91120
   R10        2.87130  -0.00000   0.00000  -0.00000  -0.00000   2.87130
   R11        2.06692   0.00000   0.00000   0.00001   0.00001   2.06692
   R12        2.06682   0.00000   0.00000   0.00000   0.00000   2.06683
   R13        2.87927  -0.00000   0.00000  -0.00002  -0.00002   2.87926
   R14        2.06818   0.00000   0.00000   0.00000   0.00000   2.06819
   R15        2.06825   0.00000   0.00000   0.00000   0.00000   2.06825
   R16        2.06555   0.00000   0.00000   0.00000   0.00000   2.06555
   R17        2.06266  -0.00000   0.00000  -0.00000  -0.00000   2.06266
   R18        2.06550   0.00000   0.00000   0.00000   0.00000   2.06550
   R19        2.60636  -0.00000   0.00000  -0.00000  -0.00000   2.60635
   R20        2.04840   0.00000   0.00000   0.00000   0.00000   2.04841
   R21        2.63981   0.00001   0.00000   0.00002   0.00002   2.63983
   R22        3.29740  -0.00000   0.00000  -0.00001  -0.00001   3.29739
   R23        2.62796  -0.00001   0.00000  -0.00001  -0.00001   2.62794
   R24        2.82844   0.00001   0.00000   0.00002   0.00002   2.82847
   R25        2.62142   0.00000   0.00000   0.00000   0.00000   2.62142
   R26        2.04623   0.00000   0.00000   0.00000   0.00000   2.04623
   R27        2.03645   0.00000   0.00000   0.00000   0.00000   2.03645
   R28        2.53167  -0.00000   0.00000  -0.00001  -0.00001   2.53166
   R29        2.54447  -0.00000   0.00000  -0.00000  -0.00000   2.54447
   R30        2.54468  -0.00000   0.00000  -0.00000  -0.00000   2.54467
    A1        2.02985   0.00000   0.00000   0.00001   0.00001   2.02986
    A2        2.17503  -0.00000   0.00000  -0.00001  -0.00001   2.17502
    A3        2.07810   0.00000   0.00000   0.00001   0.00001   2.07811
    A4        2.23267   0.00000   0.00000   0.00001   0.00001   2.23268
    A5        2.01282   0.00000   0.00000   0.00001   0.00001   2.01283
    A6        2.03321  -0.00000   0.00000   0.00000   0.00000   2.03321
    A7        2.14855   0.00000   0.00000   0.00001   0.00001   2.14856
    A8        1.99567   0.00000   0.00000   0.00000   0.00000   1.99567
    A9        2.13896  -0.00000   0.00000  -0.00001  -0.00001   2.13895
   A10        2.11231   0.00000   0.00000   0.00001   0.00001   2.11232
   A11        2.10055  -0.00000   0.00000  -0.00001  -0.00001   2.10054
   A12        2.07031  -0.00000   0.00000  -0.00000  -0.00000   2.07031
   A13        1.92474  -0.00000   0.00000  -0.00000  -0.00000   1.92474
   A14        1.90970   0.00000   0.00000   0.00001   0.00001   1.90971
   A15        1.90904  -0.00000   0.00000  -0.00000  -0.00000   1.90903
   A16        1.92309   0.00000   0.00000   0.00001   0.00001   1.92310
   A17        1.92243   0.00000   0.00000   0.00000   0.00000   1.92244
   A18        1.87409  -0.00000   0.00000  -0.00001  -0.00001   1.87408
   A19        1.93923  -0.00000   0.00000   0.00000   0.00000   1.93924
   A20        1.90646   0.00000   0.00000  -0.00000  -0.00000   1.90646
   A21        1.90656  -0.00000   0.00000   0.00000   0.00000   1.90656
   A22        1.92092   0.00000   0.00000   0.00000   0.00000   1.92093
   A23        1.92120   0.00000   0.00000   0.00001   0.00001   1.92121
   A24        1.86800  -0.00000   0.00000  -0.00002  -0.00002   1.86798
   A25        1.93808   0.00000   0.00000   0.00000   0.00000   1.93808
   A26        1.93888   0.00000   0.00000   0.00001   0.00001   1.93889
   A27        1.93832   0.00000   0.00000   0.00000   0.00000   1.93832
   A28        1.88196  -0.00000   0.00000   0.00000   0.00000   1.88197
   A29        1.88213  -0.00000   0.00000  -0.00002  -0.00002   1.88211
   A30        1.88202  -0.00000   0.00000  -0.00000  -0.00000   1.88202
   A31        2.09891   0.00000   0.00000   0.00000   0.00000   2.09891
   A32        2.09188  -0.00000   0.00000  -0.00001  -0.00001   2.09188
   A33        2.09239   0.00000   0.00000   0.00000   0.00000   2.09240
   A34        2.11609  -0.00000   0.00000  -0.00002  -0.00002   2.11607
   A35        2.05621   0.00000   0.00000   0.00001   0.00001   2.05622
   A36        2.11088   0.00000   0.00000   0.00000   0.00000   2.11089
   A37        2.06011   0.00000   0.00000   0.00001   0.00001   2.06012
   A38        2.12434  -0.00000   0.00000  -0.00000  -0.00000   2.12433
   A39        2.09873  -0.00000   0.00000  -0.00001  -0.00001   2.09872
   A40        2.12580  -0.00000   0.00000  -0.00000  -0.00000   2.12580
   A41        2.08500  -0.00000   0.00000  -0.00001  -0.00001   2.08500
   A42        2.07237   0.00000   0.00000   0.00001   0.00001   2.07238
   A43        2.08733  -0.00000   0.00000  -0.00001  -0.00001   2.08733
   A44        2.10901  -0.00000   0.00000  -0.00003  -0.00003   2.10898
   A45        2.08683   0.00000   0.00000   0.00003   0.00003   2.08686
   A46        1.95483  -0.00000   0.00000  -0.00001  -0.00001   1.95482
   A47        1.96580  -0.00000   0.00000  -0.00000  -0.00000   1.96579
   A48        1.96553  -0.00000   0.00000   0.00000   0.00000   1.96554
   A49        1.85799   0.00000   0.00000  -0.00000  -0.00000   1.85799
   A50        1.85802  -0.00000   0.00000  -0.00001  -0.00001   1.85802
   A51        1.85357   0.00000   0.00000   0.00002   0.00002   1.85359
    D1       -2.94638  -0.00000   0.00000  -0.00000  -0.00000  -2.94638
    D2        0.08919   0.00000   0.00000   0.00020   0.00020   0.08938
    D3        0.21712  -0.00000   0.00000  -0.00002  -0.00002   0.21711
    D4       -3.03050   0.00000   0.00000   0.00018   0.00018  -3.03032
    D5       -3.12409  -0.00000   0.00000  -0.00006  -0.00006  -3.12415
    D6        0.01870  -0.00000   0.00000  -0.00004  -0.00004   0.01866
    D7       -0.00312  -0.00000   0.00000  -0.00005  -0.00005  -0.00317
    D8        3.13967  -0.00000   0.00000  -0.00003  -0.00003   3.13964
    D9        3.12700   0.00000   0.00000   0.00006   0.00006   3.12706
   D10       -0.00789   0.00000   0.00000   0.00007   0.00007  -0.00781
   D11        0.00788   0.00000   0.00000   0.00004   0.00004   0.00792
   D12       -3.12701   0.00000   0.00000   0.00006   0.00006  -3.12695
   D13       -0.01280   0.00000   0.00000   0.00011   0.00011  -0.01270
   D14        3.12541   0.00001   0.00000   0.00036   0.00036   3.12577
   D15       -3.04731  -0.00000   0.00000  -0.00009  -0.00009  -3.04740
   D16        0.09090   0.00000   0.00000   0.00016   0.00016   0.09106
   D17       -3.13538  -0.00000   0.00000  -0.00003  -0.00003  -3.13541
   D18        0.01090  -0.00001   0.00000  -0.00028  -0.00028   0.01063
   D19        0.00285   0.00000   0.00000   0.00022   0.00022   0.00307
   D20       -3.13405   0.00000   0.00000  -0.00002  -0.00002  -3.13408
   D21       -3.13197   0.00000   0.00000   0.00014   0.00014  -3.13183
   D22        1.03322   0.00000   0.00000   0.00013   0.00013   1.03335
   D23       -1.01523   0.00000   0.00000   0.00014   0.00014  -1.01509
   D24        0.00501   0.00000   0.00000   0.00038   0.00038   0.00539
   D25       -2.11298   0.00000   0.00000   0.00037   0.00037  -2.11261
   D26        2.12175   0.00000   0.00000   0.00038   0.00038   2.12213
   D27        3.14106  -0.00000   0.00000  -0.00004  -0.00004   3.14102
   D28        1.01859  -0.00000   0.00000  -0.00004  -0.00004   1.01855
   D29       -1.01925   0.00000   0.00000  -0.00002  -0.00002  -1.01927
   D30       -1.03213  -0.00000   0.00000  -0.00002  -0.00002  -1.03215
   D31        3.12859  -0.00000   0.00000  -0.00003  -0.00003   3.12857
   D32        1.09075   0.00000   0.00000  -0.00000  -0.00000   1.09075
   D33        1.03231  -0.00000   0.00000  -0.00003  -0.00003   1.03228
   D34       -1.09016  -0.00000   0.00000  -0.00003  -0.00003  -1.09019
   D35       -3.12800   0.00000   0.00000  -0.00001  -0.00001  -3.12801
   D36       -1.04665  -0.00000   0.00000  -0.00015  -0.00015  -1.04680
   D37       -3.14102  -0.00000   0.00000  -0.00016  -0.00016  -3.14118
   D38        1.04755  -0.00000   0.00000  -0.00017  -0.00017   1.04739
   D39        1.06735  -0.00000   0.00000  -0.00015  -0.00015   1.06720
   D40       -1.02703  -0.00000   0.00000  -0.00016  -0.00016  -1.02719
   D41       -3.12164  -0.00000   0.00000  -0.00017  -0.00017  -3.12180
   D42        3.12223  -0.00000   0.00000  -0.00016  -0.00016   3.12206
   D43        1.02785  -0.00000   0.00000  -0.00017  -0.00017   1.02768
   D44       -1.06675  -0.00000   0.00000  -0.00018  -0.00018  -1.06693
   D45       -0.00443   0.00000   0.00000   0.00002   0.00002  -0.00442
   D46        3.14134   0.00000   0.00000   0.00000   0.00000   3.14135
   D47        3.13597  -0.00000   0.00000  -0.00000  -0.00000   3.13596
   D48       -0.00144  -0.00000   0.00000  -0.00002  -0.00002  -0.00146
   D49        0.00701   0.00000   0.00000   0.00002   0.00002   0.00702
   D50       -3.13811   0.00000   0.00000   0.00000   0.00000  -3.13811
   D51       -3.13890   0.00000   0.00000   0.00003   0.00003  -3.13887
   D52       -0.00083   0.00000   0.00000   0.00002   0.00002  -0.00081
   D53       -0.00211  -0.00000   0.00000  -0.00002  -0.00002  -0.00213
   D54        3.13363  -0.00000   0.00000  -0.00001  -0.00001   3.13361
   D55       -3.14023  -0.00000   0.00000  -0.00000  -0.00000  -3.14023
   D56       -0.00450  -0.00000   0.00000   0.00000   0.00000  -0.00449
   D57       -3.13890  -0.00000   0.00000  -0.00001  -0.00001  -3.13891
   D58       -1.04510  -0.00000   0.00000  -0.00002  -0.00002  -1.04513
   D59        1.05064   0.00000   0.00000   0.00001   0.00001   1.05064
   D60       -0.00091  -0.00000   0.00000  -0.00003  -0.00003  -0.00093
   D61        2.09289  -0.00000   0.00000  -0.00004  -0.00004   2.09285
   D62       -2.09456   0.00000   0.00000  -0.00001  -0.00001  -2.09457
   D63       -0.00531  -0.00000   0.00000  -0.00001  -0.00001  -0.00533
   D64        3.12966  -0.00000   0.00000  -0.00003  -0.00003   3.12964
   D65       -3.14109  -0.00000   0.00000  -0.00001  -0.00001  -3.14110
   D66       -0.00611  -0.00000   0.00000  -0.00003  -0.00003  -0.00614
         Item               Value     Threshold  Converged?
 Maximum Force            0.000019     0.000450     YES
 RMS     Force            0.000003     0.000300     YES
 Maximum Displacement     0.000911     0.001800     YES
 RMS     Displacement     0.000271     0.001200     YES
 Predicted change in Energy=-8.465622D-09
 Optimization completed.
    -- Stationary point found.
                           ----------------------------
                           !   Optimized Parameters   !
                           ! (Angstroms and Degrees)  !
 --------------------------                            --------------------------
 ! Name  Definition              Value          Derivative Info.                !
 --------------------------------------------------------------------------------
 ! R1    R(1,2)                  1.391          -DE/DX =    0.0                 !
 ! R2    R(1,9)                  1.4038         -DE/DX =    0.0                 !
 ! R3    R(1,13)                 1.3992         -DE/DX =    0.0                 !
 ! R4    R(2,3)                  1.3846         -DE/DX =    0.0                 !
 ! R5    R(2,14)                 1.0128         -DE/DX =    0.0                 !
 ! R6    R(3,4)                  1.2325         -DE/DX =    0.0                 !
 ! R7    R(3,5)                  1.3473         -DE/DX =    0.0                 !
 ! R8    R(5,6)                  1.4578         -DE/DX =    0.0                 !
 ! R9    R(5,15)                 1.0114         -DE/DX =    0.0                 !
 ! R10   R(6,7)                  1.5194         -DE/DX =    0.0                 !
 ! R11   R(6,16)                 1.0938         -DE/DX =    0.0                 !
 ! R12   R(6,17)                 1.0937         -DE/DX =    0.0                 !
 ! R13   R(7,8)                  1.5236         -DE/DX =    0.0                 !
 ! R14   R(7,18)                 1.0944         -DE/DX =    0.0                 !
 ! R15   R(7,19)                 1.0945         -DE/DX =    0.0                 !
 ! R16   R(8,20)                 1.093          -DE/DX =    0.0                 !
 ! R17   R(8,21)                 1.0915         -DE/DX =    0.0                 !
 ! R18   R(8,22)                 1.093          -DE/DX =    0.0                 !
 ! R19   R(9,10)                 1.3792         -DE/DX =    0.0                 !
 ! R20   R(9,23)                 1.084          -DE/DX =    0.0                 !
 ! R21   R(10,11)                1.3969         -DE/DX =    0.0                 !
 ! R22   R(10,24)                1.7449         -DE/DX =    0.0                 !
 ! R23   R(11,12)                1.3907         -DE/DX =    0.0                 !
 ! R24   R(11,25)                1.4967         -DE/DX =    0.0                 !
 ! R25   R(12,13)                1.3872         -DE/DX =    0.0                 !
 ! R26   R(12,26)                1.0828         -DE/DX =    0.0                 !
 ! R27   R(13,27)                1.0776         -DE/DX =    0.0                 !
 ! R28   R(25,28)                1.3397         -DE/DX =    0.0                 !
 ! R29   R(25,29)                1.3465         -DE/DX =    0.0                 !
 ! R30   R(25,30)                1.3466         -DE/DX =    0.0                 !
 ! A1    A(2,1,9)              116.302          -DE/DX =    0.0                 !
 ! A2    A(2,1,13)             124.6202         -DE/DX =    0.0                 !
 ! A3    A(9,1,13)             119.0662         -DE/DX =    0.0                 !
 ! A4    A(1,2,3)              127.9227         -DE/DX =    0.0                 !
 ! A5    A(1,2,14)             115.3263         -DE/DX =    0.0                 !
 ! A6    A(3,2,14)             116.4943         -DE/DX =    0.0                 !
 ! A7    A(2,3,4)              123.1029         -DE/DX =    0.0                 !
 ! A8    A(2,3,5)              114.3436         -DE/DX =    0.0                 !
 ! A9    A(4,3,5)              122.5532         -DE/DX =    0.0                 !
 ! A10   A(3,5,6)              121.0264         -DE/DX =    0.0                 !
 ! A11   A(3,5,15)             120.3528         -DE/DX =    0.0                 !
 ! A12   A(6,5,15)             118.6202         -DE/DX =    0.0                 !
 ! A13   A(5,6,7)              110.2794         -DE/DX =    0.0                 !
 ! A14   A(5,6,16)             109.4177         -DE/DX =    0.0                 !
 ! A15   A(5,6,17)             109.3797         -DE/DX =    0.0                 !
 ! A16   A(7,6,16)             110.1851         -DE/DX =    0.0                 !
 ! A17   A(7,6,17)             110.1474         -DE/DX =    0.0                 !
[...]
 00005724,0.00000514,-0.00003520,-0.00001036,-0.00000536,-0.00003489,-0
 .00000807,0.00000318,0.00000036,0.00000383,0.00000198,0.00000025,0.000
 00398,-0.00000214,-0.00000067,-0.00000082,0.00000032,-0.00001076,-0.00
 000145,-0.00000013,-0.00000093,-0.00000101,-0.00000042,0.00129478,0.00
 109769,-0.00073425,0.09201012,0.11786207,-0.00041175,0.00040904,0.0059
 8622,0.00063413,0.00013999,-0.00009559,-0.00042132,-0.00024548,-0.0002
 1975,0.00016058,0.00010700,0.00004321,0.00018884,-0.00004355,-0.000008
 36,-0.00003508,-0.00002726,0.00002163,0.00000663,0.00001513,0.00000161
 ,0.00000224,-0.00000776,0.00000016,0.00447118,0.00312248,0.00320676,0.
 01884300,0.01869168,-0.02794167,0.00738364,0.00540170,0.00146236,-0.00
 082894,0.00193343,0.00370034,0.00028341,0.00009673,-0.00106633,0.00000
 686,0.00004522,0.00005480,-0.00000236,0.00002144,-0.00000433,0.0000144
 3,0.00000206,0.00000129,0.00000875,0.00000276,-0.00000144,-0.00000005,
 -0.00000115,-0.00000058,0.00000030,-0.00000133,0.00000079,0.00000016,0
 .00000033,-0.00000012,0.00000351,0.00000047,-0.00000018,0.00000016,0.0
 0000013,0.00000009,-0.00024509,-0.00059334,-0.00285267,-0.03021739,-0.
 02950445,0.02115933,-0.01313295,0.00335589,0.00058829,0.01660365,-0.00
 302469,-0.00042213,-0.01006641,-0.00565553,0.00089782,0.00190458,0.003
 22478,-0.00018752,0.00361586,-0.00124359,0.00003742,-0.00071252,-0.000
 36602,-0.00000667,0.00009343,0.00026359,-0.00000338,0.00003580,-0.0001
 2359,0.00000359,0.01203559,-0.00180183,0.00033392,0.00186465,0.0232541
 6,-0.00531694,-0.19474993,0.04103574,0.00099367,-0.03247661,0.00209555
 ,0.00221805,0.00479974,-0.00804016,0.00131359,0.00041384,0.00082677,-0
 .00039948,-0.00000796,0.00040384,-0.00002364,0.00026276,0.00004944,0.0
 0003536,0.00026210,0.00003873,-0.00002570,-0.00000633,-0.00002158,-0.0
 0001083,-0.00000438,-0.00002079,0.00001092,0.00000511,0.00000543,-0.00
 000406,0.00006373,0.00000832,0.00000087,0.00000568,0.00000594,0.000004
 04,0.00114028,-0.00069222,0.00014345,-0.00579223,-0.00353719,0.0008947
 8,0.57298821,0.00371861,-0.00498561,0.00044752,-0.00630659,0.00131915,
 -0.00011648,0.00393036,0.00209333,-0.00032861,-0.00091497,-0.00112446,
 0.00002800,-0.00146485,0.00054257,-0.00000356,0.00029685,0.00015332,0.
 00000255,-0.00003820,-0.00010319,0.00000179,-0.00001355,0.00004850,-0.
 00000132,-0.00212305,-0.00478688,0.00213046,0.03048811,-0.01308651,-0.
 00029698,0.04978585,-0.11201138,0.00689936,-0.00702369,0.01824747,-0.0
 0302510,-0.00737956,-0.00039715,0.00232703,-0.00022493,-0.00030122,0.0
 0015473,-0.00000163,-0.00015559,0.00001549,-0.00010389,-0.00002210,-0.
 00001746,-0.00010434,-0.00001711,0.00001173,0.00000256,0.00000834,0.00
 000299,0.00000221,0.00000821,-0.00000336,-0.00000245,-0.00000217,0.000
 00223,-0.00002494,-0.00000376,-0.00000029,-0.00000310,-0.00000245,-0.0
 0000246,0.00089443,0.00006743,0.00014517,0.00075561,0.00003959,-0.0005
 2121,-0.03958150,0.53313340,0.00012001,0.00057022,-0.00116289,0.000013
 25,-0.00009122,-0.00075381,-0.00007436,0.00001055,-0.00006127,0.000142
 57,-0.00003671,-0.00002194,0.00001974,-0.00000460,0.00005784,0.0000015
 1,-0.00000278,0.00002980,-0.00000145,0.00000140,0.00000039,0.00000251,
 -0.00000028,0.00000115,-0.00022281,0.00233467,0.00492230,-0.00681099,0
 .00028736,-0.00307635,-0.00055451,0.00765770,-0.06365025,0.00371668,-0
 .00381724,0.00185158,0.00187581,0.00207385,0.00614781,0.00002728,-0.00
 001074,-0.00000006,-0.00000302,0.00000011,0.00003199,0.00000448,-0.000
 00517,-0.00000473,-0.00000256,0.00000664,-0.00000745,-0.00000076,-0.00
 000283,-0.00000119,-0.00000093,0.00000107,-0.00000107,0.00000162,0.000
 00151,-0.00000117,0.00000054,0.00000018,0.00000037,-0.00000114,-0.0000
 0080,-0.00000089,-0.00019477,0.00027742,0.00098790,0.00002608,-0.00036
 786,-0.00275465,0.00025779,-0.01216544,0.46312958,-0.00475401,0.001786
 30,0.00063275,0.00003670,0.00152385,-0.00033119,0.00054636,0.00027530,
 0.00003595,-0.00011914,-0.00018723,0.00000949,-0.00020376,0.00001961,-
 0.00000381,0.00004023,0.00003609,-0.00000034,-0.00000860,-0.00001555,0
 .00000030,-0.00000220,0.00000798,-0.00000004,-0.00101988,-0.00012996,0
 .00001932,-0.00306067,-0.00144215,0.00099258,0.00762517,-0.02349857,0.
 00486652,-0.06364343,0.03869937,-0.00665156,-0.00018402,0.02832139,-0.
 00599232,-0.00039553,0.00007576,-0.00005243,0.00001151,-0.00003018,-0.
 00000095,-0.00001114,-0.00000443,-0.00000258,-0.00001202,-0.00000438,0
 .00000187,0.00000028,0.00000111,0.00000052,0.00000028,0.00000099,-0.00
 000052,-0.00000031,-0.00000039,0.00000044,-0.00000376,-0.00000074,0.,-
 0.00000034,-0.00000036,-0.00000046,0.00011682,0.00004882,-0.00003294,-
 0.00058779,-0.00168313,0.00040906,-0.00033305,-0.00170363,0.00012845,0
 .06728826,0.00099339,0.00148646,0.00119748,0.00026363,-0.00034882,0.00
 004690,-0.00036957,-0.00020072,0.00002504,0.00006209,0.00012484,0.0000
 0207,0.00014077,-0.00003127,-0.00000362,-0.00002845,-0.00001858,0.0000
 0296,0.00000467,0.00001037,-0.00000002,0.00000099,-0.00000518,0.000000
 17,0.00010736,0.00042930,-0.00036270,-0.00234409,0.00061982,0.00135202
 ,0.00265526,-0.01234519,0.00349272,0.03795870,-0.33533843,0.06176188,-
 0.00011378,-0.00499189,0.00219245,0.00008981,0.00003334,-0.00005305,-0
 .00000424,0.00001559,-0.00000325,0.00000927,0.00000299,0.00000155,0.00
 000929,0.00000210,-0.00000115,-0.00000025,-0.00000103,-0.00000058,-0.0
 0000028,-0.00000084,0.00000047,0.00000027,0.00000046,-0.00000048,0.000
 00258,0.00000024,0.00000004,0.00000017,0.00000042,0.00000040,0.0000235
 6,-0.00006593,-0.00005033,-0.00012928,-0.00061382,0.00020650,0.0008180
 9,-0.00257835,-0.00035600,-0.04286605,0.35131899,0.00084706,0.00088333
 ,0.00715181,-0.00021650,0.00007521,-0.00009675,0.00008913,0.00003803,0
 .00004188,-0.00008901,0.00001303,0.00003193,-0.00003727,0.00002515,-0.
 00002258,0.00000876,0.00000671,0.00001546,-0.00000082,-0.00000278,0.00
 000057,-0.00000042,0.00000136,-0.00000007,0.00001558,-0.00037025,-0.00
 109978,0.00113587,0.00137052,0.00542912,-0.00105064,0.00525183,0.00358
 632,-0.00617669,0.06178662,-0.05235222,0.00014518,0.00021531,0.0049422
 9,-0.00001736,-0.00005689,-0.00023863,-0.00000321,-0.00000460,-0.00001
 441,-0.00000125,0.00000001,-0.00000019,-0.00000338,-0.00000187,0.00000
 031,0.00000007,0.00000020,-0.00000021,0.00000019,0.00000049,-0.0000001
 4,-0.00000007,-0.00000002,0.00000002,-0.00000071,-0.00000014,-0.000000
 02,-0.00000033,-0.00000024,-0.00000027,-0.00003125,-0.00004384,-0.0002
 7243,0.00010233,0.00033430,0.00026103,-0.00038653,-0.00022558,-0.00372
 421,0.00653674,-0.06763866,0.04110836,0.01025115,0.00498973,-0.0017879
 5,-0.00096815,-0.00151884,-0.00001886,0.00012775,0.00234334,-0.0001717
 2,-0.00666433,0.00021691,-0.00072146,-0.00003117,-0.00024804,0.0000776
 6,-0.00007155,-0.00003876,0.00001597,0.00000529,0.00001384,0.00000243,
 0.00000349,-0.00000721,-0.00000035,0.00027119,0.00203330,-0.00011991,-
 0.00003390,0.00058361,-0.00018195,-0.00278389,0.00286901,0.00006516,-0
 .01686680,-0.01616574,0.00518997,-0.23359354,-0.14681630,0.04991659,0.
 00000267,-0.00009962,0.00006776,0.00004056,0.00003580,-0.00002276,0.00
 000347,0.00001014,0.00000715,-0.00000541,0.00000947,-0.00001163,-0.000
 00106,0.00000021,-0.00000131,-0.00000092,0.00000026,0.00000091,0.00000
 049,0.00000047,-0.00000012,0.00000260,0.00000045,0.00000005,0.00000055
 ,0.00000050,-0.00000010,0.00040890,0.00041842,-0.00008523,0.00019778,0
 .00001787,-0.00005785,0.00022858,-0.00104496,0.00020978,0.00125440,-0.
 00013795,-0.00035522,0.24899716,-0.02396016,-0.01246956,0.00556514,0.0
 0018671,0.00192292,-0.00103003,0.00031008,-0.00380574,0.00013021,-0.00
 172352,0.00234689,-0.00044477,-0.00032593,0.00090106,0.00008755,0.0001
 6975,0.00009604,0.00003086,-0.00000432,-0.00002663,0.00000149,-0.00000
 270,0.00001566,-0.00000145,0.00198235,-0.00431136,0.00213878,0.0011456
 9,-0.00094192,-0.00003463,0.00337872,0.00038309,0.00118376,0.01179239,
 0.01177742,-0.00289635,-0.14372366,-0.17423168,0.04311371,-0.00003119,
 -0.00003923,-0.00010300,-0.00008395,0.00002972,0.00003677,-0.00000994,
 -0.00002619,-0.00000797,-0.00003489,-0.00000735,-0.00000704,-0.0000047
 9,0.00000542,0.00000021,-0.00000355,0.00000706,-0.00000177,-0.00000061
 ,-0.00000126,0.00000086,-0.00001027,-0.00000143,-0.00000051,-0.0000018
 4,-0.00000173,-0.00000102,-0.00112974,-0.00056515,0.00011787,-0.000145
 61,0.00009151,-0.00014905,0.00008891,0.00078007,-0.00007131,-0.0005773
 8,0.00050965,-0.00111434,0.15224143,0.17777912,0.00438165,0.00304863,0
 .00306317,-0.00070304,-0.00085754,-0.00325353,0.00010772,0.00178470,-0
 .00056774,0.00067485,-0.00084958,0.00064742,-0.00002861,-0.00026390,0.
 00024917,-0.00003491,-0.00002283,0.00009069,-0.00000475,0.00000428,-0.
 00000043,0.00000164,-0.00000527,0.00000048,0.00004352,0.00209115,0.005
 74296,-0.00036987,-0.00000080,-0.00072535,0.00010670,0.00107364,0.0066
 9457,-0.00087851,-0.00024973,0.00311665,0.04886860,0.04204315,-0.04946
 680,0.00002752,-0.00002417,-0.00024108,0.00002444,-0.00001980,0.000054
 69,0.00003300,-0.00001599,-0.00001796,-0.00002527,0.00002270,-0.000016
 74,0.00000097,-0.00000509,-0.00000092,0.00000252,-0.00000040,-0.000001
 03,0.00000177,0.00000147,-0.00000028,0.00000248,0.00000049,-0.00000089
 ,-0.00000070,0.00000012,-0.00000070,0.00019174,0.00003074,-0.00025313,
 -0.00003027,-0.00015176,-0.00061727,-0.00004361,0.00004470,0.00038410,
 -0.00035787,-0.00112681,-0.00442900,-0.05202611,-0.04662773,0.03925057
 ,0.00136856,-0.00014470,-0.00012464,-0.00192393,0.00039626,0.00003576,
 0.00128199,0.00067741,-0.00008107,-0.00031694,-0.00038895,0.00000237,-
 0.00048375,0.00016088,-0.00000750,0.00009762,0.00005856,-0.00000097,-0
 .00001325,-0.00003566,-0.00000130,-0.00000462,0.00001648,0.00000028,-0
 .00081483,0.00205745,-0.00043231,-0.00638608,-0.00228222,0.00112067,0.
 00113327,0.03674571,-0.00736732,-0.00325038,0.00070076,-0.00026119,0.0
 0030884,0.00142519,-0.00021542,-0.00006924,-0.00010635,0.00002875,0.00
 000231,-0.00005206,0.00000269,-0.00003289,-0.00000785,-0.00000501,-0.0
 0003365,-0.00000602,0.00000334,0.00000092,0.00000270,0.00000145,0.0000
 0034,0.00000298,-0.00000141,-0.00000069,-0.00000079,0.00000058,-0.0000
 0874,-0.00000111,-0.00000009,-0.00000074,-0.00000089,-0.00000062,-0.00
 051996,0.00014772,-0.00001605,0.00077637,0.00013577,-0.00006411,-0.079
 46217,0.01767673,-0.00302590,-0.00340019,0.00313924,-0.00043550,-0.000
 01674,-0.00000991,0.00001429,0.08730250,-0.00279052,0.00097526,0.00014
 504,0.00335624,-0.00042624,-0.00010632,-0.00205093,-0.00117682,0.00017
 913,0.00043250,0.00067070,-0.00003142,0.00076320,-0.00024870,0.0000118
 8,-0.00015066,-0.00008425,-0.00000291,0.00002120,0.00005423,-0.0000005
 2,0.00000736,-0.00002567,0.00000099,0.00111351,-0.00224640,0.00034262,
 0.00691658,0.00419902,-0.00088641,0.00451024,-0.04010761,0.00985555,-0
 .00518500,-0.00243713,0.00111721,0.00123327,-0.00034324,-0.00021371,0.
 00003602,0.00017206,-0.00007049,-0.00000298,0.00008144,-0.00000665,0.0
 0005480,0.00001115,0.00000855,0.00005359,0.00000891,-0.00000648,-0.000
 00159,-0.00000437,-0.00000166,-0.00000106,-0.00000415,0.00000162,0.000
 00135,0.00000110,-0.00000129,0.00001316,0.00000204,0.00000018,0.000001
 48,0.00000114,0.00000124,0.00071544,-0.00019876,-0.00007201,-0.0002361
 4,-0.00026226,0.00009165,0.03105877,-0.25561129,0.03797957,0.00092264,
 0.00162022,-0.00036617,0.00012414,-0.00006412,-0.00000054,0.01017007,0
 .39098497,0.00050534,-0.00018837,0.00007289,-0.00058887,0.00004762,0.0
 0001502,0.00034929,0.00021730,0.00001874,-0.00006942,-0.00011158,-0.00
 000191,-0.00013220,0.00004039,-0.00000312,0.00002475,0.00001075,-0.000
 00454,-0.00000364,-0.00000950,-0.00000192,-0.00000139,0.00000514,0.000
 00025,-0.00018194,0.00024124,-0.00045052,-0.00086735,-0.00029414,0.002
 10020,-0.00043695,0.00755536,0.00649256,0.00117606,0.00054971,-0.00034
 307,-0.00029743,-0.00002367,0.00004357,-0.00000116,-0.00002879,-0.0000
 1568,0.00000071,-0.00001452,-0.00000068,-0.00000960,-0.00000096,-0.000
 00122,-0.00000966,-0.00000209,0.00000147,0.00000061,0.00000092,0.00000
 050,-0.00000012,0.00000068,-0.00000016,-0.00000037,-0.00000032,0.00000
 029,-0.00000225,-0.00000030,-0.00000010,-0.00000006,-0.00000008,-0.000
 00004,-0.00013513,-0.00003459,-0.00027182,0.00001035,0.00010624,0.0002
 3317,-0.00596133,0.03903503,-0.07486343,-0.00002749,-0.00053932,0.0000
 4550,-0.00002327,0.00002094,0.00003461,-0.00224834,-0.06729104,0.09498
 687,0.00404458,-0.00235126,-0.00011614,-0.00565031,0.00117470,-0.00011
 033,0.00347276,0.00188757,-0.00033304,-0.00068432,-0.00106489,0.000036
 16,-0.00126373,0.00045661,0.00001299,0.00025174,0.00012823,0.00001387,
 -0.00003253,-0.00009147,0.00000168,-0.00001217,0.00004219,-0.00000245,
 -0.00282752,0.00004766,0.00116130,-0.00061430,-0.00651937,0.00154694,-
 0.03507039,-0.01673185,-0.03265456,0.00107303,0.00518688,-0.00369958,-
 0.00273349,0.00218678,0.00204813,-0.00016798,-0.00027799,0.00011825,0.
 00000017,-0.00014038,0.00001438,-0.00008834,-0.00001964,-0.00001401,-0
 .00009406,-0.00001215,0.00000734,0.00000184,0.00000796,0.00000374,0.00
 000247,0.00000676,-0.00000370,-0.00000180,-0.00000206,0.00000137,-0.00
 002229,-0.00000287,-0.00000037,-0.00000181,-0.00000204,-0.00000124,-0.
 00017631,0.00019829,0.00007389,0.00158689,0.00195415,-0.00122015,-0.15
 235841,-0.03887331,-0.07781271,0.00037004,-0.00033347,-0.00093815,-0.0
 0038778,0.00032356,0.00028300,0.00016432,-0.03119338,-0.00828735,0.173
 32456,0.00045127,0.00040639,-0.00004698,-0.00027922,0.00006782,0.00000
 062,0.00013560,0.00007060,-0.00004236,-0.00001712,-0.00004704,0.000010
 72,-0.00003721,0.00001381,-0.00000583,0.00000560,-0.00000045,0.0000040
 3,-0.00000031,-0.00000324,-0.00000016,-0.00000070,0.00000151,-0.000000
 51,-0.00060446,0.00057517,0.00012261,-0.00244947,-0.00186558,-0.000035
 57,0.00092091,0.01052900,-0.00055074,0.00039000,-0.00058455,0.00069996
 ,0.00039491,0.00030454,-0.00022553,-0.00000697,-0.00001551,0.00001399,
 0.00000004,-0.00000564,-0.00000125,-0.00000302,0.00000013,0.00000043,-
 0.00000379,-0.00000018,-0.00000020,0.00000029,0.00000037,0.00000063,-0
 .00000055,0.00000064,-0.00000050,-0.00000002,-0.00000022,-0.00000004,-
 0.00000088,-0.00000002,-0.00000010,0.00000019,-0.00000005,0.00000023,-
 0.00011898,0.00006213,0.00003831,0.00269010,-0.00248916,0.00210534,-0.
 04129933,-0.09210702,-0.04331846,0.00027357,0.00019912,-0.00010263,0.0
 0002627,-0.00005984,-0.00006642,-0.04182651,-0.06607207,-0.03580011,0.
 08206673,0.14343030,0.00152617,-0.00078396,-0.00012875,-0.00197338,0.0
 0042247,0.00001276,0.00124592,0.00064818,-0.00008227,-0.00029943,-0.00
 035351,0.00000388,-0.00046650,0.00017174,-0.00000226,0.00009018,0.0000
 4763,-0.00000440,-0.00001200,-0.00003348,-0.00000122,-0.00000533,0.000
 01676,-0.00000038,-0.00112151,0.00013574,0.00016277,0.00060654,-0.0024
 0929,0.00132451,-0.01488952,-0.00883242,-0.00330592,-0.00108310,0.0028
 8448,-0.00183721,-0.00119268,0.00004313,0.00066005,-0.00006036,-0.0000
 9647,0.00003022,-0.00000028,-0.00005179,0.00000339,-0.00003190,-0.0000
 0670,-0.00000452,-0.00003394,-0.00000533,0.00000300,0.00000078,0.00000
 334,0.00000197,0.00000014,0.00000221,-0.00000113,-0.00000090,-0.000000
 97,0.00000060,-0.00000824,-0.00000108,-0.00000023,-0.00000056,-0.00000
 039,-0.00000020,-0.00007784,0.00006413,-0.00002628,-0.00022899,0.00215
 249,-0.00104477,-0.08053180,-0.03920987,-0.13990032,0.00020799,0.00003
 296,-0.00016325,-0.00022827,0.00021691,0.00012627,-0.00668291,-0.02534
 758,0.00629875,0.12084846,0.09531813,0.22537156,0.00385520,-0.00215511
 ,0.00030504,-0.00526331,0.00110924,0.00026296,0.00323698,0.00173772,-0
 .00028519,-0.00071917,-0.00097177,0.00005654,-0.00116810,0.00041438,-0
 .00003145,0.00023203,0.00011773,-0.00000152,-0.00002987,-0.00008542,0.
 00000115,-0.00001185,0.00004029,-0.00000056,-0.00270764,-0.00044991,-0
 .00094560,-0.00066561,-0.00604299,0.00130932,-0.02731652,-0.00021311,0
 .03983138,0.00165210,0.00573421,0.00093175,-0.00296474,0.00138645,-0.0
 0195296,-0.00016078,-0.00025258,0.00014689,0.00000259,-0.00012847,0.00
 000092,-0.00008764,-0.00001425,-0.00001028,-0.00008231,-0.00001444,0.0
 0000985,0.00000263,0.00000687,0.00000346,0.00000103,0.00000748,-0.0000
 0384,-0.00000165,-0.00000173,0.00000120,-0.00002080,-0.00000272,-0.000
 00025,-0.00000200,-0.00000213,-0.00000139,-0.00017785,0.00013714,-0.00
 011746,0.00160143,0.00194678,0.00019242,-0.12722065,-0.00061821,0.0821
 5781,0.00044979,0.00004827,0.00086338,-0.00037076,0.00016437,-0.000262
 91,0.00430176,-0.01989330,0.01721819,0.01789511,-0.00070693,-0.0155967
 5,0.13574061,-0.00037408,0.00073041,-0.00025572,0.00071868,-0.00013408
 ,0.00000520,-0.00047994,-0.00024057,0.00005003,0.00015422,0.00012275,-
 0.00000647,0.00018988,-0.00006803,0.00000936,-0.00003903,-0.00002441,0
 .00000114,0.00000520,0.00001365,-0.00000047,0.00000200,-0.00000666,0.0
 0000010,-0.00002455,0.00042995,-0.00016584,-0.00231719,-0.00012377,0.0
 0113890,0.00731944,0.01154285,-0.00826012,0.00054417,-0.00235431,-0.00
 069067,0.00102687,0.00032058,0.00021073,0.00002405,0.00003216,-0.00002
 216,-0.00000040,0.00001827,-0.00000005,0.00001338,0.00000259,0.0000020
 2,0.00001214,0.00000346,-0.00000215,-0.00000035,-0.00000101,-0.0000003
 0,0.00000030,-0.00000132,0.00000033,0.00000035,0.00000033,-0.00000039,
 0.00000329,0.00000051,0.00000003,0.00000035,0.00000033,0.00000029,-0.0
 0007617,0.00000282,-0.00004072,0.00213043,-0.00376005,-0.00129848,-0.0
 0112595,-0.06914513,0.00904918,0.00015134,0.00016615,-0.00007409,0.000
 14228,-0.00009241,0.00014261,-0.02865087,-0.02946916,0.05650809,0.0019
 4805,0.00758905,-0.02502747,0.01870210,0.08444506,-0.00214644,0.000810
 01,-0.00007696,0.00266200,-0.00056376,-0.00009185,-0.00165585,-0.00085
 984,0.00013078,0.00040660,0.00047819,-0.00000964,0.00060430,-0.0002173
 4,0.00001895,-0.00011862,-0.00006222,-0.00000372,0.00001549,0.00004361
 ,-0.00000166,0.00000627,-0.00002084,0.00000051,0.00167466,-0.00019117,
 0.00040503,0.00068446,0.00399409,-0.00042217,0.01660008,0.00191450,-0.
 01223842,0.00045794,-0.00361479,-0.00044780,0.00141597,-0.00020632,0.0
 0050984,0.00008239,0.00012669,-0.00007419,-0.00000110,0.00006679,-0.00
 000573,0.00004566,0.00000808,0.00000539,0.00004212,0.00000694,-0.00000
 399,-0.00000082,-0.00000314,-0.00000144,-0.00000044,-0.00000447,0.0000
 0251,0.00000055,0.00000056,-0.00000035,0.00001069,0.00000137,0.,0.0000
 0131,0.00000139,0.00000095,0.00014463,-0.00010153,0.00002481,-0.001096
 71,-0.00122143,0.00047492,0.08559004,0.00466895,-0.18755914,-0.0003874
 8,-0.00017964,-0.00020042,0.00026062,-0.00015409,0.00013747,0.01976149
 ,0.04466996,-0.03438618,-0.00097773,-0.01811762,-0.08749661,-0.1240821
 0,-0.03127293,0.32130910\\0.00000529,-0.00000594,0.00000786,-0.0000232
 5,-0.00000945,-0.00000754,0.00002387,0.00002845,-0.00001339,-0.0000040
 1,-0.00001902,0.00000119,-0.00000823,-0.00000205,0.00002218,0.00000489
 ,0.00000607,-0.00000511,-0.00000619,-0.00000619,-0.00000003,0.00000673
 ,0.00000586,0.00000020,0.00000412,-0.00000106,0.00000216,0.00000375,0.
 00001480,-0.00000282,-0.00001436,-0.00000846,0.00000393,0.00000600,0.0
 0000337,-0.00000119,-0.00000103,-0.00000086,-0.00000009,-0.00000025,0.
 00000121,0.00000472,0.00000060,-0.00000158,-0.00000981,-0.00000085,0.0
 0000079,-0.00000404,0.00000032,-0.00000381,-0.00000302,0.00000098,0.00
 000036,0.00000058,0.00000160,0.00000390,0.00000057,-0.00000112,-0.0000
 0137,-0.00000224,-0.00000065,-0.00000062,-0.00000316,-0.00000031,-0.00
 000177,-0.00000256,-0.00000063,0.00000107,0.00000339,-0.00000248,-0.00
 000225,0.00000507,0.00001354,-0.00000414,0.00000038,0.00000085,-0.0000
 0129,-0.00000144,-0.00000299,0.00000323,0.00000030,-0.00000074,0.00000
 426,-0.00000152,-0.00000349,-0.00000229,0.00000308,-0.00000195,-0.0000
 0125,0.00000235\\\@


 A DANDELION FROM A LOVER MEANS MORE THAN AN ORCHID FROM A FRIEND.
 Job cpu time:       0 days  4 hours 29 minutes 53.8 seconds.
 File lengths (MBytes):  RWF=    686 Int=      0 D2E=      0 Chk=     23 Scr=      1
 Normal termination of Gaussian 09 at Thu Nov 14 10:37:50 2019.
pbs_rusage has been removed.
Please contact help@nci.org.au if you require this functionality.
