 Entering Gaussian System, Link 0=/apps/gaussian/g16c01/g16/g16
 Initial command:
 /apps/gaussian/g16c01/g16/l1.exe "/jobfs/11098534.gadi-pbs/Gau-855787.inp" -scrdir="/jobfs/11098534.gadi-pbs/"
 Entering Link 1 = /apps/gaussian/g16c01/g16/l1.exe PID=    855788.
  
 Copyright (c) 1988-2019, Gaussian, Inc.  All Rights Reserved.
  
 This is part of the Gaussian(R) 16 program.  It is based on
 the Gaussian(R) 09 system (copyright 2009, Gaussian, Inc.),
 the Gaussian(R) 03 system (copyright 2003, Gaussian, Inc.),
 the Gaussian(R) 98 system (copyright 1998, Gaussian, Inc.),
 the Gaussian(R) 94 system (copyright 1995, Gaussian, Inc.),
 the Gaussian 92(TM) system (copyright 1992, Gaussian, Inc.),
 the Gaussian 90(TM) system (copyright 1990, Gaussian, Inc.),
 the Gaussian 88(TM) system (copyright 1988, Gaussian, Inc.),
 the Gaussian 86(TM) system (copyright 1986, Carnegie Mellon
 University), and the Gaussian 82(TM) system (copyright 1983,
 Carnegie Mellon University). Gaussian is a federally registered
 trademark of Gaussian, Inc.
  
 This software contains proprietary and confidential information,
 including trade secrets, belonging to Gaussian, Inc.
  
 This software is provided under written license and may be
 used, copied, transmitted, or stored only in accord with that
 written license.
  
 The following legend is applicable only to US Government
 contracts under FAR:
  
                    RESTRICTED RIGHTS LEGEND
  
 Use, reproduction and disclosure by the US Government is
 subject to restrictions as set forth in subparagraphs (a)
 and (c) of the Commercial Computer Software - Restricted
 Rights clause in FAR 52.227-19.
  
 Gaussian, Inc.
 340 Quinnipiac St., Bldg. 40, Wallingford CT 06492
  
  
 ---------------------------------------------------------------
 Warning -- This program may not be used in any manner that
 competes with the business of Gaussian, Inc. or will provide
 assistance to any competitor of Gaussian, Inc.  The licensee
 of this program is prohibited from giving any competitor of
 Gaussian, Inc. access to this program.  By using this program,
 the user acknowledges that Gaussian, Inc. is engaged in the
 business of creating and licensing software in the field of
 computational chemistry and represents and warrants to the
 licensee that it is not a competitor of Gaussian, Inc. and that
 it will not use this program in any manner prohibited above.
 ---------------------------------------------------------------
  

 Cite this work as:
 Gaussian 16, Revision C.01,
 M. J. Frisch, G. W. Trucks, H. B. Schlegel, G. E. Scuseria, 
 M. A. Robb, J. R. Cheeseman, G. Scalmani, V. Barone, 
 G. A. Petersson, H. Nakatsuji, X. Li, M. Caricato, A. V. Marenich, 
 J. Bloino, B. G. Janesko, R. Gomperts, B. Mennucci, H. P. Hratchian, 
 J. V. Ortiz, A. F. Izmaylov, J. L. Sonnenberg, D. Williams-Young, 
 F. Ding, F. Lipparini, F. Egidi, J. Goings, B. Peng, A. Petrone, 
 T. Henderson, D. Ranasinghe, V. G. Zakrzewski, J. Gao, N. Rega, 
 G. Zheng, W. Liang, M. Hada, M. Ehara, K. Toyota, R. Fukuda, 
 J. Hasegawa, M. Ishida, T. Nakajima, Y. Honda, O. Kitao, H. Nakai, 
 T. Vreven, K. Throssell, J. A. Montgomery, Jr., J. E. Peralta, 
 F. Ogliaro, M. J. Bearpark, J. J. Heyd, E. N. Brothers, K. N. Kudin, 
 V. N. Staroverov, T. A. Keith, R. Kobayashi, J. Normand, 
 K. Raghavachari, A. P. Rendell, J. C. Burant, S. S. Iyengar, 
 J. Tomasi, M. Cossi, J. M. Millam, M. Klene, C. Adamo, R. Cammi, 
 J. W. Ochterski, R. L. Martin, K. Morokuma, O. Farkas, 
 J. B. Foresman, and D. J. Fox, Gaussian, Inc., Wallingford CT, 2019.
 
 ******************************************
 Gaussian 16:  ES64L-G16RevC.01  3-Jul-2019
                10-Sep-2020 
 ******************************************
 %NprocShared=6
 Will use up to    6 processors via shared memory.
 %Mem=192000MB
 %chk=carboxy.DSDPBEP86_AUG-cc-PVTZ.chk
 ---------------------------------------------------------------------
 # DSDPBEP86/AUG-cc-PVTZ SCF=Tight INT(grid=ultrafine) MaxDisk=60000MB
 ---------------------------------------------------------------------
 1/38=1,172=1/1;
 2/12=2,17=6,18=5,40=1/2;
 3/5=16,6=1,7=10,11=9,25=1,30=1,74=-77,75=-5/1,2,3;
 4//1;
 5/5=2,32=2,38=5/2;
 8/10=1/1;
 9/16=-3/6;
 6/7=2,8=2,9=2,10=2/1;
 99/5=1,9=1/99;
 -----------------------------
 carboxy.DSDPBEP86_AUG-cc-PVTZ
 -----------------------------
 Symbolic Z-matrix:
 Charge = -1 Multiplicity = 1
 C                    -1.34989   0.46407  -0.02482 
 C                    -1.55571  -1.08394   0.04814 
 C                    -0.26867  -1.89869   0.00431 
 O                    -0.17007   0.8636   -0.11021 
 O                    -2.40688   1.1287    0.0115 
 H                    -2.22154  -1.36082  -0.77691 
 H                    -2.11893  -1.29239   0.96467 
 H                     0.28553  -1.68854  -0.91279 
 H                    -0.46134  -2.97751   0.05796 
 H                     0.38822  -1.62016   0.83092 
 
                          Input orientation:                          
 ---------------------------------------------------------------------
 Center     Atomic      Atomic             Coordinates (Angstroms)
 Number     Number       Type             X           Y           Z
 ---------------------------------------------------------------------
      1          6           0       -1.349894    0.464073   -0.024818
      2          6           0       -1.555706   -1.083944    0.048137
      3          6           0       -0.268674   -1.898689    0.004305
      4          8           0       -0.170067    0.863596   -0.110207
      5          8           0       -2.406882    1.128697    0.011501
      6          1           0       -2.221537   -1.360821   -0.776913
      7          1           0       -2.118926   -1.292394    0.964665
      8          1           0        0.285534   -1.688540   -0.912789
      9          1           0       -0.461344   -2.977515    0.057960
     10          1           0        0.388216   -1.620162    0.830919
 ---------------------------------------------------------------------
                    Distance matrix (angstroms):
                    1          2          3          4          5
     1  C    0.000000
     2  C    1.563341   0.000000
     3  C    2.598563   1.523871   0.000000
     4  O    1.248559   2.395408   2.766416   0.000000
     5  O    1.249107   2.370996   3.706353   2.255755   0.000000
     6  H    2.157695   1.095764   2.171008   3.098557   2.617948
     7  H    2.157699   1.095761   2.171017   3.098660   2.617847
     8  H    2.845498   2.163118   1.091957   2.713873   4.005027
     9  H    3.555404   2.187084   1.097208   3.855808   4.544035
    10  H    2.845584   2.163126   1.091959   2.714121   4.005027
                    6          7          8          9         10
     6  H    0.000000
     7  H    1.745940   0.000000
     8  H    2.532048   3.076230   0.000000
     9  H    2.531598   2.531664   1.778099   0.000000
    10  H    3.076230   2.532011   1.748066   1.778096   0.000000
 Stoichiometry    C3H5O2(1-)
 Framework group  C1[X(C3H5O2)]
 Deg. of freedom    24
 Full point group                 C1      NOp   1
 Largest Abelian subgroup         C1      NOp   1
 Largest concise Abelian subgroup C1      NOp   1
                         Standard orientation:                         
 ---------------------------------------------------------------------
 Center     Atomic      Atomic             Coordinates (Angstroms)
 Number     Number       Type             X           Y           Z
 ---------------------------------------------------------------------
      1          6           0       -0.706074    0.069975   -0.000002
      2          6           0        0.620613   -0.757030   -0.000065
      3          6           0        1.892459    0.082369    0.000049
      4          8           0       -0.585320    1.312681   -0.000030
      5          8           0       -1.746492   -0.621255    0.000050
      6          1           0        0.589250   -1.418466   -0.873115
      7          1           0        0.589212   -1.418673    0.872825
      8          1           0        1.918595    0.736552   -0.873868
      9          1           0        2.796797   -0.538950   -0.000089
     10          1           0        1.918656    0.736242    0.874198
 ---------------------------------------------------------------------
 Rotational constants (GHZ):          10.2683168           4.0073865           2.9872729
 Standard basis: Aug-CC-pVTZ (5D, 7F)
 There are   400 symmetry adapted cartesian basis functions of A   symmetry.
 There are   345 symmetry adapted basis functions of A   symmetry.
   345 basis functions,   495 primitive gaussians,   400 cartesian basis functions
    20 alpha electrons       20 beta electrons
       nuclear repulsion energy       168.5578283431 Hartrees.
 NAtoms=   10 NActive=   10 NUniq=   10 SFac= 1.00D+00 NAtFMM=   60 NAOKFM=F Big=F
 Integral buffers will be    131072 words long.
 Regular integral format.
 Two-electron integral symmetry is turned on.
 Nuclear repulsion after empirical dispersion term =      168.5534532858 Hartrees.
 One-electron integrals computed using PRISM.
 NBasis=   345 RedAO= T EigKep=  2.10D-05  NBF=   345
 NBsUse=   345 1.00D-06 EigRej= -1.00D+00 NBFU=   345
 ExpMin= 2.53D-02 ExpMax= 1.53D+04 ExpMxC= 5.22D+02 IAcc=3 IRadAn=         5 AccDes= 0.00D+00
 Harris functional with IExCor= 1004 and IRadAn=       5 diagonalized for initial guess.
 HarFok:  IExCor= 1004 AccDes= 0.00D+00 IRadAn=         5 IDoV= 1 UseB2=F ITyADJ=14
 ICtDFT=  3500011 ScaDFX=  1.000000  1.000000  1.000000  1.000000
 FoFCou: FMM=F IPFlag=           0 FMFlag=      100000 FMFlg1=           0
         NFxFlg=           0 DoJE=T BraDBF=F KetDBF=T FulRan=T
         wScrn=  0.000000 ICntrl=       500 IOpCl=  0 I1Cent=   200000004 NGrid=           0
         NMat0=    1 NMatS0=      1 NMatT0=    0 NMatD0=    1 NMtDS0=    0 NMtDT0=    0
 Petite list used in FoFCou.
 Keep R1 ints in memory in canonical form, NReq=1813421741.
 Requested convergence on RMS density matrix=1.00D-08 within 128 cycles.
 Requested convergence on MAX density matrix=1.00D-06.
 Requested convergence on             energy=1.00D-06.
 No special actions if energy rises.
 SCF Done:  E(RDSDPBEP86) =  -266.986877322     A.U. after   12 cycles
            NFock= 12  Conv=0.37D-08     -V/T= 2.0034
 DoSCS=T DFT=T ScalE2(SS,OS)=  0.220000  0.520000
 ExpMin= 2.53D-02 ExpMax= 1.53D+04 ExpMxC= 5.22D+02 IAcc=3 IRadAn=         5 AccDes= 0.00D+00
 HarFok:  IExCor=  205 AccDes= 0.00D+00 IRadAn=         5 IDoV=-2 UseB2=F ITyADJ=14
 ICtDFT= 12500011 ScaDFX=  1.000000  1.000000  1.000000  1.000000
 Range of M.O.s used for correlation:     6   345
 NBasis=   345 NAE=    20 NBE=    20 NFC=     5 NFV=     0
 NROrb=    340 NOA=    15 NOB=    15 NVA=   325 NVB=   325

 **** Warning!!: The largest alpha MO coefficient is  0.44653641D+02

 DoSCS=T DFT=T ScalE2(SS,OS)=  0.220000  0.520000
 Fully direct method using O(OVN) memory.
 JobTyp=1 Pass  1:  I=   1 to  15 NPSUse=  6 ParTrn=T ParDer=T DoDerP=F.
 Spin components of T(2) and E(2):
     alpha-alpha T2 =       0.5060453910D-01 E2=     -0.3162775565D-01
     alpha-beta  T2 =       0.2776410623D+00 E2=     -0.4432531775D+00
     beta-beta   T2 =       0.5060453910D-01 E2=     -0.3162775565D-01
 E2(DSDPBEP86) =    -0.5065086888D+00 E(DSDPBEP86) =    -0.26749338601045D+03

 **********************************************************************

            Population analysis using the SCF Density.

 **********************************************************************

 Orbital symmetries:
       Occupied  (A) (A) (A) (A) (A) (A) (A) (A) (A) (A) (A) (A)
                 (A) (A) (A) (A) (A) (A) (A) (A)
       Virtual   (A) (A) (A) (A) (A) (A) (A) (A) (A) (A) (A) (A)
                 (A) (A) (A) (A) (A) (A) (A) (A) (A) (A) (A) (A)
                 (A) (A) (A) (A) (A) (A) (A) (A) (A) (A) (A) (A)
                 (A) (A) (A) (A) (A) (A) (A) (A) (A) (A) (A) (A)
                 (A) (A) (A) (A) (A) (A) (A) (A) (A) (A) (A) (A)
                 (A) (A) (A) (A) (A) (A) (A) (A) (A) (A) (A) (A)
                 (A) (A) (A) (A) (A) (A) (A) (A) (A) (A) (A) (A)
                 (A) (A) (A) (A) (A) (A) (A) (A) (A) (A) (A) (A)
                 (A) (A) (A) (A) (A) (A) (A) (A) (A) (A) (A) (A)
                 (A) (A) (A) (A) (A) (A) (A) (A) (A) (A) (A) (A)
                 (A) (A) (A) (A) (A) (A) (A) (A) (A) (A) (A) (A)
                 (A) (A) (A) (A) (A) (A) (A) (A) (A) (A) (A) (A)
                 (A) (A) (A) (A) (A) (A) (A) (A) (A) (A) (A) (A)
                 (A) (A) (A) (A) (A) (A) (A) (A) (A) (A) (A) (A)
                 (A) (A) (A) (A) (A) (A) (A) (A) (A) (A) (A) (A)
                 (A) (A) (A) (A) (A) (A) (A) (A) (A) (A) (A) (A)
                 (A) (A) (A) (A) (A) (A) (A) (A) (A) (A) (A) (A)
                 (A) (A) (A) (A) (A) (A) (A) (A) (A) (A) (A) (A)
                 (A) (A) (A) (A) (A) (A) (A) (A) (A) (A) (A) (A)
                 (A) (A) (A) (A) (A) (A) (A) (A) (A) (A) (A) (A)
                 (A) (A) (A) (A) (A) (A) (A) (A) (A) (A) (A) (A)
                 (A) (A) (A) (A) (A) (A) (A) (A) (A) (A) (A) (A)
                 (A) (A) (A) (A) (A) (A) (A) (A) (A) (A) (A) (A)
                 (A) (A) (A) (A) (A) (A) (A) (A) (A) (A) (A) (A)
                 (A) (A) (A) (A) (A) (A) (A) (A) (A) (A) (A) (A)
                 (A) (A) (A) (A) (A) (A) (A) (A) (A) (A) (A) (A)
                 (A) (A) (A) (A) (A) (A) (A) (A) (A) (A) (A) (A)
                 (A)
 The electronic state is 1-A.
 Alpha  occ. eigenvalues --  -19.74041 -19.73617 -10.71035 -10.65099 -10.64022
 Alpha  occ. eigenvalues --   -1.04023  -0.94447  -0.76594  -0.61321  -0.43722
 Alpha  occ. eigenvalues --   -0.39283  -0.37657  -0.33988  -0.31126  -0.30377
 Alpha  occ. eigenvalues --   -0.28447  -0.25527  -0.14286  -0.14012  -0.13413
 Alpha virt. eigenvalues --    0.11055   0.12928   0.13126   0.13871   0.15253
 Alpha virt. eigenvalues --    0.18434   0.19398   0.20858   0.21033   0.21803
 Alpha virt. eigenvalues --    0.23284   0.23406   0.23556   0.25187   0.25549
 Alpha virt. eigenvalues --    0.28054   0.30054   0.31568   0.32369   0.32993
 Alpha virt. eigenvalues --    0.33140   0.34131   0.36648   0.38392   0.38618
 Alpha virt. eigenvalues --    0.38895   0.38920   0.39763   0.40683   0.41775
 Alpha virt. eigenvalues --    0.43477   0.43812   0.44330   0.45701   0.46644
 Alpha virt. eigenvalues --    0.46713   0.47937   0.48671   0.50226   0.50345
 Alpha virt. eigenvalues --    0.51546   0.52642   0.53005   0.53797   0.55271
 Alpha virt. eigenvalues --    0.55853   0.56412   0.57711   0.58991   0.60791
 Alpha virt. eigenvalues --    0.61189   0.61525   0.62364   0.62382   0.63524
 Alpha virt. eigenvalues --    0.64075   0.67870   0.68898   0.69092   0.69463
 Alpha virt. eigenvalues --    0.74059   0.74387   0.78789   0.79597   0.81344
 Alpha virt. eigenvalues --    0.83039   0.85101   0.85895   0.87006   0.88626
 Alpha virt. eigenvalues --    0.89867   0.91164   0.91497   0.92686   0.93406
 Alpha virt. eigenvalues --    0.95322   0.96607   0.96815   0.97355   0.98866
 Alpha virt. eigenvalues --    0.99666   1.00780   1.02838   1.03316   1.03407
 Alpha virt. eigenvalues --    1.05700   1.06552   1.06736   1.07496   1.09610
 Alpha virt. eigenvalues --    1.11996   1.12891   1.12999   1.13610   1.15193
 Alpha virt. eigenvalues --    1.17576   1.17602   1.19081   1.19408   1.21328
 Alpha virt. eigenvalues --    1.21584   1.22055   1.23817   1.25012   1.25576
 Alpha virt. eigenvalues --    1.27423   1.30140   1.30237   1.30849   1.31903
 Alpha virt. eigenvalues --    1.34415   1.36028   1.37240   1.39402   1.42269
 Alpha virt. eigenvalues --    1.42955   1.46511   1.47961   1.48249   1.49622
 Alpha virt. eigenvalues --    1.52383   1.53333   1.54246   1.55824   1.56133
 Alpha virt. eigenvalues --    1.61181   1.62136   1.63711   1.65152   1.67660
 Alpha virt. eigenvalues --    1.69519   1.71368   1.72983   1.73654   1.75869
 Alpha virt. eigenvalues --    1.76144   1.76434   1.78000   1.80759   1.82535
 Alpha virt. eigenvalues --    1.82561   1.82816   1.83254   1.87697   1.88134
 Alpha virt. eigenvalues --    1.90047   1.91998   1.92142   1.94019   1.97323
 Alpha virt. eigenvalues --    2.00096   2.00909   2.01780   2.03961   2.06365
 Alpha virt. eigenvalues --    2.08699   2.14898   2.16504   2.18711   2.19096
 Alpha virt. eigenvalues --    2.23304   2.25333   2.28137   2.29332   2.31366
 Alpha virt. eigenvalues --    2.33130   2.33322   2.36832   2.38737   2.43680
 Alpha virt. eigenvalues --    2.45001   2.48488   2.49813   2.50846   2.51346
 Alpha virt. eigenvalues --    2.56478   2.60212   2.62876   2.63810   2.67749
 Alpha virt. eigenvalues --    2.71200   2.72754   2.74556   2.76156   2.77725
 Alpha virt. eigenvalues --    2.81154   2.86315   2.89961   2.92492   2.93213
 Alpha virt. eigenvalues --    2.98988   3.04610   3.10081   3.12250   3.15071
 Alpha virt. eigenvalues --    3.17230   3.17467   3.25727   3.27763   3.35920
 Alpha virt. eigenvalues --    3.39444   3.39829   3.42729   3.49569   3.52654
 Alpha virt. eigenvalues --    3.55053   3.57251   3.57868   3.58790   3.62080
 Alpha virt. eigenvalues --    3.68928   3.68987   3.72548   3.73402   3.75109
 Alpha virt. eigenvalues --    3.76777   3.78488   3.80200   3.83150   3.85566
 Alpha virt. eigenvalues --    3.86793   3.87634   3.91198   3.92322   3.96666
 Alpha virt. eigenvalues --    4.00673   4.01706   4.04888   4.05310   4.07432
 Alpha virt. eigenvalues --    4.11407   4.15461   4.18638   4.20122   4.20191
 Alpha virt. eigenvalues --    4.23726   4.23822   4.26952   4.27075   4.30786
 Alpha virt. eigenvalues --    4.31140   4.34807   4.43042   4.46878   4.49168
 Alpha virt. eigenvalues --    4.52021   4.56523   4.57459   4.62618   4.63176
 Alpha virt. eigenvalues --    4.69500   4.71983   4.76183   4.78829   4.83958
 Alpha virt. eigenvalues --    4.85493   4.86160   4.89485   4.90180   4.94829
 Alpha virt. eigenvalues --    5.02681   5.05108   5.06524   5.09600   5.12327
 Alpha virt. eigenvalues --    5.14436   5.14652   5.20759   5.23464   5.31085
 Alpha virt. eigenvalues --    5.32087   5.34043   5.37066   5.41967   5.45314
 Alpha virt. eigenvalues --    5.48992   5.51671   5.60420   5.61030   5.64644
 Alpha virt. eigenvalues --    5.70740   5.77131   5.85902   5.90947   5.99528
 Alpha virt. eigenvalues --    6.01172   6.08898   6.14361   6.17467   6.22424
 Alpha virt. eigenvalues --    6.27524   6.39446   6.45574   6.70543   6.74376
 Alpha virt. eigenvalues --    6.74831   6.75750   6.78314   6.86125   6.86352
 Alpha virt. eigenvalues --    6.96527   6.98122   7.00791   7.09171   7.12376
 Alpha virt. eigenvalues --    7.21275   7.26908   7.32400   7.39056   7.39857
 Alpha virt. eigenvalues --    7.41847   7.53465   7.61239   7.67299   7.72809
 Alpha virt. eigenvalues --    7.73455   7.86465   7.91711   7.97855   8.05945
 Alpha virt. eigenvalues --   14.37745  15.27200  16.78593  17.99244  18.92896
          Condensed to atoms (all electrons):
               1          2          3          4          5          6
     1  C    4.704201   0.134894   0.014504   0.374086   0.386195  -0.010006
     2  C    0.134894   5.325743   0.128182  -0.094299  -0.111936   0.428447
     3  C    0.014504   0.128182   5.554284  -0.014492  -0.012410  -0.027419
     4  O    0.374086  -0.094299  -0.014492   8.654270  -0.156584  -0.004468
     5  O    0.386195  -0.111936  -0.012410  -0.156584   8.658735   0.017602
     6  H   -0.010006   0.428447  -0.027419  -0.004468   0.017602   0.387671
     7  H   -0.009997   0.428441  -0.027427  -0.004478   0.017599   0.009032
     8  H   -0.011655   0.012273   0.381916   0.014266   0.001872  -0.003719
     9  H    0.007286  -0.049121   0.454430  -0.008434  -0.003257  -0.005757
    10  H   -0.011656   0.012261   0.381933   0.014286   0.001872   0.000814
               7          8          9         10
     1  C   -0.009997  -0.011655   0.007286  -0.011656
     2  C    0.428441   0.012273  -0.049121   0.012261
     3  C   -0.027427   0.381916   0.454430   0.381933
     4  O   -0.004478   0.014266  -0.008434   0.014286
     5  O    0.017599   0.001872  -0.003257   0.001872
     6  H    0.009032  -0.003719  -0.005757   0.000814
     7  H    0.387676   0.000814  -0.005754  -0.003726
     8  H    0.000814   0.321301  -0.000266   0.013277
     9  H   -0.005754  -0.000266   0.366501  -0.000267
    10  H   -0.003726   0.013277  -0.000267   0.321311
 Mulliken charges:
               1
     1  C    0.422147
     2  C   -0.214884
     3  C   -0.833501
     4  O   -0.774154
     5  O   -0.799687
     6  H    0.207804
     7  H    0.207821
     8  H    0.269922
     9  H    0.244638
    10  H    0.269894
 Sum of Mulliken charges =  -1.00000
 Mulliken charges with hydrogens summed into heavy atoms:
               1
     1  C    0.422147
     2  C    0.200740
     3  C   -0.049047
     4  O   -0.774154
     5  O   -0.799687
 Electronic spatial extent (au):  <R**2>=            442.2736
 Charge=             -1.0000 electrons
 Dipole moment (field-independent basis, Debye):
    X=              5.3788    Y=             -1.7479    Z=             -0.0001  Tot=              5.6557
 Quadrupole moment (field-independent basis, Debye-Ang):
   XX=            -47.3066   YY=            -41.5455   ZZ=            -32.2084
   XY=             -1.1160   XZ=              0.0002   YZ=              0.0002
 Traceless Quadrupole moment (field-independent basis, Debye-Ang):
   XX=             -6.9531   YY=             -1.1920   ZZ=              8.1451
   XY=             -1.1160   XZ=              0.0002   YZ=              0.0002
 Octapole moment (field-independent basis, Debye-Ang**2):
  XXX=              7.7465  YYY=             -4.7958  ZZZ=              0.0001  XYY=              4.9666
  XXY=              5.9545  XXZ=             -0.0008  XZZ=             -1.6460  YZZ=              0.4957
  YYZ=              0.0001  XYZ=             -0.0003
 Hexadecapole moment (field-independent basis, Debye-Ang**3):
 XXXX=           -461.0039 YYYY=           -182.7648 ZZZZ=            -49.0731 XXXY=            -11.0767
 XXXZ=              0.0001 YYYX=              4.8207 YYYZ=             -0.0008 ZZZX=              0.0003
 ZZZY=              0.0003 XXYY=           -103.1593 XXZZ=            -76.4627 YYZZ=            -35.5657
 XXYZ=              0.0005 YYXZ=             -0.0003 ZZXY=              0.7441
 N-N= 1.685534532858D+02 E-N=-9.732630155277D+02  KE= 2.660837764424D+02
 Unable to Open any file for archive entry.
 1\1\GINC-GADI-CPU-CLX-0744\SP\RDSDPBEP86-FC\Aug-CC-pVTZ\C3H5O2(1-)\HIO
 507\10-Sep-2020\0\\# DSDPBEP86/AUG-cc-PVTZ SCF=Tight INT(grid=ultrafin
 e) MaxDisk=60000MB\\carboxy.DSDPBEP86_AUG-cc-PVTZ\\-1,1\C,0,-1.3498935
 432,0.4640729973,-0.0248179596\C,0,-1.5557058876,-1.0839435575,0.04813
 67936\C,0,-0.2686741864,-1.8986891899,0.0043052719\O,0,-0.1700671173,0
 .8635961794,-0.110206965\O,0,-2.406881576,1.1286971575,0.0115012606\H,
 0,-2.2215367563,-1.3608214454,-0.7769126173\H,0,-2.118925769,-1.292394
 2958,0.9646653086\H,0,0.285534227,-1.6885397916,-0.9127885059\H,0,-0.4
 613436848,-2.9775148411,0.0579604608\H,0,0.3882162614,-1.6201620367,0.
 8309194132\\Version=ES64L-G16RevC.01\State=1-A\HF=-266.9868773\MP2=-26
 7.493386\RMSD=3.653e-09\PG=C01 [X(C3H5O2)]\\@
 The archive entry for this job was punched.


 THERE IS SOMETHING FASCINATING ABOUT SCIENCE.
 ONE GETS SUCH WHOLESALE CONJECTURE OUT OF SUCH TRIFLING INVESTMENTS.

                                                       -- MARK TWAIN
 Job cpu time:       0 days  0 hours 12 minutes 40.3 seconds.
 Elapsed time:       0 days  0 hours  2 minutes 29.6 seconds.
 File lengths (MBytes):  RWF=     48 Int=      0 D2E=      0 Chk=      9 Scr=      1
 Normal termination of Gaussian 16 at Thu Sep 10 11:22:26 2020.
