 Entering Gaussian System, Link 0=/apps/gaussian/g09e01/g09/g09
 Initial command:
 /apps/gaussian/g09e01/g09/l1.exe "/jobfs/local/3674405.r-man2/Gau-39450.inp" -scrdir="/jobfs/local/3674405.r-man2/"
 Entering Link 1 = /apps/gaussian/g09e01/g09/l1.exe PID=     39469.
  
 Copyright (c) 1988,1990,1992,1993,1995,1998,2003,2009,2015,
            Gaussian, Inc.  All Rights Reserved.
  
 This is part of the Gaussian(R) 09 program.  It is based on
 the Gaussian(R) 03 system (copyright 2003, Gaussian, Inc.),
 the Gaussian(R) 98 system (copyright 1998, Gaussian, Inc.),
 the Gaussian(R) 94 system (copyright 1995, Gaussian, Inc.),
 the Gaussian 92(TM) system (copyright 1992, Gaussian, Inc.),
 the Gaussian 90(TM) system (copyright 1990, Gaussian, Inc.),
 the Gaussian 88(TM) system (copyright 1988, Gaussian, Inc.),
 the Gaussian 86(TM) system (copyright 1986, Carnegie Mellon
 University), and the Gaussian 82(TM) system (copyright 1983,
 Carnegie Mellon University). Gaussian is a federally registered
 trademark of Gaussian, Inc.
  
 This software contains proprietary and confidential information,
 including trade secrets, belonging to Gaussian, Inc.
  
 This software is provided under written license and may be
 used, copied, transmitted, or stored only in accord with that
 written license.
  
 The following legend is applicable only to US Government
 contracts under FAR:
  
                    RESTRICTED RIGHTS LEGEND
  
 Use, reproduction and disclosure by the US Government is
 subject to restrictions as set forth in subparagraphs (a)
 and (c) of the Commercial Computer Software - Restricted
 Rights clause in FAR 52.227-19.
  
 Gaussian, Inc.
 340 Quinnipiac St., Bldg. 40, Wallingford CT 06492
  
  
 ---------------------------------------------------------------
 Warning -- This program may not be used in any manner that
 competes with the business of Gaussian, Inc. or will provide
 assistance to any competitor of Gaussian, Inc.  The licensee
 of this program is prohibited from giving any competitor of
 Gaussian, Inc. access to this program.  By using this program,
 the user acknowledges that Gaussian, Inc. is engaged in the
 business of creating and licensing software in the field of
 computational chemistry and represents and warrants to the
 licensee that it is not a competitor of Gaussian, Inc. and that
 it will not use this program in any manner prohibited above.
 ---------------------------------------------------------------
  

 Cite this work as:
 Gaussian 09, Revision E.01,
 M. J. Frisch, G. W. Trucks, H. B. Schlegel, G. E. Scuseria, 
 M. A. Robb, J. R. Cheeseman, G. Scalmani, V. Barone, B. Mennucci, 
 G. A. Petersson, H. Nakatsuji, M. Caricato, X. Li, H. P. Hratchian, 
 A. F. Izmaylov, J. Bloino, G. Zheng, J. L. Sonnenberg, M. Hada, 
 M. Ehara, K. Toyota, R. Fukuda, J. Hasegawa, M. Ishida, T. Nakajima, 
 Y. Honda, O. Kitao, H. Nakai, T. Vreven, J. A. Montgomery, Jr., 
 J. E. Peralta, F. Ogliaro, M. Bearpark, J. J. Heyd, E. Brothers, 
 K. N. Kudin, V. N. Staroverov, T. Keith, R. Kobayashi, J. Normand, 
 K. Raghavachari, A. Rendell, J. C. Burant, S. S. Iyengar, J. Tomasi, 
 M. Cossi, N. Rega, J. M. Millam, M. Klene, J. E. Knox, J. B. Cross, 
 V. Bakken, C. Adamo, J. Jaramillo, R. Gomperts, R. E. Stratmann, 
 O. Yazyev, A. J. Austin, R. Cammi, C. Pomelli, J. W. Ochterski, 
 R. L. Martin, K. Morokuma, V. G. Zakrzewski, G. A. Voth, 
 P. Salvador, J. J. Dannenberg, S. Dapprich, A. D. Daniels, 
 O. Farkas, J. B. Foresman, J. V. Ortiz, J. Cioslowski, 
 and D. J. Fox, Gaussian, Inc., Wallingford CT, 2013.
 
 ******************************************
 Gaussian 09:  ES64L-G09RevE.01 30-Nov-2015
                18-Nov-2019 
 ******************************************
 %chk=carboxy.M062X_6-311pGd_opt_GD3.chk
 %mem=2684354560
 %nproc=8
 Will use up to    8 processors via shared memory.
 ----------------------------------------------------------------------
 # M062X/6-311+G* SCF=Tight INT(grid=ultrafine) OPT=CalcFC IOP(2/17=4) 
 EmpiricalDispersion=GD3 maxdisk=671088640
 ----------------------------------------------------------------------
 1/10=4,14=-1,18=20,19=15,26=4,38=1/1,3;
 2/9=110,12=2,17=4,18=5,40=1/2;
 3/5=4,6=6,7=11,11=2,16=1,25=1,30=1,71=2,74=-55,75=-5,124=31,140=1/1,2,3;
 4//1;
 5/5=2,32=2,38=5/2;
 8/6=4,10=90,11=11/1;
 11/6=1,8=1,9=11,15=111,16=1/1,2,10;
 10/6=1,13=1/2;
 6/7=2,8=2,9=2,10=2,28=1/1;
 7/10=1,18=20,25=1/1,2,3,16;
 1/10=4,14=-1,18=20,19=15,26=4/3(2);
 2/9=110,17=4/2;
 99//99;
 2/9=110,17=4/2;
 3/5=4,6=6,7=11,11=2,16=1,25=1,30=1,71=1,74=-55,75=-5,124=31/1,2,3;
 4/5=5,16=3,69=1/1;
 5/5=2,32=2,38=5/2;
 7//1,2,3,16;
 1/14=-1,18=20,19=15,26=4/3(-5);
 2/9=110,17=4/2;
 6/7=2,8=2,9=2,10=2,19=2,28=1/1;
 99/9=1/99;
 ------------------------------
 carboxy.M062X_6-311pGd_opt_GD3
 ------------------------------
 Symbolic Z-matrix:
 Charge = -1 Multiplicity = 1
 C                    -1.33934   0.40273  -0.02553 
 C                    -1.55849  -1.08577   0.04691 
 C                    -0.25837  -1.88882   0.00642 
 O                    -0.21656   0.87733  -0.10769 
 O                    -2.40371   1.22669   0.00089 
 H                    -2.19583  -1.39333  -0.80949 
 H                    -2.09481  -1.32057   0.99107 
 H                     0.28792  -1.69179  -0.94074 
 H                    -0.48945  -2.97344   0.06321 
 H                     0.38938  -1.61872   0.86771 
 

 GradGradGradGradGradGradGradGradGradGradGradGradGradGradGradGradGradGrad
 Berny optimization.
 Initialization pass.
                           ----------------------------
                           !    Initial Parameters    !
                           ! (Angstroms and Degrees)  !
 --------------------------                            --------------------------
 ! Name  Definition              Value          Derivative Info.                !
 --------------------------------------------------------------------------------
 ! R1    R(1,2)                  1.5063         calculate D2E/DX2 analytically  !
 ! R2    R(1,4)                  1.2217         calculate D2E/DX2 analytically  !
 ! R3    R(1,5)                  1.3463         calculate D2E/DX2 analytically  !
 ! R4    R(2,3)                  1.5287         calculate D2E/DX2 analytically  !
 ! R5    R(2,6)                  1.111          calculate D2E/DX2 analytically  !
 ! R6    R(2,7)                  1.1109         calculate D2E/DX2 analytically  !
 ! R7    R(3,8)                  1.111          calculate D2E/DX2 analytically  !
 ! R8    R(3,9)                  1.1104         calculate D2E/DX2 analytically  !
 ! R9    R(3,10)                 1.111          calculate D2E/DX2 analytically  !
 ! A1    A(2,1,4)              121.3871         calculate D2E/DX2 analytically  !
 ! A2    A(2,1,5)              119.2636         calculate D2E/DX2 analytically  !
 ! A3    A(4,1,5)              119.3493         calculate D2E/DX2 analytically  !
 ! A4    A(1,2,3)              113.2104         calculate D2E/DX2 analytically  !
 ! A5    A(1,2,6)              108.6609         calculate D2E/DX2 analytically  !
 ! A6    A(1,2,7)              108.6607         calculate D2E/DX2 analytically  !
 ! A7    A(3,2,6)              108.7878         calculate D2E/DX2 analytically  !
 ! A8    A(3,2,7)              108.7878         calculate D2E/DX2 analytically  !
 ! A9    A(6,2,7)              108.6432         calculate D2E/DX2 analytically  !
 ! A10   A(2,3,8)              110.3409         calculate D2E/DX2 analytically  !
 ! A11   A(2,3,9)              109.559          calculate D2E/DX2 analytically  !
 ! A12   A(2,3,10)             110.3413         calculate D2E/DX2 analytically  !
 ! A13   A(8,3,9)              108.6113         calculate D2E/DX2 analytically  !
 ! A14   A(8,3,10)             109.3358         calculate D2E/DX2 analytically  !
 ! A15   A(9,3,10)             108.6112         calculate D2E/DX2 analytically  !
 ! D1    D(4,1,2,3)             -0.0004         calculate D2E/DX2 analytically  !
 ! D2    D(4,1,2,6)           -120.9772         calculate D2E/DX2 analytically  !
 ! D3    D(4,1,2,7)            120.9762         calculate D2E/DX2 analytically  !
 ! D4    D(5,1,2,3)           -180.0            calculate D2E/DX2 analytically  !
 ! D5    D(5,1,2,6)             59.0232         calculate D2E/DX2 analytically  !
 ! D6    D(5,1,2,7)            -59.0234         calculate D2E/DX2 analytically  !
 ! D7    D(1,2,3,8)            -60.467          calculate D2E/DX2 analytically  !
 ! D8    D(1,2,3,9)            180.0            calculate D2E/DX2 analytically  !
 ! D9    D(1,2,3,10)            60.4669         calculate D2E/DX2 analytically  !
 ! D10   D(6,2,3,8)             60.4381         calculate D2E/DX2 analytically  !
 ! D11   D(6,2,3,9)            -59.0949         calculate D2E/DX2 analytically  !
 ! D12   D(6,2,3,10)          -178.628          calculate D2E/DX2 analytically  !
 ! D13   D(7,2,3,8)            178.6282         calculate D2E/DX2 analytically  !
 ! D14   D(7,2,3,9)             59.0952         calculate D2E/DX2 analytically  !
 ! D15   D(7,2,3,10)           -60.4379         calculate D2E/DX2 analytically  !
 --------------------------------------------------------------------------------
 Trust Radius=3.00D-01 FncErr=1.00D-07 GrdErr=1.00D-06
 Number of steps in this run=     49 maximum allowed number of steps=    100.
 GradGradGradGradGradGradGradGradGradGradGradGradGradGradGradGradGradGrad

                          Input orientation:                          
 ---------------------------------------------------------------------
 Center     Atomic      Atomic             Coordinates (Angstroms)
 Number     Number       Type             X           Y           Z
 ---------------------------------------------------------------------
      1          6           0       -1.339340    0.402730   -0.025530
      2          6           0       -1.558490   -1.085770    0.046910
      3          6           0       -0.258370   -1.888820    0.006420
      4          8           0       -0.216560    0.877330   -0.107690
      5          8           0       -2.403710    1.226690    0.000890
      6          1           0       -2.195830   -1.393330   -0.809490
      7          1           0       -2.094810   -1.320570    0.991070
      8          1           0        0.287920   -1.691790   -0.940740
      9          1           0       -0.489450   -2.973440    0.063210
     10          1           0        0.389380   -1.618720    0.867710
 ---------------------------------------------------------------------
                    Distance matrix (angstroms):
                    1          2          3          4          5
     1  C    0.000000
     2  C    1.506289   0.000000
     3  C    2.533914   1.528673   0.000000
     4  O    1.221733   2.382948   2.768818   0.000000
     5  O    1.346288   2.462516   3.782713   2.217536   0.000000
     6  H    2.138691   1.110953   2.159854   3.092884   2.750352
     7  H    2.138685   1.110949   2.159851   3.092873   2.750347
     8  H    2.805815   2.179895   1.111020   2.747517   4.080327
     9  H    3.482630   2.169426   1.110416   3.864208   4.616207
    10  H    2.805817   2.179896   1.111015   2.747514   4.080329
                    6          7          8          9         10
     6  H    0.000000
     7  H    1.804859   0.000000
     8  H    2.505059   3.089838   0.000000
     9  H    2.483966   2.483965   1.804119   0.000000
    10  H    3.089840   2.505057   1.812767   1.804114   0.000000
 Stoichiometry    C3H5O2(1-)
 Framework group  CS[SG(C3HO2),X(H4)]
 Deg. of freedom    15
 Full point group                 CS      NOp   2
 Largest Abelian subgroup         CS      NOp   2
 Largest concise Abelian subgroup CS      NOp   2
                         Standard orientation:                         
 ---------------------------------------------------------------------
 Center     Atomic      Atomic             Coordinates (Angstroms)
 Number     Number       Type             X           Y           Z
 ---------------------------------------------------------------------
      1          6           0        0.085375   -0.628051   -0.000000
      2          6           0       -0.791560    0.596649    0.000000
      3          6           0       -0.000000    1.904424    0.000000
      4          8           0        1.303800   -0.538211   -0.000000
      5          8           0       -0.486406   -1.846886    0.000000
      6          1           0       -1.438975    0.570276    0.902426
      7          1           0       -1.438975    0.570276   -0.902426
      8          1           0        0.639269    1.968920    0.906389
      9          1           0       -0.702650    2.764253    0.000000
     10          1           0        0.639269    1.968920   -0.906389
 ---------------------------------------------------------------------
 Rotational constants (GHZ):     10.7277654      3.8710866      2.9542785
 Standard basis: 6-311+G(d) (5D, 7F)
 There are    94 symmetry adapted cartesian basis functions of A'  symmetry.
 There are    36 symmetry adapted cartesian basis functions of A"  symmetry.
 There are    89 symmetry adapted basis functions of A'  symmetry.
 There are    36 symmetry adapted basis functions of A"  symmetry.
   125 basis functions,   205 primitive gaussians,   130 cartesian basis functions
    20 alpha electrons       20 beta electrons
       nuclear repulsion energy       167.5200480238 Hartrees.
 NAtoms=   10 NActive=   10 NUniq=    8 SFac= 1.56D+00 NAtFMM=   60 NAOKFM=F Big=F
 Integral buffers will be    131072 words long.
 Raffenetti 2 integral format.
 Two-electron integral symmetry is turned on.
 Nuclear repulsion after empirical dispersion term =      167.5199580734 Hartrees.
 One-electron integrals computed using PRISM.
 NBasis=   125 RedAO= T EigKep=  9.07D-05  NBF=    89    36
 NBsUse=   125 1.00D-06 EigRej= -1.00D+00 NBFU=    89    36
 ExpMin= 4.38D-02 ExpMax= 8.59D+03 ExpMxC= 1.30D+03 IAcc=3 IRadAn=         5 AccDes= 0.00D+00
 Harris functional with IExCor= 1009 and IRadAn=       5 diagonalized for initial guess.
 HarFok:  IExCor= 1009 AccDes= 0.00D+00 IRadAn=         5 IDoV= 1 UseB2=F ITyADJ=14
 ICtDFT=  3500011 ScaDFX=  1.000000  1.000000  1.000000  1.000000
 FoFCou: FMM=F IPFlag=           0 FMFlag=      100000 FMFlg1=           0
         NFxFlg=           0 DoJE=T BraDBF=F KetDBF=T FulRan=T
         wScrn=  0.000000 ICntrl=     500 IOpCl=  0 I1Cent=   200000004 NGrid=           0
         NMat0=    1 NMatS0=      1 NMatT0=    0 NMatD0=    1 NMtDS0=    0 NMtDT0=    0
 Petite list used in FoFCou.
 Initial guess orbital symmetries:
       Occupied  (A') (A') (A') (A') (A') (A') (A') (A') (A') (A')
                 (A") (A') (A') (A') (A") (A') (A") (A') (A") (A')
       Virtual   (A") (A') (A') (A") (A') (A') (A') (A") (A') (A')
                 (A") (A') (A") (A') (A') (A') (A") (A') (A') (A")
                 (A') (A') (A') (A') (A") (A') (A') (A') (A') (A")
                 (A') (A') (A') (A") (A') (A") (A') (A") (A') (A")
                 (A') (A') (A') (A') (A') (A') (A') (A") (A") (A')
                 (A') (A") (A') (A') (A') (A") (A") (A') (A') (A")
                 (A') (A') (A') (A') (A") (A") (A') (A') (A') (A')
                 (A") (A') (A") (A') (A') (A") (A') (A") (A') (A")
                 (A') (A') (A") (A') (A") (A') (A") (A') (A") (A')
                 (A') (A') (A') (A') (A") (A") (A') (A') (A') (A')
                 (A') (A') (A') (A') (A')
 The electronic state of the initial guess is 1-A'.
 Keep R1 ints in memory in symmetry-blocked form, NReq=47146478.
 Requested convergence on RMS density matrix=1.00D-08 within 128 cycles.
 Requested convergence on MAX density matrix=1.00D-06.
 Requested convergence on             energy=1.00D-06.
 No special actions if energy rises.
 SCF Done:  E(RM062X) =  -267.784534343     A.U. after   14 cycles
            NFock= 14  Conv=0.82D-08     -V/T= 2.0040
 DoSCS=F DFT=T ScalE2(SS,OS)=  1.000000  1.000000
 Range of M.O.s used for correlation:     1   125
 NBasis=   125 NAE=    20 NBE=    20 NFC=     0 NFV=     0
 NROrb=    125 NOA=    20 NOB=    20 NVA=   105 NVB=   105

 **** Warning!!: The largest alpha MO coefficient is  0.47150802D+02

 Symmetrizing basis deriv contribution to polar:
 IMax=3 JMax=2 DiffMx= 0.00D+00
 G2DrvN: will do    11 centers at a time, making    1 passes.
 Calling FoFCou, ICntrl=  3107 FMM=F I1Cent=   0 AccDes= 0.00D+00.
 End of G2Drv F.D. properties file   721 does not exist.
 End of G2Drv F.D. properties file   722 does not exist.
 End of G2Drv F.D. properties file   788 does not exist.
          IDoAtm=1111111111
          Differentiating once with respect to nuclear coordinates.
 Keep R1 ints in memory in symmetry-blocked form, NReq=47079608.
          There are    27 degrees of freedom in the 1st order CPHF.  IDoFFX=4 NUNeed=    27.
     24 vectors produced by pass  0 Test12= 7.78D-15 3.70D-09 XBig12= 1.81D-01 8.91D-02.
 AX will form    24 AO Fock derivatives at one time.
     24 vectors produced by pass  1 Test12= 7.78D-15 3.70D-09 XBig12= 6.19D-02 1.05D-01.
     24 vectors produced by pass  2 Test12= 7.78D-15 3.70D-09 XBig12= 1.73D-03 1.03D-02.
     24 vectors produced by pass  3 Test12= 7.78D-15 3.70D-09 XBig12= 2.44D-05 1.27D-03.
     24 vectors produced by pass  4 Test12= 7.78D-15 3.70D-09 XBig12= 2.53D-07 1.30D-04.
     24 vectors produced by pass  5 Test12= 7.78D-15 3.70D-09 XBig12= 1.55D-09 7.06D-06.
     20 vectors produced by pass  6 Test12= 7.78D-15 3.70D-09 XBig12= 7.32D-12 4.22D-07.
      5 vectors produced by pass  7 Test12= 7.78D-15 3.70D-09 XBig12= 3.15D-14 2.87D-08.
 InvSVY:  IOpt=1 It=  1 EMax= 3.05D-16
 Solved reduced A of dimension   169 with    27 vectors.
 End of Minotr F.D. properties file   721 does not exist.
 End of Minotr F.D. properties file   722 does not exist.
 End of Minotr F.D. properties file   788 does not exist.

 **********************************************************************

            Population analysis using the SCF density.

 **********************************************************************

 Orbital symmetries:
       Occupied  (A') (A') (A') (A') (A') (A') (A') (A') (A') (A')
                 (A") (A') (A') (A") (A') (A') (A") (A') (A") (A')
       Virtual   (A') (A') (A") (A') (A') (A") (A') (A") (A') (A')
                 (A') (A") (A') (A") (A') (A') (A") (A') (A') (A")
                 (A') (A') (A') (A') (A") (A') (A') (A') (A") (A')
                 (A') (A") (A') (A') (A') (A") (A") (A') (A') (A")
                 (A') (A') (A') (A') (A') (A') (A') (A") (A") (A')
                 (A') (A") (A') (A') (A') (A") (A") (A') (A") (A')
                 (A') (A') (A') (A") (A') (A") (A') (A') (A') (A')
                 (A") (A') (A") (A') (A') (A") (A') (A") (A') (A")
                 (A') (A') (A") (A') (A") (A') (A') (A") (A") (A')
                 (A') (A') (A') (A') (A") (A") (A') (A') (A') (A')
                 (A') (A') (A') (A') (A')
 The electronic state is 1-A'.
 Alpha  occ. eigenvalues --  -19.36836 -19.33979 -10.42789 -10.38735 -10.37773
 Alpha  occ. eigenvalues --   -0.94765  -0.81162  -0.70762  -0.56432  -0.40463
 Alpha  occ. eigenvalues --   -0.37272  -0.33739  -0.30277  -0.27927  -0.27371
 Alpha  occ. eigenvalues --   -0.24388  -0.23076  -0.11866  -0.09716  -0.08716
 Alpha virt. eigenvalues --    0.13084   0.15806   0.16598   0.18330   0.20609
 Alpha virt. eigenvalues --    0.20664   0.21695   0.22361   0.22696   0.25744
 Alpha virt. eigenvalues --    0.26329   0.27739   0.28761   0.33530   0.33719
 Alpha virt. eigenvalues --    0.37573   0.39590   0.40755   0.41553   0.43167
 Alpha virt. eigenvalues --    0.43554   0.45444   0.47515   0.48293   0.48722
 Alpha virt. eigenvalues --    0.51445   0.53173   0.55081   0.57445   0.60672
 Alpha virt. eigenvalues --    0.64660   0.68883   0.68900   0.75630   0.78632
 Alpha virt. eigenvalues --    0.79666   0.81935   0.82378   0.85047   0.86691
 Alpha virt. eigenvalues --    0.88461   0.91009   0.95941   0.98274   1.09831
 Alpha virt. eigenvalues --    1.10347   1.21594   1.33137   1.36154   1.39408
 Alpha virt. eigenvalues --    1.43013   1.45244   1.48278   1.49459   1.53701
 Alpha virt. eigenvalues --    1.61971   1.69801   1.73933   1.76682   1.79180
 Alpha virt. eigenvalues --    1.80632   1.87495   1.91977   1.94499   1.94636
 Alpha virt. eigenvalues --    2.04135   2.09644   2.15081   2.31060   2.39940
 Alpha virt. eigenvalues --    2.66379   2.67849   2.71397   2.71530   2.80138
 Alpha virt. eigenvalues --    2.92146   3.12418   3.15884   3.16877   3.19491
 Alpha virt. eigenvalues --    3.21389   3.24369   3.31617   3.39159   3.40071
 Alpha virt. eigenvalues --    3.42245   3.55314   3.56056   3.65625   3.79182
 Alpha virt. eigenvalues --    3.92534   4.02946   4.35166   4.37043   5.36659
 Alpha virt. eigenvalues --    5.42322   5.45617   5.55384   5.83483   6.16033
 Alpha virt. eigenvalues --   23.74420  23.94604  24.09653  50.24932  50.34947
          Condensed to atoms (all electrons):
               1          2          3          4          5          6
     1  C    5.233814  -0.250439   0.136053   0.390681   0.520129  -0.036280
     2  C   -0.250439   6.921670  -0.556955  -0.285965  -0.296098   0.428594
     3  C    0.136053  -0.556955   6.133768   0.100341   0.051855  -0.064779
     4  O    0.390681  -0.285965   0.100341   8.451227  -0.199148  -0.002182
     5  O    0.520129  -0.296098   0.051855  -0.199148   8.514840  -0.001067
     6  H   -0.036280   0.428594  -0.064779  -0.002182  -0.001067   0.483062
     7  H   -0.036280   0.428594  -0.064779  -0.002182  -0.001067  -0.032723
     8  H    0.000733  -0.036724   0.397008  -0.011214  -0.000714  -0.007978
     9  H    0.015804  -0.056799   0.369275   0.004390   0.000085  -0.004682
    10  H    0.000733  -0.036724   0.397008  -0.011214  -0.000714   0.006740
               7          8          9         10
     1  C   -0.036280   0.000733   0.015804   0.000733
     2  C    0.428594  -0.036724  -0.056799  -0.036724
     3  C   -0.064779   0.397008   0.369275   0.397008
     4  O   -0.002182  -0.011214   0.004390  -0.011214
     5  O   -0.001067  -0.000714   0.000085  -0.000714
     6  H   -0.032723  -0.007978  -0.004682   0.006740
     7  H    0.483062   0.006740  -0.004682  -0.007978
     8  H    0.006740   0.472382  -0.038221  -0.028030
     9  H   -0.004682  -0.038221   0.551933  -0.038221
    10  H   -0.007978  -0.028030  -0.038221   0.472382
 Mulliken charges:
               1
     1  C    0.025051
     2  C   -0.259155
     3  C   -0.898796
     4  O   -0.434734
     5  O   -0.588102
     6  H    0.231293
     7  H    0.231293
     8  H    0.246017
     9  H    0.201117
    10  H    0.246017
 Sum of Mulliken charges =  -1.00000
 Mulliken charges with hydrogens summed into heavy atoms:
               1
     1  C    0.025051
     2  C    0.203430
     3  C   -0.205645
     4  O   -0.434734
     5  O   -0.588102
 APT charges:
               1
     1  C   -0.108507
     2  C   -0.657498
     3  C   -1.538772
     4  O   -0.347346
     5  O   -0.516696
     6  H    0.435557
     7  H    0.435557
     8  H    0.396800
     9  H    0.504105
    10  H    0.396800
 Sum of APT charges =  -1.00000
 APT charges with hydrogens summed into heavy atoms:
               1
     1  C   -0.108507
     2  C    0.213616
     3  C   -0.241067
     4  O   -0.347346
     5  O   -0.516696
 Electronic spatial extent (au):  <R**2>=            448.1463
 Charge=             -1.0000 electrons
 Dipole moment (field-independent basis, Debye):
    X=             -1.7870    Y=              6.4905    Z=             -0.0000  Tot=              6.7320
 Quadrupole moment (field-independent basis, Debye-Ang):
   XX=            -40.9759   YY=            -49.5271   ZZ=            -32.2711
   XY=             -1.5753   XZ=              0.0000   YZ=             -0.0000
 Traceless Quadrupole moment (field-independent basis, Debye-Ang):
   XX=             -0.0512   YY=             -8.6024   ZZ=              8.6536
   XY=             -1.5753   XZ=              0.0000   YZ=             -0.0000
 Octapole moment (field-independent basis, Debye-Ang**2):
  XXX=             -3.7314  YYY=             15.0114  ZZZ=             -0.0000  XYY=              6.5874
  XXY=              4.5042  XXZ=             -0.0000  XZZ=              0.8718  YZZ=             -0.3659
  YYZ=             -0.0000  XYZ=             -0.0000
 Hexadecapole moment (field-independent basis, Debye-Ang**3):
 XXXX=           -178.3951 YYYY=           -488.2185 ZZZZ=            -50.8343 XXXY=              7.9334
 XXXZ=              0.0000 YYYX=             -5.9348 YYYZ=             -0.0000 ZZZX=              0.0000
 ZZZY=             -0.0000 XXYY=           -104.3310 XXZZ=            -34.5075 YYZZ=            -79.5272
 XXYZ=             -0.0000 YYXZ=             -0.0000 ZZXY=              2.4656
 N-N= 1.675199580734D+02 E-N=-9.718716035141D+02  KE= 2.667266934564D+02
 Symmetry A'   KE= 2.550725399820D+02
 Symmetry A"   KE= 1.165415347434D+01
  Exact polarizability:   0.000   0.000   0.000   0.000   0.000   0.000
 Approx polarizability:  62.086   4.928  58.369   0.000   0.000  45.864
 Calling FoFJK, ICntrl=    100147 FMM=F ISym2X=1 I1Cent= 0 IOpClX= 0 NMat=1 NMatS=1 NMatT=0.
 ***** Axes restored to original set *****
 -------------------------------------------------------------------
 Center     Atomic                   Forces (Hartrees/Bohr)
 Number     Number              X              Y              Z
 -------------------------------------------------------------------
      1        6          -0.074572147    0.092500294    0.000445973
      2        6          -0.005443022   -0.018560133    0.001055265
      3        6           0.004585962   -0.005303103   -0.000042997
      4        8           0.038022463   -0.013127259   -0.001602619
      5        8           0.039672439   -0.066428481    0.000458441
      6        1           0.001501355    0.004131244    0.010778541
      7        1           0.000269733    0.003244181   -0.011175899
      8        1          -0.003382959   -0.001490824    0.012749330
      9        1           0.004124859    0.007530164   -0.000535655
     10        1          -0.004778685   -0.002496082   -0.012130380
 -------------------------------------------------------------------
 Cartesian Forces:  Max     0.092500294 RMS     0.027596356
 FormGI is forming the generalized inverse of G from B-inverse, IUseBI=4.

 GradGradGradGradGradGradGradGradGradGradGradGradGradGradGradGradGradGrad
 Berny optimization.
 Internal  Forces:  Max     0.072011185 RMS     0.016034295
 Search for a local minimum.
 Step number   1 out of a maximum of   49
 All quantities printed in internal units (Hartrees-Bohrs-Radians)
 Mixed Optimization -- RFO/linear search
 Second derivative matrix not updated -- analytic derivatives used.
 ITU=  0
     Eigenvalues ---   -0.00037   0.00211   0.03652   0.04193   0.04342
     Eigenvalues ---    0.04651   0.06756   0.07320   0.10803   0.12349
     Eigenvalues ---    0.14789   0.15994   0.19333   0.22071   0.24363
     Eigenvalues ---    0.30148   0.30442   0.30552   0.30810   0.31174
     Eigenvalues ---    0.31971   0.35089   0.40107   0.83853
 RFO step:  Lambda=-3.29788193D-02 EMin=-3.72634828D-04
 Linear search not attempted -- first point.
 Maximum step size (   0.300) exceeded in Quadratic search.
    -- Step size scaled by   0.872
 Iteration  1 RMS(Cart)=  0.09697820 RMS(Int)=  0.02904208
 Iteration  2 RMS(Cart)=  0.03023445 RMS(Int)=  0.00083161
 Iteration  3 RMS(Cart)=  0.00082542 RMS(Int)=  0.00016922
 Iteration  4 RMS(Cart)=  0.00000061 RMS(Int)=  0.00016922
 ClnCor:  largest displacement from symmetrization is 4.83D-01 for atom     4.
          Exceeds limit of 1.00D-01 so symmetrization was rejected.
 Variable       Old X    -DE/DX   Delta X   Delta X   Delta X     New X
                                 (Linear)    (Quad)   (Total)
    R1        2.84647   0.01328   0.00000   0.06844   0.06844   2.91491
    R2        2.30874   0.02995   0.00000   0.04613   0.04613   2.35487
    R3        2.54412  -0.07201   0.00000  -0.20718  -0.20718   2.33694
    R4        2.88877   0.00139   0.00000  -0.00371  -0.00371   2.88506
    R5        2.09939  -0.01031   0.00000  -0.02144  -0.02144   2.07796
    R6        2.09939  -0.01031   0.00000  -0.02693  -0.02693   2.07247
    R7        2.09952  -0.01280   0.00000  -0.03301  -0.03301   2.06651
    R8        2.09838  -0.00824   0.00000  -0.01938  -0.01938   2.07900
    R9        2.09952  -0.01280   0.00000  -0.02897  -0.02897   2.07055
    A1        2.11860  -0.01739   0.00000  -0.06925  -0.06930   2.04930
    A2        2.08154  -0.02731   0.00000  -0.06785  -0.06790   2.01364
    A3        2.08304   0.04470   0.00000   0.13710   0.13704   2.22008
    A4        1.97590   0.00131   0.00000   0.01676   0.01659   1.99249
    A5        1.89649  -0.00186   0.00000  -0.02411  -0.02424   1.87225
    A6        1.89649  -0.00186   0.00000  -0.00627  -0.00691   1.88959
    A7        1.89871   0.00258   0.00000   0.01092   0.01108   1.90979
    A8        1.89871   0.00258   0.00000   0.02873   0.02857   1.92728
    A9        1.89617  -0.00297   0.00000  -0.02814  -0.02849   1.86767
   A10        1.92581   0.00171   0.00000   0.00145   0.00135   1.92716
   A11        1.91217   0.00353   0.00000   0.02558   0.02538   1.93754
   A12        1.92581   0.00171   0.00000   0.00655   0.00646   1.93227
   A13        1.89562  -0.00163   0.00000   0.00362   0.00342   1.89904
   A14        1.90828  -0.00381   0.00000  -0.02884  -0.02884   1.87944
   A15        1.89562  -0.00163   0.00000  -0.00864  -0.00882   1.88680
    D1        0.00000   0.00000   0.00000   0.26137   0.26136   0.26136
    D2       -2.11145  -0.00282   0.00000   0.25356   0.25380  -1.85765
    D3        2.11145   0.00282   0.00000   0.30431   0.30408   2.41553
    D4        3.14159   0.00000   0.00000   0.24331   0.24329  -2.89830
    D5        1.03014  -0.00282   0.00000   0.23549   0.23573   1.26588
    D6       -1.03014   0.00282   0.00000   0.28624   0.28601  -0.74413
    D7       -1.05535   0.00126   0.00000   0.05690   0.05708  -0.99828
    D8        3.14159  -0.00000   0.00000   0.03549   0.03561  -3.10599
    D9        1.05535  -0.00126   0.00000   0.02605   0.02613   1.08148
   D10        1.05484   0.00158   0.00000   0.04493   0.04501   1.09986
   D11       -1.03140   0.00031   0.00000   0.02352   0.02354  -1.00786
   D12       -3.11764  -0.00095   0.00000   0.01408   0.01406  -3.10357
   D13        3.11764   0.00095   0.00000   0.03371   0.03361  -3.13194
   D14        1.03140  -0.00031   0.00000   0.01230   0.01214   1.04354
   D15       -1.05484  -0.00158   0.00000   0.00286   0.00266  -1.05218
         Item               Value     Threshold  Converged?
 Maximum Force            0.072011     0.000450     NO 
 RMS     Force            0.016034     0.000300     NO 
 Maximum Displacement     0.481929     0.001800     NO 
 RMS     Displacement     0.121985     0.001200     NO 
 Predicted change in Energy=-1.777187D-02
 GradGradGradGradGradGradGradGradGradGradGradGradGradGradGradGradGradGrad

                          Input orientation:                          
 ---------------------------------------------------------------------
 Center     Atomic      Atomic             Coordinates (Angstroms)
 Number     Number       Type             X           Y           Z
 ---------------------------------------------------------------------
      1          6           0       -1.353091    0.447704   -0.037779
      2          6           0       -1.561080   -1.079234    0.029510
      3          6           0       -0.265353   -1.886611    0.038027
      4          8           0       -0.222561    0.859032   -0.362717
      5          8           0       -2.350812    1.130400    0.222587
      6          1           0       -2.164467   -1.365355   -0.844100
      7          1           0       -2.159037   -1.305749    0.920517
      8          1           0        0.335301   -1.653366   -0.845525
      9          1           0       -0.473688   -2.966798    0.050208
     10          1           0        0.335509   -1.645721    0.922034
 ---------------------------------------------------------------------
                    Distance matrix (angstroms):
                    1          2          3          4          5
     1  C    0.000000
     2  C    1.542506   0.000000
     3  C    2.576421   1.526708   0.000000
     4  O    1.246143   2.387959   2.775064   0.000000
     5  O    1.236654   2.354451   3.672269   2.223887   0.000000
     6  H    2.143751   1.099607   2.157890   2.991760   2.720540
     7  H    2.154641   1.096703   2.168463   3.175359   2.541399
     8  H    2.813826   2.166004   1.093550   2.618484   4.013156
     9  H    3.527027   2.178474   1.100162   3.856235   4.510027
    10  H    2.855703   2.171303   1.095688   2.869811   3.925862
                    6          7          8          9         10
     6  H    0.000000
     7  H    1.765632   0.000000
     8  H    2.516305   3.075950   0.000000
     9  H    2.494623   2.521294   1.783790   0.000000
    10  H    3.073713   2.517607   1.767576   1.777674   0.000000
 Stoichiometry    C3H5O2(1-)
 Framework group  C1[X(C3H5O2)]
 Deg. of freedom    24
 Full point group                 C1      NOp   1
 Omega: Change in point group or standard orientation.

 Old FWG=CS   [SG(C3H1O2),X(H4)]
 New FWG=C01  [X(C3H5O2)]
 Largest Abelian subgroup         C1      NOp   1
 Largest concise Abelian subgroup C1      NOp   1
                         Standard orientation:                         
 ---------------------------------------------------------------------
 Center     Atomic      Atomic             Coordinates (Angstroms)
 Number     Number       Type             X           Y           Z
 ---------------------------------------------------------------------
      1          6           0        0.693454    0.054449    0.009722
      2          6           0       -0.623239   -0.741322    0.121043
      3          6           0       -1.880656    0.098412   -0.090113
      4          8           0        0.617903    1.297584    0.051919
      5          8           0        1.718793   -0.629264   -0.092885
      6          1           0       -0.648593   -1.191952    1.123752
      7          1           0       -0.588314   -1.566341   -0.600678
      8          1           0       -1.910455    0.926759    0.623193
      9          1           0       -2.787841   -0.511063    0.036026
     10          1           0       -1.895720    0.526798   -1.098474
 ---------------------------------------------------------------------
 Rotational constants (GHZ):     10.3190851      4.0425125      3.0334664
 Standard basis: 6-311+G(d) (5D, 7F)
 There are   130 symmetry adapted cartesian basis functions of A   symmetry.
 There are   125 symmetry adapted basis functions of A   symmetry.
   125 basis functions,   205 primitive gaussians,   130 cartesian basis functions
    20 alpha electrons       20 beta electrons
       nuclear repulsion energy       169.3674516679 Hartrees.
 NAtoms=   10 NActive=   10 NUniq=   10 SFac= 1.00D+00 NAtFMM=   60 NAOKFM=F Big=F
 Integral buffers will be    131072 words long.
 Raffenetti 2 integral format.
 Two-electron integral symmetry is turned on.
 Nuclear repulsion after empirical dispersion term =      169.3673628449 Hartrees.
 One-electron integrals computed using PRISM.
 NBasis=   125 RedAO= T EigKep=  7.30D-05  NBF=   125
 NBsUse=   125 1.00D-06 EigRej= -1.00D+00 NBFU=   125
 Initial guess from the checkpoint file:  "carboxy.M062X_6-311pGd_opt_GD3.chk"
 B after Tr=     0.000000    0.000001   -0.000000
         Rot=    0.729602    0.019017   -0.017542   -0.683382 Ang=  86.29 deg.
 ExpMin= 4.38D-02 ExpMax= 8.59D+03 ExpMxC= 1.30D+03 IAcc=2 IRadAn=         4 AccDes= 0.00D+00
 Harris functional with IExCor= 1009 and IRadAn=       4 diagonalized for initial guess.
 HarFok:  IExCor= 1009 AccDes= 0.00D+00 IRadAn=         4 IDoV= 1 UseB2=F ITyADJ=14
 ICtDFT=  3500011 ScaDFX=  1.000000  1.000000  1.000000  1.000000
 FoFCou: FMM=F IPFlag=           0 FMFlag=      100000 FMFlg1=           0
         NFxFlg=           0 DoJE=T BraDBF=F KetDBF=T FulRan=T
         wScrn=  0.000000 ICntrl=     500 IOpCl=  0 I1Cent=   200000004 NGrid=           0
         NMat0=    1 NMatS0=      1 NMatT0=    0 NMatD0=    1 NMtDS0=    0 NMtDT0=    0
 Petite list used in FoFCou.
 Keep R1 ints in memory in canonical form, NReq=32206990.
 Requested convergence on RMS density matrix=1.00D-08 within 128 cycles.
 Requested convergence on MAX density matrix=1.00D-06.
 Requested convergence on             energy=1.00D-06.
 No special actions if energy rises.
 SCF Done:  E(RM062X) =  -267.799922541     A.U. after   14 cycles
            NFock= 14  Conv=0.72D-08     -V/T= 2.0030
 Calling FoFJK, ICntrl=      2127 FMM=F ISym2X=0 I1Cent= 0 IOpClX= 0 NMat=1 NMatS=1 NMatT=0.
 ***** Axes restored to original set *****
 -------------------------------------------------------------------
 Center     Atomic                   Forces (Hartrees/Bohr)
 Number     Number              X              Y              Z
 -------------------------------------------------------------------
      1        6           0.008006220    0.004985607   -0.002406250
      2        6           0.003016235   -0.008714908   -0.000158334
      3        6          -0.001363934   -0.003105358    0.000238876
      4        8           0.010126154   -0.003590922   -0.002777839
      5        8          -0.019339848    0.006969398    0.005131303
      6        1          -0.000629965    0.000952618    0.002474647
      7        1          -0.000774905    0.000664700   -0.002351550
      8        1          -0.000267496    0.000349742    0.002395645
      9        1           0.001395148    0.001269956   -0.000056675
     10        1          -0.000167609    0.000219168   -0.002489824
 -------------------------------------------------------------------
 Cartesian Forces:  Max     0.019339848 RMS     0.005142090

 GradGradGradGradGradGradGradGradGradGradGradGradGradGradGradGradGradGrad
 Berny optimization.
 Using GEDIIS/GDIIS optimizer.
 FormGI is forming the generalized inverse of G from B-inverse, IUseBI=4.
 Internal  Forces:  Max     0.020531232 RMS     0.004354876
 Search for a local minimum.
 Step number   2 out of a maximum of   49
 All quantities printed in internal units (Hartrees-Bohrs-Radians)
 Mixed Optimization -- RFO/linear search
 Update second derivatives using D2CorX and points    1    2
 DE= -1.54D-02 DEPred=-1.78D-02 R= 8.66D-01
 TightC=F SS=  1.41D+00  RLast= 7.19D-01 DXNew= 5.0454D-01 2.1565D+00
 Trust test= 8.66D-01 RLast= 7.19D-01 DXMaxT set to 5.05D-01
 ITU=  1  0
 Use linear search instead of GDIIS.
     Eigenvalues ---   -0.00038   0.00211   0.03651   0.04196   0.04338
     Eigenvalues ---    0.04650   0.06756   0.07288   0.10801   0.12334
     Eigenvalues ---    0.14786   0.15989   0.19544   0.22072   0.24536
     Eigenvalues ---    0.30125   0.30442   0.30691   0.30810   0.31189
     Eigenvalues ---    0.31859   0.38058   0.48736   0.83112
 RFO step:  Lambda=-1.80459385D-03 EMin=-3.78183172D-04
 Quartic linear search produced a step of -0.02030.
 Iteration  1 RMS(Cart)=  0.09269525 RMS(Int)=  0.07990704
 Iteration  2 RMS(Cart)=  0.08415268 RMS(Int)=  0.00711318
 Iteration  3 RMS(Cart)=  0.00730747 RMS(Int)=  0.00012033
 Iteration  4 RMS(Cart)=  0.00005830 RMS(Int)=  0.00010387
 Iteration  5 RMS(Cart)=  0.00000000 RMS(Int)=  0.00010387
 Variable       Old X    -DE/DX   Delta X   Delta X   Delta X     New X
                                 (Linear)    (Quad)   (Total)
    R1        2.91491   0.00812  -0.00139   0.03121   0.02982   2.94474
    R2        2.35487   0.00873  -0.00094   0.00445   0.00351   2.35838
    R3        2.33694   0.02053   0.00421   0.03297   0.03717   2.37411
    R4        2.88506   0.00033   0.00008  -0.00532  -0.00525   2.87981
    R5        2.07796  -0.00187   0.00044  -0.00285  -0.00242   2.07554
    R6        2.07247  -0.00163   0.00055  -0.01054  -0.00999   2.06248
    R7        2.06651  -0.00201   0.00067  -0.01039  -0.00972   2.05679
    R8        2.07900  -0.00151   0.00039  -0.00768  -0.00728   2.07172
    R9        2.07055  -0.00205   0.00059  -0.00441  -0.00382   2.06673
    A1        2.04930  -0.00669   0.00141  -0.01916  -0.01789   2.03141
    A2        2.01364  -0.00278   0.00138  -0.01353  -0.01230   2.00134
    A3        2.22008   0.00946  -0.00278   0.03217   0.02925   2.24933
    A4        1.99249   0.00100  -0.00034   0.00460   0.00406   1.99655
    A5        1.87225  -0.00088   0.00049  -0.02358  -0.02310   1.84916
    A6        1.88959  -0.00082   0.00014   0.00408   0.00381   1.89340
    A7        1.90979   0.00079  -0.00022   0.00323   0.00302   1.91281
    A8        1.92728   0.00077  -0.00058   0.03073   0.02996   1.95724
    A9        1.86767  -0.00105   0.00058  -0.02253  -0.02202   1.84566
   A10        1.92716  -0.00013  -0.00003  -0.00762  -0.00772   1.91944
   A11        1.93754   0.00188  -0.00052   0.01971   0.01913   1.95667
   A12        1.93227   0.00017  -0.00013   0.00288   0.00267   1.93494
   A13        1.89904  -0.00042  -0.00007   0.01251   0.01238   1.91142
   A14        1.87944  -0.00112   0.00059  -0.02251  -0.02201   1.85743
   A15        1.88680  -0.00048   0.00018  -0.00600  -0.00589   1.88091
    D1        0.26136  -0.00003  -0.00531   0.39903   0.39375   0.65511
    D2       -1.85765  -0.00104  -0.00515   0.40887   0.40375  -1.45390
    D3        2.41553   0.00104  -0.00617   0.44513   0.43890   2.85442
    D4       -2.89830  -0.00005  -0.00494   0.37080   0.36589  -2.53241
    D5        1.26588  -0.00106  -0.00478   0.38064   0.37589   1.64177
    D6       -0.74413   0.00102  -0.00581   0.41689   0.41104  -0.33310
    D7       -0.99828   0.00072  -0.00116   0.08219   0.08114  -0.91714
    D8       -3.10599   0.00009  -0.00072   0.05849   0.05788  -3.04811
    D9        1.08148  -0.00066  -0.00053   0.05113   0.05071   1.13219
   D10        1.09986   0.00083  -0.00091   0.05733   0.05640   1.15626
   D11       -1.00786   0.00020  -0.00048   0.03363   0.03315  -0.97471
   D12       -3.10357  -0.00054  -0.00029   0.02626   0.02597  -3.07760
   D13       -3.13194   0.00048  -0.00068   0.04998   0.04919  -3.08275
   D14        1.04354  -0.00015  -0.00025   0.02628   0.02593   1.06947
   D15       -1.05218  -0.00090  -0.00005   0.01891   0.01876  -1.03342
         Item               Value     Threshold  Converged?
 Maximum Force            0.020531     0.000450     NO 
 RMS     Force            0.004355     0.000300     NO 
 Maximum Displacement     0.674087     0.001800     NO 
 RMS     Displacement     0.175045     0.001200     NO 
 Predicted change in Energy=-1.043942D-03
 GradGradGradGradGradGradGradGradGradGradGradGradGradGradGradGradGradGrad

                          Input orientation:                          
 ---------------------------------------------------------------------
 Center     Atomic      Atomic             Coordinates (Angstroms)
 Number     Number       Type             X           Y           Z
 ---------------------------------------------------------------------
      1          6           0       -1.344346    0.457152   -0.056874
      2          6           0       -1.555854   -1.085603    0.001732
      3          6           0       -0.267236   -1.894824    0.085341
      4          8           0       -0.365703    0.858130   -0.719428
      5          8           0       -2.224779    1.129973    0.535157
      6          1           0       -2.098556   -1.350882   -0.915562
      7          1           0       -2.236921   -1.310479    0.824391
      8          1           0        0.409035   -1.600854   -0.715202
      9          1           0       -0.453258   -2.973813    0.029921
     10          1           0        0.258341   -1.694499    1.023288
 ---------------------------------------------------------------------
                    Distance matrix (angstroms):
                    1          2          3          4          5
     1  C    0.000000
     2  C    1.558288   0.000000
     3  C    2.590788   1.523931   0.000000
     4  O    1.248000   2.390529   2.869862   0.000000
     5  O    1.256325   2.375033   3.630938   2.259214   0.000000
     6  H    2.138963   1.098329   2.156713   2.814423   2.876658
     7  H    2.167449   1.091416   2.183417   3.253874   2.457562
     8  H    2.782647   2.154127   1.088408   2.578146   3.994720
     9  H    3.545855   2.186744   1.096308   3.905506   4.498290
    10  H    2.892224   2.169247   1.093666   3.153159   3.792335
                    6          7          8          9         10
     6  H    0.000000
     7  H    1.745914   0.000000
     8  H    2.527972   3.075019   0.000000
     9  H    2.496968   2.565018   1.784314   0.000000
    10  H    3.071184   2.532461   1.747520   1.769123   0.000000
 Stoichiometry    C3H5O2(1-)
 Framework group  C1[X(C3H5O2)]
 Deg. of freedom    24
 Full point group                 C1      NOp   1
 Largest Abelian subgroup         C1      NOp   1
 Largest concise Abelian subgroup C1      NOp   1
                         Standard orientation:                         
 ---------------------------------------------------------------------
 Center     Atomic      Atomic             Coordinates (Angstroms)
 Number     Number       Type             X           Y           Z
 ---------------------------------------------------------------------
      1          6           0        0.699898    0.057570    0.019407
      2          6           0       -0.654443   -0.657715    0.306448
      3          6           0       -1.880103    0.082376   -0.215458
      4          8           0        0.697885    1.302861    0.101559
      5          8           0        1.662041   -0.715701   -0.214442
      6          1           0       -0.719491   -0.753741    1.398636
      7          1           0       -0.595302   -1.677621   -0.077588
      8          1           0       -1.872817    1.110965    0.140324
      9          1           0       -2.815234   -0.403235    0.087204
     10          1           0       -1.868671    0.132971   -1.307893
 ---------------------------------------------------------------------
 Rotational constants (GHZ):      9.7634386      3.9858168      3.0447153
 Standard basis: 6-311+G(d) (5D, 7F)
 There are   130 symmetry adapted cartesian basis functions of A   symmetry.
 There are   125 symmetry adapted basis functions of A   symmetry.
   125 basis functions,   205 primitive gaussians,   130 cartesian basis functions
    20 alpha electrons       20 beta electrons
       nuclear repulsion energy       168.2911903970 Hartrees.
 NAtoms=   10 NActive=   10 NUniq=   10 SFac= 1.00D+00 NAtFMM=   60 NAOKFM=F Big=F
 Integral buffers will be    131072 words long.
 Raffenetti 2 integral format.
 Two-electron integral symmetry is turned on.
 Nuclear repulsion after empirical dispersion term =      168.2910997337 Hartrees.
 One-electron integrals computed using PRISM.
 NBasis=   125 RedAO= T EigKep=  8.76D-05  NBF=   125
 NBsUse=   125 1.00D-06 EigRej= -1.00D+00 NBFU=   125
 Initial guess from the checkpoint file:  "carboxy.M062X_6-311pGd_opt_GD3.chk"
 B after Tr=    -0.000000    0.000000   -0.000000
         Rot=    0.998747    0.047732    0.000363    0.015036 Ang=   5.74 deg.
 ExpMin= 4.38D-02 ExpMax= 8.59D+03 ExpMxC= 1.30D+03 IAcc=2 IRadAn=         4 AccDes= 0.00D+00
 Harris functional with IExCor= 1009 and IRadAn=       4 diagonalized for initial guess.
 HarFok:  IExCor= 1009 AccDes= 0.00D+00 IRadAn=         4 IDoV= 1 UseB2=F ITyADJ=14
 ICtDFT=  3500011 ScaDFX=  1.000000  1.000000  1.000000  1.000000
 FoFCou: FMM=F IPFlag=           0 FMFlag=      100000 FMFlg1=           0
         NFxFlg=           0 DoJE=T BraDBF=F KetDBF=T FulRan=T
         wScrn=  0.000000 ICntrl=     500 IOpCl=  0 I1Cent=   200000004 NGrid=           0
         NMat0=    1 NMatS0=      1 NMatT0=    0 NMatD0=    1 NMtDS0=    0 NMtDT0=    0
 Petite list used in FoFCou.
 Keep R1 ints in memory in canonical form, NReq=32206990.
 Requested convergence on RMS density matrix=1.00D-08 within 128 cycles.
 Requested convergence on MAX density matrix=1.00D-06.
 Requested convergence on             energy=1.00D-06.
 No special actions if energy rises.
 SCF Done:  E(RM062X) =  -267.800184117     A.U. after   14 cycles
            NFock= 14  Conv=0.54D-08     -V/T= 2.0033
 Calling FoFJK, ICntrl=      2127 FMM=F ISym2X=0 I1Cent= 0 IOpClX= 0 NMat=1 NMatS=1 NMatT=0.
 ***** Axes restored to original set *****
 -------------------------------------------------------------------
 Center     Atomic                   Forces (Hartrees/Bohr)
 Number     Number              X              Y              Z
 -------------------------------------------------------------------
      1        6          -0.008689914    0.005096553    0.003553274
      2        6          -0.001433048   -0.000357352   -0.002546244
      3        6          -0.000421244    0.000439900    0.001990565
      4        8           0.001651244   -0.001606512    0.000815089
      5        8           0.006323146   -0.002988659   -0.003410726
      6        1           0.001021237   -0.000291506   -0.000562531
      7        1           0.000935704   -0.000426155    0.002099359
      8        1           0.000281158    0.000110897   -0.002404925
      9        1           0.000635122   -0.000108481   -0.000587757
     10        1          -0.000303403    0.000131315    0.001053897
 -------------------------------------------------------------------
 Cartesian Forces:  Max     0.008689914 RMS     0.002635633

 GradGradGradGradGradGradGradGradGradGradGradGradGradGradGradGradGradGrad
 Berny optimization.
 Using GEDIIS/GDIIS optimizer.
 FormGI is forming the generalized inverse of G from B-inverse, IUseBI=4.
 Internal  Forces:  Max     0.007639680 RMS     0.001723626
 Search for a local minimum.
 Step number   3 out of a maximum of   49
 All quantities printed in internal units (Hartrees-Bohrs-Radians)
 Mixed Optimization -- RFO/linear search
 Update second derivatives using D2CorX and points    2    3
 DE= -2.62D-04 DEPred=-1.04D-03 R= 2.51D-01
 Trust test= 2.51D-01 RLast= 9.91D-01 DXMaxT set to 5.05D-01
 ITU=  0  1  0
 Use linear search instead of GDIIS.
     Eigenvalues ---   -0.00148   0.00211   0.03642   0.04041   0.04284
     Eigenvalues ---    0.04675   0.06543   0.07433   0.10795   0.12029
     Eigenvalues ---    0.13394   0.15696   0.16071   0.22152   0.23245
     Eigenvalues ---    0.29923   0.30470   0.30778   0.30838   0.31202
     Eigenvalues ---    0.32206   0.37422   0.46475   0.77643
 RFO step:  Lambda=-2.33605947D-03 EMin=-1.47964801D-03
 Quartic linear search produced a step of -0.40489.
 Iteration  1 RMS(Cart)=  0.10051057 RMS(Int)=  0.14420648
 Iteration  2 RMS(Cart)=  0.08853051 RMS(Int)=  0.06656672
 Iteration  3 RMS(Cart)=  0.07342748 RMS(Int)=  0.00468166
 Iteration  4 RMS(Cart)=  0.00482483 RMS(Int)=  0.00027699
 Iteration  5 RMS(Cart)=  0.00002332 RMS(Int)=  0.00027645
 Iteration  6 RMS(Cart)=  0.00000000 RMS(Int)=  0.00027645
 Variable       Old X    -DE/DX   Delta X   Delta X   Delta X     New X
                                 (Linear)    (Quad)   (Total)
    R1        2.94474   0.00036  -0.01207   0.07898   0.06691   3.01164
    R2        2.35838   0.00035  -0.00142   0.01539   0.01397   2.37235
    R3        2.37411  -0.00764  -0.01505   0.05014   0.03509   2.40920
    R4        2.87981  -0.00014   0.00213  -0.00743  -0.00530   2.87451
    R5        2.07554   0.00004   0.00098  -0.01963  -0.01865   2.05689
    R6        2.06248   0.00109   0.00404  -0.00504  -0.00100   2.06148
    R7        2.05679   0.00197   0.00393  -0.00428  -0.00034   2.05645
    R8        2.07172   0.00003   0.00295  -0.01510  -0.01215   2.05957
    R9        2.06673   0.00078   0.00155  -0.01782  -0.01628   2.05045
    A1        2.03141  -0.00376   0.00724  -0.07008  -0.06362   1.96779
    A2        2.00134   0.00351   0.00498  -0.00077   0.00342   2.00477
    A3        2.24933   0.00033  -0.01184   0.07359   0.06095   2.31029
    A4        1.99655  -0.00269  -0.00165  -0.01191  -0.01376   1.98279
    A5        1.84916   0.00130   0.00935   0.00774   0.01703   1.86619
    A6        1.89340   0.00125  -0.00154  -0.02598  -0.02754   1.86586
    A7        1.91281  -0.00014  -0.00122   0.03681   0.03547   1.94828
    A8        1.95724  -0.00005  -0.01213   0.01422   0.00167   1.95891
    A9        1.84566   0.00065   0.00892  -0.02215  -0.01318   1.83247
   A10        1.91944  -0.00105   0.00312  -0.01560  -0.01253   1.90691
   A11        1.95667   0.00100  -0.00774   0.04820   0.04032   1.99699
   A12        1.93494  -0.00063  -0.00108  -0.00908  -0.01056   1.92438
   A13        1.91142  -0.00046  -0.00501  -0.01535  -0.02018   1.89124
   A14        1.85743   0.00115   0.00891  -0.03166  -0.02308   1.83436
   A15        1.88091   0.00002   0.00238   0.01978   0.02174   1.90266
    D1        0.65511  -0.00113  -0.15942  -0.40995  -0.56956   0.08555
    D2       -1.45390  -0.00024  -0.16347  -0.45429  -0.61782  -2.07172
    D3        2.85442  -0.00219  -0.17770  -0.42084  -0.59828   2.25615
    D4       -2.53241   0.00050  -0.14814  -0.35070  -0.49904  -3.03145
    D5        1.64177   0.00140  -0.15219  -0.39503  -0.54730   1.09447
    D6       -0.33310  -0.00055  -0.16642  -0.36158  -0.52775  -0.86085
    D7       -0.91714  -0.00046  -0.03285  -0.03556  -0.06864  -0.98577
    D8       -3.04811   0.00019  -0.02343  -0.03788  -0.06125  -3.10935
    D9        1.13219  -0.00007  -0.02053  -0.08967  -0.11029   1.02189
   D10        1.15626  -0.00066  -0.02284  -0.00723  -0.03020   1.12606
   D11       -0.97471  -0.00002  -0.01342  -0.00954  -0.02281  -0.99752
   D12       -3.07760  -0.00027  -0.01052  -0.06133  -0.07186   3.13373
   D13       -3.08275   0.00003  -0.01992  -0.00249  -0.02246  -3.10521
   D14        1.06947   0.00068  -0.01050  -0.00480  -0.01507   1.05440
   D15       -1.03342   0.00042  -0.00759  -0.05659  -0.06412  -1.09754
         Item               Value     Threshold  Converged?
 Maximum Force            0.007640     0.000450     NO 
 RMS     Force            0.001724     0.000300     NO 
 Maximum Displacement     0.977179     0.001800     NO 
 RMS     Displacement     0.251366     0.001200     NO 
 Predicted change in Energy=-2.697138D-03
 GradGradGradGradGradGradGradGradGradGradGradGradGradGradGradGradGradGrad

                          Input orientation:                          
 ---------------------------------------------------------------------
 Center     Atomic      Atomic             Coordinates (Angstroms)
 Number     Number       Type             X           Y           Z
 ---------------------------------------------------------------------
      1          6           0       -1.348450    0.474646   -0.035846
      2          6           0       -1.568865   -1.101826    0.041700
      3          6           0       -0.274066   -1.899793    0.018015
      4          8           0       -0.144461    0.788818   -0.202328
      5          8           0       -2.406129    1.171566    0.108958
      6          1           0       -2.221602   -1.371628   -0.786481
      7          1           0       -2.157174   -1.296101    0.939579
      8          1           0        0.289852   -1.642408   -0.876405
      9          1           0       -0.410636   -2.980888    0.038492
     10          1           0        0.362254   -1.608087    0.847077
 ---------------------------------------------------------------------
                    Distance matrix (angstroms):
                    1          2          3          4          5
     1  C    0.000000
     2  C    1.593694   0.000000
     3  C    2.606753   1.521123   0.000000
     4  O    1.255392   2.379708   2.700736   0.000000
     5  O    1.274892   2.423601   3.739947   2.314851   0.000000
     6  H    2.175908   1.088459   2.172342   3.053404   2.702535
     7  H    2.177392   1.090888   2.181701   3.114779   2.615585
     8  H    2.805797   2.142423   1.088227   2.560053   4.019665
     9  H    3.581304   2.207347   1.089880   3.786757   4.607584
    10  H    2.836167   2.152709   1.085053   2.665176   3.991896
                    6          7          8          9         10
     6  H    0.000000
     7  H    1.728913   0.000000
     8  H    2.527610   3.066866   0.000000
     9  H    2.559277   2.588602   1.766140   0.000000
    10  H    3.066063   2.540357   1.725344   1.770806   0.000000
 Stoichiometry    C3H5O2(1-)
 Framework group  C1[X(C3H5O2)]
 Deg. of freedom    24
 Full point group                 C1      NOp   1
 Largest Abelian subgroup         C1      NOp   1
 Largest concise Abelian subgroup C1      NOp   1
                         Standard orientation:                         
 ---------------------------------------------------------------------
 Center     Atomic      Atomic             Coordinates (Angstroms)
 Number     Number       Type             X           Y           Z
 ---------------------------------------------------------------------
      1          6           0        0.721010    0.089197    0.014782
      2          6           0       -0.612069   -0.783551    0.047509
      3          6           0       -1.884793    0.044911   -0.039917
      4          8           0        0.493212    1.323734    0.020756
      5          8           0        1.801761   -0.584792   -0.040590
      6          1           0       -0.580766   -1.375755    0.960229
      7          1           0       -0.535737   -1.509817   -0.762890
      8          1           0       -1.893625    0.775459    0.766594
      9          1           0       -2.805253   -0.536266    0.013226
     10          1           0       -1.889289    0.631507   -0.952729
 ---------------------------------------------------------------------
 Rotational constants (GHZ):     10.2030659      3.9711529      2.9625997
 Standard basis: 6-311+G(d) (5D, 7F)
 There are   130 symmetry adapted cartesian basis functions of A   symmetry.
 There are   125 symmetry adapted basis functions of A   symmetry.
   125 basis functions,   205 primitive gaussians,   130 cartesian basis functions
    20 alpha electrons       20 beta electrons
       nuclear repulsion energy       167.5840003969 Hartrees.
 NAtoms=   10 NActive=   10 NUniq=   10 SFac= 1.00D+00 NAtFMM=   60 NAOKFM=F Big=F
 Integral buffers will be    131072 words long.
 Raffenetti 2 integral format.
 Two-electron integral symmetry is turned on.
 Nuclear repulsion after empirical dispersion term =      167.5839131812 Hartrees.
 One-electron integrals computed using PRISM.
 NBasis=   125 RedAO= T EigKep=  7.59D-05  NBF=   125
 NBsUse=   125 1.00D-06 EigRej= -1.00D+00 NBFU=   125
 Initial guess from the checkpoint file:  "carboxy.M062X_6-311pGd_opt_GD3.chk"
 B after Tr=     0.000000   -0.000000   -0.000000
         Rot=    0.997470   -0.061799    0.000650   -0.035134 Ang=  -8.15 deg.
 ExpMin= 4.38D-02 ExpMax= 8.59D+03 ExpMxC= 1.30D+03 IAcc=2 IRadAn=         4 AccDes= 0.00D+00
 Harris functional with IExCor= 1009 and IRadAn=       4 diagonalized for initial guess.
 HarFok:  IExCor= 1009 AccDes= 0.00D+00 IRadAn=         4 IDoV= 1 UseB2=F ITyADJ=14
 ICtDFT=  3500011 ScaDFX=  1.000000  1.000000  1.000000  1.000000
 FoFCou: FMM=F IPFlag=           0 FMFlag=      100000 FMFlg1=           0
         NFxFlg=           0 DoJE=T BraDBF=F KetDBF=T FulRan=T
         wScrn=  0.000000 ICntrl=     500 IOpCl=  0 I1Cent=   200000004 NGrid=           0
         NMat0=    1 NMatS0=      1 NMatT0=    0 NMatD0=    1 NMtDS0=    0 NMtDT0=    0
 Petite list used in FoFCou.
 Keep R1 ints in memory in canonical form, NReq=32206990.
 Requested convergence on RMS density matrix=1.00D-08 within 128 cycles.
 Requested convergence on MAX density matrix=1.00D-06.
 Requested convergence on             energy=1.00D-06.
 No special actions if energy rises.
 SCF Done:  E(RM062X) =  -267.797902325     A.U. after   14 cycles
            NFock= 14  Conv=0.56D-08     -V/T= 2.0037
 Calling FoFJK, ICntrl=      2127 FMM=F ISym2X=0 I1Cent= 0 IOpClX= 0 NMat=1 NMatS=1 NMatT=0.
 ***** Axes restored to original set *****
 -------------------------------------------------------------------
 Center     Atomic                   Forces (Hartrees/Bohr)
 Number     Number              X              Y              Z
 -------------------------------------------------------------------
      1        6          -0.010138256   -0.004762401    0.007015635
      2        6          -0.003362018    0.011570532    0.001332168
      3        6           0.000512221    0.004760722   -0.003848381
      4        8          -0.018431410    0.011044616    0.000400304
      5        8           0.033878231   -0.015701538   -0.006624825
      6        1          -0.002099252   -0.001799622   -0.004838988
      7        1          -0.000392608   -0.001050825    0.003310823
      8        1           0.001270933   -0.000260540   -0.002511546
      9        1          -0.003398318   -0.003955120    0.001079431
     10        1           0.002160477    0.000154176    0.004685378
 -------------------------------------------------------------------
 Cartesian Forces:  Max     0.033878231 RMS     0.008880073

 GradGradGradGradGradGradGradGradGradGradGradGradGradGradGradGradGradGrad
 Berny optimization.
 Using GEDIIS/GDIIS optimizer.
 FormGI is forming the generalized inverse of G from B-inverse, IUseBI=4.
 Internal  Forces:  Max     0.037441651 RMS     0.008053344
 Search for a local minimum.
 Step number   4 out of a maximum of   49
 All quantities printed in internal units (Hartrees-Bohrs-Radians)
 Mixed Optimization -- RFO/linear search
 Update second derivatives using D2CorX and points    4    3
 DE=  2.28D-03 DEPred=-2.70D-03 R=-8.46D-01
 Trust test=-8.46D-01 RLast= 1.39D+00 DXMaxT set to 2.52D-01
 ITU= -1  0  1  0
 Use linear search instead of GDIIS.
 Energy rises -- skip Quadratic/GDIIS search.
 Quartic linear search produced a step of -0.83117.
 Iteration  1 RMS(Cart)=  0.09916964 RMS(Int)=  0.10501659
 Iteration  2 RMS(Cart)=  0.08706130 RMS(Int)=  0.02850608
 Iteration  3 RMS(Cart)=  0.02973358 RMS(Int)=  0.00094919
 Iteration  4 RMS(Cart)=  0.00090598 RMS(Int)=  0.00004199
 Iteration  5 RMS(Cart)=  0.00000080 RMS(Int)=  0.00004198
 Variable       Old X    -DE/DX   Delta X   Delta X   Delta X     New X
                                 (Linear)    (Quad)   (Total)
    R1        3.01164  -0.00862  -0.05561   0.00000  -0.05561   2.95603
    R2        2.37235  -0.01497  -0.01161   0.00000  -0.01161   2.36074
    R3        2.40920  -0.03744  -0.02916   0.00000  -0.02916   2.38003
    R4        2.87451   0.00011   0.00441   0.00000   0.00441   2.87892
    R5        2.05689   0.00539   0.01550   0.00000   0.01550   2.07239
    R6        2.06148   0.00312   0.00083   0.00000   0.00083   2.06231
    R7        2.05645   0.00266   0.00028   0.00000   0.00028   2.05673
    R8        2.05957   0.00437   0.01010   0.00000   0.01010   2.06967
    R9        2.05045   0.00489   0.01353   0.00000   0.01353   2.06398
    A1        1.96779   0.01967   0.05288   0.00000   0.05300   2.02079
    A2        2.00477  -0.00286  -0.00285   0.00000  -0.00273   2.00204
    A3        2.31029  -0.01672  -0.05066   0.00000  -0.05054   2.25974
    A4        1.98279   0.00301   0.01144   0.00000   0.01148   1.99427
    A5        1.86619  -0.00053  -0.01416   0.00000  -0.01415   1.85204
    A6        1.86586  -0.00052   0.02289   0.00000   0.02291   1.88877
    A7        1.94828  -0.00160  -0.02948   0.00000  -0.02947   1.91881
    A8        1.95891  -0.00169  -0.00139   0.00000  -0.00132   1.95759
    A9        1.83247   0.00128   0.01096   0.00000   0.01095   1.84343
   A10        1.90691   0.00178   0.01041   0.00000   0.01043   1.91734
   A11        1.99699  -0.00476  -0.03351   0.00000  -0.03349   1.96350
   A12        1.92438   0.00075   0.00878   0.00000   0.00884   1.93322
   A13        1.89124   0.00129   0.01677   0.00000   0.01675   1.90799
   A14        1.83436   0.00043   0.01918   0.00000   0.01923   1.85359
   A15        1.90266   0.00095  -0.01807   0.00000  -0.01801   1.88465
    D1        0.08555   0.00139   0.47340   0.00000   0.47343   0.55897
    D2       -2.07172   0.00183   0.51351   0.00000   0.51352  -1.55820
    D3        2.25615   0.00085   0.49727   0.00000   0.49724   2.75338
    D4       -3.03145  -0.00142   0.41478   0.00000   0.41481  -2.61664
    D5        1.09447  -0.00098   0.45490   0.00000   0.45490   1.54937
    D6       -0.86085  -0.00196   0.43865   0.00000   0.43862  -0.42223
    D7       -0.98577  -0.00078   0.05705   0.00000   0.05707  -0.92870
    D8       -3.10935  -0.00050   0.05091   0.00000   0.05089  -3.05847
    D9        1.02189   0.00117   0.09167   0.00000   0.09168   1.11357
   D10        1.12606  -0.00048   0.02510   0.00000   0.02512   1.15118
   D11       -0.99752  -0.00020   0.01896   0.00000   0.01893  -0.97858
   D12        3.13373   0.00147   0.05972   0.00000   0.05973  -3.08973
   D13       -3.10521  -0.00105   0.01867   0.00000   0.01868  -3.08653
   D14        1.05440  -0.00076   0.01253   0.00000   0.01250   1.06689
   D15       -1.09754   0.00090   0.05329   0.00000   0.05329  -1.04425
         Item               Value     Threshold  Converged?
 Maximum Force            0.037442     0.000450     NO 
 RMS     Force            0.008053     0.000300     NO 
 Maximum Displacement     0.822814     0.001800     NO 
 RMS     Displacement     0.209763     0.001200     NO 
 Predicted change in Energy=-2.338090D-04
 GradGradGradGradGradGradGradGradGradGradGradGradGradGradGradGradGradGrad

                          Input orientation:                          
 ---------------------------------------------------------------------
 Center     Atomic      Atomic             Coordinates (Angstroms)
 Number     Number       Type             X           Y           Z
 ---------------------------------------------------------------------
      1          6           0       -1.345496    0.460348   -0.048903
      2          6           0       -1.558691   -1.088250    0.008722
      3          6           0       -0.268461   -1.895913    0.071218
      4          8           0       -0.313123    0.845178   -0.637742
      5          8           0       -2.267590    1.138620    0.476387
      6          1           0       -2.121536   -1.351843   -0.894822
      7          1           0       -2.224197   -1.310173    0.844692
      8          1           0        0.389243   -1.605753   -0.745970
      9          1           0       -0.447229   -2.975526    0.026587
     10          1           0        0.277801   -1.682387    0.992593
 ---------------------------------------------------------------------
                    Distance matrix (angstroms):
                    1          2          3          4          5
     1  C    0.000000
     2  C    1.564266   0.000000
     3  C    2.593531   1.523457   0.000000
     4  O    1.249248   2.389037   2.831643   0.000000
     5  O    1.259460   2.383316   3.656374   2.268773   0.000000
     6  H    2.145193   1.096663   2.159430   2.857158   2.846744
     7  H    2.169187   1.091327   2.183176   3.239654   2.476716
     8  H    2.786395   2.152166   1.088377   2.551881   4.010549
     9  H    3.552156   2.190314   1.095223   3.880348   4.521308
    10  H    2.882902   2.166496   1.092212   3.065252   3.834523
                    6          7          8          9         10
     6  H    0.000000
     7  H    1.743039   0.000000
     8  H    2.527972   3.073702   0.000000
     9  H    2.507717   2.569106   1.781238   0.000000
    10  H    3.070573   2.533853   1.743816   1.769476   0.000000
 Stoichiometry    C3H5O2(1-)
 Framework group  C1[X(C3H5O2)]
 Deg. of freedom    24
 Full point group                 C1      NOp   1
 Largest Abelian subgroup         C1      NOp   1
 Largest concise Abelian subgroup C1      NOp   1
                         Standard orientation:                         
 ---------------------------------------------------------------------
 Center     Atomic      Atomic             Coordinates (Angstroms)
 Number     Number       Type             X           Y           Z
 ---------------------------------------------------------------------
      1          6           0        0.703771    0.063815    0.018948
      2          6           0       -0.644767   -0.690355    0.263084
      3          6           0       -1.881377    0.075992   -0.189054
      4          8           0        0.651411    1.309558    0.096433
      5          8           0        1.695048   -0.684438   -0.190158
      6          1           0       -0.696242   -0.880404    1.341926
      7          1           0       -0.575547   -1.673521   -0.205519
      8          1           0       -1.884094    1.069144    0.256149
      9          1           0       -2.812130   -0.439811    0.070100
     10          1           0       -1.869412    0.226918   -1.270722
 ---------------------------------------------------------------------
 Rotational constants (GHZ):      9.8590696      3.9872546      3.0268192
 Standard basis: 6-311+G(d) (5D, 7F)
 There are   130 symmetry adapted cartesian basis functions of A   symmetry.
 There are   125 symmetry adapted basis functions of A   symmetry.
   125 basis functions,   205 primitive gaussians,   130 cartesian basis functions
    20 alpha electrons       20 beta electrons
       nuclear repulsion energy       168.1794417265 Hartrees.
 NAtoms=   10 NActive=   10 NUniq=   10 SFac= 1.00D+00 NAtFMM=   60 NAOKFM=F Big=F
 Integral buffers will be    131072 words long.
 Raffenetti 2 integral format.
 Two-electron integral symmetry is turned on.
 Nuclear repulsion after empirical dispersion term =      168.1793518145 Hartrees.
 One-electron integrals computed using PRISM.
 NBasis=   125 RedAO= T EigKep=  8.49D-05  NBF=   125
 NBsUse=   125 1.00D-06 EigRej= -1.00D+00 NBFU=   125
 Lowest energy guess from the checkpoint file:  "carboxy.M062X_6-311pGd_opt_GD3.chk"
 B after Tr=    -0.000000   -0.000000    0.000000
         Rot=    0.999877   -0.013316    0.000596   -0.008249 Ang=  -1.80 deg.
 B after Tr=    -0.000000   -0.000000    0.000000
         Rot=    0.998434    0.049045   -0.000147    0.026926 Ang=   6.41 deg.
 Keep R1 ints in memory in canonical form, NReq=32206990.
 Requested convergence on RMS density matrix=1.00D-08 within 128 cycles.
 Requested convergence on MAX density matrix=1.00D-06.
 Requested convergence on             energy=1.00D-06.
 No special actions if energy rises.
 SCF Done:  E(RM062X) =  -267.800309044     A.U. after   11 cycles
            NFock= 11  Conv=0.50D-08     -V/T= 2.0034
 Calling FoFJK, ICntrl=      2127 FMM=F ISym2X=0 I1Cent= 0 IOpClX= 0 NMat=1 NMatS=1 NMatT=0.
 ***** Axes restored to original set *****
 -------------------------------------------------------------------
 Center     Atomic                   Forces (Hartrees/Bohr)
 Number     Number              X              Y              Z
 -------------------------------------------------------------------
      1        6          -0.008369617    0.003424360    0.004191787
      2        6          -0.001598078    0.001879166   -0.000924468
      3        6          -0.000164219    0.001169281    0.000770453
      4        8          -0.001908325    0.000425549    0.001933546
      5        8           0.010591789   -0.005343104   -0.005961665
      6        1           0.000541019   -0.000426112   -0.001364489
      7        1           0.000547237   -0.000591162    0.002131067
      8        1           0.000396343    0.000158278   -0.002219980
      9        1          -0.000128704   -0.000751843   -0.000317302
     10        1           0.000092556    0.000055587    0.001761052
 -------------------------------------------------------------------
 Cartesian Forces:  Max     0.010591789 RMS     0.003206999

 GradGradGradGradGradGradGradGradGradGradGradGradGradGradGradGradGradGrad
 Berny optimization.
 Using GEDIIS/GDIIS optimizer.
 FormGI is forming the generalized inverse of G from B-inverse, IUseBI=4.
 Internal  Forces:  Max     0.013117961 RMS     0.002336229
 Search for a local minimum.
 Step number   5 out of a maximum of   49
 All quantities printed in internal units (Hartrees-Bohrs-Radians)
 Mixed Optimization -- RFO/linear search
 Update second derivatives using D2CorX and points    3    5
 ITU=  0 -1  0  1  0
 Use linear search instead of GDIIS.
     Eigenvalues ---    0.00156   0.00211   0.03682   0.04252   0.04377
     Eigenvalues ---    0.04752   0.07100   0.07563   0.10807   0.12324
     Eigenvalues ---    0.15011   0.15973   0.21613   0.22770   0.26298
     Eigenvalues ---    0.30385   0.30565   0.30792   0.31105   0.31593
     Eigenvalues ---    0.32571   0.40219   0.57012   0.84833
 RFO step:  Lambda=-5.91895551D-04 EMin= 1.55558690D-03
 Quartic linear search produced a step of  0.00727.
 Iteration  1 RMS(Cart)=  0.04627135 RMS(Int)=  0.00170455
 Iteration  2 RMS(Cart)=  0.00177339 RMS(Int)=  0.00001974
 Iteration  3 RMS(Cart)=  0.00000214 RMS(Int)=  0.00001965
 Iteration  4 RMS(Cart)=  0.00000000 RMS(Int)=  0.00001965
 Variable       Old X    -DE/DX   Delta X   Delta X   Delta X     New X
                                 (Linear)    (Quad)   (Total)
    R1        2.95603  -0.00144   0.00008  -0.00368  -0.00359   2.95244
    R2        2.36074  -0.00236   0.00002   0.00062   0.00064   2.36137
    R3        2.38003  -0.01312   0.00004  -0.02108  -0.02104   2.35899
    R4        2.87892  -0.00017  -0.00001   0.00214   0.00214   2.88105
    R5        2.07239   0.00095  -0.00002   0.00194   0.00192   2.07431
    R6        2.06231   0.00142  -0.00000   0.00468   0.00468   2.06699
    R7        2.05673   0.00195  -0.00000   0.00520   0.00520   2.06193
    R8        2.06967   0.00077  -0.00001   0.00330   0.00329   2.07296
    R9        2.06398   0.00154  -0.00002   0.00317   0.00315   2.06714
    A1        2.02079   0.00034  -0.00008  -0.00028  -0.00037   2.02041
    A2        2.00204   0.00227   0.00001   0.00763   0.00762   2.00966
    A3        2.25974  -0.00259   0.00008  -0.00703  -0.00697   2.25278
    A4        1.99427  -0.00170  -0.00002  -0.00540  -0.00545   1.98882
    A5        1.85204   0.00086   0.00002   0.00736   0.00737   1.85941
    A6        1.88877   0.00101  -0.00003   0.00214   0.00203   1.89080
    A7        1.91881  -0.00028   0.00004  -0.00365  -0.00359   1.91523
    A8        1.95759  -0.00033   0.00000  -0.01020  -0.01022   1.94738
    A9        1.84343   0.00069  -0.00002   0.01213   0.01208   1.85551
   A10        1.91734  -0.00063  -0.00002  -0.00092  -0.00094   1.91639
   A11        1.96350   0.00001   0.00005  -0.00378  -0.00374   1.95976
   A12        1.93322  -0.00038  -0.00001  -0.00104  -0.00105   1.93216
   A13        1.90799  -0.00005  -0.00002  -0.00457  -0.00461   1.90338
   A14        1.85359   0.00099  -0.00003   0.00939   0.00936   1.86295
   A15        1.88465   0.00013   0.00003   0.00164   0.00167   1.88632
    D1        0.55897  -0.00049  -0.00070  -0.10419  -0.10489   0.45409
    D2       -1.55820   0.00030  -0.00076  -0.10147  -0.10220  -1.66040
    D3        2.75338  -0.00136  -0.00073  -0.11987  -0.12063   2.63275
    D4       -2.61664   0.00005  -0.00061  -0.09554  -0.09616  -2.71280
    D5        1.54937   0.00084  -0.00067  -0.09283  -0.09347   1.45590
    D6       -0.42223  -0.00083  -0.00065  -0.11123  -0.11190  -0.53413
    D7       -0.92870  -0.00037  -0.00008  -0.01552  -0.01559  -0.94429
    D8       -3.05847   0.00013  -0.00008  -0.00643  -0.00649  -3.06495
    D9        1.11357   0.00023  -0.00014  -0.00519  -0.00531   1.10827
   D10        1.15118  -0.00061  -0.00004  -0.01230  -0.01233   1.13886
   D11       -0.97858  -0.00011  -0.00003  -0.00320  -0.00323  -0.98181
   D12       -3.08973  -0.00001  -0.00009  -0.00197  -0.00205  -3.09178
   D13       -3.08653  -0.00013  -0.00003  -0.00586  -0.00591  -3.09244
   D14        1.06689   0.00038  -0.00002   0.00323   0.00319   1.07008
   D15       -1.04425   0.00047  -0.00008   0.00447   0.00437  -1.03988
         Item               Value     Threshold  Converged?
 Maximum Force            0.013118     0.000450     NO 
 RMS     Force            0.002336     0.000300     NO 
 Maximum Displacement     0.173200     0.001800     NO 
 RMS     Displacement     0.046234     0.001200     NO 
 Predicted change in Energy=-3.158374D-04
 GradGradGradGradGradGradGradGradGradGradGradGradGradGradGradGradGradGrad

                          Input orientation:                          
 ---------------------------------------------------------------------
 Center     Atomic      Atomic             Coordinates (Angstroms)
 Number     Number       Type             X           Y           Z
 ---------------------------------------------------------------------
      1          6           0       -1.349275    0.458241   -0.044111
      2          6           0       -1.563869   -1.088085    0.017594
      3          6           0       -0.268808   -1.891470    0.059524
      4          8           0       -0.269481    0.837088   -0.546089
      5          8           0       -2.297674    1.143163    0.391477
      6          1           0       -2.139640   -1.359532   -0.876668
      7          1           0       -2.204449   -1.312610    0.875298
      8          1           0        0.368595   -1.609232   -0.779892
      9          1           0       -0.448872   -2.972992    0.024692
     10          1           0        0.294195   -1.670269    0.970937
 ---------------------------------------------------------------------
                    Distance matrix (angstroms):
                    1          2          3          4          5
     1  C    0.000000
     2  C    1.562364   0.000000
     3  C    2.588298   1.524588   0.000000
     4  O    1.249585   2.387357   2.794959   0.000000
     5  O    1.248325   2.378387   3.665445   2.255278   0.000000
     6  H    2.149913   1.097679   2.158570   2.903776   2.810097
     7  H    2.170840   1.093805   2.178823   3.222676   2.504714
     8  H    2.786914   2.154529   1.091129   2.538953   4.007090
     9  H    3.548072   2.190010   1.096962   3.856771   4.527177
    10  H    2.874347   2.167995   1.093881   2.984282   3.868974
                    6          7          8          9         10
     6  H    0.000000
     7  H    1.753792   0.000000
     8  H    2.522490   3.073791   0.000000
     9  H    2.504875   2.561728   1.781979   0.000000
    10  H    3.071442   2.525923   1.753472   1.773307   0.000000
 Stoichiometry    C3H5O2(1-)
 Framework group  C1[X(C3H5O2)]
 Deg. of freedom    24
 Full point group                 C1      NOp   1
 Largest Abelian subgroup         C1      NOp   1
 Largest concise Abelian subgroup C1      NOp   1
                         Standard orientation:                         
 ---------------------------------------------------------------------
 Center     Atomic      Atomic             Coordinates (Angstroms)
 Number     Number       Type             X           Y           Z
 ---------------------------------------------------------------------
      1          6           0        0.703878    0.060699    0.016989
      2          6           0       -0.635553   -0.719109    0.213983
      3          6           0       -1.878459    0.081959   -0.157288
      4          8           0        0.622577    1.305754    0.085487
      5          8           0        1.712450   -0.653471   -0.159250
      6          1           0       -0.679599   -1.001686    1.273752
      7          1           0       -0.575817   -1.653805   -0.350981
      8          1           0       -1.883435    1.028926    0.384736
      9          1           0       -2.805188   -0.461905    0.063419
[...]
 
 Zero-point correction=                           0.077706 (Hartree/Particle)
 Thermal correction to Energy=                    0.083262
 Thermal correction to Enthalpy=                  0.084207
 Thermal correction to Gibbs Free Energy=         0.047836
 Sum of electronic and zero-point Energies=           -267.723059
 Sum of electronic and thermal Energies=              -267.717503
 Sum of electronic and thermal Enthalpies=            -267.716559
 Sum of electronic and thermal Free Energies=         -267.752929
 
                     E (Thermal)             CV                S
                      KCal/Mol        Cal/Mol-Kelvin    Cal/Mol-Kelvin
 Total                   52.248             17.685             76.548
 Electronic               0.000              0.000              0.000
 Translational            0.889              2.981             38.781
 Rotational               0.889              2.981             25.373
 Vibrational             50.471             11.723             12.394
 Vibration     1          0.593              1.985              6.455
 Vibration     2          0.639              1.835              2.102
 Vibration     3          0.675              1.727              1.590
 Vibration     4          0.852              1.259              0.668
 Vibration     5          0.939              1.069              0.481
                       Q            Log10(Q)             Ln(Q)
 Total Bot       0.992674D-22        -22.003194        -50.664225
 Total V=0       0.548433D+14         13.739123         31.635500
 Vib (Bot)       0.516961D-34        -34.286542        -78.947682
 Vib (Bot)    1  0.946293D+01          0.976026          2.247382
 Vib (Bot)    2  0.978776D+00         -0.009317         -0.021453
 Vib (Bot)    3  0.712650D+00         -0.147124         -0.338765
 Vib (Bot)    4  0.332371D+00         -0.478377         -1.101504
 Vib (Bot)    5  0.260887D+00         -0.583547         -1.343667
 Vib (V=0)       0.285611D+02          1.455774          3.352044
 Vib (V=0)    1  0.997613D+01          0.998962          2.300195
 Vib (V=0)    2  0.159909D+01          0.203873          0.469436
 Vib (V=0)    3  0.137056D+01          0.136897          0.315218
 Vib (V=0)    4  0.110039D+01          0.041547          0.095666
 Vib (V=0)    5  0.106397D+01          0.026929          0.062007
 Electronic      0.100000D+01          0.000000          0.000000
 Translational   0.245300D+08          7.389698         17.015408
 Rotational      0.782801D+05          4.893651         11.268048
 ***** Axes restored to original set *****
 -------------------------------------------------------------------
 Center     Atomic                   Forces (Hartrees/Bohr)
 Number     Number              X              Y              Z
 -------------------------------------------------------------------
      1        6           0.000001570    0.000000892   -0.000001228
      2        6          -0.000001429   -0.000001487   -0.000000258
      3        6           0.000000516    0.000000175   -0.000000222
      4        8          -0.000000131    0.000000354    0.000000370
      5        8          -0.000001207    0.000000575    0.000000451
      6        1           0.000000599    0.000000387    0.000000196
      7        1           0.000000292   -0.000000579    0.000000206
      8        1          -0.000000430   -0.000000147    0.000000068
      9        1           0.000000278    0.000000026    0.000000340
     10        1          -0.000000057   -0.000000197    0.000000077
 -------------------------------------------------------------------
 Cartesian Forces:  Max     0.000001570 RMS     0.000000662
 FormGI is forming the generalized inverse of G from B-inverse, IUseBI=4.

 GradGradGradGradGradGradGradGradGradGradGradGradGradGradGradGradGradGrad
 Berny optimization.
 Internal  Forces:  Max     0.000001932 RMS     0.000000456
 Search for a local minimum.
 Step number   1 out of a maximum of    2
 All quantities printed in internal units (Hartrees-Bohrs-Radians)
 Second derivative matrix not updated -- analytic derivatives used.
 ITU=  0
     Eigenvalues ---    0.00011   0.00178   0.03338   0.04097   0.04491
     Eigenvalues ---    0.04508   0.07536   0.08201   0.11043   0.12045
     Eigenvalues ---    0.14586   0.15843   0.18512   0.21621   0.23944
     Eigenvalues ---    0.30958   0.32975   0.33072   0.33805   0.34203
     Eigenvalues ---    0.35045   0.35682   0.58185   0.78364
 Angle between quadratic step and forces=  85.65 degrees.
 Linear search not attempted -- first point.
 Iteration  1 RMS(Cart)=  0.00008760 RMS(Int)=  0.00000001
 Iteration  2 RMS(Cart)=  0.00000001 RMS(Int)=  0.00000000
 Variable       Old X    -DE/DX   Delta X   Delta X   Delta X     New X
                                 (Linear)    (Quad)   (Total)
    R1        2.95429   0.00000   0.00000   0.00001   0.00001   2.95430
    R2        2.35944   0.00000   0.00000  -0.00000  -0.00000   2.35943
    R3        2.36047   0.00000   0.00000   0.00000   0.00000   2.36047
    R4        2.87970   0.00000   0.00000   0.00000   0.00000   2.87970
    R5        2.07069  -0.00000   0.00000  -0.00000  -0.00000   2.07069
    R6        2.07069   0.00000   0.00000   0.00000   0.00000   2.07069
    R7        2.06350  -0.00000   0.00000   0.00000   0.00000   2.06350
    R8        2.07342  -0.00000   0.00000   0.00000   0.00000   2.07342
    R9        2.06350  -0.00000   0.00000  -0.00000  -0.00000   2.06350
    A1        2.03135   0.00000   0.00000   0.00000   0.00000   2.03135
    A2        1.99776  -0.00000   0.00000  -0.00000  -0.00000   1.99775
    A3        2.25408  -0.00000   0.00000   0.00000   0.00000   2.25408
    A4        2.00081   0.00000   0.00000  -0.00000  -0.00000   2.00081
    A5        1.87032  -0.00000   0.00000   0.00000   0.00000   1.87032
    A6        1.87032   0.00000   0.00000  -0.00000  -0.00000   1.87032
    A7        1.93526   0.00000   0.00000   0.00001   0.00001   1.93527
    A8        1.93528  -0.00000   0.00000  -0.00001  -0.00001   1.93526
    A9        1.84356   0.00000   0.00000   0.00000   0.00000   1.84356
   A10        1.92828  -0.00000   0.00000   0.00000   0.00000   1.92828
   A11        1.95625   0.00000   0.00000   0.00000   0.00000   1.95625
   A12        1.92829   0.00000   0.00000  -0.00000  -0.00000   1.92828
   A13        1.89592   0.00000   0.00000  -0.00001  -0.00001   1.89591
   A14        1.85602   0.00000   0.00000   0.00000   0.00000   1.85602
   A15        1.89591  -0.00000   0.00000   0.00000   0.00000   1.89591
    D1        0.00015  -0.00000   0.00000  -0.00017  -0.00017  -0.00002
    D2       -2.15548  -0.00000   0.00000  -0.00018  -0.00018  -2.15566
    D3        2.15579  -0.00000   0.00000  -0.00019  -0.00019   2.15561
    D4       -3.14146   0.00000   0.00000  -0.00015  -0.00015   3.14157
    D5        0.98610   0.00000   0.00000  -0.00016  -0.00016   0.98594
    D6       -0.98582   0.00000   0.00000  -0.00017  -0.00017  -0.98598
    D7       -1.02440  -0.00000   0.00000  -0.00009  -0.00009  -1.02449
    D8       -3.14151  -0.00000   0.00000  -0.00009  -0.00009  -3.14159
    D9        1.02457   0.00000   0.00000  -0.00009  -0.00009   1.02449
   D10        1.09607  -0.00000   0.00000  -0.00008  -0.00008   1.09599
   D11       -1.02103  -0.00000   0.00000  -0.00008  -0.00008  -1.02111
   D12       -3.13814   0.00000   0.00000  -0.00008  -0.00008  -3.13822
   D13        3.13830  -0.00000   0.00000  -0.00008  -0.00008   3.13822
   D14        1.02119  -0.00000   0.00000  -0.00007  -0.00007   1.02111
   D15       -1.09592  -0.00000   0.00000  -0.00007  -0.00007  -1.09599
         Item               Value     Threshold  Converged?
 Maximum Force            0.000002     0.000450     YES
 RMS     Force            0.000000     0.000300     YES
 Maximum Displacement     0.000366     0.001800     YES
 RMS     Displacement     0.000088     0.001200     YES
 Predicted change in Energy=-5.164999D-11
 Optimization completed.
    -- Stationary point found.
                           ----------------------------
                           !   Optimized Parameters   !
                           ! (Angstroms and Degrees)  !
 --------------------------                            --------------------------
 ! Name  Definition              Value          Derivative Info.                !
 --------------------------------------------------------------------------------
 ! R1    R(1,2)                  1.5633         -DE/DX =    0.0                 !
 ! R2    R(1,4)                  1.2486         -DE/DX =    0.0                 !
 ! R3    R(1,5)                  1.2491         -DE/DX =    0.0                 !
 ! R4    R(2,3)                  1.5239         -DE/DX =    0.0                 !
 ! R5    R(2,6)                  1.0958         -DE/DX =    0.0                 !
 ! R6    R(2,7)                  1.0958         -DE/DX =    0.0                 !
 ! R7    R(3,8)                  1.092          -DE/DX =    0.0                 !
 ! R8    R(3,9)                  1.0972         -DE/DX =    0.0                 !
 ! R9    R(3,10)                 1.092          -DE/DX =    0.0                 !
 ! A1    A(2,1,4)              116.3878         -DE/DX =    0.0                 !
 ! A2    A(2,1,5)              114.463          -DE/DX =    0.0                 !
 ! A3    A(4,1,5)              129.1492         -DE/DX =    0.0                 !
 ! A4    A(1,2,3)              114.638          -DE/DX =    0.0                 !
 ! A5    A(1,2,6)              107.1612         -DE/DX =    0.0                 !
 ! A6    A(1,2,7)              107.1617         -DE/DX =    0.0                 !
 ! A7    A(3,2,6)              110.8822         -DE/DX =    0.0                 !
 ! A8    A(3,2,7)              110.8831         -DE/DX =    0.0                 !
 ! A9    A(6,2,7)              105.628          -DE/DX =    0.0                 !
 ! A10   A(2,3,8)              110.4823         -DE/DX =    0.0                 !
 ! A11   A(2,3,9)              112.0851         -DE/DX =    0.0                 !
 ! A12   A(2,3,10)             110.4828         -DE/DX =    0.0                 !
 ! A13   A(8,3,9)              108.628          -DE/DX =    0.0                 !
 ! A14   A(8,3,10)             106.3419         -DE/DX =    0.0                 !
 ! A15   A(9,3,10)             108.6275         -DE/DX =    0.0                 !
 ! D1    D(4,1,2,3)              0.0083         -DE/DX =    0.0                 !
 ! D2    D(4,1,2,6)           -123.4997         -DE/DX =    0.0                 !
 ! D3    D(4,1,2,7)            123.5179         -DE/DX =    0.0                 !
 ! D4    D(5,1,2,3)            180.0073         -DE/DX =    0.0                 !
 ! D5    D(5,1,2,6)             56.4993         -DE/DX =    0.0                 !
 ! D6    D(5,1,2,7)            -56.4831         -DE/DX =    0.0                 !
 ! D7    D(1,2,3,8)            -58.6936         -DE/DX =    0.0                 !
 ! D8    D(1,2,3,9)           -179.995          -DE/DX =    0.0                 !
 ! D9    D(1,2,3,10)            58.7037         -DE/DX =    0.0                 !
 ! D10   D(6,2,3,8)             62.8005         -DE/DX =    0.0                 !
 ! D11   D(6,2,3,9)            -58.501          -DE/DX =    0.0                 !
 ! D12   D(6,2,3,10)          -179.8022         -DE/DX =    0.0                 !
 ! D13   D(7,2,3,8)            179.8111         -DE/DX =    0.0                 !
 ! D14   D(7,2,3,9)             58.5097         -DE/DX =    0.0                 !
 ! D15   D(7,2,3,10)           -62.7916         -DE/DX =    0.0                 !
 --------------------------------------------------------------------------------
 GradGradGradGradGradGradGradGradGradGradGradGradGradGradGradGradGradGrad


 Test job not archived.
 1\1\GINC-R3721\Freq\RM062X\6-311+G(d)\C3H5O2(1-)\ROOT\18-Nov-2019\0\\#
  M062X/6-311+G* SCF=Tight INT(grid=ultrafine) EmpiricalDispersion=GD3 
 Freq=Noraman maxdisk=671088640 geom=check guess=read IOP(2/17=4)\\carb
 oxy.M062X_6-311pGd_opt_GD3\\-1,1\C,-1.3498935432,0.4640729973,-0.02481
 79596\C,-1.5557058876,-1.0839435575,0.0481367936\C,-0.2686741864,-1.89
 86891899,0.0043052719\O,-0.1700671173,0.8635961794,-0.110206965\O,-2.4
 06881576,1.1286971575,0.0115012606\H,-2.2215367563,-1.3608214454,-0.77
 69126173\H,-2.118925769,-1.2923942958,0.9646653086\H,0.285534227,-1.68
 85397916,-0.9127885059\H,-0.4613436848,-2.9775148411,0.0579604608\H,0.
 3882162614,-1.6201620367,0.8309194132\\Version=ES64L-G09RevE.01\State=
 1-A\HF=-267.8007656\RMSD=1.359e-09\RMSF=6.625e-07\ZeroPoint=0.0777062\
 Thermal=0.0832625\Dipole=0.2443045,-2.2177089,0.0727388\DipoleDeriv=2.
 2138181,-0.1853114,-0.1166742,-0.1990129,1.6798154,-0.0497052,-0.11614
 83,-0.0505015,0.1241425,0.1644358,-0.156243,0.0085206,-0.0923995,-0.41
 97484,0.0299736,0.0060177,0.0337207,0.2030557,-0.0276609,0.0878916,0.0
 02942,0.0961664,0.1088269,-0.0067721,0.0026158,-0.0062685,0.0805625,-1
 .6429217,-0.1989493,0.0745354,-0.3994636,-0.9840157,0.0420925,0.082427
 7,0.0302379,-0.5193628,-1.5333214,0.4577216,0.0399743,0.6359106,-1.195
 9217,-0.0122623,0.0329734,-0.0017403,-0.5539643,-0.0845078,-0.0095047,
 -0.1011395,-0.0134669,0.0019708,-0.0399625,-0.1333718,-0.0859484,-0.08
 54661,-0.0571733,0.007998,0.097282,0.0012023,0.011268,0.0319929,0.1299
 377,0.077349,-0.1220905,-0.0191274,0.0196535,0.0786813,-0.0191602,0.06
 63068,0.0410545,0.1110148,0.0029199,-0.107524,0.0288765,-0.0351455,0.0
 032784,0.0237497,-0.3303652,0.0139644,0.0009678,0.0174296,0.0605104,-0
 .0424179,0.0118893,-0.0874003,-0.0335258,0.0618631,-0.0503759,-0.11643
 47,-0.0171985,-0.0798635\Polar=55.7592396,-2.3265444,54.5217604,-0.966
 3282,-0.5180998,37.9179764\PG=C01 [X(C3H5O2)]\NImag=0\\0.94974845,-0.0
 4660211,0.55193485,-0.03947629,-0.00909194,0.25311975,-0.06716691,-0.0
 0768640,-0.00103338,0.54801724,-0.00596722,-0.12037405,0.00155380,0.00
 283987,0.42043149,-0.00110099,0.00165494,-0.08977033,0.00032615,0.0051
 4374,0.55542431,0.00699015,0.00873383,-0.00083736,-0.17570185,0.053146
 05,0.00356044,0.50886697,0.02597260,-0.01196984,-0.00111451,0.05523209
 ,-0.11242954,-0.00197314,0.04075134,0.54081123,-0.00151483,-0.00009993
 ,-0.00130254,0.00347757,-0.00185174,-0.07999157,0.00219593,-0.00112701
 ,0.57319751,-0.47478836,-0.15488901,0.02945969,-0.02217758,-0.02496296
 ,0.00369272,-0.00290906,0.00248467,-0.00002031,0.61089320,-0.14005104,
 -0.16668280,0.01171445,-0.04025834,-0.02545565,0.00431130,-0.00275479,
 -0.00116804,0.00014425,0.16748928,0.16491181,0.02887651,0.01259051,-0.
 08128786,0.00429280,0.00340709,0.02334697,0.00018542,-0.00016434,-0.00
 160960,-0.04107447,-0.01531425,0.02995865,-0.39115409,0.20835977,0.010
 09591,-0.00597162,0.01757771,0.00076700,0.00223544,0.00324220,-0.00011
 893,-0.11749184,0.02138337,0.00776475,0.50906384,0.19555722,-0.2490517
 0,-0.00497351,0.04032290,-0.04224252,0.00001334,-0.00431687,-0.0099617
 1,0.00073848,0.01554532,0.04144143,-0.00143927,-0.25410162,0.26206418,
 0.01059844,-0.00572931,-0.08204467,-0.00012598,0.00135559,0.01864855,0
 .00017746,0.00029259,0.00235323,0.00799385,-0.00178420,0.02778255,-0.0
 1831557,0.00589006,0.03082108,-0.00680837,-0.00032590,-0.00553732,-0.1
 3893737,-0.03870654,-0.11991692,-0.01679362,-0.00724583,-0.02150608,0.
 00021463,-0.00268695,0.00157074,0.00138251,0.00139829,0.00141338,0.153
 36929,-0.01884654,-0.00500416,-0.02798423,-0.03948864,-0.06033483,-0.0
 5662430,0.01255482,0.00389334,0.01555419,-0.00191497,-0.00535724,0.004
 45926,0.00188553,0.00053366,0.00417133,0.03975447,0.06599922,-0.000522
 80,0.00377067,0.00172339,-0.11826975,-0.05150212,-0.19639244,0.0023395
 6,0.00078889,0.00229043,0.00071111,-0.00045573,-0.00043048,0.00214528,
 -0.00103282,0.00091389,0.13038044,0.05521832,0.21202398,-0.00591145,-0
 .00027441,0.00635046,-0.11169399,-0.02396290,0.11188914,-0.01431427,-0
 .00550972,0.02404596,-0.00003684,-0.00270772,-0.00138688,0.00094836,0.
 00139846,-0.00151332,0.01035036,0.00442220,-0.01686229,0.12350959,-0.0
 1527877,-0.00298897,0.03033468,-0.02426304,-0.05246684,0.04796704,0.01
 049845,0.00257858,-0.01702853,-0.00245378,-0.00561912,-0.00378136,0.00
 121194,0.00027826,-0.00428650,0.00478424,0.00099510,-0.00795535,0.0238
 1130,0.05801490,0.00265415,-0.00339560,-0.00118967,0.11028472,0.042784
 19,-0.23150868,-0.00120624,-0.00015386,0.00112711,-0.00056866,0.001192
 74,0.00008148,-0.00225712,0.00093414,0.00160457,0.01261784,0.00555917,
 -0.02242341,-0.12192727,-0.04565449,0.24987387,-0.00154585,-0.00175904
 ,0.00032327,-0.01553976,-0.00482792,0.02601174,-0.11209450,-0.02667983
 ,0.11348911,0.00150206,0.00008508,-0.00081695,0.00068975,0.00030166,-0
 .00040041,0.00068505,-0.00100853,-0.00042968,-0.00456513,0.00363974,-0
 .00053038,0.12471368,0.00197292,0.00042856,-0.00090404,0.00868298,0.00
 376431,-0.01615121,-0.02779709,-0.05664869,0.04629651,-0.00107732,-0.0
 0049010,0.00076086,-0.00099319,0.00013014,0.00019303,-0.00076531,0.000
 73438,0.00031563,0.00334613,-0.00193887,-0.00021768,0.02685851,0.05862
 019,0.00264240,0.00190806,-0.00016761,0.00000427,-0.00092522,-0.000132
 59,0.11339788,0.04394767,-0.24022432,-0.00230182,0.00037732,0.00086777
 ,-0.00081475,-0.00061024,0.00002444,0.00038952,-0.00040601,0.00079343,
 0.00001213,0.00012195,0.00168653,-0.12444294,-0.05029994,0.25842323,-0
 .00749222,-0.00357219,0.00062405,0.00755376,0.03150595,-0.00174643,-0.
 05632071,-0.04655449,0.00215729,0.00293308,-0.00060560,-0.00010792,-0.
 00052679,0.00349741,-0.00010417,0.00098836,-0.00103442,-0.00045917,0.0
 0101391,-0.00103332,0.00041695,-0.00395275,-0.01514383,-0.00157771,0.0
 5984473,0.00138506,0.00336094,-0.00018558,-0.00593082,-0.01595263,0.00
 093205,-0.04774909,-0.29064665,0.01222224,0.00075292,-0.00101501,0.000
 02292,0.00238027,-0.00335619,-0.00000740,0.00041121,0.00048165,0.00074
 981,0.00030122,0.00039696,-0.00082985,-0.00115455,-0.00563870,0.000387
 14,0.05101662,0.32009377,0.00042933,0.00010691,0.00067808,-0.00027700,
 -0.00127320,-0.00103795,0.00220396,0.01215139,-0.05129153,-0.00016161,
 0.00010342,0.00070492,-0.00006050,-0.00007293,0.00004213,0.00013999,0.
 00032387,-0.00007378,-0.00029148,-0.00024009,-0.00001575,0.00364465,0.
 02787373,0.00059771,-0.00276082,-0.01371723,0.04762506,-0.00187137,-0.
 00198455,0.00003097,-0.01838190,-0.00664205,-0.02348284,-0.13995856,-0
 .04169303,-0.12220570,0.00186069,0.00010670,0.00069600,0.00082443,0.00
 039724,0.00027633,-0.00445085,0.00367608,0.00096731,0.00069947,-0.0009
 1676,0.00051601,0.01010744,0.00491621,0.01269101,-0.00404136,-0.001412
 85,-0.00286651,0.15521200,0.00185787,0.00034716,0.00065088,0.01054940,
 0.00506027,0.01472625,-0.04306664,-0.06445868,-0.05484846,-0.00097415,
 -0.00056527,-0.00054142,-0.00094599,0.00016445,-0.00009520,0.00338231,
 -0.00194113,0.00010271,-0.00082456,0.00074999,-0.00021875,0.00454490,0
 .00103877,0.00549928,-0.01807614,-0.00772414,-0.02525589,0.04355301,0.
 06732857,-0.00258592,-0.00171432,0.00024146,0.00132062,0.00130787,0.00
 141373,-0.12201704,-0.05264769,-0.20454872,0.00226949,-0.00028929,0.00
 058560,0.00079393,0.00055277,-0.00014578,0.00044842,-0.00027159,0.0015
 7499,-0.00031646,0.00052264,0.00076395,-0.01684839,-0.00786689,-0.0218
 6858,0.00355794,0.00042590,0.00277112,0.13337742,0.05998061,0.21921223
 \\-0.00000157,-0.00000089,0.00000123,0.00000143,0.00000149,0.00000026,
 -0.00000052,-0.00000017,0.00000022,0.00000013,-0.00000035,-0.00000037,
 0.00000121,-0.00000058,-0.00000045,-0.00000060,-0.00000039,-0.00000020
 ,-0.00000029,0.00000058,-0.00000021,0.00000043,0.00000015,-0.00000007,
 -0.00000028,-0.00000003,-0.00000034,0.00000006,0.00000020,-0.00000008\
 \\@


 I LOVE THOSE WHO LONG FOR THE IMPOSSIBLE.

                                 -- GOETHE
 Job cpu time:       0 days  0 hours  7 minutes 47.4 seconds.
 File lengths (MBytes):  RWF=     20 Int=      0 D2E=      0 Chk=      2 Scr=      1
 Normal termination of Gaussian 09 at Mon Nov 18 12:31:20 2019.
pbs_rusage has been removed.
Please contact help@nci.org.au if you require this functionality.
