 Entering Gaussian System, Link 0=/apps/gaussian/g09e01/g09/g09
 AtFile(1): /home/507/hio507/Basis/6-31pGd.gbs
 Initial command:
 /apps/gaussian/g09e01/g09/l1.exe "/jobfs/local/4046996.r-man2/Gau-57066.inp" -scrdir="/jobfs/local/4046996.r-man2/"
 Entering Link 1 = /apps/gaussian/g09e01/g09/l1.exe PID=     57067.
  
 Copyright (c) 1988,1990,1992,1993,1995,1998,2003,2009,2015,
            Gaussian, Inc.  All Rights Reserved.
  
 This is part of the Gaussian(R) 09 program.  It is based on
 the Gaussian(R) 03 system (copyright 2003, Gaussian, Inc.),
 the Gaussian(R) 98 system (copyright 1998, Gaussian, Inc.),
 the Gaussian(R) 94 system (copyright 1995, Gaussian, Inc.),
 the Gaussian 92(TM) system (copyright 1992, Gaussian, Inc.),
 the Gaussian 90(TM) system (copyright 1990, Gaussian, Inc.),
 the Gaussian 88(TM) system (copyright 1988, Gaussian, Inc.),
 the Gaussian 86(TM) system (copyright 1986, Carnegie Mellon
 University), and the Gaussian 82(TM) system (copyright 1983,
 Carnegie Mellon University). Gaussian is a federally registered
 trademark of Gaussian, Inc.
  
 This software contains proprietary and confidential information,
 including trade secrets, belonging to Gaussian, Inc.
  
 This software is provided under written license and may be
 used, copied, transmitted, or stored only in accord with that
 written license.
  
 The following legend is applicable only to US Government
 contracts under FAR:
  
                    RESTRICTED RIGHTS LEGEND
  
 Use, reproduction and disclosure by the US Government is
 subject to restrictions as set forth in subparagraphs (a)
 and (c) of the Commercial Computer Software - Restricted
 Rights clause in FAR 52.227-19.
  
 Gaussian, Inc.
 340 Quinnipiac St., Bldg. 40, Wallingford CT 06492
  
  
 ---------------------------------------------------------------
 Warning -- This program may not be used in any manner that
 competes with the business of Gaussian, Inc. or will provide
 assistance to any competitor of Gaussian, Inc.  The licensee
 of this program is prohibited from giving any competitor of
 Gaussian, Inc. access to this program.  By using this program,
 the user acknowledges that Gaussian, Inc. is engaged in the
 business of creating and licensing software in the field of
 computational chemistry and represents and warrants to the
 licensee that it is not a competitor of Gaussian, Inc. and that
 it will not use this program in any manner prohibited above.
 ---------------------------------------------------------------
  

 Cite this work as:
 Gaussian 09, Revision E.01,
 M. J. Frisch, G. W. Trucks, H. B. Schlegel, G. E. Scuseria, 
 M. A. Robb, J. R. Cheeseman, G. Scalmani, V. Barone, B. Mennucci, 
 G. A. Petersson, H. Nakatsuji, M. Caricato, X. Li, H. P. Hratchian, 
 A. F. Izmaylov, J. Bloino, G. Zheng, J. L. Sonnenberg, M. Hada, 
 M. Ehara, K. Toyota, R. Fukuda, J. Hasegawa, M. Ishida, T. Nakajima, 
 Y. Honda, O. Kitao, H. Nakai, T. Vreven, J. A. Montgomery, Jr., 
 J. E. Peralta, F. Ogliaro, M. Bearpark, J. J. Heyd, E. Brothers, 
 K. N. Kudin, V. N. Staroverov, T. Keith, R. Kobayashi, J. Normand, 
 K. Raghavachari, A. Rendell, J. C. Burant, S. S. Iyengar, J. Tomasi, 
 M. Cossi, N. Rega, J. M. Millam, M. Klene, J. E. Knox, J. B. Cross, 
 V. Bakken, C. Adamo, J. Jaramillo, R. Gomperts, R. E. Stratmann, 
 O. Yazyev, A. J. Austin, R. Cammi, C. Pomelli, J. W. Ochterski, 
 R. L. Martin, K. Morokuma, V. G. Zakrzewski, G. A. Voth, 
 P. Salvador, J. J. Dannenberg, S. Dapprich, A. D. Daniels, 
 O. Farkas, J. B. Foresman, J. V. Ortiz, J. Cioslowski, 
 and D. J. Fox, Gaussian, Inc., Wallingford CT, 2013.
 
 ******************************************
 Gaussian 09:  ES64L-G09RevE.01 30-Nov-2015
                 9-Dec-2019 
 ******************************************
 %chk=NM2CA_c2.MP2_6-31pGd.chk
 %mem=1114112000
 %nproc=8
 Will use up to    8 processors via shared memory.
 -------------------------------------------------------------
 # MP2/Gen 6D SCF=Tight INT(grid=ultrafine) maxdisk=3489660928
 -------------------------------------------------------------
 1/38=1/1;
 2/12=2,17=6,18=5,40=1/2;
 3/5=7,8=2,11=9,16=1,25=1,30=1,75=-5/1,2,3;
 4//1;
 5/5=2,32=2,38=5/2;
 8/10=1/1;
 9/16=-3/6;
 6/7=2,8=2,9=2,10=2/1;
 99/5=1,9=1/99;
 --------------------
 NM2CA_c2.MP2_6-31pGd
 --------------------
 Symbolic Z-matrix:
 Charge =  0 Multiplicity = 1
 C                    -5.81651   1.50248   0.22126 
 N                    -4.57911   0.85891   0.16426 
 C                    -3.33781   1.44448   0.08081 
 O                    -3.10742   2.62469   0.04944 
 O                    -2.40649   0.48017   0.03914 
 C                    -1.04714   0.93803  -0.04934 
 C                    -0.15327  -0.28216  -0.09328 
 C                     1.31549   0.12224  -0.18701 
 C                    -6.95415   0.68996   0.28999 
 C                    -8.22508   1.23472   0.34583 
 C                    -8.38707   2.62733   0.34553 
 C                    -7.25225   3.42516   0.2717 
 C                    -5.97345   2.88787   0.21079 
 H                    -4.57797  -0.15053   0.17716 
 H                    -0.83178   1.56849   0.81674 
 H                    -0.94087   1.55206  -0.94686 
 H                    -0.43452  -0.89879  -0.95121 
 H                    -0.32686  -0.88326   0.80333 
 H                     1.50895   0.70928  -1.08806 
 H                     1.9614   -0.75588  -0.21925 
 H                     1.6172    0.72425   0.6735 
 H                    -6.8412   -0.38781   0.29153 
 H                    -5.11196   3.53533   0.15673 
 C                    -9.73282   3.30954   0.38121 
 C                    -9.38539   0.2676    0.44695 
 H                    -7.36389   4.5018    0.2685 
 F                    -10.56886   2.74505   1.25881 
 F                    -10.33622   3.29757  -0.81528 
 F                    -9.61012   4.59811   0.7343 
 F                    -9.01896  -0.96926   0.07321 
 F                    -10.40868   0.62013  -0.33351 
 F                    -9.84052   0.16792   1.70114 
 
                          Input orientation:                          
 ---------------------------------------------------------------------
 Center     Atomic      Atomic             Coordinates (Angstroms)
 Number     Number       Type             X           Y           Z
 ---------------------------------------------------------------------
      1          6           0       -5.816510    1.502476    0.221260
      2          7           0       -4.579106    0.858914    0.164256
      3          6           0       -3.337808    1.444480    0.080809
      4          8           0       -3.107425    2.624687    0.049442
      5          8           0       -2.406493    0.480166    0.039136
      6          6           0       -1.047136    0.938034   -0.049338
      7          6           0       -0.153274   -0.282158   -0.093282
      8          6           0        1.315486    0.122241   -0.187005
      9          6           0       -6.954149    0.689956    0.289992
     10          6           0       -8.225079    1.234724    0.345827
     11          6           0       -8.387075    2.627334    0.345535
     12          6           0       -7.252251    3.425156    0.271701
     13          6           0       -5.973445    2.887873    0.210785
     14          1           0       -4.577971   -0.150529    0.177164
     15          1           0       -0.831776    1.568493    0.816744
     16          1           0       -0.940866    1.552059   -0.946863
     17          1           0       -0.434521   -0.898790   -0.951205
     18          1           0       -0.326858   -0.883263    0.803329
     19          1           0        1.508947    0.709277   -1.088056
     20          1           0        1.961405   -0.755877   -0.219247
     21          1           0        1.617198    0.724253    0.673499
     22          1           0       -6.841204   -0.387811    0.291533
     23          1           0       -5.111963    3.535327    0.156734
     24          6           0       -9.732821    3.309536    0.381205
     25          6           0       -9.385393    0.267595    0.446949
     26          1           0       -7.363890    4.501800    0.268496
     27          9           0      -10.568858    2.745049    1.258809
     28          9           0      -10.336222    3.297569   -0.815276
     29          9           0       -9.610124    4.598114    0.734299
     30          9           0       -9.018959   -0.969256    0.073208
     31          9           0      -10.408677    0.620130   -0.333513
     32          9           0       -9.840521    0.167921    1.701141
 ---------------------------------------------------------------------
                    Distance matrix (angstroms):
                    1          2          3          4          5
     1  C    0.000000
     2  N    1.395919   0.000000
     3  C    2.483356   1.375018   0.000000
     4  O    2.937350   2.301518   1.202892   0.000000
     5  O    3.564618   2.208926   1.341262   2.256188   0.000000
     6  C    4.810275   3.539307   2.349596   2.664460   1.437123
     7  C    5.946100   4.577812   3.626685   4.146942   2.382367
     8  C    7.275789   5.950823   4.844913   5.087267   3.745982
     9  C    1.399691   2.384362   3.700134   4.312579   4.559398
    10  C    2.426605   3.669784   4.898944   5.311330   5.875317
    11  C    2.808657   4.202475   5.192718   5.287947   6.361727
    12  C    2.400124   3.707134   4.391171   4.227260   5.675246
    13  C    1.394297   2.462320   3.007800   2.882598   4.306932
    14  H    2.065998   1.009526   2.022707   3.143349   2.265424
    15  H    5.020611   3.869332   2.614799   2.623524   2.066123
    16  H    5.013868   3.866759   2.610174   2.614791   2.066207
    17  H    6.008873   4.638035   3.871051   4.534380   2.602109
    18  H    6.013887   4.639527   3.873789   4.539341   2.601502
    19  H    7.483702   6.217321   5.039623   5.125777   4.080898
    20  H    8.111114   6.747808   5.745716   6.098643   4.546768
    21  H    7.488001   6.218653   5.042032   5.130610   4.080697
    22  H    2.151307   2.586041   3.959227   4.803630   4.525897
    23  H    2.152449   2.728953   2.743180   2.204303   4.082573
    24  C    4.316079   5.710813   6.668198   6.668955   7.861133
    25  C    3.783224   4.850769   6.171904   6.717646   6.994036
    26  H    3.375286   4.586557   5.058831   4.657148   6.387638
    27  F    5.020489   6.374377   7.440918   7.559765   8.558125
    28  F    4.972380   6.328579   7.294842   7.311362   8.458628
    29  F    4.923179   6.294260   7.050845   6.829974   8.326647
    30  F    4.048093   4.802373   6.172654   6.918326   6.769541
    31  F    4.708960   5.855654   7.130807   7.581107   8.012078
    32  F    4.490407   5.524670   6.822050   7.355162   7.623945
                    6          7          8          9         10
     6  C    0.000000
     7  C    1.513205   0.000000
     8  C    2.503289   1.526296   0.000000
     9  C    5.921950   6.880684   8.302812   0.000000
    10  C    7.194932   8.224827   9.619974   1.383890   0.000000
    11  C    7.542172   8.743751  10.034878   2.410352   1.402001
    12  C    6.692704   8.017036   9.193790   2.751458   2.397891
    13  C    5.304532   6.634452   7.806118   2.408089   2.796603
    14  H    3.701765   4.434908   5.910995   2.522968   3.904967
    15  H    1.092683   2.171042   2.776669   6.207475   7.415800
    16  H    1.092644   2.171003   2.777209   6.199403   7.404829
    17  H    2.136021   1.093328   2.165417   6.824239   8.180890
    18  H    2.136109   1.093330   2.165431   6.830778   8.190059
    19  H    2.768543   2.176120   1.092672   8.574578   9.853090
    20  H    3.456808   2.170747   1.090570   9.046373  10.394530
    21  H    2.768912   2.176095   1.092665   8.579991   9.860951
    22  H    5.953594   6.699825   8.186620   1.083670   2.133232
    23  H    4.828169   6.262931   7.285562   3.392278   3.875567
    24  C    9.013906  10.241734  11.512897   3.819887   2.565030
    25  C    8.379875   9.264237  10.720626   2.472644   1.513900
    26  H    7.259671   8.660838   9.732399   3.833863   3.379557
    27  F    9.779557  10.930532  12.255902   4.269442   2.933926
    28  F    9.614634  10.817955  12.092962   4.411313   3.171816
    29  F    9.345322  10.673985  11.842770   4.746084   3.658094
    30  F    8.197727   8.893829  10.395183   2.657710   2.358410
    31  F    9.371247  10.297821  11.735645   3.511039   2.367980
    32  F    8.998937   9.862317  11.314755   3.254997   2.363176
                   11         12         13         14         15
    11  C    0.000000
    12  C    1.389171   0.000000
    13  C    2.431387   1.388426   0.000000
    14  H    4.717430   4.466120   3.343705   0.000000
    15  H    7.643672   6.705726   5.342725   4.171100   0.000000
    16  H    7.633644   6.695294   5.333985   4.170224   1.767054
    17  H    8.795351   8.165381   6.809458   4.359047   3.061200
    18  H    8.803463   8.173504   6.815902   4.359008   2.503244
    19  H   10.181620   9.272730   7.900599   6.276195   3.137754
    20  H   10.902116  10.129833   8.742064   6.579288   3.778602
    21  H   10.188952   9.280271   7.906530   6.276282   2.594366
    22  H    3.388766   3.835111   3.389636   2.278510   6.341624
    23  H    3.403888   2.146203   1.079014   3.724393   4.756475
    24  C    1.509206   2.485677   3.786786   6.211776   9.080172
    25  C    2.564233   3.814603   4.308481   4.833106   8.659875
    26  H    2.136928   1.082421   2.131062   5.423453   7.181460
    27  F    2.368144   3.526587   4.715567   6.741295   9.817865
    28  F    2.365560   3.272412   4.500497   6.784672   9.797331
    29  F    2.351799   2.673835   4.052706   6.941367   9.286808
    30  F    3.661817   4.740413   4.916455   4.517023   8.603661
    31  F    2.928626   4.265851   5.011007   5.903544   9.692240
    32  F    3.162102   4.399094   4.957174   5.488019   9.159763
                   16         17         18         19         20
    16  H    0.000000
    17  H    2.502611   0.000000
    18  H    3.061204   1.757903   0.000000
    19  H    2.594572   2.526198   3.079562   0.000000
    20  H    3.778779   2.509312   2.509589   1.762448   0.000000
    21  H    3.139192   3.079527   2.525929   1.764942   1.762459
    22  H    6.333301   6.546074   6.553176   8.534161   8.825094
    23  H    4.748613   6.539678   6.545170   7.305650   8.281807
    24  C    9.063716  10.292896  10.306789  11.631742  12.395283
    25  C    8.654628   9.134188   9.138300  11.010811  11.412323
    26  H    7.171701   8.869622   8.877205   9.744265  10.716444
    27  F    9.949193  10.993931  10.875232  12.470988  13.093839
    28  F    9.557031  10.755073  10.967526  12.127725  12.962149
    29  F    9.341348  10.828138  10.780969  11.919639  12.785725
    30  F    8.523682   8.645633   8.723136  10.723937  10.986330
    31  F    9.533317  10.108039  10.256494  11.941819  12.446902
    32  F    9.387844   9.830852   9.613576  11.699706  11.992779
                   21         22         23         24         25
    21  H    0.000000
    22  H    8.539739   0.000000
    23  H    7.311005   4.289459   0.000000
    24  C   11.644400   4.694663   4.631814   0.000000
    25  C   11.014393   2.631845   5.387439   3.062423   0.000000
    26  H    9.751606   4.917522   2.453107   2.654436   4.695403
    27  F   12.366332   4.964458   5.622883   1.337084   2.863125
    28  F   12.317575   5.198289   5.319231   1.340077   3.417313
    29  F   11.877005   5.720350   4.657956   1.341701   4.345856
    30  F   10.786851   2.264589   5.963461   4.348853   1.343040
    31  F   12.068412   3.759453   6.065797   2.863653   1.334358
    32  F   11.517156   3.360318   6.006987   3.409337   1.337937
                   26         27         28         29         30
    26  H    0.000000
    27  F    3.786649   0.000000
    28  F    3.385188   2.158988   0.000000
    29  F    2.296044   2.151309   2.149377   0.000000
    30  F    5.719252   4.195700   4.553063   5.637564   0.000000
    31  F    4.969960   2.660156   2.721401   4.195505   2.150090
    32  F    5.193138   2.714355   4.046329   4.540317   2.149024
                   31         32
    31  F    0.000000
    32  F    2.160350   0.000000
 Stoichiometry    C12H11F6NO2
 Framework group  C1[X(C12H11F6NO2)]
 Deg. of freedom    90
 Full point group                 C1      NOp   1
 Largest Abelian subgroup         C1      NOp   1
 Largest concise Abelian subgroup C1      NOp   1
                         Standard orientation:                         
 ---------------------------------------------------------------------
 Center     Atomic      Atomic             Coordinates (Angstroms)
 Number     Number       Type             X           Y           Z
 ---------------------------------------------------------------------
      1          6           0        0.587052   -0.076126   -0.011015
      2          7           0        1.913396    0.359076   -0.010192
      3          6           0        3.046504   -0.419858   -0.011510
      4          8           0        3.084623   -1.622112   -0.020585
      5          8           0        4.122192    0.381248   -0.001066
      6          6           0        5.392527   -0.290741   -0.001189
      7          6           0        6.472745    0.768735    0.019563
      8          6           0        7.859804    0.131831    0.019641
      9          6           0       -0.406478    0.909672    0.004278
     10          6           0       -1.749847    0.577266    0.008819
     11          6           0       -2.134341   -0.770793   -0.013683
     12          6           0       -1.140942   -1.741803   -0.023384
     13          6           0        0.209247   -1.418204   -0.023477
     14          1           0        2.076831    1.355231    0.000109
     15          1           0        5.457188   -0.919534   -0.892478
     16          1           0        5.445531   -0.942216    0.874392
     17          1           0        6.340491    1.394684    0.906164
     18          1           0        6.351368    1.418199   -0.851548
     19          1           0        8.003276   -0.507075    0.894368
     20          1           0        8.639828    0.893846    0.035039
     21          1           0        8.014449   -0.482885   -0.870373
     22          1           0       -0.121226    1.954989    0.021093
     23          1           0        0.956515   -2.196507   -0.033799
     24          6           0       -3.572564   -1.227470    0.012105
     25          6           0       -2.742469    1.720264   -0.003356
     26          1           0       -1.424638   -2.786274   -0.038587
     27          9           0       -4.351672   -0.508781   -0.802923
     28          9           0       -4.102036   -1.157376    1.241151
     29          9           0       -3.678381   -2.507136   -0.377023
     30          9           0       -2.161895    2.870000    0.377165
     31          9           0       -3.766559    1.511188    0.826125
     32          9           0       -3.241161    1.931471   -1.226783
 ---------------------------------------------------------------------
 Rotational constants (GHZ):      0.6913408      0.1132756      0.1009532
 General basis read from cards:  (6D, 7F)
 There are   421 symmetry adapted cartesian basis functions of A   symmetry.
 There are   421 symmetry adapted basis functions of A   symmetry.
   421 basis functions,   716 primitive gaussians,   421 cartesian basis functions
    80 alpha electrons       80 beta electrons
       nuclear repulsion energy      1771.8738722444 Hartrees.
 NAtoms=   32 NActive=   32 NUniq=   32 SFac= 1.00D+00 NAtFMM=   60 NAOKFM=F Big=F
 Integral buffers will be    131072 words long.
 Raffenetti 1 integral format.
 Two-electron integral symmetry is turned on.
 One-electron integrals computed using PRISM.
 NBasis=   421 RedAO= T EigKep=  1.57D-06  NBF=   421
 NBsUse=   419 1.00D-06 EigRej=  6.27D-07 NBFU=   419
 ExpMin= 4.38D-02 ExpMax= 7.00D+03 ExpMxC= 1.05D+03 IAcc=3 IRadAn=         5 AccDes= 0.00D+00
 Harris functional with IExCor=  205 and IRadAn=       5 diagonalized for initial guess.
 HarFok:  IExCor=  205 AccDes= 0.00D+00 IRadAn=         5 IDoV= 1 UseB2=F ITyADJ=14
 ICtDFT=  3500011 ScaDFX=  1.000000  1.000000  1.000000  1.000000
 FoFCou: FMM=F IPFlag=           0 FMFlag=      100000 FMFlg1=           0
         NFxFlg=           0 DoJE=T BraDBF=F KetDBF=T FulRan=T
         wScrn=  0.000000 ICntrl=     500 IOpCl=  0 I1Cent=   200000004 NGrid=           0
         NMat0=    1 NMatS0=      1 NMatT0=    0 NMatD0=    1 NMtDS0=    0 NMtDT0=    0
 Petite list used in FoFCou.
 Requested convergence on RMS density matrix=1.00D-08 within 128 cycles.
 Requested convergence on MAX density matrix=1.00D-06.
 Requested convergence on             energy=1.00D-06.
 No special actions if energy rises.
 Initial convergence to 1.0D-05 achieved.  Increase integral accuracy.
 SCF Done:  E(RHF) =  -1261.72819896     A.U. after   17 cycles
            NFock= 17  Conv=0.32D-08     -V/T= 2.0025
 ExpMin= 4.38D-02 ExpMax= 7.00D+03 ExpMxC= 1.05D+03 IAcc=3 IRadAn=         5 AccDes= 0.00D+00
 HarFok:  IExCor=  205 AccDes= 0.00D+00 IRadAn=         5 IDoV=-2 UseB2=F ITyADJ=14
 ICtDFT= 12500011 ScaDFX=  1.000000  1.000000  1.000000  1.000000
 Range of M.O.s used for correlation:    22   419
 NBasis=   421 NAE=    80 NBE=    80 NFC=    21 NFV=     0
 NROrb=    398 NOA=    59 NOB=    59 NVA=   339 NVB=   339

 **** Warning!!: The largest alpha MO coefficient is  0.11358948D+03

 Fully direct method using O(OVN) memory.
 JobTyp=1 Pass  1:  I=   1 to  18 NPSUse=  8 ParTrn=T ParDer=T DoDerP=F.
 JobTyp=1 Pass  2:  I=  19 to  59 NPSUse=  8 ParTrn=T ParDer=T DoDerP=F.
 Spin components of T(2) and E(2):
     alpha-alpha T2 =       0.1289494090D+00 E2=     -0.4293196688D+00
     alpha-beta  T2 =       0.6553589489D+00 E2=     -0.2247308599D+01
     beta-beta   T2 =       0.1289494090D+00 E2=     -0.4293196688D+00
 ANorm=    0.1383205613D+01
 E2 =    -0.3105947936D+01 EUMP2 =    -0.12648341468978D+04

 **********************************************************************

            Population analysis using the SCF density.

 **********************************************************************

 Orbital symmetries:
       Occupied  (A) (A) (A) (A) (A) (A) (A) (A) (A) (A) (A) (A)
                 (A) (A) (A) (A) (A) (A) (A) (A) (A) (A) (A) (A)
                 (A) (A) (A) (A) (A) (A) (A) (A) (A) (A) (A) (A)
                 (A) (A) (A) (A) (A) (A) (A) (A) (A) (A) (A) (A)
                 (A) (A) (A) (A) (A) (A) (A) (A) (A) (A) (A) (A)
                 (A) (A) (A) (A) (A) (A) (A) (A) (A) (A) (A) (A)
                 (A) (A) (A) (A) (A) (A) (A) (A)
       Virtual   (A) (A) (A) (A) (A) (A) (A) (A) (A) (A) (A) (A)
                 (A) (A) (A) (A) (A) (A) (A) (A) (A) (A) (A) (A)
                 (A) (A) (A) (A) (A) (A) (A) (A) (A) (A) (A) (A)
                 (A) (A) (A) (A) (A) (A) (A) (A) (A) (A) (A) (A)
                 (A) (A) (A) (A) (A) (A) (A) (A) (A) (A) (A) (A)
                 (A) (A) (A) (A) (A) (A) (A) (A) (A) (A) (A) (A)
                 (A) (A) (A) (A) (A) (A) (A) (A) (A) (A) (A) (A)
                 (A) (A) (A) (A) (A) (A) (A) (A) (A) (A) (A) (A)
                 (A) (A) (A) (A) (A) (A) (A) (A) (A) (A) (A) (A)
                 (A) (A) (A) (A) (A) (A) (A) (A) (A) (A) (A) (A)
                 (A) (A) (A) (A) (A) (A) (A) (A) (A) (A) (A) (A)
                 (A) (A) (A) (A) (A) (A) (A) (A) (A) (A) (A) (A)
                 (A) (A) (A) (A) (A) (A) (A) (A) (A) (A) (A) (A)
                 (A) (A) (A) (A) (A) (A) (A) (A) (A) (A) (A) (A)
                 (A) (A) (A) (A) (A) (A) (A) (A) (A) (A) (A) (A)
                 (A) (A) (A) (A) (A) (A) (A) (A) (A) (A) (A) (A)
                 (A) (A) (A) (A) (A) (A) (A) (A) (A) (A) (A) (A)
                 (A) (A) (A) (A) (A) (A) (A) (A) (A) (A) (A) (A)
                 (A) (A) (A) (A) (A) (A) (A) (A) (A) (A) (A) (A)
                 (A) (A) (A) (A) (A) (A) (A) (A) (A) (A) (A) (A)
                 (A) (A) (A) (A) (A) (A) (A) (A) (A) (A) (A) (A)
                 (A) (A) (A) (A) (A) (A) (A) (A) (A) (A) (A) (A)
                 (A) (A) (A) (A) (A) (A) (A) (A) (A) (A) (A) (A)
                 (A) (A) (A) (A) (A) (A) (A) (A) (A) (A) (A) (A)
                 (A) (A) (A) (A) (A) (A) (A) (A) (A) (A) (A) (A)
                 (A) (A) (A) (A) (A) (A) (A) (A) (A) (A) (A) (A)
                 (A) (A) (A) (A) (A) (A) (A) (A) (A) (A) (A) (A)
                 (A) (A) (A) (A) (A) (A) (A) (A) (A) (A) (A) (A)
                 (A) (A) (A)
 The electronic state is 1-A.
 Alpha  occ. eigenvalues --  -26.36255 -26.35884 -26.35639 -26.35624 -26.35333
 Alpha  occ. eigenvalues --  -26.34991 -20.63605 -20.57277 -15.64156 -11.53157
 Alpha  occ. eigenvalues --  -11.52533 -11.44086 -11.33330 -11.30631 -11.30495
 Alpha  occ. eigenvalues --  -11.29026 -11.28129 -11.28111 -11.26598 -11.24517
 Alpha  occ. eigenvalues --  -11.23591  -1.74558  -1.73776  -1.64793  -1.64421
 Alpha  occ. eigenvalues --   -1.64075  -1.63712  -1.49984  -1.39202  -1.29753
 Alpha  occ. eigenvalues --   -1.20421  -1.09940  -1.08852  -1.07691  -1.00033
 Alpha  occ. eigenvalues --   -0.97604  -0.95536  -0.90126  -0.89082  -0.85302
 Alpha  occ. eigenvalues --   -0.83553  -0.83441  -0.83253  -0.82662  -0.82324
 Alpha  occ. eigenvalues --   -0.81869  -0.78060  -0.77688  -0.72559  -0.72112
 Alpha  occ. eigenvalues --   -0.71912  -0.71513  -0.71218  -0.71188  -0.69208
 Alpha  occ. eigenvalues --   -0.67871  -0.67309  -0.67152  -0.66193  -0.65567
 Alpha  occ. eigenvalues --   -0.65281  -0.64854  -0.64749  -0.64726  -0.62560
 Alpha  occ. eigenvalues --   -0.61837  -0.60495  -0.59216  -0.56893  -0.55677
 Alpha  occ. eigenvalues --   -0.55357  -0.54411  -0.53300  -0.50846  -0.50654
 Alpha  occ. eigenvalues --   -0.48444  -0.48228  -0.47964  -0.38276  -0.34719
 Alpha virt. eigenvalues --    0.05530   0.07468   0.07517   0.07639   0.07891
 Alpha virt. eigenvalues --    0.08754   0.09118   0.09185   0.10264   0.10516
 Alpha virt. eigenvalues --    0.10836   0.10964   0.11949   0.12139   0.12501
 Alpha virt. eigenvalues --    0.12790   0.12939   0.14050   0.14813   0.15029
 Alpha virt. eigenvalues --    0.15145   0.15838   0.17347   0.17466   0.17674
 Alpha virt. eigenvalues --    0.18389   0.18604   0.19596   0.19974   0.21200
 Alpha virt. eigenvalues --    0.21388   0.21495   0.21988   0.22210   0.24651
 Alpha virt. eigenvalues --    0.24940   0.25384   0.25624   0.26273   0.27275
 Alpha virt. eigenvalues --    0.27528   0.28438   0.28821   0.29379   0.29783
 Alpha virt. eigenvalues --    0.30617   0.30944   0.31483   0.31828   0.32697
 Alpha virt. eigenvalues --    0.32858   0.33322   0.33397   0.33605   0.33981
 Alpha virt. eigenvalues --    0.34624   0.35434   0.36798   0.37112   0.37383
 Alpha virt. eigenvalues --    0.38069   0.38324   0.38972   0.39489   0.40513
 Alpha virt. eigenvalues --    0.40598   0.40774   0.41258   0.41418   0.41752
 Alpha virt. eigenvalues --    0.41972   0.42372   0.43182   0.43821   0.44029
 Alpha virt. eigenvalues --    0.44363   0.45235   0.45820   0.46122   0.46576
 Alpha virt. eigenvalues --    0.46608   0.47073   0.47444   0.48115   0.48330
 Alpha virt. eigenvalues --    0.48486   0.49542   0.49919   0.50847   0.51465
 Alpha virt. eigenvalues --    0.51562   0.52075   0.52845   0.53026   0.54071
 Alpha virt. eigenvalues --    0.54625   0.55426   0.55736   0.56294   0.56969
 Alpha virt. eigenvalues --    0.58035   0.58557   0.59117   0.59205   0.60501
 Alpha virt. eigenvalues --    0.61503   0.61842   0.63283   0.63873   0.65232
 Alpha virt. eigenvalues --    0.66864   0.68951   0.69630   0.69882   0.71145
 Alpha virt. eigenvalues --    0.78497   0.80618   0.83597   0.83959   0.85296
 Alpha virt. eigenvalues --    0.87392   0.88476   0.90381   0.91262   0.92294
 Alpha virt. eigenvalues --    0.92450   0.93094   0.93888   0.94685   0.96222
 Alpha virt. eigenvalues --    0.97911   0.99604   1.00277   1.00941   1.02211
 Alpha virt. eigenvalues --    1.02646   1.03642   1.04290   1.05632   1.08411
 Alpha virt. eigenvalues --    1.08728   1.09573   1.10486   1.11703   1.12691
 Alpha virt. eigenvalues --    1.14927   1.15626   1.16859   1.17065   1.18373
 Alpha virt. eigenvalues --    1.19627   1.22122   1.23243   1.24274   1.25261
 Alpha virt. eigenvalues --    1.26729   1.27554   1.29777   1.33115   1.34116
 Alpha virt. eigenvalues --    1.36132   1.37030   1.37865   1.38497   1.39476
 Alpha virt. eigenvalues --    1.39965   1.40988   1.44283   1.44763   1.44973
 Alpha virt. eigenvalues --    1.46510   1.46756   1.47400   1.49663   1.50786
 Alpha virt. eigenvalues --    1.53888   1.54564   1.56171   1.58943   1.59718
 Alpha virt. eigenvalues --    1.60546   1.63330   1.63755   1.65812   1.66321
 Alpha virt. eigenvalues --    1.68410   1.70052   1.70844   1.71672   1.73406
 Alpha virt. eigenvalues --    1.75902   1.77851   1.78085   1.81578   1.84272
 Alpha virt. eigenvalues --    1.86932   1.87539   1.89427   1.89480   1.89899
 Alpha virt. eigenvalues --    1.91819   1.93037   1.94332   1.94436   1.95708
 Alpha virt. eigenvalues --    1.95903   1.97096   1.97917   1.98055   1.98637
 Alpha virt. eigenvalues --    1.98795   1.99743   2.00320   2.00976   2.02004
 Alpha virt. eigenvalues --    2.02594   2.03388   2.03890   2.04975   2.05488
 Alpha virt. eigenvalues --    2.07807   2.08941   2.09253   2.09656   2.11247
 Alpha virt. eigenvalues --    2.11736   2.12491   2.13326   2.14174   2.15055
 Alpha virt. eigenvalues --    2.15847   2.17125   2.17548   2.18131   2.18839
 Alpha virt. eigenvalues --    2.19893   2.20640   2.21659   2.22305   2.25734
 Alpha virt. eigenvalues --    2.26374   2.26897   2.28797   2.29719   2.30498
 Alpha virt. eigenvalues --    2.30833   2.32195   2.34776   2.35452   2.35900
 Alpha virt. eigenvalues --    2.37889   2.38330   2.38668   2.39908   2.40309
 Alpha virt. eigenvalues --    2.40799   2.42895   2.43398   2.43815   2.44113
 Alpha virt. eigenvalues --    2.44840   2.47079   2.47855   2.48774   2.49193
 Alpha virt. eigenvalues --    2.51462   2.54093   2.54570   2.56857   2.58308
 Alpha virt. eigenvalues --    2.58826   2.60125   2.61345   2.64097   2.66322
 Alpha virt. eigenvalues --    2.66892   2.69297   2.70746   2.73330   2.74040
 Alpha virt. eigenvalues --    2.78132   2.78660   2.81891   2.82764   2.83714
 Alpha virt. eigenvalues --    2.86791   2.92489   2.93923   2.95889   2.97088
 Alpha virt. eigenvalues --    2.99457   3.02026   3.04726   3.08023   3.08426
 Alpha virt. eigenvalues --    3.10307   3.11437   3.13474   3.16053   3.17447
 Alpha virt. eigenvalues --    3.18672   3.21338   3.25239   3.28936   3.30978
 Alpha virt. eigenvalues --    3.35688   3.39663   3.50550   3.53239   3.55050
 Alpha virt. eigenvalues --    3.56564   3.59010   3.60784   3.64965   3.68070
 Alpha virt. eigenvalues --    3.72814   3.75415   3.82331   4.60528   4.66424
 Alpha virt. eigenvalues --    4.68785   4.70629   4.76954   4.78632   4.81510
 Alpha virt. eigenvalues --    4.85140   4.88241   4.96755   4.99314   5.01579
 Alpha virt. eigenvalues --    5.04788   5.12766   5.23102   6.25659   6.26997
 Alpha virt. eigenvalues --    6.44709   6.48197   7.33086   7.66647
          Condensed to atoms (all electrons):
               1          2          3          4          5          6
     1  C   19.693547  -0.298450  -1.170379  -0.422929  -0.159174  -0.439778
     2  N   -0.298450   7.627472   0.420719  -0.012980  -0.073652  -0.105179
     3  C   -1.170379   0.420719   5.982366   0.554904   0.323781  -0.465139
     4  O   -0.422929  -0.012980   0.554904   8.247810  -0.153445  -0.148287
     5  O   -0.159174  -0.073652   0.323781  -0.153445   8.514548   0.153332
     6  C   -0.439778  -0.105179  -0.465139  -0.148287   0.153332   6.541114
     7  C   -0.000725   0.020627   0.006057   0.020830  -0.121372  -0.140440
     8  C   -0.007133   0.002263  -0.070704   0.000954   0.020140  -0.042229
     9  C    0.950306   0.145387   0.052543  -0.092961  -0.009748   0.008519
    10  C   -2.575078   0.131344  -0.755639  -0.020153   0.006137  -0.059950
    11  C   -2.451377   0.007490  -0.064472   0.034407   0.010046   0.001772
    12  C   -3.107323   0.051400   0.347110   0.218247  -0.003015   0.004721
    13  C   -2.054228  -0.272184   0.077923   0.369559   0.039257  -0.007528
    14  H   -0.023937   0.269570  -0.030353   0.003941   0.004083  -0.013064
    15  H    0.005384   0.004016   0.040236  -0.004713  -0.036363   0.372763
    16  H    0.007865   0.004424   0.040994  -0.005350  -0.036150   0.370151
    17  H   -0.000087  -0.000433   0.001535  -0.000293  -0.001407  -0.049005
    18  H    0.000110  -0.000436   0.000775  -0.000311  -0.001411  -0.048888
    19  H   -0.000026  -0.000049  -0.002439  -0.000065  -0.000792  -0.024969
    20  H    0.000060   0.000023   0.004563   0.000015  -0.000157   0.066619
    21  H   -0.000044  -0.000046  -0.002428  -0.000061  -0.000784  -0.024268
    22  H    0.080913  -0.008099  -0.026733   0.000136  -0.000271  -0.001621
    23  H   -0.002874  -0.006887   0.091330  -0.007387   0.000535   0.011090
    24  C    0.179880   0.028230   0.017482   0.001282   0.001873   0.002500
    25  C   -2.242434   0.000306  -0.042255  -0.001685   0.000216  -0.001877
    26  H   -0.049245  -0.000402  -0.004323   0.000006  -0.000000  -0.000120
    27  F   -0.016061   0.000007  -0.000859   0.000001   0.000000  -0.000006
    28  F   -0.014004   0.000003  -0.000646   0.000000   0.000000  -0.000003
    29  F   -0.000950  -0.000022  -0.001094   0.000004   0.000000  -0.000008
    30  F    0.123233  -0.000520  -0.003391   0.000002  -0.000001  -0.000054
    31  F    0.015711   0.000159  -0.001309   0.000001   0.000000  -0.000013
    32  F   -0.014797   0.000295  -0.001378  -0.000000  -0.000000  -0.000012
               7          8          9         10         11         12
     1  C   -0.000725  -0.007133   0.950306  -2.575078  -2.451377  -3.107323
     2  N    0.020627   0.002263   0.145387   0.131344   0.007490   0.051400
     3  C    0.006057  -0.070704   0.052543  -0.755639  -0.064472   0.347110
     4  O    0.020830   0.000954  -0.092961  -0.020153   0.034407   0.218247
     5  O   -0.121372   0.020140  -0.009748   0.006137   0.010046  -0.003015
     6  C   -0.140440  -0.042229   0.008519  -0.059950   0.001772   0.004721
     7  C    5.716155   0.209524   0.017563   0.000225  -0.002736  -0.008110
     8  C    0.209524   5.449482  -0.000722  -0.000650  -0.000199  -0.000233
     9  C    0.017563  -0.000722  10.417025  -0.193618  -0.886833  -2.361637
    10  C    0.000225  -0.000650  -0.193618  27.111319  -8.302713  -2.367790
    11  C   -0.002736  -0.000199  -0.886833  -8.302713  25.581082   1.667260
    12  C   -0.008110  -0.000233  -2.361637  -2.367790   1.667260  15.075385
    13  C   -0.033886  -0.001552  -0.968943  -2.221727  -4.805388  -3.365673
    14  H   -0.000425  -0.000259   0.012488   0.019856   0.007775   0.003307
    15  H   -0.039111  -0.006555   0.000739   0.000080  -0.000105  -0.000241
    16  H   -0.039288  -0.005869   0.001303   0.000405  -0.000290  -0.000727
    17  H    0.414335  -0.032485   0.000274   0.000018  -0.000005  -0.000003
    18  H    0.413935  -0.031541   0.000362   0.000041  -0.000010  -0.000018
    19  H   -0.025211   0.407398   0.000018   0.000000  -0.000000  -0.000003
    20  H   -0.103351   0.394993  -0.000016  -0.000000   0.000000   0.000001
    21  H   -0.025565   0.407030   0.000015   0.000000  -0.000000  -0.000002
    22  H    0.000004  -0.000004   0.302404  -0.043649  -0.016527  -0.007022
    23  H   -0.000105   0.000040   0.002000  -0.021464   0.012888  -0.037680
    24  C   -0.000299  -0.000005  -1.285589  -1.421833  -1.679609   0.328856
    25  C   -0.000013  -0.000004   0.448309  -2.652703  -2.265816  -0.816574
    26  H    0.000001  -0.000000  -0.005131   0.043590  -0.074859   0.347606
    27  F   -0.000000  -0.000000   0.031933  -0.112571   0.069661   0.031569
    28  F   -0.000000  -0.000000   0.008517  -0.067464   0.207902  -0.036989
    29  F   -0.000000  -0.000000   0.004069   0.013707  -0.087004   0.019666
    30  F    0.000000  -0.000000   0.075450  -0.084898  -0.007159   0.005302
    31  F    0.000000  -0.000000   0.024024   0.091545  -0.108710   0.027282
    32  F    0.000000   0.000000  -0.031162   0.262374  -0.093229   0.005374
              13         14         15         16         17         18
     1  C   -2.054228  -0.023937   0.005384   0.007865  -0.000087   0.000110
     2  N   -0.272184   0.269570   0.004016   0.004424  -0.000433  -0.000436
     3  C    0.077923  -0.030353   0.040236   0.040994   0.001535   0.000775
     4  O    0.369559   0.003941  -0.004713  -0.005350  -0.000293  -0.000311
     5  O    0.039257   0.004083  -0.036363  -0.036150  -0.001407  -0.001411
     6  C   -0.007528  -0.013064   0.372763   0.370151  -0.049005  -0.048888
     7  C   -0.033886  -0.000425  -0.039111  -0.039288   0.414335   0.413935
     8  C   -0.001552  -0.000259  -0.006555  -0.005869  -0.032485  -0.031541
     9  C   -0.968943   0.012488   0.000739   0.001303   0.000274   0.000362
    10  C   -2.221727   0.019856   0.000080   0.000405   0.000018   0.000041
    11  C   -4.805388   0.007775  -0.000105  -0.000290  -0.000005  -0.000010
    12  C   -3.365673   0.003307  -0.000241  -0.000727  -0.000003  -0.000018
    13  C   18.385313   0.002872  -0.003105  -0.004361  -0.000319  -0.000427
    14  H    0.002872   0.238078  -0.000001  -0.000001  -0.000005  -0.000004
    15  H   -0.003105  -0.000001   0.489318  -0.035405   0.003145  -0.003618
    16  H   -0.004361  -0.000001  -0.035405   0.489075  -0.003628   0.003137
    17  H   -0.000319  -0.000005   0.003145  -0.003628   0.494785  -0.029052
    18  H   -0.000427  -0.000004  -0.003618   0.003137  -0.029052   0.494759
    19  H   -0.000066  -0.000000   0.000162   0.001380  -0.003205   0.003307
    20  H    0.000038  -0.000000  -0.000115  -0.000115  -0.002580  -0.002573
    21  H   -0.000052  -0.000000   0.001385   0.000162   0.003307  -0.003211
    22  H    0.002236   0.004009  -0.000000  -0.000000  -0.000000  -0.000000
    23  H    0.279712  -0.000102  -0.000003  -0.000004  -0.000000  -0.000000
    24  C   -1.466328   0.000686  -0.000003  -0.000008  -0.000000  -0.000000
    25  C    1.649150   0.000488   0.000000   0.000014   0.000000   0.000001
    26  H    0.062085   0.000001   0.000000   0.000000  -0.000000   0.000000
    27  F    0.033274   0.000000  -0.000000  -0.000000  -0.000000  -0.000000
    28  F   -0.002048   0.000000   0.000000  -0.000000   0.000000  -0.000000
    29  F    0.167173   0.000000  -0.000000  -0.000000  -0.000000  -0.000000
    30  F   -0.015268  -0.000023   0.000000   0.000000   0.000000   0.000000
    31  F   -0.006948   0.000000  -0.000000   0.000000  -0.000000   0.000000
    32  F   -0.009806  -0.000000  -0.000000   0.000000  -0.000000   0.000000
              19         20         21         22         23         24
     1  C   -0.000026   0.000060  -0.000044   0.080913  -0.002874   0.179880
     2  N   -0.000049   0.000023  -0.000046  -0.008099  -0.006887   0.028230
     3  C   -0.002439   0.004563  -0.002428  -0.026733   0.091330   0.017482
     4  O   -0.000065   0.000015  -0.000061   0.000136  -0.007387   0.001282
     5  O   -0.000792  -0.000157  -0.000784  -0.000271   0.000535   0.001873
     6  C   -0.024969   0.066619  -0.024268  -0.001621   0.011090   0.002500
     7  C   -0.025211  -0.103351  -0.025565   0.000004  -0.000105  -0.000299
     8  C    0.407398   0.394993   0.407030  -0.000004   0.000040  -0.000005
     9  C    0.000018  -0.000016   0.000015   0.302404   0.002000  -1.285589
    10  C    0.000000  -0.000000   0.000000  -0.043649  -0.021464  -1.421833
    11  C   -0.000000   0.000000  -0.000000  -0.016527   0.012888  -1.679609
    12  C   -0.000003   0.000001  -0.000002  -0.007022  -0.037680   0.328856
    13  C   -0.000066   0.000038  -0.000052   0.002236   0.279712  -1.466328
    14  H   -0.000000  -0.000000  -0.000000   0.004009  -0.000102   0.000686
    15  H    0.000162  -0.000115   0.001385  -0.000000  -0.000003  -0.000003
    16  H    0.001380  -0.000115   0.000162  -0.000000  -0.000004  -0.000008
    17  H   -0.003205  -0.002580   0.003307  -0.000000  -0.000000  -0.000000
    18  H    0.003307  -0.002573  -0.003211  -0.000000  -0.000000  -0.000000
    19  H    0.504032  -0.024640  -0.031411  -0.000000  -0.000000  -0.000000
    20  H   -0.024640   0.486672  -0.024646   0.000000   0.000000   0.000000
    21  H   -0.031411  -0.024646   0.504043  -0.000000  -0.000000  -0.000000
    22  H   -0.000000   0.000000  -0.000000   0.402603  -0.000084   0.013856
    23  H   -0.000000   0.000000  -0.000000  -0.000084   0.357080   0.002718
    24  C   -0.000000   0.000000  -0.000000   0.013856   0.002718  13.738270
    25  C   -0.000000   0.000000  -0.000000   0.027332  -0.000096  -4.368162
    26  H    0.000000  -0.000000   0.000000   0.000009  -0.000326  -0.006958
    27  F   -0.000000   0.000000  -0.000000   0.000030   0.000008  -0.123574
    28  F   -0.000000   0.000000  -0.000000   0.000014   0.000011  -0.000049
    29  F   -0.000000   0.000000  -0.000000   0.000011  -0.000007  -0.021263
    30  F    0.000000  -0.000000  -0.000000  -0.000540   0.000001   0.025308
    31  F   -0.000000   0.000000  -0.000000   0.000101  -0.000000   0.194647
    32  F   -0.000000  -0.000000  -0.000000  -0.000120  -0.000001   0.030870
              25         26         27         28         29         30
     1  C   -2.242434  -0.049245  -0.016061  -0.014004  -0.000950   0.123233
     2  N    0.000306  -0.000402   0.000007   0.000003  -0.000022  -0.000520
     3  C   -0.042255  -0.004323  -0.000859  -0.000646  -0.001094  -0.003391
     4  O   -0.001685   0.000006   0.000001   0.000000   0.000004   0.000002
     5  O    0.000216  -0.000000   0.000000   0.000000   0.000000  -0.000001
     6  C   -0.001877  -0.000120  -0.000006  -0.000003  -0.000008  -0.000054
     7  C   -0.000013   0.000001  -0.000000  -0.000000  -0.000000   0.000000
     8  C   -0.000004  -0.000000  -0.000000  -0.000000  -0.000000  -0.000000
     9  C    0.448309  -0.005131   0.031933   0.008517   0.004069   0.075450
    10  C   -2.652703   0.043590  -0.112571  -0.067464   0.013707  -0.084898
    11  C   -2.265816  -0.074859   0.069661   0.207902  -0.087004  -0.007159
    12  C   -0.816574   0.347606   0.031569  -0.036989   0.019666   0.005302
    13  C    1.649150   0.062085   0.033274  -0.002048   0.167173  -0.015268
    14  H    0.000488   0.000001   0.000000   0.000000   0.000000  -0.000023
    15  H    0.000000   0.000000  -0.000000   0.000000  -0.000000   0.000000
    16  H    0.000014   0.000000  -0.000000  -0.000000  -0.000000   0.000000
    17  H    0.000000  -0.000000  -0.000000   0.000000  -0.000000   0.000000
    18  H    0.000001   0.000000  -0.000000  -0.000000  -0.000000   0.000000
    19  H   -0.000000   0.000000  -0.000000  -0.000000  -0.000000   0.000000
    20  H    0.000000  -0.000000   0.000000   0.000000   0.000000  -0.000000
    21  H   -0.000000   0.000000  -0.000000  -0.000000  -0.000000  -0.000000
    22  H    0.027332   0.000009   0.000030   0.000014   0.000011  -0.000540
    23  H   -0.000096  -0.000326   0.000008   0.000011  -0.000007   0.000001
    24  C   -4.368162  -0.006958  -0.123574  -0.000049  -0.021263   0.025308
    25  C   14.129817   0.017416   0.205280   0.027574   0.024144  -0.001484
    26  H    0.017416   0.387303   0.000118  -0.000027  -0.000048   0.000010
    27  F    0.205280   0.000118   9.300462  -0.024063  -0.013472   0.000434
    28  F    0.027574  -0.000027  -0.024063   9.282416  -0.023175   0.000088
    29  F    0.024144  -0.000048  -0.013472  -0.023175   9.345444   0.000001
    30  F   -0.001484   0.000010   0.000434   0.000088   0.000001   9.351486
    31  F   -0.114968   0.000031  -0.003004   0.000282   0.000402  -0.014373
    32  F   -0.016898   0.000016   0.000323  -0.001381   0.000054  -0.023335
              31         32
     1  C    0.015711  -0.014797
     2  N    0.000159   0.000295
     3  C   -0.001309  -0.001378
     4  O    0.000001  -0.000000
     5  O    0.000000  -0.000000
     6  C   -0.000013  -0.000012
     7  C    0.000000   0.000000
     8  C   -0.000000   0.000000
     9  C    0.024024  -0.031162
    10  C    0.091545   0.262374
    11  C   -0.108710  -0.093229
    12  C    0.027282   0.005374
    13  C   -0.006948  -0.009806
    14  H    0.000000  -0.000000
    15  H   -0.000000  -0.000000
    16  H    0.000000   0.000000
    17  H   -0.000000  -0.000000
    18  H    0.000000   0.000000
    19  H   -0.000000  -0.000000
    20  H    0.000000  -0.000000
    21  H   -0.000000  -0.000000
    22  H    0.000101  -0.000120
    23  H   -0.000000  -0.000001
    24  C    0.194647   0.030870
    25  C   -0.114968  -0.016898
    26  H    0.000031   0.000016
    27  F   -0.003004   0.000323
    28  F    0.000282  -0.001381
    29  F    0.000402   0.000054
    30  F   -0.014373  -0.023335
    31  F    9.288819  -0.023485
    32  F   -0.023485   9.266793
 Mulliken charges:
               1
     1  C   -0.005975
     2  N   -0.934394
     3  C    0.681223
     4  O   -0.581479
     5  O   -0.476205
     6  C    0.039861
     7  C   -0.278617
     8  C   -0.691680
     9  C   -0.666888
    10  C   -0.778740
    11  C   -0.753244
    12  C   -0.020047
    13  C    0.171250
    14  H    0.501020
    15  H    0.212109
    16  H    0.212288
    17  H    0.205107
    18  H    0.205073
    19  H    0.196579
    20  H    0.205212
    21  H    0.196578
    22  H    0.271012
    23  H    0.319606
    24  C    1.807224
    25  C    1.994922
    26  H    0.283248
    27  F   -0.379493
    28  F   -0.356959
    29  F   -0.427633
    30  F   -0.430270
    31  F   -0.370195
    32  F   -0.350494
 Sum of Mulliken charges =  -0.00000
 Mulliken charges with hydrogens summed into heavy atoms:
               1
     1  C   -0.005975
     2  N   -0.433374
     3  C    0.681223
     4  O   -0.581479
     5  O   -0.476205
     6  C    0.464257
     7  C    0.131564
     8  C   -0.093311
     9  C   -0.395875
    10  C   -0.778740
    11  C   -0.753244
    12  C    0.263201
    13  C    0.490856
    24  C    1.807224
    25  C    1.994922
    27  F   -0.379493
    28  F   -0.356959
    29  F   -0.427633
    30  F   -0.430270
    31  F   -0.370195
    32  F   -0.350494
 Electronic spatial extent (au):  <R**2>=           9888.1588
 Charge=             -0.0000 electrons
 Dipole moment (field-independent basis, Debye):
    X=              6.5022    Y=              1.1715    Z=              0.0071  Tot=              6.6069
 Quadrupole moment (field-independent basis, Debye-Ang):
   XX=           -117.8112   YY=           -122.1260   ZZ=           -122.2728
   XY=              7.4966   XZ=              0.1661   YZ=              0.1012
 Traceless Quadrupole moment (field-independent basis, Debye-Ang):
   XX=              2.9255   YY=             -1.3893   ZZ=             -1.5362
   XY=              7.4966   XZ=              0.1661   YZ=              0.1012
 Octapole moment (field-independent basis, Debye-Ang**2):
  XXX=            117.1405  YYY=             11.0880  ZZZ=              0.1980  XYY=            -30.6035
  XXY=             21.8412  XXZ=             -0.3368  XZZ=            -21.1387  YZZ=              4.0621
  YYZ=              0.5142  XYZ=             -1.2671
 Hexadecapole moment (field-independent basis, Debye-Ang**3):
 XXXX=          -9731.8615 YYYY=          -1375.6501 ZZZZ=           -269.7583 XXXY=             11.0707
 XXXZ=              5.5232 YYYX=             29.3793 YYYZ=             -6.9078 ZZZX=             -0.0317
 ZZZY=              3.0662 XXYY=          -2056.4061 XXZZ=          -1790.0902 YYZZ=           -281.0143
 XXYZ=              4.3099 YYXZ=             -3.2167 ZZXY=            -11.5522
 N-N= 1.771873872244D+03 E-N=-6.523468642738D+03  KE= 1.258603851159D+03
 1\1\GINC-R3714\SP\RMP2-FC\Gen\C12H11F6N1O2\ROOT\09-Dec-2019\0\\# MP2/G
 en 6D SCF=Tight INT(grid=ultrafine) maxdisk=3489660928\\NM2CA_c2.MP2_6
 -31pGd\\0,1\C,0,-5.8165102221,1.5024757836,0.2212603451\N,0,-4.5791064
 725,0.8589135928,0.1642559533\C,0,-3.3378077155,1.4444796831,0.0808085
 345\O,0,-3.1074249503,2.6246873298,0.0494415844\O,0,-2.4064932612,0.48
 01661694,0.0391363875\C,0,-1.047136191,0.9380336952,-0.0493378016\C,0,
 -0.1532739999,-0.282158292,-0.0932824801\C,0,1.3154860527,0.1222409537
 ,-0.18700508\C,0,-6.9541491172,0.689955862,0.2899922494\C,0,-8.2250788
 661,1.2347241791,0.3458269295\C,0,-8.3870746121,2.6273343332,0.3455348
 755\C,0,-7.2522505671,3.4251563159,0.2717014226\C,0,-5.9734453456,2.88
 78728966,0.2107852248\H,0,-4.5779711915,-0.1505288053,0.1771641896\H,0
 ,-0.831776091,1.5684931723,0.81674399\H,0,-0.9408663987,1.5520586648,-
 0.9468626421\H,0,-0.4345210724,-0.8987901162,-0.9512051984\H,0,-0.3268
 576954,-0.8832626467,0.8033291339\H,0,1.508947373,0.7092770821,-1.0880
 560087\H,0,1.9614049074,-0.7558771273,-0.219246886\H,0,1.617197861,0.7
 242534288,0.6734993705\H,0,-6.8412039748,-0.3878111577,0.2915328773\H,
 0,-5.1119629431,3.5353274358,0.1567335482\C,0,-9.7328207716,3.30953592
 79,0.3812052674\C,0,-9.3853925872,0.2675952419,0.446949001\H,0,-7.3638
 899367,4.5017996182,0.2684964863\F,0,-10.5688581647,2.7450489931,1.258
 8093709\F,0,-10.3362222839,3.2975689582,-0.8152764807\F,0,-9.610124337
 3,4.5981137972,0.734299317\F,0,-9.0189592434,-0.9692559193,0.073207833
 9\F,0,-10.4086768562,0.6201301961,-0.333512755\F,0,-9.8405213257,0.167
 9207535,1.7011414395\\Version=ES64L-G09RevE.01\State=1-A\HF=-1261.7281
 99\MP2=-1264.8341469\RMSD=3.239e-09\PG=C01 [X(C12H11F6N1O2)]\\@


 One man practicing sportsmanship is far better than 50 preaching it.
 -- Knute K. Rockne
 Job cpu time:       0 days  0 hours 23 minutes  0.4 seconds.
 File lengths (MBytes):  RWF=     97 Int=      0 D2E=      0 Chk=     11 Scr=      1
 Normal termination of Gaussian 09 at Mon Dec  9 10:59:06 2019.
pbs_rusage has been removed.
Please contact help@nci.org.au if you require this functionality.
