Process 0 of 1 is on r3767 - thread support 0
initial socket setup ...start
initial socket setup ...done 
now start server 0 ... 
r3767 10.9.65
Q-Chem Developer Version! Running on 10.9.65.*
                  Welcome to Q-Chem
     A Quantum Leap Into The Future Of Chemistry


 Q-Chem 5.0, Q-Chem, Inc., Pleasanton, CA (2017)

 Yihan Shao,  Zhengting Gan,  E. Epifanovsky,  A. T. B. Gilbert,  M. Wormit,  
 J. Kussmann,  A. W. Lange,  A. Behn,  Jia Deng,  Xintian Feng,  D. Ghosh,  
 M. Goldey,  P. R. Horn,  L. D. Jacobson,  I. Kaliman,  T. Kus,  A. Landau,  
 Jie Liu,  E. I. Proynov,  R. M. Richard,  R. P. Steele,  E. J. Sundstrom,  
 H. L. Woodcock III,  P. M. Zimmerman,  D. Zuev,  B. Albrecht,  E. Alguire,  
 S. A. Baeppler,  Z. Benda,  Y. A. Bernard,  E. J. Berquist,  K. B. Bravaya,  
 D. Casanova,  Chun-Min Chang,  Yunqing Chen,  A. Chien,  K. D. Closser,  
 M. P. Coons,  S. Dasgupta,  M. Diedenhofen,  Hainam Do,  R. G. Edgar,  
 Po-Tung Fang,  S. Fatehi,  Qingguo Feng,  Qinghui Ge,  A. Ghysels,  
 J. Gomes,  J. Gonthier,  A. Gunina,  M. W. D. Hanson-Heine,  
 P. H. P. Harbach,  A. W. Hauser,  J. E. Herr,  E. G. Hohenstein,  
 Z. C. Holden,  Kerwin Hui,  T.-C. Jagau,  Hyunjun Ji,  B. Kaduk,  
 K. Khistyaev,  Jaehoon Kim,  P. Klunzinger,  K. Koh,  D. Kosenkov,  
 T. Kowalczyk,  C. M. Krauter,  A. Kunitsa,  Ka Un Lao,  A. Laurent,  
 K. V. Lawler,  Joonho Lee,  D. Lefrancois,  S. Lehtola,  D. S. Levine,  
 Yi-Pei Li,  You-Sheng Lin,  Fenglai Liu,  E. Livshits,  A. Luenser,  
 P. Manohar,  E. Mansoor,  S. F. Manzer,  Shan-Ping Mao,  Yuezhi Mao,  
 N. Mardirossian,  A. V. Marenich,  L. A. Martinez-Martinez,  S. A. Maurer,  
 N. J. Mayhall,  S. C. McKenzie,  J.-M. Mewes,  A. F. Morrison,  K. Nanda,  
 T. S. Nguyen-Beck,  R. Olivares-Amaya,  J. A. Parkhill,  T. M. Perrine,  
 F. Plasser,  S. Prager,  A. Prociuk,  D. R. Rehn,  F. Rob,  M. Schneider,  
 N. Sergueev,  S. M. Sharada,  S. Sharma,  D. W. Small,  T. Stauch,  
 T. Stein,  Yu-Chuan Su,  A. J. W. Thom,  T. Tsuchimochi,  L. Vogt,  
 O. Vydrov,  M. A. Watson,  J. Wenzel,  M. de Wergifosse,  T. A. Wesolowski,  
 A. White,  J. Witte,  A. Yamada,  Jun Yang,  K. Yao,  S. Yeganeh,  
 S. R. Yost,  Zhi-Qiang You,  A. Zech,  Igor Ying Zhang,  Xing Zhang,  
 Yan Zhao,  Ying Zhu,  B. R. Brooks,  G. K. L. Chan,  C. J. Cramer,  
 M. S. Gordon,  W. J. Hehre,  A. Klamt,  M. W. Schmidt,  C. D. Sherrill,  
 D. G. Truhlar,  A. Aspuru-Guzik,  R. Baer,  A. T. Bell,  N. A. Besley,  
 Jeng-Da Chai,  A. Dreuw,  B. D. Dunietz,  T. R. Furlani,  Chao-Ping Hsu,  
 Yousung Jung,  Jing Kong,  D. S. Lambrecht,  WanZhen Liang,  C. Ochsenfeld,  
 V. A. Rassolov,  L. V. Slipchenko,  J. E. Subotnik,  T. Van Voorhis,  
 J. M. Herbert,  A. I. Krylov,  P. M. W. Gill,  M. Head-Gordon

 Contributors to earlier versions of Q-Chem not listed above: 
 R. D. Adamson,  B. Austin,  J. Baker,  G. J. O. Beran,  K. Brandhorst,  
 S. T. Brown,  E. F. C. Byrd,  A. K. Chakraborty,  C.-L. Cheng,  
 Siu Hung Chien,  D. M. Chipman,  D. L. Crittenden,  H. Dachsel,  
 R. A. DiStasio Jr.,  R. J. Doerksen,  A. D. Dutoi,  L. Fusti-Molnar,  
 W. A. Goddard III,  A. Golubeva-Zadorozhnaya,  S. R. Gwaltney,  G. Hawkins,  
 A. Heyden,  S. Hirata,  G. Kedziora,  F. J. Keil,  C. Kelley,  Jihan Kim,  
 R. A. King,  R. Z. Khaliullin,  P. P. Korambath,  W. Kurlancheek,  
 A. M. Lee,  M. S. Lee,  S. V. Levchenko,  Ching Yeh Lin,  D. Liotard,  
 R. C. Lochan,  I. Lotan,  P. E. Maslen,  N. Nair,  D. P. O'Neill,  
 D. Neuhauser,  E. Neuscamman,  C. M. Oana,  R. Olson,  B. Peters,  
 R. Peverati,  P. A. Pieniazek,  Y. M. Rhee,  J. Ritchie,  M. A. Rohrdanz,  
 E. Rosta,  N. J. Russ,  H. F. Schaefer III,  N. E. Schultz,  N. Shenvi,  
 A. C. Simmonett,  A. Sodt,  D. Stuck,  K. S. Thanthiriwatte,  V. Vanovschi,  
 Tao Wang,  A. Warshel,  C. F. Williams,  Q. Wu,  X. Xu,  W. Zhang

 Please cite Q-Chem as follows:
 Y. Shao et al., Mol. Phys. 113, 184-215 (2015)
 DOI: 10.1080/00268976.2014.952696

 Q-Chem 5.0.0 for Intel X86 EM64T Linux

 Parts of Q-Chem use Armadillo 5.200.1 (Boston Tea Smuggler).
 http://arma.sourceforge.net/

 Q-Chem begins on Mon Dec  9 10:49:36 2019  

Host: r3767
0

     Scratch files written to /jobfs/local/4046999.r-man2/NM2CA_c2.CCSD-T_6-31pGd.mo//
 Parallel job on  1  processors
Core orbitals will be frozen

Checking the input file for inconsistencies... 	...done.

--------------------------------------------------------------
User input:
--------------------------------------------------------------
$molecule
  0 1
    C     -5.8165102221    1.5024757836    0.2212603451
    N     -4.5791064725    0.8589135928    0.1642559533
    C     -3.3378077155    1.4444796831    0.0808085345
    O     -3.1074249503    2.6246873298    0.0494415844
    O     -2.4064932612    0.4801661694    0.0391363875
    C     -1.0471361910    0.9380336952   -0.0493378016
    C     -0.1532739999   -0.2821582920   -0.0932824801
    C      1.3154860527    0.1222409537   -0.1870050800
    C     -6.9541491172    0.6899558620    0.2899922494
    C     -8.2250788661    1.2347241791    0.3458269295
    C     -8.3870746121    2.6273343332    0.3455348755
    C     -7.2522505671    3.4251563159    0.2717014226
    C     -5.9734453456    2.8878728966    0.2107852248
    H     -4.5779711915   -0.1505288053    0.1771641896
    H     -0.8317760910    1.5684931723    0.8167439900
    H     -0.9408663987    1.5520586648   -0.9468626421
    H     -0.4345210724   -0.8987901162   -0.9512051984
    H     -0.3268576954   -0.8832626467    0.8033291339
    H      1.5089473730    0.7092770821   -1.0880560087
    H      1.9614049074   -0.7558771273   -0.2192468860
    H      1.6171978610    0.7242534288    0.6734993705
    H     -6.8412039748   -0.3878111577    0.2915328773
    H     -5.1119629431    3.5353274358    0.1567335482
    C     -9.7328207716    3.3095359279    0.3812052674
    C     -9.3853925872    0.2675952419    0.4469490010
    H     -7.3638899367    4.5017996182    0.2684964863
    F    -10.5688581647    2.7450489931    1.2588093709
    F    -10.3362222839    3.2975689582   -0.8152764807
    F     -9.6101243373    4.5981137972    0.7342993170
    F     -9.0189592434   -0.9692559193    0.0732078339
    F    -10.4086768562    0.6201301961   -0.3335127550
    F     -9.8405213257    0.1679207535    1.7011414395

$end

$rem

    JOBTYPE               sp
    METHOD                CCSD(T)
    BASIS                 6-31+G*
    CC_BACKEND            XM

    MEM_TOTAL             60000
$end
--------------------------------------------------------------
 ----------------------------------------------------------------
             Standard Nuclear Orientation (Angstroms)
    I     Atom           X                Y                Z
 ----------------------------------------------------------------
    1      C       0.5870522429    -0.0761262356    -0.0110149652
    2      N       1.9133962109     0.3590758274    -0.0101923723
    3      C       3.0465043313    -0.4198580423    -0.0115099798
    4      O       3.0846229808    -1.6221120924    -0.0205852715
    5      O       4.1221917587     0.3812481983    -0.0010656893
    6      C       5.3925273306    -0.2907410257    -0.0011889557
    7      C       6.4727446606     0.7687348459     0.0195627763
    8      C       7.8598036846     0.1318313794     0.0196412749
    9      C      -0.4064784760     0.9096718072     0.0042782548
   10      C      -1.7498466237     0.5772656473     0.0088194235
   11      C      -2.1343412544    -0.7707934326    -0.0136826707
   12      C      -1.1409415553    -1.7418031260    -0.0233842772
   13      C       0.2092474748    -1.4182036443    -0.0234772364
   14      H       2.0768309968     1.3552308478     0.0001087218
   15      H       5.4571878431    -0.9195336924    -0.8924776828
   16      H       5.4455310072    -0.9422156742     0.8743920880
   17      H       6.3404911404     1.3946842107     0.9061644411
   18      H       6.3513676586     1.4181994691    -0.8515476975
   19      H       8.0032755467    -0.5070746366     0.8943677477
   20      H       8.6398281959     0.8938462909     0.0350393767
   21      H       8.0144486207    -0.4828852289    -0.8703729834
   22      H      -0.1212260928     1.9549894971     0.0210929096
   23      H       0.9565145851    -2.1965070723    -0.0337987530
   24      C      -3.5725643660    -1.2274698755     0.0121054314
   25      C      -2.7424688431     1.7202638470    -0.0033555866
   26      H      -1.4246377529    -2.7862741757    -0.0385867308
   27      F      -4.3516721863    -0.5087813031    -0.8029226204
   28      F      -4.1020355559    -1.1573764010     1.2411507238
   29      F      -3.6783812898    -2.5071355629    -0.3770234098
   30      F      -2.1618948889     2.8700004659     0.3771654263
   31      F      -3.7665592273     1.5111875580     0.8261250534
   32      F      -3.2411607162     1.9314705382    -1.2267827378
 ----------------------------------------------------------------
 Molecular Point Group                 C1    NOp =  1
 Largest Abelian Subgroup              C1    NOp =  1
 Nuclear Repulsion Energy =  1771.8738796443 hartrees
 There are       80 alpha and       80 beta electrons
 Requested basis set is 6-31+G(d)
 There are 127 shells and 421 basis functions
 Total memory of 101220MB is distributed as follows: 
   QALLOC including MEM_STATIC uses 30062MB
   MEM_STATIC is set to 62MB
   CCMAN JOB total memory use is  101158MB
 Warning: actual memory use might exceed 101220MB

 Total QAlloc Memory Limit  30062 MB
 Mega-Array Size        61 MB
 MEM_STATIC part        62 MB
 A cutoff of  1.0D-14 yielded   5804 shell pairs
 There are     69116 function pairs
 
 -------------------------------------------------------
 OpenMP Integral Computing Module                       
 Release: version 1.0, May 2013, Q-Chem Inc. Pittsburgh 
 -------------------------------------------------------
 Integral Job Info:
 Integral job number is                      11
 Integral operator is                         1
 short-range coefficients                     0
 long-range coefficients              100000000
 Omega coefficients                           0
 if combine SR and LR in K                    0
 Integral screening is                        0
 Integral computing path is                   2
 max size of driver memory is            800000
 size of driver memory is                593474
 size of scratch memory is              2260544
 max col of scratch BK array               1296
 max len of scratch array in speh3          155
 max len of scratch index in speh4           18
 max int batch size is                      520
 min int batch size is                       52
 fixed nKL is                                52
 max L of basis functions is                  2
 order of int derivative is                   0
 number of shells is                        127
 number of basis is                         421
 number of cartesian basis is               421
 number of contracted shell pairs          5804
 number of primitive shell pairs          18272
 maxK2 (contraction) of shell pair           36
 max number of K2 of shell pair               1
 max number of CS2 of shell pair            902
 max number of PS2 of shell pair           4962
 mem total for path MDJ                  179742
 -------------------------------------------------------
 Smallest overlap matrix eigenvalue = 5.72E-07
 Linear dependence detected in AO basis
 Number of orthogonalized atomic orbitals = 419
 Maximum deviation from orthogonality = 2.320E-10

 Scale SEOQF with 1.000000e-02/1.000000e-01/1.000000e-01

 Standard Electronic Orientation quadrupole field applied
 Nucleus-field energy     =     0.0000000262 hartrees
 Guess from superposition of atomic densities
 Warning:  Energy on first SCF cycle will be non-variational
 A restricted Hartree-Fock SCF calculation will be
 performed using Pulay DIIS extrapolation
 SCF converges when DIIS error is below 1.0E-08
 -------------------------------------------------------
 OpenMP Integral computing Module                
 Release: version 1.0, May 2013, Q-Chem Inc. Pittsburgh 
 -------------------------------------------------------
 ---------------------------------------
  Cycle       Energy         DIIS Error
 ---------------------------------------
    1   -1268.4158571103      3.65E-02
    2   -1261.2562893683      4.79E-03
    3   -1261.5918715868      2.92E-03
    4   -1261.7217085773      4.83E-04
    5   -1261.7273518634      1.86E-04
    6   -1261.7281241651      4.43E-05
    7   -1261.7281843560      1.70E-05
    8   -1261.7281971426      5.22E-06
    9   -1261.7281986133      2.34E-06
   10   -1261.7281988925      7.59E-07
   11   -1261.7281989329      3.36E-07
   12   -1261.7281989401      1.36E-07
   13   -1261.7281989415      5.25E-08
   14   -1261.7281989418      2.89E-08
   15   -1261.7281989418      1.00E-08
   16   -1261.7281989419      3.13E-09 Convergence criterion met
 ---------------------------------------
 SCF time:  CPU 377.39 s  wall 47.77 s
 SCF   energy in the final basis set = -1261.7281989419
 Total energy in the final basis set = -1261.7281989419


 ------------------------------------------------------------------------------

   CCMAN2: suite of methods based on coupled cluster
           and equation of motion theories.

   Components:
   * libvmm-1.3-trunk
     by Evgeny Epifanovsky, Ilya Kaliman.
   * libtensor-2.5-release
     by Evgeny Epifanovsky, Michael Wormit, Dmitry Zuev, Sam Manzer, 
        Ilya Kaliman.
   * libcc-2.5-trunk
     by Evgeny Epifanovsky, Arik Landau, Tomasz Kus, Kirill Khistyaev, 
        Dmitry Zuev, Prashant Manohar, Xintian Feng, Anna Krylov, 
        Matthew Goldey, Alec White, Thomas Jagau, Kaushik Nanda, 
        Anastasia Gunina, Alexander Kunitsa, Joonho Lee.

   CCMAN original authors:
   Anna I. Krylov, C. David Sherrill, Steven R. Gwaltney,
   Edward F. C. Byrd (2000)
   Sergey V. Levchenko, Lyudmila V. Slipchenko, Tao Wang,
   Ana-Maria C. Cristian (2003)
   Piotr A. Pieniazek, C. Melania Oana, Evgeny Epifanovsky (2007)
   Prashant Manohar (2009)

 ------------------------------------------------------------------------------


================================================================================
This program uses libxm tensor contraction code.
See https://github.com/ilyak/libxm for more info.
libxm is (c) Ilya Kaliman 2014-2016.
================================================================================

 Calculation will run on 8 cores using libxm for tensor contractions

 
 Alpha MOs, Restricted
 -- Occupied --                  
-26.363 -26.359 -26.356 -26.356 -26.353 -26.350 -20.636 -20.573
  1 A     2 A     3 A     4 A     5 A     6 A     7 A     8 A                  
-15.642 -11.532 -11.525 -11.441 -11.333 -11.306 -11.305 -11.290
  9 A    10 A    11 A    12 A    13 A    14 A    15 A    16 A                  
-11.281 -11.281 -11.266 -11.245 -11.236  -1.746  -1.738  -1.648
 17 A    18 A    19 A    20 A    21 A    22 A    23 A    24 A                  
 -1.644  -1.641  -1.637  -1.500  -1.392  -1.298  -1.204  -1.099
 25 A    26 A    27 A    28 A    29 A    30 A    31 A    32 A                  
 -1.089  -1.077  -1.000  -0.976  -0.955  -0.901  -0.891  -0.853
 33 A    34 A    35 A    36 A    37 A    38 A    39 A    40 A                  
 -0.836  -0.834  -0.833  -0.827  -0.823  -0.819  -0.781  -0.777
 41 A    42 A    43 A    44 A    45 A    46 A    47 A    48 A                  
 -0.726  -0.721  -0.719  -0.715  -0.712  -0.712  -0.692  -0.679
 49 A    50 A    51 A    52 A    53 A    54 A    55 A    56 A                  
 -0.673  -0.672  -0.662  -0.656  -0.653  -0.649  -0.647  -0.647
 57 A    58 A    59 A    60 A    61 A    62 A    63 A    64 A                  
 -0.626  -0.618  -0.605  -0.592  -0.569  -0.557  -0.554  -0.544
 65 A    66 A    67 A    68 A    69 A    70 A    71 A    72 A                  
 -0.533  -0.508  -0.507  -0.484  -0.482  -0.480  -0.383  -0.347
 73 A    74 A    75 A    76 A    77 A    78 A    79 A    80 A                  
 -- Virtual --                   
  0.055   0.075   0.075   0.076   0.079   0.088   0.091   0.092
 81 A    82 A    83 A    84 A    85 A    86 A    87 A    88 A                  
  0.103   0.105   0.108   0.110   0.119   0.121   0.125   0.128
 89 A    90 A    91 A    92 A    93 A    94 A    95 A    96 A                  
  0.129   0.140   0.148   0.150   0.151   0.158   0.173   0.175
 97 A    98 A    99 A   100 A   101 A   102 A   103 A   104 A                  
  0.177   0.184   0.186   0.196   0.200   0.212   0.214   0.215
105 A   106 A   107 A   108 A   109 A   110 A   111 A   112 A                  
  0.220   0.222   0.247   0.249   0.254   0.256   0.263   0.273
113 A   114 A   115 A   116 A   117 A   118 A   119 A   120 A                  
  0.275   0.284   0.288   0.294   0.298   0.306   0.309   0.315
121 A   122 A   123 A   124 A   125 A   126 A   127 A   128 A                  
  0.318   0.327   0.329   0.333   0.334   0.336   0.340   0.346
129 A   130 A   131 A   132 A   133 A   134 A   135 A   136 A                  
  0.354   0.368   0.371   0.374   0.381   0.383   0.390   0.395
137 A   138 A   139 A   140 A   141 A   142 A   143 A   144 A                  
  0.405   0.406   0.408   0.413   0.414   0.418   0.420   0.424
145 A   146 A   147 A   148 A   149 A   150 A   151 A   152 A                  
  0.432   0.438   0.440   0.444   0.452   0.458   0.461   0.466
153 A   154 A   155 A   156 A   157 A   158 A   159 A   160 A                  
  0.466   0.471   0.474   0.481   0.483   0.485   0.495   0.499
161 A   162 A   163 A   164 A   165 A   166 A   167 A   168 A                  
  0.508   0.515   0.516   0.521   0.528   0.530   0.541   0.546
169 A   170 A   171 A   172 A   173 A   174 A   175 A   176 A                  
  0.554   0.557   0.563   0.570   0.580   0.586   0.591   0.592
177 A   178 A   179 A   180 A   181 A   182 A   183 A   184 A                  
  0.605   0.615   0.618   0.633   0.639   0.652   0.669   0.690
185 A   186 A   187 A   188 A   189 A   190 A   191 A   192 A                  
  0.696   0.699   0.711   0.785   0.806   0.836   0.840   0.853
193 A   194 A   195 A   196 A   197 A   198 A   199 A   200 A                  
  0.874   0.885   0.904   0.913   0.923   0.924   0.931   0.939
201 A   202 A   203 A   204 A   205 A   206 A   207 A   208 A                  
  0.947   0.962   0.979   0.996   1.003   1.009   1.022   1.026
209 A   210 A   211 A   212 A   213 A   214 A   215 A   216 A                  
  1.036   1.043   1.056   1.084   1.087   1.096   1.105   1.117
217 A   218 A   219 A   220 A   221 A   222 A   223 A   224 A                  
  1.127   1.149   1.156   1.169   1.171   1.184   1.196   1.221
225 A   226 A   227 A   228 A   229 A   230 A   231 A   232 A                  
  1.232   1.243   1.253   1.267   1.276   1.298   1.331   1.341
233 A   234 A   235 A   236 A   237 A   238 A   239 A   240 A                  
  1.361   1.370   1.379   1.385   1.395   1.400   1.410   1.443
241 A   242 A   243 A   244 A   245 A   246 A   247 A   248 A                  
  1.448   1.450   1.465   1.468   1.474   1.497   1.508   1.539
249 A   250 A   251 A   252 A   253 A   254 A   255 A   256 A                  
  1.546   1.562   1.589   1.597   1.605   1.633   1.638   1.658
257 A   258 A   259 A   260 A   261 A   262 A   263 A   264 A                  
  1.663   1.684   1.701   1.708   1.717   1.734   1.759   1.779
265 A   266 A   267 A   268 A   269 A   270 A   271 A   272 A                  
  1.781   1.816   1.843   1.869   1.875   1.894   1.895   1.899
273 A   274 A   275 A   276 A   277 A   278 A   279 A   280 A                  
  1.918   1.930   1.943   1.944   1.957   1.959   1.971   1.979
281 A   282 A   283 A   284 A   285 A   286 A   287 A   288 A                  
  1.981   1.986   1.988   1.997   2.003   2.010   2.020   2.026
289 A   290 A   291 A   292 A   293 A   294 A   295 A   296 A                  
  2.034   2.039   2.050   2.055   2.078   2.089   2.093   2.097
297 A   298 A   299 A   300 A   301 A   302 A   303 A   304 A                  
  2.112   2.117   2.125   2.133   2.142   2.151   2.158   2.171
305 A   306 A   307 A   308 A   309 A   310 A   311 A   312 A                  
  2.175   2.181   2.188   2.199   2.206   2.217   2.223   2.257
313 A   314 A   315 A   316 A   317 A   318 A   319 A   320 A                  
  2.264   2.269   2.288   2.297   2.305   2.308   2.322   2.348
321 A   322 A   323 A   324 A   325 A   326 A   327 A   328 A                  
  2.355   2.359   2.379   2.383   2.387   2.399   2.403   2.408
329 A   330 A   331 A   332 A   333 A   334 A   335 A   336 A                  
  2.429   2.434   2.438   2.441   2.448   2.471   2.479   2.488
337 A   338 A   339 A   340 A   341 A   342 A   343 A   344 A                  
  2.492   2.515   2.541   2.546   2.569   2.583   2.588   2.601
345 A   346 A   347 A   348 A   349 A   350 A   351 A   352 A                  
  2.613   2.641   2.663   2.669   2.693   2.707   2.733   2.740
353 A   354 A   355 A   356 A   357 A   358 A   359 A   360 A                  
  2.781   2.787   2.819   2.828   2.837   2.868   2.925   2.939
361 A   362 A   363 A   364 A   365 A   366 A   367 A   368 A                  
  2.959   2.971   2.995   3.020   3.047   3.080   3.084   3.103
369 A   370 A   371 A   372 A   373 A   374 A   375 A   376 A                  
  3.114   3.135   3.161   3.174   3.187   3.213   3.252   3.289
377 A   378 A   379 A   380 A   381 A   382 A   383 A   384 A                  
  3.310   3.357   3.397   3.506   3.532   3.550   3.566   3.590
385 A   386 A   387 A   388 A   389 A   390 A   391 A   392 A                  
  3.608   3.650   3.681   3.728   3.754   3.823   4.605   4.664
393 A   394 A   395 A   396 A   397 A   398 A   399 A   400 A                  
  4.688   4.706   4.770   4.786   4.815   4.851   4.882   4.968
401 A   402 A   403 A   404 A   405 A   406 A   407 A   408 A                  
  4.993   5.016   5.048   5.128   5.231   6.257   6.270   6.447
409 A   410 A   411 A   412 A   413 A   414 A   415 A   416 A                  
  6.482   7.331   7.666
417 A   418 A   419 A                                                          
 
 Beta MOs, Restricted
 -- Occupied --                  
-26.363 -26.359 -26.356 -26.356 -26.353 -26.350 -20.636 -20.573
  1 A     2 A     3 A     4 A     5 A     6 A     7 A     8 A                  
-15.642 -11.532 -11.525 -11.441 -11.333 -11.306 -11.305 -11.290
  9 A    10 A    11 A    12 A    13 A    14 A    15 A    16 A                  
-11.281 -11.281 -11.266 -11.245 -11.236  -1.746  -1.738  -1.648
 17 A    18 A    19 A    20 A    21 A    22 A    23 A    24 A                  
 -1.644  -1.641  -1.637  -1.500  -1.392  -1.298  -1.204  -1.099
 25 A    26 A    27 A    28 A    29 A    30 A    31 A    32 A                  
 -1.089  -1.077  -1.000  -0.976  -0.955  -0.901  -0.891  -0.853
 33 A    34 A    35 A    36 A    37 A    38 A    39 A    40 A                  
 -0.836  -0.834  -0.833  -0.827  -0.823  -0.819  -0.781  -0.777
 41 A    42 A    43 A    44 A    45 A    46 A    47 A    48 A                  
 -0.726  -0.721  -0.719  -0.715  -0.712  -0.712  -0.692  -0.679
 49 A    50 A    51 A    52 A    53 A    54 A    55 A    56 A                  
 -0.673  -0.672  -0.662  -0.656  -0.653  -0.649  -0.647  -0.647
 57 A    58 A    59 A    60 A    61 A    62 A    63 A    64 A                  
 -0.626  -0.618  -0.605  -0.592  -0.569  -0.557  -0.554  -0.544
 65 A    66 A    67 A    68 A    69 A    70 A    71 A    72 A                  
 -0.533  -0.508  -0.507  -0.484  -0.482  -0.480  -0.383  -0.347
 73 A    74 A    75 A    76 A    77 A    78 A    79 A    80 A                  
 -- Virtual --                   
  0.055   0.075   0.075   0.076   0.079   0.088   0.091   0.092
 81 A    82 A    83 A    84 A    85 A    86 A    87 A    88 A                  
  0.103   0.105   0.108   0.110   0.119   0.121   0.125   0.128
 89 A    90 A    91 A    92 A    93 A    94 A    95 A    96 A                  
  0.129   0.140   0.148   0.150   0.151   0.158   0.173   0.175
 97 A    98 A    99 A   100 A   101 A   102 A   103 A   104 A                  
  0.177   0.184   0.186   0.196   0.200   0.212   0.214   0.215
105 A   106 A   107 A   108 A   109 A   110 A   111 A   112 A                  
  0.220   0.222   0.247   0.249   0.254   0.256   0.263   0.273
113 A   114 A   115 A   116 A   117 A   118 A   119 A   120 A                  
  0.275   0.284   0.288   0.294   0.298   0.306   0.309   0.315
121 A   122 A   123 A   124 A   125 A   126 A   127 A   128 A                  
  0.318   0.327   0.329   0.333   0.334   0.336   0.340   0.346
129 A   130 A   131 A   132 A   133 A   134 A   135 A   136 A                  
  0.354   0.368   0.371   0.374   0.381   0.383   0.390   0.395
137 A   138 A   139 A   140 A   141 A   142 A   143 A   144 A                  
  0.405   0.406   0.408   0.413   0.414   0.418   0.420   0.424
145 A   146 A   147 A   148 A   149 A   150 A   151 A   152 A                  
  0.432   0.438   0.440   0.444   0.452   0.458   0.461   0.466
153 A   154 A   155 A   156 A   157 A   158 A   159 A   160 A                  
  0.466   0.471   0.474   0.481   0.483   0.485   0.495   0.499
161 A   162 A   163 A   164 A   165 A   166 A   167 A   168 A                  
  0.508   0.515   0.516   0.521   0.528   0.530   0.541   0.546
169 A   170 A   171 A   172 A   173 A   174 A   175 A   176 A                  
  0.554   0.557   0.563   0.570   0.580   0.586   0.591   0.592
177 A   178 A   179 A   180 A   181 A   182 A   183 A   184 A                  
  0.605   0.615   0.618   0.633   0.639   0.652   0.669   0.690
185 A   186 A   187 A   188 A   189 A   190 A   191 A   192 A                  
  0.696   0.699   0.711   0.785   0.806   0.836   0.840   0.853
193 A   194 A   195 A   196 A   197 A   198 A   199 A   200 A                  
  0.874   0.885   0.904   0.913   0.923   0.924   0.931   0.939
201 A   202 A   203 A   204 A   205 A   206 A   207 A   208 A                  
  0.947   0.962   0.979   0.996   1.003   1.009   1.022   1.026
209 A   210 A   211 A   212 A   213 A   214 A   215 A   216 A                  
  1.036   1.043   1.056   1.084   1.087   1.096   1.105   1.117
217 A   218 A   219 A   220 A   221 A   222 A   223 A   224 A                  
  1.127   1.149   1.156   1.169   1.171   1.184   1.196   1.221
225 A   226 A   227 A   228 A   229 A   230 A   231 A   232 A                  
  1.232   1.243   1.253   1.267   1.276   1.298   1.331   1.341
233 A   234 A   235 A   236 A   237 A   238 A   239 A   240 A                  
  1.361   1.370   1.379   1.385   1.395   1.400   1.410   1.443
241 A   242 A   243 A   244 A   245 A   246 A   247 A   248 A                  
  1.448   1.450   1.465   1.468   1.474   1.497   1.508   1.539
249 A   250 A   251 A   252 A   253 A   254 A   255 A   256 A                  
  1.546   1.562   1.589   1.597   1.605   1.633   1.638   1.658
257 A   258 A   259 A   260 A   261 A   262 A   263 A   264 A                  
  1.663   1.684   1.701   1.708   1.717   1.734   1.759   1.779
265 A   266 A   267 A   268 A   269 A   270 A   271 A   272 A                  
  1.781   1.816   1.843   1.869   1.875   1.894   1.895   1.899
273 A   274 A   275 A   276 A   277 A   278 A   279 A   280 A                  
  1.918   1.930   1.943   1.944   1.957   1.959   1.971   1.979
281 A   282 A   283 A   284 A   285 A   286 A   287 A   288 A                  
  1.981   1.986   1.988   1.997   2.003   2.010   2.020   2.026
289 A   290 A   291 A   292 A   293 A   294 A   295 A   296 A                  
  2.034   2.039   2.050   2.055   2.078   2.089   2.093   2.097
297 A   298 A   299 A   300 A   301 A   302 A   303 A   304 A                  
  2.112   2.117   2.125   2.133   2.142   2.151   2.158   2.171
305 A   306 A   307 A   308 A   309 A   310 A   311 A   312 A                  
  2.175   2.181   2.188   2.199   2.206   2.217   2.223   2.257
313 A   314 A   315 A   316 A   317 A   318 A   319 A   320 A                  
  2.264   2.269   2.288   2.297   2.305   2.308   2.322   2.348
321 A   322 A   323 A   324 A   325 A   326 A   327 A   328 A                  
  2.355   2.359   2.379   2.383   2.387   2.399   2.403   2.408
329 A   330 A   331 A   332 A   333 A   334 A   335 A   336 A                  
  2.429   2.434   2.438   2.441   2.448   2.471   2.479   2.488
337 A   338 A   339 A   340 A   341 A   342 A   343 A   344 A                  
  2.492   2.515   2.541   2.546   2.569   2.583   2.588   2.601
345 A   346 A   347 A   348 A   349 A   350 A   351 A   352 A                  
  2.613   2.641   2.663   2.669   2.693   2.707   2.733   2.740
353 A   354 A   355 A   356 A   357 A   358 A   359 A   360 A                  
  2.781   2.787   2.819   2.828   2.837   2.868   2.925   2.939
361 A   362 A   363 A   364 A   365 A   366 A   367 A   368 A                  
  2.959   2.971   2.995   3.020   3.047   3.080   3.084   3.103
369 A   370 A   371 A   372 A   373 A   374 A   375 A   376 A                  
  3.114   3.135   3.161   3.174   3.187   3.213   3.252   3.289
377 A   378 A   379 A   380 A   381 A   382 A   383 A   384 A                  
  3.310   3.357   3.397   3.506   3.532   3.550   3.566   3.590
385 A   386 A   387 A   388 A   389 A   390 A   391 A   392 A                  
  3.608   3.650   3.681   3.728   3.754   3.823   4.605   4.664
393 A   394 A   395 A   396 A   397 A   398 A   399 A   400 A                  
  4.688   4.706   4.770   4.786   4.815   4.851   4.882   4.968
401 A   402 A   403 A   404 A   405 A   406 A   407 A   408 A                  
  4.993   5.016   5.048   5.128   5.231   6.257   6.270   6.447
409 A   410 A   411 A   412 A   413 A   414 A   415 A   416 A                  
  6.482   7.331   7.666
417 A   418 A   419 A                                                          

 Occupation and symmetry of molecular orbitals

 Point group: C1 (1 irreducible representation).

                           A     All 
 -------------------------------------
 All molecular orbitals:
  - Alpha                  419   419 
  - Beta                   419   419 
 -------------------------------------
 Alpha orbitals:
  - Frozen occupied        21    21  
  - Active occupied        59    59  
  - Active virtual         339   339 
  - Frozen virtual         0     0   
 -------------------------------------
 Beta orbitals:
  - Frozen occupied        21    21  
  - Active occupied        59    59  
  - Active virtual         339   339 
  - Frozen virtual         0     0   
 -------------------------------------

 Import integrals:   CPU 0.00 s  wall 0.00 s

 Import integrals:   CPU 4638.22 s  wall 1427.14 s

 MP2 amplitudes:   CPU 47.30 s  wall 127.28 s

           CCSD T amplitudes will be solved using DIIS.

           Start     Size      MaxIter   EConv     TConv     
           3         7         100       1.00e-06  1.00e-04  
 ------------------------------------------------------------------------------
           Energy (a.u.)   Ediff      Tdiff       Comment
 ------------------------------------------------------------------------------
         -1264.83414688                           
     1   -1264.80067391   3.35e-02   1.57e+00     Step took 1:13.39.
     2   -1264.89510738   9.44e-02   2.13e-01     
     3   -1264.89218837   2.92e-03   7.99e-02     
     4   -1264.90149253   9.30e-03   2.66e-02     Switched to DIIS steps.
     5   -1264.90453948   3.05e-03   1.72e-02     
     6   -1264.90471724   1.78e-04   3.59e-03     
     7   -1264.90470233   1.49e-05   1.78e-03     
     8   -1264.90469131   1.10e-05   4.97e-04     
     9   -1264.90469195   6.36e-07   1.86e-04     
    10   -1264.90469185   9.44e-08   5.08e-05     
 ------------------------------------------------------------------------------
         -1264.90469185                           CCSD T converged.


 ------------------------------------------------------------------------------
 == (T) code is based on LIBPT ==
 == Author: Ilya Kaliman, 2016 ==

 Starting (T) calculation...
 (T) calculation completed in 96855 sec
 ------------------------------------------------------------------------------

 SCF energy                 = -1261.72819894
 MP2 energy                 = -1264.83414688
 CCSD correlation energy     =    -3.17649291
 CCSD total energy           = -1264.90469185
 CCSD(T) correlation energy =    -0.11327482
 CCSD(T) total energy       = -1265.01796667

 CCSD  T1^2 = 0.0467  T2^2 = 0.9840  Leading amplitudes:

 Amplitude    Orbitals with energies
  0.0219       52 (A) A                  ->    113 (A) A                  
              -0.7151                          0.2199                     
  0.0219       52 (A) B                  ->    113 (A) B                  
              -0.7151                          0.2199                     
  0.0194       63 (A) A                  ->    113 (A) A                  
              -0.6475                          0.2199                     
  0.0194       63 (A) B                  ->    113 (A) B                  
              -0.6475                          0.2199                     

 Amplitude    Orbitals with energies
 -0.0328       80 (A) A      80 (A) B    ->    83 (A) A      83 (A) B     
              -0.3472       -0.3472            0.0752        0.0752       
  0.0328       80 (A) A      80 (A) B    ->    83 (A) B      83 (A) A     
              -0.3472       -0.3472            0.0752        0.0752       
  0.0328       80 (A) B      80 (A) A    ->    83 (A) A      83 (A) B     
              -0.3472       -0.3472            0.0752        0.0752       
 -0.0328       80 (A) B      80 (A) A    ->    83 (A) B      83 (A) A     
              -0.3472       -0.3472            0.0752        0.0752       

 CCSD calculation:   CPU 935223.52 s  wall 147265.66 s

 Total ccman2 time:   CPU 939984.71 s  wall 148846.77 s

 
 --------------------------------------------------------------
 
                    Orbital Energies (a.u.)
 --------------------------------------------------------------
 
 Alpha MOs
 -- Occupied --
-26.363 -26.359 -26.356 -26.356 -26.353 -26.350 -20.636 -20.573
-15.642 -11.532 -11.525 -11.441 -11.333 -11.306 -11.305 -11.290
-11.281 -11.281 -11.266 -11.245 -11.236  -1.746  -1.738  -1.648
 -1.644  -1.641  -1.637  -1.500  -1.392  -1.298  -1.204  -1.099
 -1.089  -1.077  -1.000  -0.976  -0.955  -0.901  -0.891  -0.853
 -0.836  -0.834  -0.833  -0.827  -0.823  -0.819  -0.781  -0.777
 -0.726  -0.721  -0.719  -0.715  -0.712  -0.712  -0.692  -0.679
 -0.673  -0.672  -0.662  -0.656  -0.653  -0.649  -0.647  -0.647
 -0.626  -0.618  -0.605  -0.592  -0.569  -0.557  -0.554  -0.544
 -0.533  -0.508  -0.507  -0.484  -0.482  -0.480  -0.383  -0.347
 -- Virtual --
  0.055   0.075   0.075   0.076   0.079   0.088   0.091   0.092
  0.103   0.105   0.108   0.110   0.119   0.121   0.125   0.128
  0.129   0.140   0.148   0.150   0.151   0.158   0.173   0.175
  0.177   0.184   0.186   0.196   0.200   0.212   0.214   0.215
  0.220   0.222   0.247   0.249   0.254   0.256   0.263   0.273
  0.275   0.284   0.288   0.294   0.298   0.306   0.309   0.315
  0.318   0.327   0.329   0.333   0.334   0.336   0.340   0.346
  0.354   0.368   0.371   0.374   0.381   0.383   0.390   0.395
  0.405   0.406   0.408   0.413   0.414   0.418   0.420   0.424
  0.432   0.438   0.440   0.444   0.452   0.458   0.461   0.466
  0.466   0.471   0.474   0.481   0.483   0.485   0.495   0.499
  0.508   0.515   0.516   0.521   0.528   0.530   0.541   0.546
  0.554   0.557   0.563   0.570   0.580   0.586   0.591   0.592
  0.605   0.615   0.618   0.633   0.639   0.652   0.669   0.690
  0.696   0.699   0.711   0.785   0.806   0.836   0.840   0.853
  0.874   0.885   0.904   0.913   0.923   0.924   0.931   0.939
  0.947   0.962   0.979   0.996   1.003   1.009   1.022   1.026
  1.036   1.043   1.056   1.084   1.087   1.096   1.105   1.117
  1.127   1.149   1.156   1.169   1.171   1.184   1.196   1.221
  1.232   1.243   1.253   1.267   1.276   1.298   1.331   1.341
  1.361   1.370   1.379   1.385   1.395   1.400   1.410   1.443
  1.448   1.450   1.465   1.468   1.474   1.497   1.508   1.539
  1.546   1.562   1.589   1.597   1.605   1.633   1.638   1.658
  1.663   1.684   1.701   1.708   1.717   1.734   1.759   1.779
  1.781   1.816   1.843   1.869   1.875   1.894   1.895   1.899
  1.918   1.930   1.943   1.944   1.957   1.959   1.971   1.979
  1.981   1.986   1.988   1.997   2.003   2.010   2.020   2.026
  2.034   2.039   2.050   2.055   2.078   2.089   2.093   2.097
  2.112   2.117   2.125   2.133   2.142   2.151   2.158   2.171
  2.175   2.181   2.188   2.199   2.206   2.217   2.223   2.257
  2.264   2.269   2.288   2.297   2.305   2.308   2.322   2.348
  2.355   2.359   2.379   2.383   2.387   2.399   2.403   2.408
  2.429   2.434   2.438   2.441   2.448   2.471   2.479   2.488
  2.492   2.515   2.541   2.546   2.569   2.583   2.588   2.601
  2.613   2.641   2.663   2.669   2.693   2.707   2.733   2.740
  2.781   2.787   2.819   2.828   2.837   2.868   2.925   2.939
  2.959   2.971   2.995   3.020   3.047   3.080   3.084   3.103
  3.114   3.135   3.161   3.174   3.187   3.213   3.252   3.289
  3.310   3.357   3.397   3.506   3.532   3.550   3.566   3.590
  3.608   3.650   3.681   3.728   3.754   3.823   4.605   4.664
  4.688   4.706   4.770   4.786   4.815   4.851   4.882   4.968
  4.993   5.016   5.048   5.128   5.231   6.257   6.270   6.447
  6.482   7.331   7.666
 --------------------------------------------------------------
 
          Ground-State Mulliken Net Atomic Charges

     Atom                 Charge (a.u.)
  ----------------------------------------
      1 C                    -0.005978
      2 N                    -0.934394
      3 C                     0.681224
      4 O                    -0.581479
      5 O                    -0.476205
      6 C                     0.039862
      7 C                    -0.278617
      8 C                    -0.691680
      9 C                    -0.666886
     10 C                    -0.778751
     11 C                    -0.753244
     12 C                    -0.020044
     13 C                     0.171249
     14 H                     0.501020
     15 H                     0.212109
     16 H                     0.212288
     17 H                     0.205107
     18 H                     0.205073
     19 H                     0.196579
     20 H                     0.205212
     21 H                     0.196578
     22 H                     0.271012
     23 H                     0.319607
     24 C                     1.807227
     25 C                     1.994927
     26 H                     0.283248
     27 F                    -0.379493
     28 F                    -0.356959
     29 F                    -0.427633
     30 F                    -0.430270
     31 F                    -0.370195
     32 F                    -0.350494
  ----------------------------------------
  Sum of atomic charges =     0.000000

 -----------------------------------------------------------------
                    Cartesian Multipole Moments
 -----------------------------------------------------------------
    Charge (ESU x 10^10)
                -0.0000
    Dipole Moment (Debye)
         X       6.5022      Y       1.1715      Z       0.0071
       Tot       6.6069
    Quadrupole Moments (Debye-Ang)
        XX    -117.8112     XY       7.4966     YY    -122.1260
        XZ       0.1661     YZ       0.1012     ZZ    -122.2728
    Octopole Moments (Debye-Ang^2)
       XXX     117.1405    XXY      21.8412    XYY     -30.6035
       YYY      11.0880    XXZ      -0.3368    XYZ      -1.2671
       YYZ       0.5142    XZZ     -21.1387    YZZ       4.0621
       ZZZ       0.1980
    Hexadecapole Moments (Debye-Ang^3)
      XXXX   -9731.8621   XXXY      11.0707   XXYY   -2056.4062
      XYYY      29.3793   YYYY   -1375.6502   XXXZ       5.5232
      XXYZ       4.3099   XYYZ      -3.2167   YYYZ      -6.9078
      XXZZ   -1790.0903   XYZZ     -11.5522   YYZZ    -281.0143
      XZZZ      -0.0317   YZZZ       3.0662   ZZZZ    -269.7583
 -----------------------------------------------------------------
Archival summary:
1\1\r3767\SP\ProcedureUnspecified\6-31+G*\6211211\hio507\WedDec1104:11:122019WedDec1104:11:122019\0\\#,ProcedureUnspecified,6-31+G*,\\0,1\F\C,1,1.33436\F,2,1.33794,1,107.885\F,2,1.34304,1,106.845,3,114.247,0\C,2,1.5139,1,112.328,3,-123.634,0\C,5,1.38389,2,117.071,1,-137.966,0\H,6,1.08367,5,119.154,2,1.73654,0\C,6,1.39969,5,121.326,2,-178.768,0\C,8,1.3943,6,119.057,5,0.0771141,0\H,9,1.07901,8,120.446,6,-179.903,0\C,9,1.38843,8,119.199,6,0.141043,0\H,11,1.08242,9,118.671,8,179.67,0\C,11,1.38917,9,122.174,8,0.118483,0\N,8,1.39592,6,117.056,5,-179.803,0\H,14,1.00953,8,117.482,6,-0.0787591,0\C,14,1.37502,8,127.328,6,179.375,0\O,16,1.20289,14,126.321,8,0.411826,0\O,16,1.34126,14,108.817,8,-179.594,0\C,18,1.43712,16,115.444,14,-179.992,0\H,19,1.09264,18,108.76,16,-58.3114,0\H,19,1.09268,18,108.751,16,58.9754,0\C,13,1.50921,11,118.039,9,-178.857,0\F,22,1.33708,13,112.472,11,-138.247,0\F,22,1.34008,13,112.109,11,100.469,0\F,22,1.3417,13,111.027,11,-18.5697,0\C,19,1.5132,18,107.675,16,-179.67,0\H,26,1.09333,19,109.003,18,58.286,0\H,26,1.09333,19,109.01,18,-58.1979,0\C,26,1.5263,19,110.89,18,-179.959,0\H,29,1.09057,26,111.004,19,-179.974,0\H,29,1.09267,26,111.305,19,60.123,0\H,29,1.09267,26,111.307,19,-60.0726,0\\HF=-1261.7282\\@

 Total job time:  148896.47s(wall), 940367.61s(cpu) 
 Wed Dec 11 04:11:12 2019

        *************************************************************
        *                                                           *
        *  Thank you very much for using Q-Chem.  Have a nice day.  *
        *                                                           *
        *************************************************************


0 sent ACK to 0 
now end server 0 ... 
