 Entering Gaussian System, Link 0=/apps/gaussian/g09e01/g09/g09
 AtFile(1): /home/507/hio507/Basis/6-31pGd.gbs
 Initial command:
 /apps/gaussian/g09e01/g09/l1.exe "/jobfs/local/4047003.r-man2/Gau-43386.inp" -scrdir="/jobfs/local/4047003.r-man2/"
 Entering Link 1 = /apps/gaussian/g09e01/g09/l1.exe PID=     43387.
  
 Copyright (c) 1988,1990,1992,1993,1995,1998,2003,2009,2015,
            Gaussian, Inc.  All Rights Reserved.
  
 This is part of the Gaussian(R) 09 program.  It is based on
 the Gaussian(R) 03 system (copyright 2003, Gaussian, Inc.),
 the Gaussian(R) 98 system (copyright 1998, Gaussian, Inc.),
 the Gaussian(R) 94 system (copyright 1995, Gaussian, Inc.),
 the Gaussian 92(TM) system (copyright 1992, Gaussian, Inc.),
 the Gaussian 90(TM) system (copyright 1990, Gaussian, Inc.),
 the Gaussian 88(TM) system (copyright 1988, Gaussian, Inc.),
 the Gaussian 86(TM) system (copyright 1986, Carnegie Mellon
 University), and the Gaussian 82(TM) system (copyright 1983,
 Carnegie Mellon University). Gaussian is a federally registered
 trademark of Gaussian, Inc.
  
 This software contains proprietary and confidential information,
 including trade secrets, belonging to Gaussian, Inc.
  
 This software is provided under written license and may be
 used, copied, transmitted, or stored only in accord with that
 written license.
  
 The following legend is applicable only to US Government
 contracts under FAR:
  
                    RESTRICTED RIGHTS LEGEND
  
 Use, reproduction and disclosure by the US Government is
 subject to restrictions as set forth in subparagraphs (a)
 and (c) of the Commercial Computer Software - Restricted
 Rights clause in FAR 52.227-19.
  
 Gaussian, Inc.
 340 Quinnipiac St., Bldg. 40, Wallingford CT 06492
  
  
 ---------------------------------------------------------------
 Warning -- This program may not be used in any manner that
 competes with the business of Gaussian, Inc. or will provide
 assistance to any competitor of Gaussian, Inc.  The licensee
 of this program is prohibited from giving any competitor of
 Gaussian, Inc. access to this program.  By using this program,
 the user acknowledges that Gaussian, Inc. is engaged in the
 business of creating and licensing software in the field of
 computational chemistry and represents and warrants to the
 licensee that it is not a competitor of Gaussian, Inc. and that
 it will not use this program in any manner prohibited above.
 ---------------------------------------------------------------
  

 Cite this work as:
 Gaussian 09, Revision E.01,
 M. J. Frisch, G. W. Trucks, H. B. Schlegel, G. E. Scuseria, 
 M. A. Robb, J. R. Cheeseman, G. Scalmani, V. Barone, B. Mennucci, 
 G. A. Petersson, H. Nakatsuji, M. Caricato, X. Li, H. P. Hratchian, 
 A. F. Izmaylov, J. Bloino, G. Zheng, J. L. Sonnenberg, M. Hada, 
 M. Ehara, K. Toyota, R. Fukuda, J. Hasegawa, M. Ishida, T. Nakajima, 
 Y. Honda, O. Kitao, H. Nakai, T. Vreven, J. A. Montgomery, Jr., 
 J. E. Peralta, F. Ogliaro, M. Bearpark, J. J. Heyd, E. Brothers, 
 K. N. Kudin, V. N. Staroverov, T. Keith, R. Kobayashi, J. Normand, 
 K. Raghavachari, A. Rendell, J. C. Burant, S. S. Iyengar, J. Tomasi, 
 M. Cossi, N. Rega, J. M. Millam, M. Klene, J. E. Knox, J. B. Cross, 
 V. Bakken, C. Adamo, J. Jaramillo, R. Gomperts, R. E. Stratmann, 
 O. Yazyev, A. J. Austin, R. Cammi, C. Pomelli, J. W. Ochterski, 
 R. L. Martin, K. Morokuma, V. G. Zakrzewski, G. A. Voth, 
 P. Salvador, J. J. Dannenberg, S. Dapprich, A. D. Daniels, 
 O. Farkas, J. B. Foresman, J. V. Ortiz, J. Cioslowski, 
 and D. J. Fox, Gaussian, Inc., Wallingford CT, 2013.
 
 ******************************************
 Gaussian 09:  ES64L-G09RevE.01 30-Nov-2015
                 9-Dec-2019 
 ******************************************
 %chk=NM2CA.MP2_6-31pGd.chk
 %mem=1114112000
 %nproc=8
 Will use up to    8 processors via shared memory.
 -------------------------------------------------------------
 # MP2/Gen 6D SCF=Tight INT(grid=ultrafine) maxdisk=3489660928
 -------------------------------------------------------------
 1/38=1/1;
 2/12=2,17=6,18=5,40=1/2;
 3/5=7,8=2,11=9,16=1,25=1,30=1,75=-5/1,2,3;
 4//1;
 5/5=2,32=2,38=5/2;
 8/10=1/1;
 9/16=-3/6;
 6/7=2,8=2,9=2,10=2/1;
 99/5=1,9=1/99;
 -----------------
 NM2CA.MP2_6-31pGd
 -----------------
 Symbolic Z-matrix:
 Charge =  0 Multiplicity = 1
 C                    -5.85881   1.21115   0.1766 
 N                    -4.57836   0.6614    0.09656 
 C                    -3.37726   1.33126   0.06888 
 O                    -3.22516   2.52347   0.10141 
 O                    -2.38342   0.43283  -0.00156 
 C                    -1.05642   0.98384  -0.03965 
 C                    -0.08145  -0.17084  -0.11607 
 C                     1.35809   0.33443  -0.16115 
 C                    -6.10194   2.58818   0.20903 
 C                    -7.40408   3.06352   0.2891 
 C                    -8.48939   2.18038   0.34957 
 C                    -8.23394   0.81365   0.3067 
 C                    -6.94036   0.33097   0.22158 
 H                    -4.50843  -0.34515   0.06635 
 H                    -0.9012    1.58822   0.85723 
 H                    -0.97464   1.64299  -0.9072 
 H                    -0.3043   -0.76696  -1.00514 
 H                    -0.23046  -0.82077   0.75045 
 H                     1.52814   0.97133  -1.03254 
 H                     2.06249  -0.49635  -0.21597 
 H                     1.60218   0.9178    0.72991 
 H                    -5.27558   3.28055   0.16597 
 H                    -6.76938  -0.74021   0.19373 
 C                    -9.93135   2.62258   0.42288 
 C                    -7.57263   4.56866   0.34878 
 H                    -9.05945   0.11522   0.34894 
 F                    -10.1165   3.62875   1.28194 
 F                    -10.72063   1.61462   0.83023 
 F                    -10.40194   3.0142   -0.76867 
 F                    -6.47793   5.20043  -0.0921 
 F                    -7.78434   4.99042   1.60166 
 F                    -8.59386   4.99195  -0.40194 
 
                          Input orientation:                          
 ---------------------------------------------------------------------
 Center     Atomic      Atomic             Coordinates (Angstroms)
 Number     Number       Type             X           Y           Z
 ---------------------------------------------------------------------
      1          6           0       -5.858807    1.211149    0.176598
      2          7           0       -4.578355    0.661396    0.096564
      3          6           0       -3.377264    1.331260    0.068884
      4          8           0       -3.225161    2.523475    0.101413
      5          8           0       -2.383425    0.432832   -0.001563
      6          6           0       -1.056422    0.983842   -0.039651
      7          6           0       -0.081453   -0.170844   -0.116075
      8          6           0        1.358087    0.334433   -0.161153
      9          6           0       -6.101941    2.588175    0.209031
     10          6           0       -7.404077    3.063520    0.289101
     11          6           0       -8.489391    2.180381    0.349571
     12          6           0       -8.233939    0.813654    0.306695
     13          6           0       -6.940361    0.330967    0.221576
     14          1           0       -4.508434   -0.345149    0.066348
     15          1           0       -0.901195    1.588218    0.857233
     16          1           0       -0.974638    1.642992   -0.907200
     17          1           0       -0.304298   -0.766965   -1.005138
     18          1           0       -0.230455   -0.820774    0.750445
     19          1           0        1.528142    0.971335   -1.032539
     20          1           0        2.062485   -0.496353   -0.215974
     21          1           0        1.602175    0.917798    0.729908
     22          1           0       -5.275577    3.280555    0.165967
     23          1           0       -6.769379   -0.740205    0.193727
     24          6           0       -9.931351    2.622581    0.422883
     25          6           0       -7.572635    4.568661    0.348781
     26          1           0       -9.059452    0.115221    0.348944
     27          9           0      -10.116501    3.628753    1.281939
     28          9           0      -10.720630    1.614615    0.830233
     29          9           0      -10.401940    3.014199   -0.768667
     30          9           0       -6.477932    5.200433   -0.092105
     31          9           0       -7.784342    4.990419    1.601661
     32          9           0       -8.593863    4.991946   -0.401936
 ---------------------------------------------------------------------
                    Distance matrix (angstroms):
                    1          2          3          4          5
     1  C    0.000000
     2  N    1.395776   0.000000
     3  C    2.486782   1.375537   0.000000
     4  O    2.943458   2.301846   1.202319   0.000000
     5  O    3.565922   2.208979   1.341585   2.256082   0.000000
     6  C    4.812623   3.539285   2.349210   2.663418   1.437358
     7  C    5.947553   4.578206   3.626692   4.146029   2.382564
     8  C    7.277793   5.951023   4.844598   5.085961   3.746206
     9  C    1.398702   2.458951   3.003888   2.879520   4.303164
    10  C    2.414910   3.713754   4.389128   4.217845   5.675557
    11  C    2.808790   4.203276   5.189763   5.281233   6.360821
    12  C    2.411675   3.664782   4.889965   5.296554   5.870993
    13  C    1.395171   2.388280   3.703992   4.315581   4.563533
    14  H    2.063426   1.009423   2.022349   3.142773   2.263963
    15  H    5.018303   3.867703   2.611214   2.616636   2.066265
    16  H    5.021575   3.867538   2.611997   2.618664   2.066239
    17  H    6.013486   4.639130   3.872879   4.536836   2.601816
    18  H    6.011352   4.639895   3.872748   4.535802   2.602369
    19  H    7.489095   6.217736   5.040405   5.127267   4.080839
    20  H    8.112740   6.748246   5.745623   6.097483   4.547029
    21  H    7.487220   6.218185   5.040111   5.126049   4.081084
    22  H    2.150049   2.711259   2.722640   2.186675   4.062282
    23  H    2.153420   2.602790   3.976556   4.818881   4.544310
    24  C    4.317222   5.710279   6.689460   6.714622   7.870599
    25  C    3.773558   4.929101   5.306623   4.810874   6.644977
    26  H    3.387460   4.521308   5.817597   6.316638   6.692762
    27  F    5.019417   6.393855   7.222693   7.078549   8.465327
    28  F    4.922128   6.258949   7.388164   7.585464   8.461530
    29  F    4.978410   6.340224   7.271853   7.245965   8.458634
    30  F    4.045974   4.924108   4.960904   4.217117   6.285157
    31  F    4.474524   5.593219   5.929687   5.396544   7.246504
    32  F    4.702091   5.926759   6.390243   5.930403   7.714620
                    6          7          8          9         10
     6  C    0.000000
     7  C    1.513178   0.000000
     8  C    2.503268   1.526307   0.000000
     9  C    5.300282   6.630548   7.801821   0.000000
    10  C    6.687740   8.015367   9.188371   1.388496   0.000000
    11  C    7.538716   8.742912  10.032009   2.426101   1.400535
    12  C    7.187883   8.222591   9.615378   2.775586   2.398098
    13  C    5.925810   6.885524   8.307270   2.407923   2.772442
    14  H    3.700519   4.434165   5.910132   3.341260   4.478101
    15  H    1.092596   2.171084   2.777309   5.335526   6.692291
    16  H    1.092615   2.171097   2.776783   5.331846   6.692288
    17  H    2.136160   1.093367   2.165389   6.807631   8.170345
    18  H    2.136144   1.093374   2.165405   6.810904   8.170767
    19  H    2.768746   2.176069   1.092647   7.897711   9.268684
    20  H    3.456827   2.170808   1.090591   8.738010  10.126382
    21  H    2.768523   2.176105   1.092649   7.900309   9.268819
    22  H    4.808164   6.242646   7.265820   1.078945   2.143077
    23  H    5.971992   6.719264   8.205882   3.394676   3.857494
    24  C    9.036800  10.252521  11.533782   3.835530   2.568937
    25  C    7.447337   8.876756   9.896793   2.470788   1.515726
    26  H    8.059404   8.994584  10.432323   3.857713   3.381762
    27  F    9.530330  10.820979  12.025025   4.283763   2.943206
    28  F    9.723759  10.829379  12.186760   4.760882   3.659463
    29  F    9.591273  10.820482  12.076773   4.430279   3.179384
    30  F    6.868418   8.352613   9.224203   2.656302   2.359971
    31  F    8.000716   9.429939  10.410078   3.246639   2.362278
    32  F    8.544540   9.959782  10.990529   3.515831   2.368956
                   11         12         13         14         15
    11  C    0.000000
    12  C    1.391056   0.000000
    13  C    2.415825   1.383321   0.000000
    14  H    4.722980   3.908961   2.528932   0.000000
    15  H    7.628178   7.394063   6.201311   4.168403   0.000000
    16  H    7.638048   7.406672   6.211714   4.169917   1.766810
    17  H    8.804422   8.191366   6.837222   4.358987   3.061306
    18  H    8.796457   8.180710   6.828546   4.358361   2.502906
    19  H   10.184448   9.854777   8.584778   6.275423   3.139022
    20  H   10.900773  10.392577   9.051362   6.578719   3.778970
    21  H   10.177352   9.845765   8.577744   6.274941   2.594713
    22  H    3.401866   3.854517   3.387427   3.707312   4.740999
    23  H    3.393015   2.138265   1.085090   2.298732   6.348022
    24  C    1.510021   2.483329   3.773333   6.192137   9.099576
    25  C    2.558188   3.813026   4.286490   5.797812   7.324593
    26  H    2.142395   1.082158   2.133850   4.582964   8.305735
    27  F    2.369510   3.524191   4.699748   6.979970   9.448070
    28  F    2.351500   2.664445   4.038397   6.558626   9.819508
    29  F    2.367181   3.270937   4.490305   6.834901   9.743773
    30  F    3.655374   4.741985   4.901421   5.887063   6.711880
    31  F    3.156127   4.395956   4.932284   6.446475   7.714068
    32  F    2.912143   4.253214   4.984733   6.737552   8.505764
                   16         17         18         19         20
    16  H    0.000000
    17  H    2.503366   0.000000
    18  H    3.061330   1.757959   0.000000
    19  H    2.594367   2.525920   3.079505   0.000000
    20  H    3.778719   2.509517   2.509341   1.762502   0.000000
    21  H    3.137833   3.079520   2.526180   1.764814   1.762498
    22  H    4.725608   6.516711   6.528075   7.284196   8.261845
    23  H    6.361658   6.575353   6.563075   8.560488   8.844725
    24  C    9.107766  10.305746  10.299095  11.668969  12.409190
    25  C    7.326021   9.117605   9.116740   9.882962  10.899948
    26  H    8.323232   8.903062   8.887546  10.711609  11.153055
    27  F    9.607769  10.992379  10.854247  12.166199  12.945577
    28  F    9.899689  10.841609  10.769460  12.406295  12.998415
    29  F    9.527508  10.784966  10.976056  12.106600  12.961147
    30  F    6.603484   8.634653   8.717557   9.103126  10.266813
    31  F    7.991978   9.792544   9.568476  10.479236  11.417901
    32  F    8.338068  10.111667  10.249990  10.909535  11.988069
                   21         22         23         24         25
    21  H    0.000000
    22  H    7.294116   0.000000
    23  H    8.550988   4.289374   0.000000
    24  C   11.662880   4.709051   4.621570   0.000000
    25  C    9.881862   2.639907   5.371529   3.058800   0.000000
    26  H   10.698577   4.936651   2.449546   2.655660   4.695078
    27  F   12.040822   4.980078   5.610279   1.335904   2.868008
    28  F   12.342899   5.732818   4.643566   1.343463   4.343738
    29  F   12.277597   5.217670   5.311991   1.339630   3.416140
    30  F    9.181765   2.279954   5.954647   4.340119   1.338615
    31  F   10.269026   3.358385   5.987694   3.406731   1.338808
    32  F   11.038069   3.776559   6.044925   2.843077   1.336284
                   26         27         28         29         30
    26  H    0.000000
    27  F    3.785861   0.000000
    28  F    2.288960   2.150758   0.000000
    29  F    3.384583   2.159661   2.148692   0.000000
    30  F    5.719978   4.194921   5.631100   4.542597   0.000000
    31  F    5.192568   2.719434   4.540147   4.046692   2.149338
    32  F    4.956112   2.648048   4.177050   2.704647   2.148634
                   31         32
    31  F    0.000000
    32  F    2.160956   0.000000
 Stoichiometry    C12H11F6NO2
 Framework group  C1[X(C12H11F6NO2)]
 Deg. of freedom    90
 Full point group                 C1      NOp   1
 Largest Abelian subgroup         C1      NOp   1
 Largest concise Abelian subgroup C1      NOp   1
                         Standard orientation:                         
 ---------------------------------------------------------------------
 Center     Atomic      Atomic             Coordinates (Angstroms)
 Number     Number       Type             X           Y           Z
 ---------------------------------------------------------------------
      1          6           0        0.510894   -0.952751   -0.013891
      2          7           0        1.900103   -1.087861   -0.019826
      3          6           0        2.841286   -0.084827   -0.005673
      4          8           0        2.622845    1.097420    0.006315
      5          8           0        4.062995   -0.639152   -0.007610
      6          6           0        5.160562    0.288851    0.004933
      7          6           0        6.442322   -0.515381    0.002094
      8          6           0        7.661199    0.403209    0.014100
      9          6           0       -0.139634    0.285414   -0.025189
     10          6           0       -1.526917    0.343048   -0.018522
     11          6           0       -2.295005   -0.827718    0.010568
     12          6           0       -1.635329   -2.052406    0.011787
     13          6           0       -0.253697   -2.119676   -0.000161
     14          1           0        2.273384   -2.025723   -0.023219
     15          1           0        5.077848    0.918673    0.893893
     16          1           0        5.084170    0.934995   -0.872831
     17          1           0        6.457785   -1.157833   -0.882478
     18          1           0        6.452016   -1.173182    0.875404
     19          1           0        7.675742    1.054962   -0.862761
     20          1           0        8.586181   -0.174540    0.012362
     21          1           0        7.669711    1.039982    0.901979
     22          1           0        0.438986    1.195872   -0.044829
     23          1           0        0.235210   -3.088367    0.005144
     24          6           0       -3.804923   -0.844213    0.004577
     25          6           0       -2.146762    1.726140   -0.002030
     26          1           0       -2.211261   -2.968380    0.030794
     27          9           0       -4.331326    0.064624    0.830141
     28          9           0       -4.271741   -2.041247    0.397109
     29          9           0       -4.308735   -0.623326   -1.216894
     30          9           0       -1.273523    2.657378   -0.404697
     31          9           0       -2.541966    2.073184    1.229140
     32          9           0       -3.207285    1.813197   -0.810341
 ---------------------------------------------------------------------
 Rotational constants (GHZ):      0.7143392      0.1196733      0.1065306
 General basis read from cards:  (6D, 7F)
 There are   421 symmetry adapted cartesian basis functions of A   symmetry.
 There are   421 symmetry adapted basis functions of A   symmetry.
   421 basis functions,   716 primitive gaussians,   421 cartesian basis functions
    80 alpha electrons       80 beta electrons
       nuclear repulsion energy      1787.1003394518 Hartrees.
 NAtoms=   32 NActive=   32 NUniq=   32 SFac= 1.00D+00 NAtFMM=   60 NAOKFM=F Big=F
 Integral buffers will be    131072 words long.
 Raffenetti 1 integral format.
 Two-electron integral symmetry is turned on.
 One-electron integrals computed using PRISM.
 NBasis=   421 RedAO= T EigKep=  1.60D-06  NBF=   421
 NBsUse=   419 1.00D-06 EigRej=  8.62D-07 NBFU=   419
 ExpMin= 4.38D-02 ExpMax= 7.00D+03 ExpMxC= 1.05D+03 IAcc=3 IRadAn=         5 AccDes= 0.00D+00
 Harris functional with IExCor=  205 and IRadAn=       5 diagonalized for initial guess.
 HarFok:  IExCor=  205 AccDes= 0.00D+00 IRadAn=         5 IDoV= 1 UseB2=F ITyADJ=14
 ICtDFT=  3500011 ScaDFX=  1.000000  1.000000  1.000000  1.000000
 FoFCou: FMM=F IPFlag=           0 FMFlag=      100000 FMFlg1=           0
         NFxFlg=           0 DoJE=T BraDBF=F KetDBF=T FulRan=T
         wScrn=  0.000000 ICntrl=     500 IOpCl=  0 I1Cent=   200000004 NGrid=           0
         NMat0=    1 NMatS0=      1 NMatT0=    0 NMatD0=    1 NMtDS0=    0 NMtDT0=    0
 Petite list used in FoFCou.
 Requested convergence on RMS density matrix=1.00D-08 within 128 cycles.
 Requested convergence on MAX density matrix=1.00D-06.
 Requested convergence on             energy=1.00D-06.
 No special actions if energy rises.
 Initial convergence to 1.0D-05 achieved.  Increase integral accuracy.
 SCF Done:  E(RHF) =  -1261.72720505     A.U. after   17 cycles
            NFock= 17  Conv=0.46D-08     -V/T= 2.0025
 ExpMin= 4.38D-02 ExpMax= 7.00D+03 ExpMxC= 1.05D+03 IAcc=3 IRadAn=         5 AccDes= 0.00D+00
 HarFok:  IExCor=  205 AccDes= 0.00D+00 IRadAn=         5 IDoV=-2 UseB2=F ITyADJ=14
 ICtDFT= 12500011 ScaDFX=  1.000000  1.000000  1.000000  1.000000
 Range of M.O.s used for correlation:    22   419
 NBasis=   421 NAE=    80 NBE=    80 NFC=    21 NFV=     0
 NROrb=    398 NOA=    59 NOB=    59 NVA=   339 NVB=   339

 **** Warning!!: The largest alpha MO coefficient is  0.14274601D+03

 Fully direct method using O(OVN) memory.
 JobTyp=1 Pass  1:  I=   1 to  18 NPSUse=  8 ParTrn=T ParDer=T DoDerP=F.
 JobTyp=1 Pass  2:  I=  19 to  59 NPSUse=  8 ParTrn=T ParDer=T DoDerP=F.
 Spin components of T(2) and E(2):
     alpha-alpha T2 =       0.1289872151D+00 E2=     -0.4293946936D+00
     alpha-beta  T2 =       0.6554728407D+00 E2=     -0.2247499818D+01
     beta-beta   T2 =       0.1289872151D+00 E2=     -0.4293946936D+00
 ANorm=    0.1383274113D+01
 E2 =    -0.3106289205D+01 EUMP2 =    -0.12648334942520D+04

 **********************************************************************

            Population analysis using the SCF density.

 **********************************************************************

 Orbital symmetries:
       Occupied  (A) (A) (A) (A) (A) (A) (A) (A) (A) (A) (A) (A)
                 (A) (A) (A) (A) (A) (A) (A) (A) (A) (A) (A) (A)
                 (A) (A) (A) (A) (A) (A) (A) (A) (A) (A) (A) (A)
                 (A) (A) (A) (A) (A) (A) (A) (A) (A) (A) (A) (A)
                 (A) (A) (A) (A) (A) (A) (A) (A) (A) (A) (A) (A)
                 (A) (A) (A) (A) (A) (A) (A) (A) (A) (A) (A) (A)
                 (A) (A) (A) (A) (A) (A) (A) (A)
       Virtual   (A) (A) (A) (A) (A) (A) (A) (A) (A) (A) (A) (A)
                 (A) (A) (A) (A) (A) (A) (A) (A) (A) (A) (A) (A)
                 (A) (A) (A) (A) (A) (A) (A) (A) (A) (A) (A) (A)
                 (A) (A) (A) (A) (A) (A) (A) (A) (A) (A) (A) (A)
                 (A) (A) (A) (A) (A) (A) (A) (A) (A) (A) (A) (A)
                 (A) (A) (A) (A) (A) (A) (A) (A) (A) (A) (A) (A)
                 (A) (A) (A) (A) (A) (A) (A) (A) (A) (A) (A) (A)
                 (A) (A) (A) (A) (A) (A) (A) (A) (A) (A) (A) (A)
                 (A) (A) (A) (A) (A) (A) (A) (A) (A) (A) (A) (A)
                 (A) (A) (A) (A) (A) (A) (A) (A) (A) (A) (A) (A)
                 (A) (A) (A) (A) (A) (A) (A) (A) (A) (A) (A) (A)
                 (A) (A) (A) (A) (A) (A) (A) (A) (A) (A) (A) (A)
                 (A) (A) (A) (A) (A) (A) (A) (A) (A) (A) (A) (A)
                 (A) (A) (A) (A) (A) (A) (A) (A) (A) (A) (A) (A)
                 (A) (A) (A) (A) (A) (A) (A) (A) (A) (A) (A) (A)
                 (A) (A) (A) (A) (A) (A) (A) (A) (A) (A) (A) (A)
                 (A) (A) (A) (A) (A) (A) (A) (A) (A) (A) (A) (A)
                 (A) (A) (A) (A) (A) (A) (A) (A) (A) (A) (A) (A)
                 (A) (A) (A) (A) (A) (A) (A) (A) (A) (A) (A) (A)
                 (A) (A) (A) (A) (A) (A) (A) (A) (A) (A) (A) (A)
                 (A) (A) (A) (A) (A) (A) (A) (A) (A) (A) (A) (A)
                 (A) (A) (A) (A) (A) (A) (A) (A) (A) (A) (A) (A)
                 (A) (A) (A) (A) (A) (A) (A) (A) (A) (A) (A) (A)
                 (A) (A) (A) (A) (A) (A) (A) (A) (A) (A) (A) (A)
                 (A) (A) (A) (A) (A) (A) (A) (A) (A) (A) (A) (A)
                 (A) (A) (A) (A) (A) (A) (A) (A) (A) (A) (A) (A)
                 (A) (A) (A) (A) (A) (A) (A) (A) (A) (A) (A) (A)
                 (A) (A) (A) (A) (A) (A) (A) (A) (A) (A) (A) (A)
                 (A) (A) (A)
 The electronic state is 1-A.
 Alpha  occ. eigenvalues --  -26.35619 -26.35446 -26.35284 -26.35251 -26.35001
 Alpha  occ. eigenvalues --  -26.34937 -20.63556 -20.57198 -15.64132 -11.52499
 Alpha  occ. eigenvalues --  -11.52484 -11.44024 -11.33353 -11.30558 -11.30146
 Alpha  occ. eigenvalues --  -11.29014 -11.28411 -11.27629 -11.26994 -11.24486
 Alpha  occ. eigenvalues --  -11.23541  -1.74052  -1.73581  -1.64271  -1.63925
 Alpha  occ. eigenvalues --   -1.63776  -1.63600  -1.49927  -1.39153  -1.29719
 Alpha  occ. eigenvalues --   -1.20291  -1.09983  -1.08681  -1.07584  -0.99565
 Alpha  occ. eigenvalues --   -0.97740  -0.95384  -0.89959  -0.89157  -0.84607
 Alpha  occ. eigenvalues --   -0.83358  -0.83057  -0.82821  -0.82408  -0.82018
 Alpha  occ. eigenvalues --   -0.81538  -0.79340  -0.76681  -0.72728  -0.71665
 Alpha  occ. eigenvalues --   -0.71532  -0.71452  -0.70968  -0.70929  -0.68838
 Alpha  occ. eigenvalues --   -0.68099  -0.66724  -0.66552  -0.65921  -0.65119
 Alpha  occ. eigenvalues --   -0.64753  -0.64720  -0.64673  -0.64561  -0.62935
 Alpha  occ. eigenvalues --   -0.61767  -0.60202  -0.59169  -0.56910  -0.55706
 Alpha  occ. eigenvalues --   -0.55287  -0.54167  -0.53266  -0.50794  -0.50609
 Alpha  occ. eigenvalues --   -0.48401  -0.48169  -0.47907  -0.38265  -0.34674
 Alpha virt. eigenvalues --    0.04957   0.07093   0.07235   0.07704   0.08450
 Alpha virt. eigenvalues --    0.08568   0.09158   0.09281   0.10427   0.10709
 Alpha virt. eigenvalues --    0.10849   0.11009   0.12100   0.12401   0.12838
 Alpha virt. eigenvalues --    0.12913   0.13127   0.14223   0.14705   0.14869
 Alpha virt. eigenvalues --    0.15087   0.15697   0.17141   0.17267   0.17808
 Alpha virt. eigenvalues --    0.18569   0.19016   0.19797   0.20040   0.20843
 Alpha virt. eigenvalues --    0.21122   0.21687   0.21954   0.23058   0.23441
 Alpha virt. eigenvalues --    0.25040   0.25449   0.25995   0.26484   0.27485
 Alpha virt. eigenvalues --    0.27721   0.28538   0.28955   0.29274   0.29883
 Alpha virt. eigenvalues --    0.30581   0.30907   0.31653   0.32250   0.32683
 Alpha virt. eigenvalues --    0.32779   0.33405   0.33484   0.33736   0.34458
 Alpha virt. eigenvalues --    0.34712   0.35706   0.36647   0.37333   0.37886
 Alpha virt. eigenvalues --    0.38226   0.38723   0.39297   0.39895   0.40289
 Alpha virt. eigenvalues --    0.40517   0.41034   0.41343   0.41768   0.41943
 Alpha virt. eigenvalues --    0.42456   0.42599   0.43138   0.43616   0.44220
 Alpha virt. eigenvalues --    0.44744   0.45516   0.46104   0.46320   0.46518
 Alpha virt. eigenvalues --    0.46936   0.47331   0.47728   0.47918   0.48195
 Alpha virt. eigenvalues --    0.49414   0.49568   0.50135   0.50411   0.51137
 Alpha virt. eigenvalues --    0.52074   0.52212   0.53403   0.53937   0.54317
 Alpha virt. eigenvalues --    0.55111   0.55656   0.55782   0.57130   0.57455
 Alpha virt. eigenvalues --    0.58231   0.58914   0.59024   0.60108   0.60341
 Alpha virt. eigenvalues --    0.61094   0.61950   0.62419   0.64233   0.66503
 Alpha virt. eigenvalues --    0.67522   0.68929   0.69378   0.70507   0.71111
 Alpha virt. eigenvalues --    0.78122   0.80955   0.83628   0.84055   0.85397
 Alpha virt. eigenvalues --    0.87901   0.88084   0.91117   0.91536   0.92216
 Alpha virt. eigenvalues --    0.92639   0.93057   0.93638   0.94811   0.95293
 Alpha virt. eigenvalues --    0.97391   0.98334   1.00356   1.00801   1.01449
 Alpha virt. eigenvalues --    1.02640   1.03947   1.04733   1.05189   1.08256
 Alpha virt. eigenvalues --    1.08703   1.10560   1.11173   1.12035   1.12549
 Alpha virt. eigenvalues --    1.13928   1.15405   1.16958   1.17953   1.19230
 Alpha virt. eigenvalues --    1.19772   1.21797   1.23369   1.24293   1.25389
 Alpha virt. eigenvalues --    1.27470   1.29250   1.29806   1.32283   1.34810
 Alpha virt. eigenvalues --    1.35925   1.36461   1.37649   1.38387   1.39725
 Alpha virt. eigenvalues --    1.40318   1.41193   1.44478   1.45199   1.45842
 Alpha virt. eigenvalues --    1.46308   1.46535   1.47366   1.50231   1.50960
 Alpha virt. eigenvalues --    1.53620   1.55242   1.56482   1.59327   1.59843
 Alpha virt. eigenvalues --    1.61047   1.63008   1.65041   1.66215   1.67106
 Alpha virt. eigenvalues --    1.68366   1.69579   1.70082   1.70622   1.72746
 Alpha virt. eigenvalues --    1.77022   1.77891   1.78365   1.83169   1.84541
 Alpha virt. eigenvalues --    1.87682   1.87893   1.89388   1.89946   1.90785
 Alpha virt. eigenvalues --    1.92136   1.93356   1.93607   1.95453   1.96144
 Alpha virt. eigenvalues --    1.96577   1.97399   1.98315   1.98658   1.98814
 Alpha virt. eigenvalues --    1.99373   1.99942   2.00511   2.01734   2.02231
 Alpha virt. eigenvalues --    2.03534   2.03768   2.04234   2.05399   2.07072
 Alpha virt. eigenvalues --    2.08062   2.08803   2.10012   2.11030   2.11715
 Alpha virt. eigenvalues --    2.12191   2.12723   2.13924   2.14504   2.15235
 Alpha virt. eigenvalues --    2.16552   2.17080   2.17379   2.18631   2.18849
 Alpha virt. eigenvalues --    2.20491   2.20853   2.22391   2.22874   2.24949
 Alpha virt. eigenvalues --    2.26125   2.27287   2.28849   2.29981   2.30251
 Alpha virt. eigenvalues --    2.31466   2.32146   2.34253   2.35180   2.35380
 Alpha virt. eigenvalues --    2.38102   2.38678   2.38920   2.39710   2.40679
 Alpha virt. eigenvalues --    2.41191   2.42904   2.43565   2.44009   2.44554
 Alpha virt. eigenvalues --    2.44998   2.46311   2.48309   2.48943   2.49359
 Alpha virt. eigenvalues --    2.53278   2.54599   2.55790   2.57217   2.58616
 Alpha virt. eigenvalues --    2.59060   2.60034   2.61510   2.64375   2.66517
 Alpha virt. eigenvalues --    2.66939   2.70643   2.70967   2.73313   2.73760
 Alpha virt. eigenvalues --    2.77370   2.79740   2.81997   2.82403   2.84042
 Alpha virt. eigenvalues --    2.85767   2.91590   2.94959   2.95970   2.97509
 Alpha virt. eigenvalues --    3.00276   3.02228   3.06261   3.07860   3.08504
 Alpha virt. eigenvalues --    3.09818   3.11671   3.12980   3.16166   3.18341
 Alpha virt. eigenvalues --    3.19953   3.21127   3.26048   3.26913   3.30406
 Alpha virt. eigenvalues --    3.35798   3.40508   3.50867   3.53081   3.55561
 Alpha virt. eigenvalues --    3.56825   3.59591   3.61441   3.65085   3.68961
 Alpha virt. eigenvalues --    3.73275   3.75099   3.83004   4.60506   4.66552
 Alpha virt. eigenvalues --    4.69259   4.71059   4.76439   4.80237   4.82066
 Alpha virt. eigenvalues --    4.84213   4.88934   4.97026   5.00850   5.01729
 Alpha virt. eigenvalues --    5.04567   5.12308   5.23437   6.22250   6.30544
 Alpha virt. eigenvalues --    6.45822   6.52038   7.32306   7.66260
          Condensed to atoms (all electrons):
               1          2          3          4          5          6
     1  C   18.757247  -0.241699  -0.871460  -0.353436  -0.125852  -0.406006
     2  N   -0.241699   7.637342   0.410952  -0.013983  -0.076355  -0.146406
     3  C   -0.871460   0.410952   6.193171   0.567550   0.343074  -0.529476
     4  O   -0.353436  -0.013983   0.567550   8.236081  -0.148528  -0.153190
     5  O   -0.125852  -0.076355   0.343074  -0.148528   8.515500   0.140249
     6  C   -0.406006  -0.146406  -0.529476  -0.153190   0.140249   6.732569
     7  C    0.011237   0.019303   0.005657   0.020368  -0.123050  -0.156759
     8  C   -0.006641   0.001115  -0.077774   0.000769   0.019552  -0.036571
     9  C   -3.887125  -0.066619   0.610220   0.437360   0.011845   0.034883
    10  C   -4.385096   0.165777   0.728883   0.066997   0.005538   0.028845
    11  C    1.020912  -0.131153  -1.113679  -0.003008  -0.008242  -0.114346
    12  C    0.113641   0.062286  -0.080355   0.000623   0.007341   0.010741
    13  C   -0.873260   0.021913  -0.997351  -0.066411  -0.016124  -0.149630
    14  H   -0.027322   0.273772  -0.029425   0.003734   0.002546  -0.012482
    15  H    0.004111   0.004343   0.045497  -0.005314  -0.035972   0.365385
    16  H    0.002462   0.004736   0.038362  -0.005159  -0.036215   0.373467
    17  H   -0.000050  -0.000417   0.002905  -0.000325  -0.001489  -0.050155
    18  H   -0.000257  -0.000321   0.001837  -0.000324  -0.001381  -0.050139
    19  H   -0.000031  -0.000046  -0.001957  -0.000067  -0.000772  -0.025102
    20  H    0.000060   0.000027   0.004842   0.000015  -0.000147   0.067154
    21  H   -0.000021  -0.000053  -0.002025  -0.000069  -0.000789  -0.024757
    22  H    0.015746  -0.008195   0.080647  -0.003740   0.000758   0.010194
    23  H    0.048562  -0.009514  -0.033084   0.000119  -0.000301  -0.001867
    24  C   -0.689535   0.009090  -0.196409   0.001236   0.001131  -0.006554
    25  C   -1.977418   0.015197   0.161377   0.002794   0.003456   0.022033
    26  H    0.016571  -0.000143   0.004584  -0.000003  -0.000003   0.000050
    27  F    0.015555   0.000026   0.000420   0.000001   0.000000   0.000003
    28  F    0.015660  -0.000004   0.000031   0.000000   0.000000  -0.000002
    29  F   -0.000734   0.000001  -0.000664  -0.000000   0.000000  -0.000005
    30  F    0.151184  -0.000945   0.000515   0.000148  -0.000003  -0.000092
    31  F    0.028449   0.000095  -0.000652   0.000094  -0.000000  -0.000039
    32  F    0.030801   0.000069   0.000154   0.000007   0.000000   0.000002
               7          8          9         10         11         12
     1  C    0.011237  -0.006641  -3.887125  -4.385096   1.020912   0.113641
     2  N    0.019303   0.001115  -0.066619   0.165777  -0.131153   0.062286
     3  C    0.005657  -0.077774   0.610220   0.728883  -1.113679  -0.080355
     4  O    0.020368   0.000769   0.437360   0.066997  -0.003008   0.000623
     5  O   -0.123050   0.019552   0.011845   0.005538  -0.008242   0.007341
     6  C   -0.156759  -0.036571   0.034883   0.028845  -0.114346   0.010741
     7  C    5.726197   0.214165  -0.047313  -0.007097   0.000151   0.001138
     8  C    0.214165   5.448707  -0.001710  -0.000098  -0.000568  -0.000150
     9  C   -0.047313  -0.001710  13.980949   3.254559  -3.854392  -1.149411
    10  C   -0.007097  -0.000098   3.254559  24.783718  -6.667656  -1.229543
    11  C    0.000151  -0.000568  -3.854392  -6.667656  28.395409  -4.402249
    12  C    0.001138  -0.000150  -1.149411  -1.229543  -4.402249  10.769590
    13  C    0.021458  -0.002015  -4.219279  -4.088627  -0.139810   0.660833
    14  H   -0.000612  -0.000274   0.033051   0.000154   0.005247   0.014345
    15  H   -0.038062  -0.007349  -0.000158   0.000119   0.000171  -0.000049
    16  H   -0.037736  -0.006285  -0.001847   0.000210  -0.000029  -0.000009
    17  H    0.413822  -0.032431   0.000129   0.000007   0.000009  -0.000009
    18  H    0.414731  -0.032227  -0.000034   0.000011   0.000003  -0.000001
    19  H   -0.024923   0.406811  -0.000041  -0.000001   0.000000   0.000000
    20  H   -0.103138   0.393865   0.000036   0.000001   0.000000  -0.000000
    21  H   -0.025823   0.407458  -0.000039  -0.000000  -0.000000   0.000000
    22  H   -0.000092   0.000035   0.353288  -0.070574  -0.048307  -0.005078
    23  H   -0.000011  -0.000005  -0.008517  -0.006106   0.045518   0.011645
    24  C   -0.000211  -0.000022  -1.548906  -3.264124  -2.447886   1.258857
    25  C   -0.000749   0.000038   1.774869  -2.786406  -3.801320  -0.156198
    26  H    0.000000   0.000000   0.004786   0.066523   0.007587   0.296671
    27  F   -0.000000   0.000000   0.059379  -0.049102   0.049031  -0.016485
    28  F   -0.000000  -0.000000   0.008413   0.046492  -0.001473  -0.021527
    29  F   -0.000000  -0.000000   0.000756  -0.016679   0.172159  -0.066616
    30  F    0.000002  -0.000000   0.029894  -0.082047   0.010219   0.005719
    31  F   -0.000001   0.000000  -0.035929   0.181606  -0.065851   0.027723
    32  F   -0.000000   0.000000  -0.007845   0.065552  -0.035295   0.031945
              13         14         15         16         17         18
     1  C   -0.873260  -0.027322   0.004111   0.002462  -0.000050  -0.000257
     2  N    0.021913   0.273772   0.004343   0.004736  -0.000417  -0.000321
     3  C   -0.997351  -0.029425   0.045497   0.038362   0.002905   0.001837
     4  O   -0.066411   0.003734  -0.005314  -0.005159  -0.000325  -0.000324
     5  O   -0.016124   0.002546  -0.035972  -0.036215  -0.001489  -0.001381
     6  C   -0.149630  -0.012482   0.365385   0.373467  -0.050155  -0.050139
     7  C    0.021458  -0.000612  -0.038062  -0.037736   0.413822   0.414731
     8  C   -0.002015  -0.000274  -0.007349  -0.006285  -0.032431  -0.032227
     9  C   -4.219279   0.033051  -0.000158  -0.001847   0.000129  -0.000034
    10  C   -4.088627   0.000154   0.000119   0.000210   0.000007   0.000011
    11  C   -0.139810   0.005247   0.000171  -0.000029   0.000009   0.000003
    12  C    0.660833   0.014345  -0.000049  -0.000009  -0.000009  -0.000001
    13  C   15.092840  -0.006870   0.000394   0.000996   0.000097   0.000224
    14  H   -0.006870   0.239233  -0.000002  -0.000002  -0.000005  -0.000005
    15  H    0.000394  -0.000002   0.488040  -0.035184   0.003142  -0.003618
    16  H    0.000996  -0.000002  -0.035184   0.488022  -0.003618   0.003139
    17  H    0.000097  -0.000005   0.003142  -0.003618   0.495672  -0.029224
    18  H    0.000224  -0.000005  -0.003618   0.003139  -0.029224   0.495679
    19  H    0.000011  -0.000000   0.000164   0.001387  -0.003215   0.003308
    20  H   -0.000010  -0.000000  -0.000115  -0.000114  -0.002579  -0.002579
    21  H    0.000009  -0.000000   0.001384   0.000163   0.003308  -0.003209
    22  H   -0.021685  -0.000105  -0.000004  -0.000004  -0.000000  -0.000000
    23  H    0.258667   0.003864  -0.000000  -0.000000  -0.000000  -0.000000
    24  C    0.024176   0.000879   0.000001  -0.000004   0.000000  -0.000000
    25  C    0.851680   0.000222  -0.000081   0.000023  -0.000001   0.000000
    26  H   -0.016608  -0.000006   0.000000   0.000000   0.000000  -0.000000
    27  F    0.002919   0.000000  -0.000000  -0.000000  -0.000000  -0.000000
    28  F    0.075772   0.000000  -0.000000  -0.000000  -0.000000  -0.000000
    29  F    0.001869   0.000000   0.000000  -0.000000   0.000000  -0.000000
    30  F   -0.011409   0.000000   0.000000   0.000000   0.000000   0.000000
    31  F   -0.008130  -0.000000  -0.000000   0.000000  -0.000000   0.000000
    32  F   -0.007717  -0.000000  -0.000000   0.000000  -0.000000   0.000000
              19         20         21         22         23         24
     1  C   -0.000031   0.000060  -0.000021   0.015746   0.048562  -0.689535
     2  N   -0.000046   0.000027  -0.000053  -0.008195  -0.009514   0.009090
     3  C   -0.001957   0.004842  -0.002025   0.080647  -0.033084  -0.196409
     4  O   -0.000067   0.000015  -0.000069  -0.003740   0.000119   0.001236
     5  O   -0.000772  -0.000147  -0.000789   0.000758  -0.000301   0.001131
     6  C   -0.025102   0.067154  -0.024757   0.010194  -0.001867  -0.006554
     7  C   -0.024923  -0.103138  -0.025823  -0.000092  -0.000011  -0.000211
     8  C    0.406811   0.393865   0.407458   0.000035  -0.000005  -0.000022
     9  C   -0.000041   0.000036  -0.000039   0.353288  -0.008517  -1.548906
    10  C   -0.000001   0.000001  -0.000000  -0.070574  -0.006106  -3.264124
    11  C    0.000000   0.000000  -0.000000  -0.048307   0.045518  -2.447886
    12  C    0.000000  -0.000000   0.000000  -0.005078   0.011645   1.258857
    13  C    0.000011  -0.000010   0.000009  -0.021685   0.258667   0.024176
    14  H   -0.000000  -0.000000  -0.000000  -0.000105   0.003864   0.000879
    15  H    0.000164  -0.000115   0.001384  -0.000004  -0.000000   0.000001
    16  H    0.001387  -0.000114   0.000163  -0.000004  -0.000000  -0.000004
    17  H   -0.003215  -0.002579   0.003308  -0.000000  -0.000000   0.000000
    18  H    0.003308  -0.002579  -0.003209  -0.000000  -0.000000  -0.000000
    19  H    0.503420  -0.024666  -0.031306  -0.000000  -0.000000  -0.000000
    20  H   -0.024666   0.487281  -0.024672   0.000000   0.000000   0.000000
    21  H   -0.031306  -0.024672   0.503420  -0.000000  -0.000000  -0.000000
    22  H   -0.000000   0.000000  -0.000000   0.328736  -0.000080  -0.001989
    23  H   -0.000000   0.000000  -0.000000  -0.000080   0.428533   0.019281
    24  C   -0.000000   0.000000  -0.000000  -0.001989   0.019281  14.635353
    25  C   -0.000000   0.000000  -0.000000   0.014449   0.000771  -3.795089
    26  H    0.000000  -0.000000   0.000000   0.000007  -0.000787  -0.063780
    27  F   -0.000000   0.000000  -0.000000   0.000009   0.000015  -0.120865
    28  F    0.000000   0.000000  -0.000000   0.000007   0.000052  -0.022810
    29  F   -0.000000   0.000000   0.000000   0.000006   0.000013  -0.000701
    30  F   -0.000000   0.000000   0.000000   0.002271   0.000000   0.013679
    31  F   -0.000000   0.000000  -0.000000  -0.000214  -0.000001   0.019850
    32  F    0.000000  -0.000000  -0.000000   0.000146   0.000000   0.180595
              25         26         27         28         29         30
     1  C   -1.977418   0.016571   0.015555   0.015660  -0.000734   0.151184
     2  N    0.015197  -0.000143   0.000026  -0.000004   0.000001  -0.000945
     3  C    0.161377   0.004584   0.000420   0.000031  -0.000664   0.000515
     4  O    0.002794  -0.000003   0.000001   0.000000  -0.000000   0.000148
     5  O    0.003456  -0.000003   0.000000   0.000000   0.000000  -0.000003
     6  C    0.022033   0.000050   0.000003  -0.000002  -0.000005  -0.000092
     7  C   -0.000749   0.000000  -0.000000  -0.000000  -0.000000   0.000002
     8  C    0.000038   0.000000   0.000000  -0.000000  -0.000000  -0.000000
     9  C    1.774869   0.004786   0.059379   0.008413   0.000756   0.029894
    10  C   -2.786406   0.066523  -0.049102   0.046492  -0.016679  -0.082047
    11  C   -3.801320   0.007587   0.049031  -0.001473   0.172159   0.010219
    12  C   -0.156198   0.296671  -0.016485  -0.021527  -0.066616   0.005719
    13  C    0.851680  -0.016608   0.002919   0.075772   0.001869  -0.011409
    14  H    0.000222  -0.000006   0.000000   0.000000   0.000000   0.000000
    15  H   -0.000081   0.000000  -0.000000  -0.000000   0.000000   0.000000
    16  H    0.000023   0.000000  -0.000000  -0.000000  -0.000000   0.000000
    17  H   -0.000001   0.000000  -0.000000  -0.000000   0.000000   0.000000
    18  H    0.000000  -0.000000  -0.000000  -0.000000  -0.000000   0.000000
    19  H   -0.000000   0.000000  -0.000000   0.000000  -0.000000  -0.000000
    20  H    0.000000  -0.000000   0.000000   0.000000   0.000000   0.000000
    21  H   -0.000000   0.000000  -0.000000  -0.000000   0.000000   0.000000
    22  H    0.014449   0.000007   0.000009   0.000007   0.000006   0.002271
    23  H    0.000771  -0.000787   0.000015   0.000052   0.000013   0.000000
    24  C   -3.795089  -0.063780  -0.120865  -0.022810  -0.000701   0.013679
    25  C   13.615922   0.014101   0.181705   0.016528   0.031758   0.008979
    26  H    0.014101   0.389844   0.000050  -0.001652  -0.000053   0.000010
    27  F    0.181705   0.000050   9.299699  -0.015439  -0.023000   0.000436
    28  F    0.016528  -0.001652  -0.015439   9.349411  -0.023394   0.000005
    29  F    0.031758  -0.000053  -0.023000  -0.023394   9.283379   0.000129
    30  F    0.008979   0.000010   0.000436   0.000005   0.000129   9.331225
    31  F   -0.017563   0.000014   0.000335   0.000088  -0.001474  -0.022419
    32  F   -0.135314   0.000027  -0.004606   0.000342   0.000112  -0.014824
              31         32
     1  C    0.028449   0.030801
     2  N    0.000095   0.000069
     3  C   -0.000652   0.000154
     4  O    0.000094   0.000007
     5  O   -0.000000   0.000000
     6  C   -0.000039   0.000002
     7  C   -0.000001  -0.000000
     8  C    0.000000   0.000000
     9  C   -0.035929  -0.007845
    10  C    0.181606   0.065552
    11  C   -0.065851  -0.035295
    12  C    0.027723   0.031945
    13  C   -0.008130  -0.007717
    14  H   -0.000000  -0.000000
    15  H   -0.000000  -0.000000
    16  H    0.000000   0.000000
    17  H   -0.000000  -0.000000
    18  H    0.000000   0.000000
    19  H   -0.000000   0.000000
    20  H    0.000000  -0.000000
    21  H   -0.000000  -0.000000
    22  H   -0.000214   0.000146
    23  H   -0.000001   0.000000
    24  C    0.019850   0.180595
    25  C   -0.017563  -0.135314
    26  H    0.000014   0.000027
    27  F    0.000335  -0.004606
    28  F    0.000088   0.000342
    29  F   -0.001474   0.000112
    30  F   -0.022419  -0.014824
    31  F    9.267397  -0.022031
    32  F   -0.022031   9.294117
 Mulliken charges:
               1
     1  C   -0.386255
     2  N   -0.930192
     3  C    0.733630
     4  O   -0.584338
     5  O   -0.475770
     6  C    0.078005
     7  C   -0.282654
     8  C   -0.688395
     9  C    0.234747
    10  C   -0.741835
    11  C   -0.871152
    12  C   -0.145418
    13  C   -0.388920
    14  H    0.500062
    15  H    0.213157
    16  H    0.213239
    17  H    0.204425
    18  H    0.204385
    19  H    0.197025
    20  H    0.204740
    21  H    0.197021
    22  H    0.353768
    23  H    0.243231
    24  C    1.994755
    25  C    1.954238
    26  H    0.282209
    27  F   -0.380086
    28  F   -0.426501
    29  F   -0.356862
    30  F   -0.422675
    31  F   -0.351346
    32  F   -0.376237
 Sum of Mulliken charges =  -0.00000
 Mulliken charges with hydrogens summed into heavy atoms:
               1
     1  C   -0.386255
     2  N   -0.430131
     3  C    0.733630
     4  O   -0.584338
     5  O   -0.475770
     6  C    0.504402
     7  C    0.126157
     8  C   -0.089609
     9  C    0.588515
    10  C   -0.741835
    11  C   -0.871152
    12  C    0.136791
    13  C   -0.145688
    24  C    1.994755
    25  C    1.954238
    27  F   -0.380086
    28  F   -0.426501
    29  F   -0.356862
    30  F   -0.422675
    31  F   -0.351346
    32  F   -0.376237
 Electronic spatial extent (au):  <R**2>=           9411.4465
 Charge=             -0.0000 electrons
 Dipole moment (field-independent basis, Debye):
    X=              6.4914    Y=             -4.5307    Z=             -0.0310  Tot=              7.9162
 Quadrupole moment (field-independent basis, Debye-Ang):
   XX=           -114.8443   YY=           -117.2809   ZZ=           -122.3027
   XY=             -1.0411   XZ=             -0.0444   YZ=             -0.1334
 Traceless Quadrupole moment (field-independent basis, Debye-Ang):
   XX=              3.2983   YY=              0.8617   ZZ=             -4.1600
   XY=             -1.0411   XZ=             -0.0444   YZ=             -0.1334
 Octapole moment (field-independent basis, Debye-Ang**2):
  XXX=            118.1248  YYY=            -10.2004  ZZZ=              0.2221  XYY=            -26.1655
  XXY=              7.3872  XXZ=              1.3285  XZZ=            -18.8545  YZZ=             12.6247
  YYZ=             -0.8902  XYZ=              0.4531
 Hexadecapole moment (field-independent basis, Debye-Ang**3):
 XXXX=          -9292.0516 YYYY=          -1308.7629 ZZZZ=           -269.7872 XXXY=            -48.0664
 XXXZ=             -7.0720 YYYX=            -41.7215 YYYZ=              3.6402 ZZZX=             -2.4729
 ZZZY=             -3.3541 XXYY=          -1917.0829 XXZZ=          -1702.6151 YYZZ=           -286.1919
 XXYZ=             -0.7385 YYXZ=              4.8449 ZZXY=             -3.4496
 N-N= 1.787100339452D+03 E-N=-6.554193889274D+03  KE= 1.258602836417D+03
 1\1\GINC-R3713\SP\RMP2-FC\Gen\C12H11F6N1O2\ROOT\09-Dec-2019\0\\# MP2/G
 en 6D SCF=Tight INT(grid=ultrafine) maxdisk=3489660928\\NM2CA.MP2_6-31
 pGd\\0,1\C,0,-5.8588072686,1.2111492307,0.1765981364\N,0,-4.5783552515
 ,0.6613963421,0.0965637384\C,0,-3.3772640731,1.3312596646,0.0688840707
 \O,0,-3.2251605941,2.5234746613,0.1014129193\O,0,-2.3834248538,0.43283
 24766,-0.0015628558\C,0,-1.0564220882,0.9838422492,-0.0396510138\C,0,-
 0.0814529449,-0.1708444406,-0.1160746397\C,0,1.3580869879,0.3344326272
 ,-0.1611529455\C,0,-6.1019413123,2.5881754102,0.2090307151\C,0,-7.4040
 772143,3.0635195247,0.2891005306\C,0,-8.4893914329,2.1803809261,0.3495
 706037\C,0,-8.2339387569,0.813654447,0.3066952856\C,0,-6.9403606759,0.
 3309673082,0.2215756196\H,0,-4.5084338831,-0.345148954,0.0663478128\H,
 0,-0.9011950882,1.588218227,0.8572329536\H,0,-0.974638408,1.6429924946
 ,-0.9071998292\H,0,-0.3042977462,-0.766964602,-1.0051377612\H,0,-0.230
 4552435,-0.8207738729,0.7504451019\H,0,1.5281416988,0.9713349765,-1.03
 25394672\H,0,2.0624854568,-0.4963533344,-0.2159735193\H,0,1.6021751227
 ,0.9177976369,0.7299077194\H,0,-5.2755772973,3.2805548985,0.1659665702
 \H,0,-6.7693793068,-0.7402053567,0.1937269816\C,0,-9.9313505744,2.6225
 811931,0.4228828754\C,0,-7.5726345193,4.5686610814,0.3487813804\H,0,-9
 .0594515796,0.1152207494,0.3489440029\F,0,-10.1165013281,3.6287527417,
 1.2819388412\F,0,-10.7206302911,1.6146152223,0.8302329734\F,0,-10.4019
 397942,3.0141985411,-0.7686665911\F,0,-6.4779323569,5.2004330284,-0.09
 21049858\F,0,-7.7843419063,4.9904186235,1.6016609346\F,0,-8.593863476,
 4.9919462782,-0.4019361584\\Version=ES64L-G09RevE.01\State=1-A\HF=-126
 1.727205\MP2=-1264.8334943\RMSD=4.572e-09\PG=C01 [X(C12H11F6N1O2)]\\@


     ON THE SURVIVAL OF THE FITTEST -
 "STRONG REPRESENTATIVES FROM EACH PAST ERA THRIVE TODAY,
 SUCH AS PROGRAMMING IN THE THIRTY YEAR OLD LANGUAGE KNOWN
 AS FORTRAN, AND EVEN IN THE ANCIENT SCRIPT KNOWN AS DIRECT
 MACHINE CODE. SOME PEOPLE MIGHT LOOK ON SUCH RELICS AS LIVING
 FOSSILS; OTHERS WOULD POINT OUT THAT EVEN A VERY OLD SPECIES
 MIGHT STILL BE FILLING A PARTICULAR ECOLOGICAL NICHE."
     -- ALAN KAY, SCI.AM. SEPTEMBER 1984
 Job cpu time:       0 days  0 hours 25 minutes 18.5 seconds.
 File lengths (MBytes):  RWF=     97 Int=      0 D2E=      0 Chk=     11 Scr=      1
 Normal termination of Gaussian 09 at Mon Dec  9 11:01:29 2019.
pbs_rusage has been removed.
Please contact help@nci.org.au if you require this functionality.
