 Entering Gaussian System, Link 0=/apps/gaussian/g09e01/g09/g09
 AtFile(1): /home/507/hio507/Basis/GTMP2LARGE.gbs
 Initial command:
 /apps/gaussian/g09e01/g09/l1.exe "/jobfs/local/4047004.r-man2/Gau-24095.inp" -scrdir="/jobfs/local/4047004.r-man2/"
 Entering Link 1 = /apps/gaussian/g09e01/g09/l1.exe PID=     24096.
  
 Copyright (c) 1988,1990,1992,1993,1995,1998,2003,2009,2015,
            Gaussian, Inc.  All Rights Reserved.
  
 This is part of the Gaussian(R) 09 program.  It is based on
 the Gaussian(R) 03 system (copyright 2003, Gaussian, Inc.),
 the Gaussian(R) 98 system (copyright 1998, Gaussian, Inc.),
 the Gaussian(R) 94 system (copyright 1995, Gaussian, Inc.),
 the Gaussian 92(TM) system (copyright 1992, Gaussian, Inc.),
 the Gaussian 90(TM) system (copyright 1990, Gaussian, Inc.),
 the Gaussian 88(TM) system (copyright 1988, Gaussian, Inc.),
 the Gaussian 86(TM) system (copyright 1986, Carnegie Mellon
 University), and the Gaussian 82(TM) system (copyright 1983,
 Carnegie Mellon University). Gaussian is a federally registered
 trademark of Gaussian, Inc.
  
 This software contains proprietary and confidential information,
 including trade secrets, belonging to Gaussian, Inc.
  
 This software is provided under written license and may be
 used, copied, transmitted, or stored only in accord with that
 written license.
  
 The following legend is applicable only to US Government
 contracts under FAR:
  
                    RESTRICTED RIGHTS LEGEND
  
 Use, reproduction and disclosure by the US Government is
 subject to restrictions as set forth in subparagraphs (a)
 and (c) of the Commercial Computer Software - Restricted
 Rights clause in FAR 52.227-19.
  
 Gaussian, Inc.
 340 Quinnipiac St., Bldg. 40, Wallingford CT 06492
  
  
 ---------------------------------------------------------------
 Warning -- This program may not be used in any manner that
 competes with the business of Gaussian, Inc. or will provide
 assistance to any competitor of Gaussian, Inc.  The licensee
 of this program is prohibited from giving any competitor of
 Gaussian, Inc. access to this program.  By using this program,
 the user acknowledges that Gaussian, Inc. is engaged in the
 business of creating and licensing software in the field of
 computational chemistry and represents and warrants to the
 licensee that it is not a competitor of Gaussian, Inc. and that
 it will not use this program in any manner prohibited above.
 ---------------------------------------------------------------
  

 Cite this work as:
 Gaussian 09, Revision E.01,
 M. J. Frisch, G. W. Trucks, H. B. Schlegel, G. E. Scuseria, 
 M. A. Robb, J. R. Cheeseman, G. Scalmani, V. Barone, B. Mennucci, 
 G. A. Petersson, H. Nakatsuji, M. Caricato, X. Li, H. P. Hratchian, 
 A. F. Izmaylov, J. Bloino, G. Zheng, J. L. Sonnenberg, M. Hada, 
 M. Ehara, K. Toyota, R. Fukuda, J. Hasegawa, M. Ishida, T. Nakajima, 
 Y. Honda, O. Kitao, H. Nakai, T. Vreven, J. A. Montgomery, Jr., 
 J. E. Peralta, F. Ogliaro, M. Bearpark, J. J. Heyd, E. Brothers, 
 K. N. Kudin, V. N. Staroverov, T. Keith, R. Kobayashi, J. Normand, 
 K. Raghavachari, A. Rendell, J. C. Burant, S. S. Iyengar, J. Tomasi, 
 M. Cossi, N. Rega, J. M. Millam, M. Klene, J. E. Knox, J. B. Cross, 
 V. Bakken, C. Adamo, J. Jaramillo, R. Gomperts, R. E. Stratmann, 
 O. Yazyev, A. J. Austin, R. Cammi, C. Pomelli, J. W. Ochterski, 
 R. L. Martin, K. Morokuma, V. G. Zakrzewski, G. A. Voth, 
 P. Salvador, J. J. Dannenberg, S. Dapprich, A. D. Daniels, 
 O. Farkas, J. B. Foresman, J. V. Ortiz, J. Cioslowski, 
 and D. J. Fox, Gaussian, Inc., Wallingford CT, 2013.
 
 ******************************************
 Gaussian 09:  ES64L-G09RevE.01 30-Nov-2015
                 9-Dec-2019 
 ******************************************
 %chk=NM2CA.MP2_GTMP2LARGE.chk
 %mem=1114112000
 %nproc=8
 Will use up to    8 processors via shared memory.
 -------------------------------------------------------------
 # MP2/Gen 5D SCF=Tight INT(grid=ultrafine) maxdisk=3489660928
 -------------------------------------------------------------
 1/38=1/1;
 2/12=2,17=6,18=5,40=1/2;
 3/5=7,8=1,11=9,16=1,25=1,30=1,75=-5/1,2,3;
 4//1;
 5/5=2,32=2,38=5/2;
 8/10=1/1;
 9/16=-3/6;
 6/7=2,8=2,9=2,10=2/1;
 99/5=1,9=1/99;
 --------------------
 NM2CA.MP2_GTMP2LARGE
 --------------------
 Symbolic Z-matrix:
 Charge =  0 Multiplicity = 1
 C                    -5.85881   1.21115   0.1766 
 N                    -4.57836   0.6614    0.09656 
 C                    -3.37726   1.33126   0.06888 
 O                    -3.22516   2.52347   0.10141 
 O                    -2.38342   0.43283  -0.00156 
 C                    -1.05642   0.98384  -0.03965 
 C                    -0.08145  -0.17084  -0.11607 
 C                     1.35809   0.33443  -0.16115 
 C                    -6.10194   2.58818   0.20903 
 C                    -7.40408   3.06352   0.2891 
 C                    -8.48939   2.18038   0.34957 
 C                    -8.23394   0.81365   0.3067 
 C                    -6.94036   0.33097   0.22158 
 H                    -4.50843  -0.34515   0.06635 
 H                    -0.9012    1.58822   0.85723 
 H                    -0.97464   1.64299  -0.9072 
 H                    -0.3043   -0.76696  -1.00514 
 H                    -0.23046  -0.82077   0.75045 
 H                     1.52814   0.97133  -1.03254 
 H                     2.06249  -0.49635  -0.21597 
 H                     1.60218   0.9178    0.72991 
 H                    -5.27558   3.28055   0.16597 
 H                    -6.76938  -0.74021   0.19373 
 C                    -9.93135   2.62258   0.42288 
 C                    -7.57263   4.56866   0.34878 
 H                    -9.05945   0.11522   0.34894 
 F                    -10.1165   3.62875   1.28194 
 F                    -10.72063   1.61462   0.83023 
 F                    -10.40194   3.0142   -0.76867 
 F                    -6.47793   5.20043  -0.0921 
 F                    -7.78434   4.99042   1.60166 
 F                    -8.59386   4.99195  -0.40194 
 
                          Input orientation:                          
 ---------------------------------------------------------------------
 Center     Atomic      Atomic             Coordinates (Angstroms)
 Number     Number       Type             X           Y           Z
 ---------------------------------------------------------------------
      1          6           0       -5.858807    1.211149    0.176598
      2          7           0       -4.578355    0.661396    0.096564
      3          6           0       -3.377264    1.331260    0.068884
      4          8           0       -3.225161    2.523475    0.101413
      5          8           0       -2.383425    0.432832   -0.001563
      6          6           0       -1.056422    0.983842   -0.039651
      7          6           0       -0.081453   -0.170844   -0.116075
      8          6           0        1.358087    0.334433   -0.161153
      9          6           0       -6.101941    2.588175    0.209031
     10          6           0       -7.404077    3.063520    0.289101
     11          6           0       -8.489391    2.180381    0.349571
     12          6           0       -8.233939    0.813654    0.306695
     13          6           0       -6.940361    0.330967    0.221576
     14          1           0       -4.508434   -0.345149    0.066348
     15          1           0       -0.901195    1.588218    0.857233
     16          1           0       -0.974638    1.642992   -0.907200
     17          1           0       -0.304298   -0.766965   -1.005138
     18          1           0       -0.230455   -0.820774    0.750445
     19          1           0        1.528142    0.971335   -1.032539
     20          1           0        2.062485   -0.496353   -0.215974
     21          1           0        1.602175    0.917798    0.729908
     22          1           0       -5.275577    3.280555    0.165967
     23          1           0       -6.769379   -0.740205    0.193727
     24          6           0       -9.931351    2.622581    0.422883
     25          6           0       -7.572635    4.568661    0.348781
     26          1           0       -9.059452    0.115221    0.348944
     27          9           0      -10.116501    3.628753    1.281939
     28          9           0      -10.720630    1.614615    0.830233
     29          9           0      -10.401940    3.014199   -0.768667
     30          9           0       -6.477932    5.200433   -0.092105
     31          9           0       -7.784342    4.990419    1.601661
     32          9           0       -8.593863    4.991946   -0.401936
 ---------------------------------------------------------------------
                    Distance matrix (angstroms):
                    1          2          3          4          5
     1  C    0.000000
     2  N    1.395776   0.000000
     3  C    2.486782   1.375537   0.000000
     4  O    2.943458   2.301846   1.202319   0.000000
     5  O    3.565922   2.208979   1.341585   2.256082   0.000000
     6  C    4.812623   3.539285   2.349210   2.663418   1.437358
     7  C    5.947553   4.578206   3.626692   4.146029   2.382564
     8  C    7.277793   5.951023   4.844598   5.085961   3.746206
     9  C    1.398702   2.458951   3.003888   2.879520   4.303164
    10  C    2.414910   3.713754   4.389128   4.217845   5.675557
    11  C    2.808790   4.203276   5.189763   5.281233   6.360821
    12  C    2.411675   3.664782   4.889965   5.296554   5.870993
    13  C    1.395171   2.388280   3.703992   4.315581   4.563533
    14  H    2.063426   1.009423   2.022349   3.142773   2.263963
    15  H    5.018303   3.867703   2.611214   2.616636   2.066265
    16  H    5.021575   3.867538   2.611997   2.618664   2.066239
    17  H    6.013486   4.639130   3.872879   4.536836   2.601816
    18  H    6.011352   4.639895   3.872748   4.535802   2.602369
    19  H    7.489095   6.217736   5.040405   5.127267   4.080839
    20  H    8.112740   6.748246   5.745623   6.097483   4.547029
    21  H    7.487220   6.218185   5.040111   5.126049   4.081084
    22  H    2.150049   2.711259   2.722640   2.186675   4.062282
    23  H    2.153420   2.602790   3.976556   4.818881   4.544310
    24  C    4.317222   5.710279   6.689460   6.714622   7.870599
    25  C    3.773558   4.929101   5.306623   4.810874   6.644977
    26  H    3.387460   4.521308   5.817597   6.316638   6.692762
    27  F    5.019417   6.393855   7.222693   7.078549   8.465327
    28  F    4.922128   6.258949   7.388164   7.585464   8.461530
    29  F    4.978410   6.340224   7.271853   7.245965   8.458634
    30  F    4.045974   4.924108   4.960904   4.217117   6.285157
    31  F    4.474524   5.593219   5.929687   5.396544   7.246504
    32  F    4.702091   5.926759   6.390243   5.930403   7.714620
                    6          7          8          9         10
     6  C    0.000000
     7  C    1.513178   0.000000
     8  C    2.503268   1.526307   0.000000
     9  C    5.300282   6.630548   7.801821   0.000000
    10  C    6.687740   8.015367   9.188371   1.388496   0.000000
    11  C    7.538716   8.742912  10.032009   2.426101   1.400535
    12  C    7.187883   8.222591   9.615378   2.775586   2.398098
    13  C    5.925810   6.885524   8.307270   2.407923   2.772442
    14  H    3.700519   4.434165   5.910132   3.341260   4.478101
    15  H    1.092596   2.171084   2.777309   5.335526   6.692291
    16  H    1.092615   2.171097   2.776783   5.331846   6.692288
    17  H    2.136160   1.093367   2.165389   6.807631   8.170345
    18  H    2.136144   1.093374   2.165405   6.810904   8.170767
    19  H    2.768746   2.176069   1.092647   7.897711   9.268684
    20  H    3.456827   2.170808   1.090591   8.738010  10.126382
    21  H    2.768523   2.176105   1.092649   7.900309   9.268819
    22  H    4.808164   6.242646   7.265820   1.078945   2.143077
    23  H    5.971992   6.719264   8.205882   3.394676   3.857494
    24  C    9.036800  10.252521  11.533782   3.835530   2.568937
    25  C    7.447337   8.876756   9.896793   2.470788   1.515726
    26  H    8.059404   8.994584  10.432323   3.857713   3.381762
    27  F    9.530330  10.820979  12.025025   4.283763   2.943206
    28  F    9.723759  10.829379  12.186760   4.760882   3.659463
    29  F    9.591273  10.820482  12.076773   4.430279   3.179384
    30  F    6.868418   8.352613   9.224203   2.656302   2.359971
    31  F    8.000716   9.429939  10.410078   3.246639   2.362278
    32  F    8.544540   9.959782  10.990529   3.515831   2.368956
                   11         12         13         14         15
    11  C    0.000000
    12  C    1.391056   0.000000
    13  C    2.415825   1.383321   0.000000
    14  H    4.722980   3.908961   2.528932   0.000000
    15  H    7.628178   7.394063   6.201311   4.168403   0.000000
    16  H    7.638048   7.406672   6.211714   4.169917   1.766810
    17  H    8.804422   8.191366   6.837222   4.358987   3.061306
    18  H    8.796457   8.180710   6.828546   4.358361   2.502906
    19  H   10.184448   9.854777   8.584778   6.275423   3.139022
    20  H   10.900773  10.392577   9.051362   6.578719   3.778970
    21  H   10.177352   9.845765   8.577744   6.274941   2.594713
    22  H    3.401866   3.854517   3.387427   3.707312   4.740999
    23  H    3.393015   2.138265   1.085090   2.298732   6.348022
    24  C    1.510021   2.483329   3.773333   6.192137   9.099576
    25  C    2.558188   3.813026   4.286490   5.797812   7.324593
    26  H    2.142395   1.082158   2.133850   4.582964   8.305735
    27  F    2.369510   3.524191   4.699748   6.979970   9.448070
    28  F    2.351500   2.664445   4.038397   6.558626   9.819508
    29  F    2.367181   3.270937   4.490305   6.834901   9.743773
    30  F    3.655374   4.741985   4.901421   5.887063   6.711880
    31  F    3.156127   4.395956   4.932284   6.446475   7.714068
    32  F    2.912143   4.253214   4.984733   6.737552   8.505764
                   16         17         18         19         20
    16  H    0.000000
    17  H    2.503366   0.000000
    18  H    3.061330   1.757959   0.000000
    19  H    2.594367   2.525920   3.079505   0.000000
    20  H    3.778719   2.509517   2.509341   1.762502   0.000000
    21  H    3.137833   3.079520   2.526180   1.764814   1.762498
    22  H    4.725608   6.516711   6.528075   7.284196   8.261845
    23  H    6.361658   6.575353   6.563075   8.560488   8.844725
    24  C    9.107766  10.305746  10.299095  11.668969  12.409190
    25  C    7.326021   9.117605   9.116740   9.882962  10.899948
    26  H    8.323232   8.903062   8.887546  10.711609  11.153055
    27  F    9.607769  10.992379  10.854247  12.166199  12.945577
    28  F    9.899689  10.841609  10.769460  12.406295  12.998415
    29  F    9.527508  10.784966  10.976056  12.106600  12.961147
    30  F    6.603484   8.634653   8.717557   9.103126  10.266813
    31  F    7.991978   9.792544   9.568476  10.479236  11.417901
    32  F    8.338068  10.111667  10.249990  10.909535  11.988069
                   21         22         23         24         25
    21  H    0.000000
    22  H    7.294116   0.000000
    23  H    8.550988   4.289374   0.000000
    24  C   11.662880   4.709051   4.621570   0.000000
    25  C    9.881862   2.639907   5.371529   3.058800   0.000000
    26  H   10.698577   4.936651   2.449546   2.655660   4.695078
    27  F   12.040822   4.980078   5.610279   1.335904   2.868008
    28  F   12.342899   5.732818   4.643566   1.343463   4.343738
    29  F   12.277597   5.217670   5.311991   1.339630   3.416140
    30  F    9.181765   2.279954   5.954647   4.340119   1.338615
    31  F   10.269026   3.358385   5.987694   3.406731   1.338808
    32  F   11.038069   3.776559   6.044925   2.843077   1.336284
                   26         27         28         29         30
    26  H    0.000000
    27  F    3.785861   0.000000
    28  F    2.288960   2.150758   0.000000
    29  F    3.384583   2.159661   2.148692   0.000000
    30  F    5.719978   4.194921   5.631100   4.542597   0.000000
    31  F    5.192568   2.719434   4.540147   4.046692   2.149338
    32  F    4.956112   2.648048   4.177050   2.704647   2.148634
                   31         32
    31  F    0.000000
    32  F    2.160956   0.000000
 Stoichiometry    C12H11F6NO2
 Framework group  C1[X(C12H11F6NO2)]
 Deg. of freedom    90
 Full point group                 C1      NOp   1
 Largest Abelian subgroup         C1      NOp   1
 Largest concise Abelian subgroup C1      NOp   1
                         Standard orientation:                         
 ---------------------------------------------------------------------
 Center     Atomic      Atomic             Coordinates (Angstroms)
 Number     Number       Type             X           Y           Z
 ---------------------------------------------------------------------
      1          6           0        0.510894   -0.952751   -0.013891
      2          7           0        1.900103   -1.087861   -0.019826
      3          6           0        2.841286   -0.084827   -0.005673
      4          8           0        2.622845    1.097420    0.006315
      5          8           0        4.062995   -0.639152   -0.007610
      6          6           0        5.160562    0.288851    0.004933
      7          6           0        6.442322   -0.515381    0.002094
      8          6           0        7.661199    0.403209    0.014100
      9          6           0       -0.139634    0.285414   -0.025189
     10          6           0       -1.526917    0.343048   -0.018522
     11          6           0       -2.295005   -0.827718    0.010568
     12          6           0       -1.635329   -2.052406    0.011787
     13          6           0       -0.253697   -2.119676   -0.000161
     14          1           0        2.273384   -2.025723   -0.023219
     15          1           0        5.077848    0.918673    0.893893
     16          1           0        5.084170    0.934995   -0.872831
     17          1           0        6.457785   -1.157833   -0.882478
     18          1           0        6.452016   -1.173182    0.875404
     19          1           0        7.675742    1.054962   -0.862761
     20          1           0        8.586181   -0.174540    0.012362
     21          1           0        7.669711    1.039982    0.901979
     22          1           0        0.438986    1.195872   -0.044829
     23          1           0        0.235210   -3.088367    0.005144
     24          6           0       -3.804923   -0.844213    0.004577
     25          6           0       -2.146762    1.726140   -0.002030
     26          1           0       -2.211261   -2.968380    0.030794
     27          9           0       -4.331326    0.064624    0.830141
     28          9           0       -4.271741   -2.041247    0.397109
     29          9           0       -4.308735   -0.623326   -1.216894
     30          9           0       -1.273523    2.657378   -0.404697
     31          9           0       -2.541966    2.073184    1.229140
     32          9           0       -3.207285    1.813197   -0.810341
 ---------------------------------------------------------------------
 Rotational constants (GHZ):      0.7143392      0.1196733      0.1065306
 General basis read from cards:  (5D, 7F)
 There are   929 symmetry adapted cartesian basis functions of A   symmetry.
 There are   824 symmetry adapted basis functions of A   symmetry.
   824 basis functions,  1224 primitive gaussians,   929 cartesian basis functions
    80 alpha electrons       80 beta electrons
       nuclear repulsion energy      1787.1003394518 Hartrees.
 NAtoms=   32 NActive=   32 NUniq=   32 SFac= 1.00D+00 NAtFMM=   60 NAOKFM=F Big=F
 Integral buffers will be    131072 words long.
 Raffenetti 1 integral format.
 Two-electron integral symmetry is turned on.
 One-electron integrals computed using PRISM.
 NBasis=   824 RedAO= T EigKep=  1.41D-06  NBF=   824
 NBsUse=   821 1.00D-06 EigRej=  7.70D-07 NBFU=   821
 ExpMin= 3.60D-02 ExpMax= 1.14D+04 ExpMxC= 1.72D+03 IAcc=3 IRadAn=         5 AccDes= 0.00D+00
 Harris functional with IExCor=  205 and IRadAn=       5 diagonalized for initial guess.
 HarFok:  IExCor=  205 AccDes= 0.00D+00 IRadAn=         5 IDoV= 1 UseB2=F ITyADJ=14
 ICtDFT=  3500011 ScaDFX=  1.000000  1.000000  1.000000  1.000000
 FoFCou: FMM=F IPFlag=           0 FMFlag=      100000 FMFlg1=           0
         NFxFlg=           0 DoJE=T BraDBF=F KetDBF=T FulRan=T
         wScrn=  0.000000 ICntrl=     500 IOpCl=  0 I1Cent=   200000004 NGrid=           0
         NMat0=    1 NMatS0=      1 NMatT0=    0 NMatD0=    1 NMtDS0=    0 NMtDT0=    0
 Petite list used in FoFCou.
 Requested convergence on RMS density matrix=1.00D-08 within 128 cycles.
 Requested convergence on MAX density matrix=1.00D-06.
 Requested convergence on             energy=1.00D-06.
 No special actions if energy rises.
 Initial convergence to 1.0D-05 achieved.  Increase integral accuracy.
 SCF Done:  E(RHF) =  -1262.11706388     A.U. after   15 cycles
            NFock= 15  Conv=0.62D-08     -V/T= 2.0009
 ExpMin= 3.60D-02 ExpMax= 1.14D+04 ExpMxC= 1.72D+03 IAcc=3 IRadAn=         5 AccDes= 0.00D+00
 HarFok:  IExCor=  205 AccDes= 0.00D+00 IRadAn=         5 IDoV=-2 UseB2=F ITyADJ=14
 ICtDFT= 12500011 ScaDFX=  1.000000  1.000000  1.000000  1.000000
 Range of M.O.s used for correlation:    22   821
 NBasis=   824 NAE=    80 NBE=    80 NFC=    21 NFV=     0
 NROrb=    800 NOA=    59 NOB=    59 NVA=   741 NVB=   741

 **** Warning!!: The largest alpha MO coefficient is  0.15795178D+03

 Fully direct method using O(OVN) memory.
 JobTyp=1 Pass  1:  I=   1 to   3 NPSUse=  8 ParTrn=T ParDer=T DoDerP=F.
 JobTyp=1 Pass  2:  I=   4 to   6 NPSUse=  8 ParTrn=T ParDer=T DoDerP=F.
 JobTyp=1 Pass  3:  I=   7 to   9 NPSUse=  8 ParTrn=T ParDer=T DoDerP=F.
 JobTyp=1 Pass  4:  I=  10 to  12 NPSUse=  8 ParTrn=T ParDer=T DoDerP=F.
 JobTyp=1 Pass  5:  I=  13 to  16 NPSUse=  8 ParTrn=T ParDer=T DoDerP=F.
 JobTyp=1 Pass  6:  I=  17 to  20 NPSUse=  8 ParTrn=T ParDer=T DoDerP=F.
 JobTyp=1 Pass  7:  I=  21 to  24 NPSUse=  8 ParTrn=T ParDer=T DoDerP=F.
 JobTyp=1 Pass  8:  I=  25 to  29 NPSUse=  8 ParTrn=T ParDer=T DoDerP=F.
 JobTyp=1 Pass  9:  I=  30 to  35 NPSUse=  8 ParTrn=T ParDer=T DoDerP=F.
 JobTyp=1 Pass 10:  I=  36 to  44 NPSUse=  8 ParTrn=T ParDer=T DoDerP=F.
 JobTyp=1 Pass 11:  I=  45 to  59 NPSUse=  8 ParTrn=T ParDer=T DoDerP=F.
 Spin components of T(2) and E(2):
     alpha-alpha T2 =       0.1440327657D+00 E2=     -0.5306942940D+00
     alpha-beta  T2 =       0.7488267100D+00 E2=     -0.2977879177D+01
     beta-beta   T2 =       0.1440327657D+00 E2=     -0.5306942940D+00
 ANorm=    0.1427197338D+01
 E2 =    -0.4039267765D+01 EUMP2 =    -0.12661563316465D+04

 **********************************************************************

            Population analysis using the SCF density.

 **********************************************************************

 Orbital symmetries:
       Occupied  (A) (A) (A) (A) (A) (A) (A) (A) (A) (A) (A) (A)
                 (A) (A) (A) (A) (A) (A) (A) (A) (A) (A) (A) (A)
                 (A) (A) (A) (A) (A) (A) (A) (A) (A) (A) (A) (A)
                 (A) (A) (A) (A) (A) (A) (A) (A) (A) (A) (A) (A)
                 (A) (A) (A) (A) (A) (A) (A) (A) (A) (A) (A) (A)
                 (A) (A) (A) (A) (A) (A) (A) (A) (A) (A) (A) (A)
                 (A) (A) (A) (A) (A) (A) (A) (A)
       Virtual   (A) (A) (A) (A) (A) (A) (A) (A) (A) (A) (A) (A)
                 (A) (A) (A) (A) (A) (A) (A) (A) (A) (A) (A) (A)
                 (A) (A) (A) (A) (A) (A) (A) (A) (A) (A) (A) (A)
                 (A) (A) (A) (A) (A) (A) (A) (A) (A) (A) (A) (A)
                 (A) (A) (A) (A) (A) (A) (A) (A) (A) (A) (A) (A)
                 (A) (A) (A) (A) (A) (A) (A) (A) (A) (A) (A) (A)
                 (A) (A) (A) (A) (A) (A) (A) (A) (A) (A) (A) (A)
                 (A) (A) (A) (A) (A) (A) (A) (A) (A) (A) (A) (A)
                 (A) (A) (A) (A) (A) (A) (A) (A) (A) (A) (A) (A)
                 (A) (A) (A) (A) (A) (A) (A) (A) (A) (A) (A) (A)
                 (A) (A) (A) (A) (A) (A) (A) (A) (A) (A) (A) (A)
                 (A) (A) (A) (A) (A) (A) (A) (A) (A) (A) (A) (A)
                 (A) (A) (A) (A) (A) (A) (A) (A) (A) (A) (A) (A)
                 (A) (A) (A) (A) (A) (A) (A) (A) (A) (A) (A) (A)
                 (A) (A) (A) (A) (A) (A) (A) (A) (A) (A) (A) (A)
                 (A) (A) (A) (A) (A) (A) (A) (A) (A) (A) (A) (A)
                 (A) (A) (A) (A) (A) (A) (A) (A) (A) (A) (A) (A)
                 (A) (A) (A) (A) (A) (A) (A) (A) (A) (A) (A) (A)
                 (A) (A) (A) (A) (A) (A) (A) (A) (A) (A) (A) (A)
                 (A) (A) (A) (A) (A) (A) (A) (A) (A) (A) (A) (A)
                 (A) (A) (A) (A) (A) (A) (A) (A) (A) (A) (A) (A)
                 (A) (A) (A) (A) (A) (A) (A) (A) (A) (A) (A) (A)
                 (A) (A) (A) (A) (A) (A) (A) (A) (A) (A) (A) (A)
                 (A) (A) (A) (A) (A) (A) (A) (A) (A) (A) (A) (A)
                 (A) (A) (A) (A) (A) (A) (A) (A) (A) (A) (A) (A)
                 (A) (A) (A) (A) (A) (A) (A) (A) (A) (A) (A) (A)
                 (A) (A) (A) (A) (A) (A) (A) (A) (A) (A) (A) (A)
                 (A) (A) (A) (A) (A) (A) (A) (A) (A) (A) (A) (A)
                 (A) (A) (A) (A) (A) (A) (A) (A) (A) (A) (A) (A)
                 (A) (A) (A) (A) (A) (A) (A) (A) (A) (A) (A) (A)
                 (A) (A) (A) (A) (A) (A) (A) (A) (A) (A) (A) (A)
                 (A) (A) (A) (A) (A) (A) (A) (A) (A) (A) (A) (A)
                 (A) (A) (A) (A) (A) (A) (A) (A) (A) (A) (A) (A)
                 (A) (A) (A) (A) (A) (A) (A) (A) (A) (A) (A) (A)
                 (A) (A) (A) (A) (A) (A) (A) (A) (A) (A) (A) (A)
                 (A) (A) (A) (A) (A) (A) (A) (A) (A) (A) (A) (A)
                 (A) (A) (A) (A) (A) (A) (A) (A) (A) (A) (A) (A)
                 (A) (A) (A) (A) (A) (A) (A) (A) (A) (A) (A) (A)
                 (A) (A) (A) (A) (A) (A) (A) (A) (A) (A) (A) (A)
                 (A) (A) (A) (A) (A) (A) (A) (A) (A) (A) (A) (A)
                 (A) (A) (A) (A) (A) (A) (A) (A) (A) (A) (A) (A)
                 (A) (A) (A) (A) (A) (A) (A) (A) (A) (A) (A) (A)
                 (A) (A) (A) (A) (A) (A) (A) (A) (A) (A) (A) (A)
                 (A) (A) (A) (A) (A) (A) (A) (A) (A) (A) (A) (A)
                 (A) (A) (A) (A) (A) (A) (A) (A) (A) (A) (A) (A)
                 (A) (A) (A) (A) (A) (A) (A) (A) (A) (A) (A) (A)
                 (A) (A) (A) (A) (A) (A) (A) (A) (A) (A) (A) (A)
                 (A) (A) (A) (A) (A) (A) (A) (A) (A) (A) (A) (A)
                 (A) (A) (A) (A) (A) (A) (A) (A) (A) (A) (A) (A)
                 (A) (A) (A) (A) (A) (A) (A) (A) (A) (A) (A) (A)
                 (A) (A) (A) (A) (A) (A) (A) (A) (A) (A) (A) (A)
                 (A) (A) (A) (A) (A) (A) (A) (A) (A) (A) (A) (A)
                 (A) (A) (A) (A) (A) (A) (A) (A) (A) (A) (A) (A)
                 (A) (A) (A) (A) (A) (A) (A) (A) (A) (A) (A) (A)
                 (A) (A) (A) (A) (A) (A) (A) (A) (A) (A) (A) (A)
                 (A) (A) (A) (A) (A) (A) (A) (A) (A) (A) (A) (A)
                 (A) (A) (A) (A) (A) (A) (A) (A) (A) (A) (A) (A)
                 (A) (A) (A) (A) (A) (A) (A) (A) (A) (A) (A) (A)
                 (A) (A) (A) (A) (A) (A) (A) (A) (A) (A) (A) (A)
                 (A) (A) (A) (A) (A) (A) (A) (A) (A) (A) (A) (A)
                 (A) (A) (A) (A) (A) (A) (A) (A) (A) (A) (A) (A)
                 (A) (A) (A) (A) (A) (A) (A) (A) (A)
 The electronic state is 1-A.
 Alpha  occ. eigenvalues --  -26.33977 -26.33826 -26.33690 -26.33649 -26.33429
 Alpha  occ. eigenvalues --  -26.33352 -20.62073 -20.55429 -15.62901 -11.51277
 Alpha  occ. eigenvalues --  -11.51275 -11.42887 -11.32625 -11.29947 -11.29383
 Alpha  occ. eigenvalues --  -11.28215 -11.27604 -11.26809 -11.26217 -11.23961
 Alpha  occ. eigenvalues --  -11.23014  -1.73477  -1.72997  -1.63751  -1.63425
 Alpha  occ. eigenvalues --   -1.63264  -1.63102  -1.49384  -1.38630  -1.29316
 Alpha  occ. eigenvalues --   -1.19863  -1.09599  -1.08307  -1.07217  -0.99233
 Alpha  occ. eigenvalues --   -0.97415  -0.95071  -0.89633  -0.88854  -0.84327
 Alpha  occ. eigenvalues --   -0.83084  -0.82810  -0.82582  -0.82157  -0.81762
 Alpha  occ. eigenvalues --   -0.81272  -0.79034  -0.76394  -0.72480  -0.71526
 Alpha  occ. eigenvalues --   -0.71368  -0.71313  -0.70811  -0.70771  -0.68625
 Alpha  occ. eigenvalues --   -0.67923  -0.66605  -0.66355  -0.65833  -0.64960
 Alpha  occ. eigenvalues --   -0.64672  -0.64546  -0.64507  -0.64452  -0.62702
 Alpha  occ. eigenvalues --   -0.61506  -0.59917  -0.59052  -0.56696  -0.55446
 Alpha  occ. eigenvalues --   -0.55162  -0.53874  -0.53044  -0.50671  -0.50391
 Alpha  occ. eigenvalues --   -0.48346  -0.48100  -0.47791  -0.38176  -0.34635
 Alpha virt. eigenvalues --    0.02663   0.03719   0.04894   0.05332   0.05496
 Alpha virt. eigenvalues --    0.06525   0.07094   0.07594   0.08167   0.08499
 Alpha virt. eigenvalues --    0.09029   0.09232   0.09934   0.10383   0.10772
 Alpha virt. eigenvalues --    0.11138   0.11827   0.12819   0.12852   0.13005
 Alpha virt. eigenvalues --    0.14000   0.14753   0.15193   0.15952   0.16330
 Alpha virt. eigenvalues --    0.16629   0.17023   0.17351   0.17762   0.18211
 Alpha virt. eigenvalues --    0.18333   0.18625   0.18713   0.18892   0.19216
 Alpha virt. eigenvalues --    0.19753   0.20183   0.20677   0.20950   0.21333
 Alpha virt. eigenvalues --    0.21824   0.22610   0.22679   0.22805   0.23893
 Alpha virt. eigenvalues --    0.24574   0.25377   0.25698   0.26203   0.26785
 Alpha virt. eigenvalues --    0.27199   0.28040   0.28460   0.28758   0.28900
 Alpha virt. eigenvalues --    0.29641   0.30007   0.30693   0.30805   0.30864
 Alpha virt. eigenvalues --    0.31633   0.31831   0.32676   0.33164   0.34207
 Alpha virt. eigenvalues --    0.34611   0.35048   0.35592   0.35987   0.36861
 Alpha virt. eigenvalues --    0.37175   0.37690   0.37902   0.38383   0.38740
 Alpha virt. eigenvalues --    0.39248   0.39665   0.39947   0.40308   0.40650
 Alpha virt. eigenvalues --    0.40926   0.41360   0.41687   0.42329   0.42835
 Alpha virt. eigenvalues --    0.43496   0.43820   0.43990   0.44654   0.45103
 Alpha virt. eigenvalues --    0.45481   0.45565   0.46075   0.46228   0.46814
 Alpha virt. eigenvalues --    0.47185   0.47665   0.48232   0.48794   0.49134
 Alpha virt. eigenvalues --    0.49984   0.50546   0.50737   0.51920   0.52594
 Alpha virt. eigenvalues --    0.53323   0.53896   0.54504   0.54766   0.54904
 Alpha virt. eigenvalues --    0.55118   0.55790   0.56083   0.56710   0.57374
 Alpha virt. eigenvalues --    0.57466   0.58021   0.58448   0.59787   0.60018
 Alpha virt. eigenvalues --    0.60254   0.61252   0.62655   0.64040   0.64184
 Alpha virt. eigenvalues --    0.64671   0.65780   0.66602   0.67202   0.67747
 Alpha virt. eigenvalues --    0.67829   0.68853   0.69373   0.69702   0.69862
 Alpha virt. eigenvalues --    0.70234   0.70704   0.71815   0.72474   0.72839
 Alpha virt. eigenvalues --    0.73849   0.74866   0.75415   0.75793   0.76436
 Alpha virt. eigenvalues --    0.77695   0.78622   0.79160   0.79468   0.80631
 Alpha virt. eigenvalues --    0.80670   0.81115   0.82026   0.82546   0.83122
 Alpha virt. eigenvalues --    0.83500   0.84018   0.84746   0.85150   0.85275
 Alpha virt. eigenvalues --    0.85874   0.86467   0.87212   0.87602   0.87905
 Alpha virt. eigenvalues --    0.88725   0.89037   0.90348   0.91502   0.92044
 Alpha virt. eigenvalues --    0.93417   0.94329   0.94819   0.95280   0.96073
 Alpha virt. eigenvalues --    0.96614   0.96945   0.97612   0.99070   0.99444
 Alpha virt. eigenvalues --    0.99839   1.00403   1.00639   1.01255   1.02645
 Alpha virt. eigenvalues --    1.03085   1.03717   1.04324   1.05781   1.05970
 Alpha virt. eigenvalues --    1.06121   1.06842   1.08034   1.09123   1.10697
 Alpha virt. eigenvalues --    1.11750   1.13736   1.14896   1.16090   1.16531
 Alpha virt. eigenvalues --    1.16735   1.17407   1.18503   1.21094   1.21831
 Alpha virt. eigenvalues --    1.22857   1.23067   1.23735   1.24152   1.25957
 Alpha virt. eigenvalues --    1.26453   1.27292   1.27659   1.28665   1.30278
 Alpha virt. eigenvalues --    1.30686   1.31847   1.32333   1.32635   1.33876
 Alpha virt. eigenvalues --    1.34351   1.35094   1.35949   1.36609   1.36923
 Alpha virt. eigenvalues --    1.38291   1.38922   1.39199   1.39371   1.40276
 Alpha virt. eigenvalues --    1.41365   1.41997   1.42703   1.44921   1.45636
 Alpha virt. eigenvalues --    1.46506   1.48182   1.48423   1.48722   1.49356
 Alpha virt. eigenvalues --    1.50540   1.51698   1.53094   1.53591   1.54478
 Alpha virt. eigenvalues --    1.55151   1.55957   1.56481   1.58105   1.58607
 Alpha virt. eigenvalues --    1.58937   1.59176   1.60432   1.60952   1.62576
 Alpha virt. eigenvalues --    1.62993   1.63167   1.63858   1.64816   1.65475
 Alpha virt. eigenvalues --    1.65858   1.66446   1.67148   1.67361   1.67474
 Alpha virt. eigenvalues --    1.67978   1.68783   1.70270   1.70759   1.71588
 Alpha virt. eigenvalues --    1.72857   1.73103   1.73500   1.73857   1.75112
 Alpha virt. eigenvalues --    1.75659   1.76112   1.76898   1.77347   1.78599
 Alpha virt. eigenvalues --    1.78875   1.79951   1.80078   1.80792   1.81137
 Alpha virt. eigenvalues --    1.82603   1.83093   1.84000   1.84866   1.85268
 Alpha virt. eigenvalues --    1.85781   1.86591   1.87696   1.90495   1.91260
 Alpha virt. eigenvalues --    1.92538   1.94692   1.95470   1.98234   2.00545
 Alpha virt. eigenvalues --    2.01217   2.02615   2.04536   2.06281   2.06506
 Alpha virt. eigenvalues --    2.06761   2.11231   2.11911   2.13765   2.15716
 Alpha virt. eigenvalues --    2.17274   2.21282   2.22138   2.23667   2.24328
 Alpha virt. eigenvalues --    2.26956   2.28655   2.29803   2.30130   2.31450
 Alpha virt. eigenvalues --    2.31886   2.33479   2.34477   2.36043   2.38904
 Alpha virt. eigenvalues --    2.40266   2.40811   2.41449   2.43099   2.43872
 Alpha virt. eigenvalues --    2.45544   2.46095   2.46347   2.47605   2.48485
 Alpha virt. eigenvalues --    2.50640   2.55186   2.58545   2.59476   2.61942
 Alpha virt. eigenvalues --    2.63549   2.65592   2.66594   2.67789   2.70079
 Alpha virt. eigenvalues --    2.70849   2.76827   2.79548   2.80876   2.81571
 Alpha virt. eigenvalues --    2.83384   2.86306   2.87179   2.89206   2.91164
 Alpha virt. eigenvalues --    2.91840   2.92555   2.93258   2.93965   2.96153
 Alpha virt. eigenvalues --    2.96982   2.97265   2.98596   2.99224   3.00487
 Alpha virt. eigenvalues --    3.02774   3.02960   3.03980   3.04109   3.06137
 Alpha virt. eigenvalues --    3.06964   3.09060   3.10316   3.10840   3.11315
 Alpha virt. eigenvalues --    3.11487   3.11868   3.13421   3.14215   3.14670
 Alpha virt. eigenvalues --    3.15667   3.16940   3.17829   3.17907   3.18184
 Alpha virt. eigenvalues --    3.20094   3.20570   3.21079   3.22592   3.24377
 Alpha virt. eigenvalues --    3.25318   3.27008   3.27993   3.28547   3.30933
 Alpha virt. eigenvalues --    3.32384   3.34415   3.35071   3.35851   3.37009
 Alpha virt. eigenvalues --    3.37702   3.38087   3.40220   3.40529   3.41849
 Alpha virt. eigenvalues --    3.42199   3.43118   3.44370   3.45416   3.45794
 Alpha virt. eigenvalues --    3.46901   3.47771   3.48173   3.48955   3.49472
 Alpha virt. eigenvalues --    3.51489   3.51734   3.52224   3.53592   3.54369
 Alpha virt. eigenvalues --    3.55567   3.56001   3.56904   3.58190   3.60555
 Alpha virt. eigenvalues --    3.62508   3.63794   3.65595   3.66169   3.66309
 Alpha virt. eigenvalues --    3.66681   3.68731   3.69025   3.69408   3.69842
 Alpha virt. eigenvalues --    3.70782   3.70895   3.71308   3.71981   3.72320
 Alpha virt. eigenvalues --    3.72942   3.73581   3.73792   3.75118   3.76101
 Alpha virt. eigenvalues --    3.76922   3.77844   3.79031   3.80759   3.81491
 Alpha virt. eigenvalues --    3.82605   3.82878   3.83310   3.85043   3.86017
 Alpha virt. eigenvalues --    3.86675   3.87412   3.87960   3.88712   3.90303
 Alpha virt. eigenvalues --    3.90816   3.91055   3.91706   3.92342   3.93107
 Alpha virt. eigenvalues --    3.93989   3.94381   3.96858   3.97009   3.98451
 Alpha virt. eigenvalues --    3.99190   3.99757   4.00263   4.00594   4.03001
 Alpha virt. eigenvalues --    4.03231   4.04127   4.04596   4.06185   4.07283
 Alpha virt. eigenvalues --    4.07726   4.09673   4.10460   4.10914   4.11772
 Alpha virt. eigenvalues --    4.14273   4.15073   4.16495   4.17049   4.17594
 Alpha virt. eigenvalues --    4.18271   4.20567   4.20903   4.22166   4.25591
 Alpha virt. eigenvalues --    4.26411   4.26513   4.27286   4.29305   4.30172
 Alpha virt. eigenvalues --    4.31003   4.32098   4.32542   4.34239   4.35558
 Alpha virt. eigenvalues --    4.37280   4.38572   4.39105   4.39622   4.40606
 Alpha virt. eigenvalues --    4.42774   4.44170   4.44790   4.46826   4.47326
 Alpha virt. eigenvalues --    4.48527   4.49665   4.51997   4.52652   4.55814
 Alpha virt. eigenvalues --    4.56515   4.58250   4.60220   4.60785   4.61235
 Alpha virt. eigenvalues --    4.63528   4.67059   4.67432   4.67993   4.68874
 Alpha virt. eigenvalues --    4.69458   4.70364   4.70524   4.71672   4.72398
 Alpha virt. eigenvalues --    4.72826   4.74526   4.75319   4.76611   4.78012
 Alpha virt. eigenvalues --    4.79851   4.80004   4.80871   4.82057   4.83859
 Alpha virt. eigenvalues --    4.85429   4.86455   4.87430   4.89123   4.89554
 Alpha virt. eigenvalues --    4.90447   4.92220   4.92456   4.93014   4.97146
 Alpha virt. eigenvalues --    4.99597   4.99746   5.00931   5.02237   5.06755
 Alpha virt. eigenvalues --    5.07602   5.08073   5.08922   5.14484   5.16530
 Alpha virt. eigenvalues --    5.19023   5.20216   5.30502   5.32391   5.33058
 Alpha virt. eigenvalues --    5.38548   5.42262   5.44758   5.46529   5.49581
 Alpha virt. eigenvalues --    5.52328   5.55776   5.60437   5.62992   5.63859
 Alpha virt. eigenvalues --    5.66035   5.66301   5.66413   5.71190   5.72100
 Alpha virt. eigenvalues --    5.75867   5.78496   5.83956   5.86073   5.87586
 Alpha virt. eigenvalues --    5.89671   5.94377   5.95026   5.96137   5.98880
 Alpha virt. eigenvalues --    6.00906   6.03249   6.05394   6.07624   6.13629
 Alpha virt. eigenvalues --    6.14692   6.17867   6.20716   6.24406   6.26581
 Alpha virt. eigenvalues --    6.27884   6.34241   6.40975   6.48045   6.48727
 Alpha virt. eigenvalues --    6.53611   6.65819   6.85834   6.89238   6.92970
 Alpha virt. eigenvalues --    6.97098   6.98256   6.98943   7.00862   7.01649
 Alpha virt. eigenvalues --    7.04220   7.04576   7.05631   7.07037   7.07347
 Alpha virt. eigenvalues --    7.07757   7.08608   7.08797   7.10290   7.11714
 Alpha virt. eigenvalues --    7.11973   7.12144   7.12285   7.12438   7.12584
 Alpha virt. eigenvalues --    7.13508   7.14007   7.14235   7.14697   7.15963
 Alpha virt. eigenvalues --    7.16184   7.16702   7.17361   7.17515   7.18946
 Alpha virt. eigenvalues --    7.19043   7.21363   7.24425   7.24779   7.25578
 Alpha virt. eigenvalues --    7.26858   7.29879   7.30111   7.35841   7.36014
 Alpha virt. eigenvalues --    7.36363   7.37559   7.38937   7.39816   7.42652
 Alpha virt. eigenvalues --    7.45206   7.54131   7.54551   7.54801   7.56548
 Alpha virt. eigenvalues --    7.57697   7.61020   7.65235   7.67280   7.73036
 Alpha virt. eigenvalues --    7.76159   7.77786   7.78580   7.80227   7.81464
 Alpha virt. eigenvalues --    7.84647   7.87236   7.88141   7.91593   7.92757
 Alpha virt. eigenvalues --    7.95080   7.97572   8.15605   8.28827   8.36012
 Alpha virt. eigenvalues --    8.36462   8.40892   8.42175   8.42763   8.45387
 Alpha virt. eigenvalues --    9.69282   9.70484   9.72089   9.72468   9.73939
 Alpha virt. eigenvalues --    9.75381   9.82790   9.83742   9.84198   9.87164
 Alpha virt. eigenvalues --    9.88054   9.92553  10.03196  10.04845  10.12246
 Alpha virt. eigenvalues --   10.14310  10.14930  10.15269  10.24581  10.25257
 Alpha virt. eigenvalues --   10.39121  10.43928  10.52301  10.55159  10.57198
 Alpha virt. eigenvalues --   10.58819  10.76477  10.76958  10.78629  10.82842
 Alpha virt. eigenvalues --   25.03622  25.37979  25.50914  25.58209  25.63462
 Alpha virt. eigenvalues --   25.67274  25.68521  25.76591  25.86443  25.89014
 Alpha virt. eigenvalues --   26.10977  26.31559  37.36093  51.79253  51.94659
 Alpha virt. eigenvalues --   68.84196  68.84519  68.85833  68.86229  68.88544
 Alpha virt. eigenvalues --   68.94538
          Condensed to atoms (all electrons):
               1          2          3          4          5          6
     1  C   29.372394  -0.871968  -0.073178  -0.262091  -0.115321  -0.398839
     2  N   -0.871968   7.028871   0.495193   0.015069   0.093411  -0.232379
     3  C   -0.073178   0.495193   7.201984   0.389972   0.249970  -0.557546
     4  O   -0.262091   0.015069   0.389972   8.132028  -0.074511  -0.199483
     5  O   -0.115321   0.093411   0.249970  -0.074511   8.093816   0.244638
     6  C   -0.398839  -0.232379  -0.557546  -0.199483   0.244638   6.859834
     7  C    0.059492  -0.050118   0.148761   0.054513  -0.204345  -0.634682
     8  C   -0.011482  -0.006342  -0.184893   0.000818   0.028605   0.371554
     9  C   -9.386353   0.531934  -1.051677   0.370211  -0.024584  -0.419797
    10  C  -10.934993   0.326187  -0.090054   0.083679   0.001004   0.017103
    11  C    5.516990  -0.060321  -0.463763   0.026377  -0.002278  -0.066004
    12  C   -1.035109  -0.052031  -0.387960  -0.008659   0.001926  -0.022131
    13  C   -0.528909  -0.178320   0.057228  -0.053586   0.013844   0.059245
    14  H    0.115149   0.394387   0.003646   0.005158  -0.006982   0.004139
    15  H   -0.005928   0.006431   0.032174  -0.010256  -0.047293   0.467019
    16  H    0.001021   0.006733   0.031973  -0.010078  -0.047569   0.464093
    17  H   -0.000645   0.002030  -0.000644  -0.001013   0.000671  -0.019716
    18  H    0.002452   0.001937   0.002079  -0.000925   0.000491  -0.022955
    19  H    0.000209   0.000047   0.000196   0.000409  -0.000234  -0.023558
    20  H    0.000213  -0.000796   0.002755   0.000400  -0.002237   0.012660
    21  H   -0.000042   0.000086  -0.000333   0.000385  -0.000264  -0.022936
    22  H   -0.475433  -0.007367   0.043684  -0.007983   0.004184   0.011932
    23  H   -0.315968  -0.020104  -0.016337  -0.000729   0.001038   0.002799
    24  C   -0.060106  -0.006668  -0.313612   0.003629   0.000625  -0.010327
    25  C   -4.648605   0.022424   0.000438  -0.006534   0.000612  -0.006313
    26  H    0.094188  -0.000494  -0.002659   0.000033  -0.000020  -0.000471
    27  F   -0.001456  -0.000016  -0.000570   0.000005   0.000000  -0.000007
    28  F    0.044232  -0.000066   0.000610   0.000001   0.000000   0.000002
    29  F    0.004770   0.000027  -0.000580  -0.000001   0.000000  -0.000006
    30  F    0.240875  -0.001428   0.007364  -0.000104   0.000011   0.000087
    31  F    0.048577  -0.000238   0.005365   0.000032   0.000001   0.000107
    32  F   -0.008786   0.000077  -0.000214   0.000017   0.000002   0.000017
               7          8          9         10         11         12
     1  C    0.059492  -0.011482  -9.386353 -10.934993   5.516990  -1.035109
     2  N   -0.050118  -0.006342   0.531934   0.326187  -0.060321  -0.052031
     3  C    0.148761  -0.184893  -1.051677  -0.090054  -0.463763  -0.387960
     4  O    0.054513   0.000818   0.370211   0.083679   0.026377  -0.008659
     5  O   -0.204345   0.028605  -0.024584   0.001004  -0.002278   0.001926
     6  C   -0.634682   0.371554  -0.419797   0.017103  -0.066004  -0.022131
     7  C    5.811451  -0.085598  -0.023188  -0.011013   0.002153  -0.001047
     8  C   -0.085598   5.171369  -0.010705   0.000158  -0.000493   0.000185
     9  C   -0.023188  -0.010705  16.455737   2.013576   0.760688  -1.561434
    10  C   -0.011013   0.000158   2.013576  29.203688  -1.194948  -6.249567
    11  C    0.002153  -0.000493   0.760688  -1.194948  26.853732  -6.545142
    12  C   -0.001047   0.000185  -1.561434  -6.249567  -6.545142  16.060312
    13  C   -0.009051   0.003137  -2.152454  -1.903157  -8.289593   4.254218
    14  H   -0.001430  -0.004330  -0.054601  -0.029223   0.007800  -0.049211
    15  H   -0.068795  -0.007535  -0.002379   0.000919  -0.001393   0.000204
    16  H   -0.069432  -0.008397  -0.002687  -0.000499   0.000714   0.000152
    17  H    0.428546  -0.026872   0.000350   0.000261  -0.000186   0.000214
    18  H    0.428848  -0.028319  -0.001250  -0.000259   0.000061   0.000242
    19  H   -0.004774   0.418040   0.000068   0.000003   0.000000  -0.000010
    20  H   -0.033231   0.407530  -0.000519  -0.000053  -0.000003  -0.000010
    21  H   -0.005804   0.419077   0.000360   0.000033   0.000007  -0.000015
    22  H    0.001598   0.000286   0.621255   0.281567  -0.020723  -0.087445
    23  H   -0.001275   0.000379   0.091101   0.099994  -0.141489   0.073463
    24  C    0.000067  -0.000025  -1.364949   1.969943  -7.920518   0.262211
    25  C   -0.002386  -0.000023   1.479660  -7.117727  -1.621345   1.138251
    26  H    0.000040  -0.000010  -0.023700  -0.049626   0.084618   0.410176
    27  F   -0.000000  -0.000000   0.047879  -0.230953   0.026999   0.095772
    28  F    0.000000  -0.000000  -0.002061   0.033184   0.001567  -0.090238
    29  F   -0.000000  -0.000000  -0.003613   0.018627   0.018066  -0.113454
    30  F    0.000007   0.000000   0.050057  -0.285719   0.060886  -0.010959
    31  F   -0.000001   0.000000   0.026464  -0.222565   0.014237   0.026510
    32  F   -0.000000   0.000000  -0.065358   0.149967  -0.115561  -0.001482
              13         14         15         16         17         18
     1  C   -0.528909   0.115149  -0.005928   0.001021  -0.000645   0.002452
     2  N   -0.178320   0.394387   0.006431   0.006733   0.002030   0.001937
     3  C    0.057228   0.003646   0.032174   0.031973  -0.000644   0.002079
     4  O   -0.053586   0.005158  -0.010256  -0.010078  -0.001013  -0.000925
     5  O    0.013844  -0.006982  -0.047293  -0.047569   0.000671   0.000491
     6  C    0.059245   0.004139   0.467019   0.464093  -0.019716  -0.022955
     7  C   -0.009051  -0.001430  -0.068795  -0.069432   0.428546   0.428848
     8  C    0.003137  -0.004330  -0.007535  -0.008397  -0.026872  -0.028319
     9  C   -2.152454  -0.054601  -0.002379  -0.002687   0.000350  -0.001250
    10  C   -1.903157  -0.029223   0.000919  -0.000499   0.000261  -0.000259
    11  C   -8.289593   0.007800  -0.001393   0.000714  -0.000186   0.000061
    12  C    4.254218  -0.049211   0.000204   0.000152   0.000214   0.000242
    13  C   14.030704  -0.052186   0.002360   0.000748   0.000589   0.000585
    14  H   -0.052186   0.465094   0.000338   0.000490   0.000347   0.000459
    15  H    0.002360   0.000338   0.585223  -0.051133   0.007397  -0.010169
    16  H    0.000748   0.000490  -0.051133   0.585968  -0.010129   0.007521
    17  H    0.000589   0.000347   0.007397  -0.010129   0.627144  -0.048172
    18  H    0.000585   0.000459  -0.010169   0.007521  -0.048172   0.627934
    19  H   -0.000076   0.000039   0.000290  -0.000202  -0.007939   0.005557
    20  H   -0.000031   0.000110  -0.001728  -0.001839  -0.005530  -0.005740
    21  H   -0.000102   0.000028  -0.000168   0.000238   0.005460  -0.007990
    22  H   -0.060146  -0.004003  -0.000928  -0.001356  -0.000096  -0.000093
    23  H    0.562689  -0.003177   0.000086  -0.000047   0.000030  -0.000068
    24  C   -1.838401  -0.008257  -0.000164   0.000126  -0.000011   0.000005
    25  C    2.239100  -0.013842   0.001202  -0.000546   0.000124  -0.000018
    26  H   -0.126008   0.001694  -0.000009  -0.000001   0.000001   0.000002
    27  F    0.012723   0.000034  -0.000000   0.000000  -0.000000   0.000000
    28  F    0.085829   0.000073  -0.000000   0.000000   0.000000  -0.000000
    29  F   -0.024827  -0.000023  -0.000000  -0.000000   0.000000   0.000000
    30  F   -0.015368   0.000459   0.000017   0.000001  -0.000001   0.000000
    31  F    0.012593   0.000178   0.000003  -0.000000  -0.000000  -0.000000
    32  F   -0.005747  -0.000006   0.000000  -0.000001   0.000000  -0.000000
              19         20         21         22         23         24
     1  C    0.000209   0.000213  -0.000042  -0.475433  -0.315968  -0.060106
     2  N    0.000047  -0.000796   0.000086  -0.007367  -0.020104  -0.006668
     3  C    0.000196   0.002755  -0.000333   0.043684  -0.016337  -0.313612
     4  O    0.000409   0.000400   0.000385  -0.007983  -0.000729   0.003629
     5  O   -0.000234  -0.002237  -0.000264   0.004184   0.001038   0.000625
     6  C   -0.023558   0.012660  -0.022936   0.011932   0.002799  -0.010327
     7  C   -0.004774  -0.033231  -0.005804   0.001598  -0.001275   0.000067
     8  C    0.418040   0.407530   0.419077   0.000286   0.000379  -0.000025
     9  C    0.000068  -0.000519   0.000360   0.621255   0.091101  -1.364949
    10  C    0.000003  -0.000053   0.000033   0.281567   0.099994   1.969943
    11  C    0.000000  -0.000003   0.000007  -0.020723  -0.141489  -7.920518
    12  C   -0.000010  -0.000010  -0.000015  -0.087445   0.073463   0.262211
    13  C   -0.000076  -0.000031  -0.000102  -0.060146   0.562689  -1.838401
    14  H    0.000039   0.000110   0.000028  -0.004003  -0.003177  -0.008257
    15  H    0.000290  -0.001728  -0.000168  -0.000928   0.000086  -0.000164
    16  H   -0.000202  -0.001839   0.000238  -0.001356  -0.000047   0.000126
    17  H   -0.007939  -0.005530   0.005460  -0.000096   0.000030  -0.000011
    18  H    0.005557  -0.005740  -0.007990  -0.000093  -0.000068   0.000005
    19  H    0.621416  -0.025877  -0.042413   0.000032  -0.000002  -0.000001
    20  H   -0.025877   0.589223  -0.025756   0.000023  -0.000012  -0.000000
    21  H   -0.042413  -0.025756   0.621383   0.000020   0.000002   0.000000
    22  H    0.000032   0.000023   0.000020   0.439348   0.002476  -0.028403
    23  H   -0.000002  -0.000012   0.000002   0.002476   0.526422  -0.021981
    24  C   -0.000001  -0.000000   0.000000  -0.028403  -0.021981  18.270272
    25  C   -0.000003  -0.000013   0.000001   0.046736   0.057000  -4.815986
    26  H   -0.000000   0.000000   0.000000  -0.000388  -0.019359   0.023592
    27  F    0.000000  -0.000000   0.000000  -0.000502   0.000064   0.040211
    28  F   -0.000000   0.000000   0.000000  -0.000112   0.000174   0.089236
    29  F    0.000000  -0.000000   0.000000   0.000220  -0.000307   0.298087
    30  F    0.000000   0.000000  -0.000000  -0.028086  -0.000432   0.016770
    31  F    0.000000   0.000000  -0.000000  -0.004661  -0.000097  -0.068307
    32  F   -0.000000   0.000000   0.000000   0.002850  -0.000059   0.151339
              25         26         27         28         29         30
     1  C   -4.648605   0.094188  -0.001456   0.044232   0.004770   0.240875
     2  N    0.022424  -0.000494  -0.000016  -0.000066   0.000027  -0.001428
     3  C    0.000438  -0.002659  -0.000570   0.000610  -0.000580   0.007364
     4  O   -0.006534   0.000033   0.000005   0.000001  -0.000001  -0.000104
     5  O    0.000612  -0.000020   0.000000   0.000000   0.000000   0.000011
     6  C   -0.006313  -0.000471  -0.000007   0.000002  -0.000006   0.000087
     7  C   -0.002386   0.000040  -0.000000   0.000000  -0.000000   0.000007
     8  C   -0.000023  -0.000010  -0.000000  -0.000000  -0.000000   0.000000
     9  C    1.479660  -0.023700   0.047879  -0.002061  -0.003613   0.050057
    10  C   -7.117727  -0.049626  -0.230953   0.033184   0.018627  -0.285719
    11  C   -1.621345   0.084618   0.026999   0.001567   0.018066   0.060886
    12  C    1.138251   0.410176   0.095772  -0.090238  -0.113454  -0.010959
    13  C    2.239100  -0.126008   0.012723   0.085829  -0.024827  -0.015368
    14  H   -0.013842   0.001694   0.000034   0.000073  -0.000023   0.000459
    15  H    0.001202  -0.000009  -0.000000  -0.000000  -0.000000   0.000017
    16  H   -0.000546  -0.000001   0.000000   0.000000  -0.000000   0.000001
    17  H    0.000124   0.000001  -0.000000   0.000000   0.000000  -0.000001
    18  H   -0.000018   0.000002   0.000000  -0.000000   0.000000   0.000000
    19  H   -0.000003  -0.000000   0.000000  -0.000000   0.000000   0.000000
    20  H   -0.000013   0.000000  -0.000000   0.000000  -0.000000   0.000000
    21  H    0.000001   0.000000   0.000000   0.000000   0.000000  -0.000000
    22  H    0.046736  -0.000388  -0.000502  -0.000112   0.000220  -0.028086
    23  H    0.057000  -0.019359   0.000064   0.000174  -0.000307  -0.000432
    24  C   -4.815986   0.023592   0.040211   0.089236   0.298087   0.016770
    25  C   17.353144  -0.049298   0.156642   0.005509  -0.037367   0.145506
    26  H   -0.049298   0.476979   0.001593  -0.018654  -0.000714  -0.000003
    27  F    0.156642   0.001593   9.048046   0.020908   0.030680  -0.001221
    28  F    0.005509  -0.018654   0.020908   9.123015   0.004053   0.000083
    29  F   -0.037367  -0.000714   0.030680   0.004053   9.046578   0.000121
    30  F    0.145506  -0.000003  -0.001221   0.000083   0.000121   9.074356
    31  F    0.328810   0.000034   0.010878   0.000009  -0.001192   0.003660
    32  F    0.042434   0.000107   0.014842  -0.001345   0.010835   0.019127
              31         32
     1  C    0.048577  -0.008786
     2  N   -0.000238   0.000077
     3  C    0.005365  -0.000214
     4  O    0.000032   0.000017
     5  O    0.000001   0.000002
     6  C    0.000107   0.000017
     7  C   -0.000001  -0.000000
     8  C    0.000000   0.000000
     9  C    0.026464  -0.065358
    10  C   -0.222565   0.149967
    11  C    0.014237  -0.115561
    12  C    0.026510  -0.001482
    13  C    0.012593  -0.005747
    14  H    0.000178  -0.000006
    15  H    0.000003   0.000000
    16  H   -0.000000  -0.000001
    17  H   -0.000000   0.000000
    18  H   -0.000000  -0.000000
    19  H    0.000000  -0.000000
    20  H    0.000000   0.000000
    21  H   -0.000000   0.000000
    22  H   -0.004661   0.002850
    23  H   -0.000097  -0.000059
    24  C   -0.068307   0.151339
    25  C    0.328810   0.042434
    26  H    0.000034   0.000107
    27  F    0.010878   0.014842
    28  F    0.000009  -0.001345
    29  F   -0.001192   0.010835
    30  F    0.003660   0.019127
    31  F    9.035620   0.031047
    32  F    0.031047   9.046728
 Mulliken charges:
               1
     1  C   -0.365352
     2  N   -0.436189
     3  C    0.470626
     4  O   -0.446782
     5  O   -0.209212
     6  C    0.121921
     7  C    0.270692
     8  C   -0.446116
     9  C   -0.298032
    10  C    0.120463
    11  C   -0.931135
    12  C   -0.107932
    13  C   -0.097628
    14  H    0.227650
    15  H    0.104214
    16  H    0.104140
    17  H    0.047788
    18  H    0.047785
    19  H    0.058783
    20  H    0.090461
    21  H    0.058743
    22  H    0.271513
    23  H    0.123726
    24  C    1.331600
    25  C    1.302415
    26  H    0.198359
    27  F   -0.272549
    28  F   -0.296010
    29  F   -0.249981
    30  F   -0.276067
    31  F   -0.247063
    32  F   -0.270832
 Sum of Mulliken charges =  -0.00000
 Mulliken charges with hydrogens summed into heavy atoms:
               1
     1  C   -0.365352
     2  N   -0.208540
     3  C    0.470626
     4  O   -0.446782
     5  O   -0.209212
     6  C    0.330276
     7  C    0.366265
     8  C   -0.238130
     9  C   -0.026519
    10  C    0.120463
    11  C   -0.931135
    12  C    0.090428
    13  C    0.026099
    24  C    1.331600
    25  C    1.302415
    27  F   -0.272549
    28  F   -0.296010
    29  F   -0.249981
    30  F   -0.276067
    31  F   -0.247063
    32  F   -0.270832
 Electronic spatial extent (au):  <R**2>=           9409.9019
 Charge=              0.0000 electrons
 Dipole moment (field-independent basis, Debye):
    X=              6.4860    Y=             -4.4896    Z=             -0.0309  Tot=              7.8883
 Quadrupole moment (field-independent basis, Debye-Ang):
   XX=           -114.2337   YY=           -116.6636   ZZ=           -121.4532
   XY=             -1.2366   XZ=             -0.0496   YZ=             -0.1293
 Traceless Quadrupole moment (field-independent basis, Debye-Ang):
   XX=              3.2165   YY=              0.7866   ZZ=             -4.0030
   XY=             -1.2366   XZ=             -0.0496   YZ=             -0.1293
 Octapole moment (field-independent basis, Debye-Ang**2):
  XXX=            119.2444  YYY=             -9.4738  ZZZ=              0.2108  XYY=            -24.8463
  XXY=              6.8126  XXZ=              1.2910  XZZ=            -17.9984  YZZ=             12.3387
  YYZ=             -0.8536  XYZ=              0.4536
 Hexadecapole moment (field-independent basis, Debye-Ang**3):
 XXXX=          -9226.9899 YYYY=          -1304.7497 ZZZZ=           -268.1620 XXXY=            -50.7790
 XXXZ=             -6.8356 YYYX=            -41.2452 YYYZ=              3.6857 ZZZX=             -2.4687
 ZZZY=             -3.3515 XXYY=          -1903.3600 XXZZ=          -1690.5966 YYZZ=           -284.0295
 XXYZ=             -0.6543 YYXZ=              4.7889 ZZXY=             -3.2386
 N-N= 1.787100339452D+03 E-N=-6.558110106695D+03  KE= 1.260950399137D+03
 1\1\GINC-R3716\SP\RMP2-FC\Gen\C12H11F6N1O2\ROOT\09-Dec-2019\0\\# MP2/G
 en 5D SCF=Tight INT(grid=ultrafine) maxdisk=3489660928\\NM2CA.MP2_GTMP
 2LARGE\\0,1\C,0,-5.8588072686,1.2111492307,0.1765981364\N,0,-4.5783552
 515,0.6613963421,0.0965637384\C,0,-3.3772640731,1.3312596646,0.0688840
 707\O,0,-3.2251605941,2.5234746613,0.1014129193\O,0,-2.3834248538,0.43
 28324766,-0.0015628558\C,0,-1.0564220882,0.9838422492,-0.0396510138\C,
 0,-0.0814529449,-0.1708444406,-0.1160746397\C,0,1.3580869879,0.3344326
 272,-0.1611529455\C,0,-6.1019413123,2.5881754102,0.2090307151\C,0,-7.4
 040772143,3.0635195247,0.2891005306\C,0,-8.4893914329,2.1803809261,0.3
 495706037\C,0,-8.2339387569,0.813654447,0.3066952856\C,0,-6.9403606759
 ,0.3309673082,0.2215756196\H,0,-4.5084338831,-0.345148954,0.0663478128
 \H,0,-0.9011950882,1.588218227,0.8572329536\H,0,-0.974638408,1.6429924
 946,-0.9071998292\H,0,-0.3042977462,-0.766964602,-1.0051377612\H,0,-0.
 2304552435,-0.8207738729,0.7504451019\H,0,1.5281416988,0.9713349765,-1
 .0325394672\H,0,2.0624854568,-0.4963533344,-0.2159735193\H,0,1.6021751
 227,0.9177976369,0.7299077194\H,0,-5.2755772973,3.2805548985,0.1659665
 702\H,0,-6.7693793068,-0.7402053567,0.1937269816\C,0,-9.9313505744,2.6
 225811931,0.4228828754\C,0,-7.5726345193,4.5686610814,0.3487813804\H,0
 ,-9.0594515796,0.1152207494,0.3489440029\F,0,-10.1165013281,3.62875274
 17,1.2819388412\F,0,-10.7206302911,1.6146152223,0.8302329734\F,0,-10.4
 019397942,3.0141985411,-0.7686665911\F,0,-6.4779323569,5.2004330284,-0
 .0921049858\F,0,-7.7843419063,4.9904186235,1.6016609346\F,0,-8.5938634
 76,4.9919462782,-0.4019361584\\Version=ES64L-G09RevE.01\State=1-A\HF=-
 1262.1170639\MP2=-1266.1563316\RMSD=6.179e-09\PG=C01 [X(C12H11F6N1O2)]
 \\@


 NOTHING PUZZLES ME MORE THAN TIME AND SPACE; AND YET NOTHING TROUBLES ME LESS
                                                          -- CHARLES LAMB (1810)
 Job cpu time:       0 days  7 hours 45 minutes 57.7 seconds.
 File lengths (MBytes):  RWF=    363 Int=      0 D2E=      0 Chk=     40 Scr=      1
 Normal termination of Gaussian 09 at Mon Dec  9 11:56:42 2019.
pbs_rusage has been removed.
Please contact help@nci.org.au if you require this functionality.
