Process 0 of 1 is on r3750 - thread support 0
initial socket setup ...start
initial socket setup ...done 
now start server 0 ... 
r3750 10.9.65
Q-Chem Developer Version! Running on 10.9.65.*
                  Welcome to Q-Chem
     A Quantum Leap Into The Future Of Chemistry


 Q-Chem 5.0, Q-Chem, Inc., Pleasanton, CA (2017)

 Yihan Shao,  Zhengting Gan,  E. Epifanovsky,  A. T. B. Gilbert,  M. Wormit,  
 J. Kussmann,  A. W. Lange,  A. Behn,  Jia Deng,  Xintian Feng,  D. Ghosh,  
 M. Goldey,  P. R. Horn,  L. D. Jacobson,  I. Kaliman,  T. Kus,  A. Landau,  
 Jie Liu,  E. I. Proynov,  R. M. Richard,  R. P. Steele,  E. J. Sundstrom,  
 H. L. Woodcock III,  P. M. Zimmerman,  D. Zuev,  B. Albrecht,  E. Alguire,  
 S. A. Baeppler,  Z. Benda,  Y. A. Bernard,  E. J. Berquist,  K. B. Bravaya,  
 D. Casanova,  Chun-Min Chang,  Yunqing Chen,  A. Chien,  K. D. Closser,  
 M. P. Coons,  S. Dasgupta,  M. Diedenhofen,  Hainam Do,  R. G. Edgar,  
 Po-Tung Fang,  S. Fatehi,  Qingguo Feng,  Qinghui Ge,  A. Ghysels,  
 J. Gomes,  J. Gonthier,  A. Gunina,  M. W. D. Hanson-Heine,  
 P. H. P. Harbach,  A. W. Hauser,  J. E. Herr,  E. G. Hohenstein,  
 Z. C. Holden,  Kerwin Hui,  T.-C. Jagau,  Hyunjun Ji,  B. Kaduk,  
 K. Khistyaev,  Jaehoon Kim,  P. Klunzinger,  K. Koh,  D. Kosenkov,  
 T. Kowalczyk,  C. M. Krauter,  A. Kunitsa,  Ka Un Lao,  A. Laurent,  
 K. V. Lawler,  Joonho Lee,  D. Lefrancois,  S. Lehtola,  D. S. Levine,  
 Yi-Pei Li,  You-Sheng Lin,  Fenglai Liu,  E. Livshits,  A. Luenser,  
 P. Manohar,  E. Mansoor,  S. F. Manzer,  Shan-Ping Mao,  Yuezhi Mao,  
 N. Mardirossian,  A. V. Marenich,  L. A. Martinez-Martinez,  S. A. Maurer,  
 N. J. Mayhall,  S. C. McKenzie,  J.-M. Mewes,  A. F. Morrison,  K. Nanda,  
 T. S. Nguyen-Beck,  R. Olivares-Amaya,  J. A. Parkhill,  T. M. Perrine,  
 F. Plasser,  S. Prager,  A. Prociuk,  D. R. Rehn,  F. Rob,  M. Schneider,  
 N. Sergueev,  S. M. Sharada,  S. Sharma,  D. W. Small,  T. Stauch,  
 T. Stein,  Yu-Chuan Su,  A. J. W. Thom,  T. Tsuchimochi,  L. Vogt,  
 O. Vydrov,  M. A. Watson,  J. Wenzel,  M. de Wergifosse,  T. A. Wesolowski,  
 A. White,  J. Witte,  A. Yamada,  Jun Yang,  K. Yao,  S. Yeganeh,  
 S. R. Yost,  Zhi-Qiang You,  A. Zech,  Igor Ying Zhang,  Xing Zhang,  
 Yan Zhao,  Ying Zhu,  B. R. Brooks,  G. K. L. Chan,  C. J. Cramer,  
 M. S. Gordon,  W. J. Hehre,  A. Klamt,  M. W. Schmidt,  C. D. Sherrill,  
 D. G. Truhlar,  A. Aspuru-Guzik,  R. Baer,  A. T. Bell,  N. A. Besley,  
 Jeng-Da Chai,  A. Dreuw,  B. D. Dunietz,  T. R. Furlani,  Chao-Ping Hsu,  
 Yousung Jung,  Jing Kong,  D. S. Lambrecht,  WanZhen Liang,  C. Ochsenfeld,  
 V. A. Rassolov,  L. V. Slipchenko,  J. E. Subotnik,  T. Van Voorhis,  
 J. M. Herbert,  A. I. Krylov,  P. M. W. Gill,  M. Head-Gordon

 Contributors to earlier versions of Q-Chem not listed above: 
 R. D. Adamson,  B. Austin,  J. Baker,  G. J. O. Beran,  K. Brandhorst,  
 S. T. Brown,  E. F. C. Byrd,  A. K. Chakraborty,  C.-L. Cheng,  
 Siu Hung Chien,  D. M. Chipman,  D. L. Crittenden,  H. Dachsel,  
 R. A. DiStasio Jr.,  R. J. Doerksen,  A. D. Dutoi,  L. Fusti-Molnar,  
 W. A. Goddard III,  A. Golubeva-Zadorozhnaya,  S. R. Gwaltney,  G. Hawkins,  
 A. Heyden,  S. Hirata,  G. Kedziora,  F. J. Keil,  C. Kelley,  Jihan Kim,  
 R. A. King,  R. Z. Khaliullin,  P. P. Korambath,  W. Kurlancheek,  
 A. M. Lee,  M. S. Lee,  S. V. Levchenko,  Ching Yeh Lin,  D. Liotard,  
 R. C. Lochan,  I. Lotan,  P. E. Maslen,  N. Nair,  D. P. O'Neill,  
 D. Neuhauser,  E. Neuscamman,  C. M. Oana,  R. Olson,  B. Peters,  
 R. Peverati,  P. A. Pieniazek,  Y. M. Rhee,  J. Ritchie,  M. A. Rohrdanz,  
 E. Rosta,  N. J. Russ,  H. F. Schaefer III,  N. E. Schultz,  N. Shenvi,  
 A. C. Simmonett,  A. Sodt,  D. Stuck,  K. S. Thanthiriwatte,  V. Vanovschi,  
 Tao Wang,  A. Warshel,  C. F. Williams,  Q. Wu,  X. Xu,  W. Zhang

 Please cite Q-Chem as follows:
 Y. Shao et al., Mol. Phys. 113, 184-215 (2015)
 DOI: 10.1080/00268976.2014.952696

 Q-Chem 5.0.0 for Intel X86 EM64T Linux

 Parts of Q-Chem use Armadillo 5.200.1 (Boston Tea Smuggler).
 http://arma.sourceforge.net/

 Q-Chem begins on Mon Dec  9 10:58:19 2019  

Host: r3750
0

     Scratch files written to /jobfs/local/4047006.r-man2/NM2CA.CCSD-T_6-31pGd.mo//
 Parallel job on  1  processors
Core orbitals will be frozen

Checking the input file for inconsistencies... 	...done.

--------------------------------------------------------------
User input:
--------------------------------------------------------------
$molecule
  0 1
    C     -5.8588072686    1.2111492307    0.1765981364
    N     -4.5783552515    0.6613963421    0.0965637384
    C     -3.3772640731    1.3312596646    0.0688840707
    O     -3.2251605941    2.5234746613    0.1014129193
    O     -2.3834248538    0.4328324766   -0.0015628558
    C     -1.0564220882    0.9838422492   -0.0396510138
    C     -0.0814529449   -0.1708444406   -0.1160746397
    C      1.3580869879    0.3344326272   -0.1611529455
    C     -6.1019413123    2.5881754102    0.2090307151
    C     -7.4040772143    3.0635195247    0.2891005306
    C     -8.4893914329    2.1803809261    0.3495706037
    C     -8.2339387569    0.8136544470    0.3066952856
    C     -6.9403606759    0.3309673082    0.2215756196
    H     -4.5084338831   -0.3451489540    0.0663478128
    H     -0.9011950882    1.5882182270    0.8572329536
    H     -0.9746384080    1.6429924946   -0.9071998292
    H     -0.3042977462   -0.7669646020   -1.0051377612
    H     -0.2304552435   -0.8207738729    0.7504451019
    H      1.5281416988    0.9713349765   -1.0325394672
    H      2.0624854568   -0.4963533344   -0.2159735193
    H      1.6021751227    0.9177976369    0.7299077194
    H     -5.2755772973    3.2805548985    0.1659665702
    H     -6.7693793068   -0.7402053567    0.1937269816
    C     -9.9313505744    2.6225811931    0.4228828754
    C     -7.5726345193    4.5686610814    0.3487813804
    H     -9.0594515796    0.1152207494    0.3489440029
    F    -10.1165013281    3.6287527417    1.2819388412
    F    -10.7206302911    1.6146152223    0.8302329734
    F    -10.4019397942    3.0141985411   -0.7686665911
    F     -6.4779323569    5.2004330284   -0.0921049858
    F     -7.7843419063    4.9904186235    1.6016609346
    F     -8.5938634760    4.9919462782   -0.4019361584

$end

$rem

    JOBTYPE               sp
    METHOD                CCSD(T)
    BASIS                 6-31+G*
    CC_BACKEND            XM

    MEM_TOTAL             60000
$end
--------------------------------------------------------------
 ----------------------------------------------------------------
             Standard Nuclear Orientation (Angstroms)
    I     Atom           X                Y                Z
 ----------------------------------------------------------------
    1      C      -0.5108943627    -0.9527509450     0.0138911125
    2      N      -1.9001031551    -1.0878613509     0.0198258265
    3      C      -2.8412863416    -0.0848274705     0.0056731657
    4      O      -2.6228449255     1.0974203181    -0.0063146166
    5      O      -4.0629947684    -0.6391516941     0.0076097382
    6      C      -5.1605617619     0.2888505592    -0.0049333824
    7      C      -6.4423224192    -0.5153809437    -0.0020943973
    8      C      -7.6611992402     0.4032089301    -0.0140996462
    9      C       0.1396337598     0.2854140902     0.0251889815
   10      C       1.5269170771     0.3430479545     0.0185222742
   11      C       2.2950049646    -0.8277176614    -0.0105678781
   12      C       1.6353292622    -2.0524062397    -0.0117865492
   13      C       0.2536966818    -2.1196755254     0.0001607946
   14      H      -2.2733842682    -2.0257233521     0.0232185287
   15      H      -5.0778477976     0.9186732382    -0.8938925424
   16      H      -5.0841698525     0.9349954034     0.8728306406
   17      H      -6.4577849719    -1.1578328448     0.8824782399
   18      H      -6.4520156674    -1.1731822458    -0.8754041376
   19      H      -7.6757424842     1.0549620652     0.8627606746
   20      H      -8.5861809896    -0.1745397653    -0.0123616902
   21      H      -7.6697113336     1.0399824054    -0.9019791122
   22      H      -0.4389864535     1.1958723674     0.0448291453
   23      H      -0.2352102126    -3.0883668884    -0.0051444188
   24      C       3.8049234895    -0.8442128278    -0.0045771766
   25      C       2.1467619281     1.7261404494     0.0020302823
   26      H       2.2112611849    -2.9683795680    -0.0307940955
   27      F       4.3313264675     0.0646236775    -0.8301407724
   28      F       4.2717409292    -2.0412474717    -0.3971093550
   29      F       4.3087351967    -0.6233255720     1.2168936892
   30      F       1.2735228970     2.6573776489     0.4046967426
   31      F       2.5419662033     2.0731835837    -1.2291404057
   32      F       3.2072854461     1.8131967371     0.8103413818
 ----------------------------------------------------------------
 Molecular Point Group                 C1    NOp =  1
 Largest Abelian Subgroup              C1    NOp =  1
 Nuclear Repulsion Energy =  1787.1003469153 hartrees
 There are       80 alpha and       80 beta electrons
 Requested basis set is 6-31+G(d)
 There are 127 shells and 421 basis functions
 Total memory of 101219MB is distributed as follows: 
   QALLOC including MEM_STATIC uses 30062MB
   MEM_STATIC is set to 62MB
   CCMAN JOB total memory use is  101157MB
 Warning: actual memory use might exceed 101219MB

 Total QAlloc Memory Limit  30062 MB
 Mega-Array Size        61 MB
 MEM_STATIC part        62 MB
 A cutoff of  1.0D-14 yielded   5856 shell pairs
 There are     69909 function pairs
 
 -------------------------------------------------------
 OpenMP Integral Computing Module                       
 Release: version 1.0, May 2013, Q-Chem Inc. Pittsburgh 
 -------------------------------------------------------
 Integral Job Info:
 Integral job number is                      11
 Integral operator is                         1
 short-range coefficients                     0
 long-range coefficients              100000000
 Omega coefficients                           0
 if combine SR and LR in K                    0
 Integral screening is                        0
 Integral computing path is                   2
 max size of driver memory is            800000
 size of driver memory is                593474
 size of scratch memory is              2260544
 max col of scratch BK array               1296
 max len of scratch array in speh3          155
 max len of scratch index in speh4           18
 max int batch size is                      520
 min int batch size is                       52
 fixed nKL is                                52
 max L of basis functions is                  2
 order of int derivative is                   0
 number of shells is                        127
 number of basis is                         421
 number of cartesian basis is               421
 number of contracted shell pairs          5856
 number of primitive shell pairs          18407
 maxK2 (contraction) of shell pair           36
 max number of K2 of shell pair               1
 max number of CS2 of shell pair            913
 max number of PS2 of shell pair           5004
 mem total for path MDJ                  181784
 -------------------------------------------------------
 Smallest overlap matrix eigenvalue = 2.07E-07
 Linear dependence detected in AO basis
 Number of orthogonalized atomic orbitals = 419
 Maximum deviation from orthogonality = 3.188E-10

 Scale SEOQF with 1.000000e-02/1.000000e-01/1.000000e-01

 Standard Electronic Orientation quadrupole field applied
 Nucleus-field energy     =     0.0000000252 hartrees
 Guess from superposition of atomic densities
 Warning:  Energy on first SCF cycle will be non-variational
 A restricted Hartree-Fock SCF calculation will be
 performed using Pulay DIIS extrapolation
 SCF converges when DIIS error is below 1.0E-08
 -------------------------------------------------------
 OpenMP Integral computing Module                
 Release: version 1.0, May 2013, Q-Chem Inc. Pittsburgh 
 -------------------------------------------------------
 ---------------------------------------
  Cycle       Energy         DIIS Error
 ---------------------------------------
    1   -1268.4152137656      3.65E-02
    2   -1261.2568659586      4.78E-03
    3   -1261.5938495226      2.89E-03
    4   -1261.7208541553      4.78E-04
    5   -1261.7264031990      1.80E-04
    6   -1261.7271316647      4.39E-05
    7   -1261.7271906443      1.70E-05
    8   -1261.7272032138      5.30E-06
    9   -1261.7272046952      2.39E-06
   10   -1261.7272049804      7.74E-07
   11   -1261.7272050189      3.31E-07
   12   -1261.7272050256      1.32E-07
   13   -1261.7272050268      5.14E-08
   14   -1261.7272050271      2.93E-08
   15   -1261.7272050272      1.07E-08
   16   -1261.7272050272      3.85E-09 Convergence criterion met
 ---------------------------------------
 SCF time:  CPU 372.36 s  wall 46.73 s
 SCF   energy in the final basis set = -1261.7272050272
 Total energy in the final basis set = -1261.7272050272


 ------------------------------------------------------------------------------

   CCMAN2: suite of methods based on coupled cluster
           and equation of motion theories.

   Components:
   * libvmm-1.3-trunk
     by Evgeny Epifanovsky, Ilya Kaliman.
   * libtensor-2.5-release
     by Evgeny Epifanovsky, Michael Wormit, Dmitry Zuev, Sam Manzer, 
        Ilya Kaliman.
   * libcc-2.5-trunk
     by Evgeny Epifanovsky, Arik Landau, Tomasz Kus, Kirill Khistyaev, 
        Dmitry Zuev, Prashant Manohar, Xintian Feng, Anna Krylov, 
        Matthew Goldey, Alec White, Thomas Jagau, Kaushik Nanda, 
        Anastasia Gunina, Alexander Kunitsa, Joonho Lee.

   CCMAN original authors:
   Anna I. Krylov, C. David Sherrill, Steven R. Gwaltney,
   Edward F. C. Byrd (2000)
   Sergey V. Levchenko, Lyudmila V. Slipchenko, Tao Wang,
   Ana-Maria C. Cristian (2003)
   Piotr A. Pieniazek, C. Melania Oana, Evgeny Epifanovsky (2007)
   Prashant Manohar (2009)

 ------------------------------------------------------------------------------


================================================================================
This program uses libxm tensor contraction code.
See https://github.com/ilyak/libxm for more info.
libxm is (c) Ilya Kaliman 2014-2016.
================================================================================

 Calculation will run on 8 cores using libxm for tensor contractions

 
 Alpha MOs, Restricted
 -- Occupied --                  
-26.356 -26.354 -26.353 -26.353 -26.350 -26.349 -20.636 -20.572
  1 A     2 A     3 A     4 A     5 A     6 A     7 A     8 A                  
-15.641 -11.525 -11.525 -11.440 -11.334 -11.306 -11.301 -11.290
  9 A    10 A    11 A    12 A    13 A    14 A    15 A    16 A                  
-11.284 -11.276 -11.270 -11.245 -11.235  -1.741  -1.736  -1.643
 17 A    18 A    19 A    20 A    21 A    22 A    23 A    24 A                  
 -1.639  -1.638  -1.636  -1.499  -1.392  -1.297  -1.203  -1.100
 25 A    26 A    27 A    28 A    29 A    30 A    31 A    32 A                  
 -1.087  -1.076  -0.996  -0.977  -0.954  -0.900  -0.892  -0.846
 33 A    34 A    35 A    36 A    37 A    38 A    39 A    40 A                  
 -0.834  -0.831  -0.828  -0.824  -0.820  -0.815  -0.793  -0.767
 41 A    42 A    43 A    44 A    45 A    46 A    47 A    48 A                  
 -0.727  -0.717  -0.715  -0.715  -0.710  -0.709  -0.688  -0.681
 49 A    50 A    51 A    52 A    53 A    54 A    55 A    56 A                  
 -0.667  -0.666  -0.659  -0.651  -0.648  -0.647  -0.647  -0.646
 57 A    58 A    59 A    60 A    61 A    62 A    63 A    64 A                  
 -0.629  -0.618  -0.602  -0.592  -0.569  -0.557  -0.553  -0.542
 65 A    66 A    67 A    68 A    69 A    70 A    71 A    72 A                  
 -0.533  -0.508  -0.506  -0.484  -0.482  -0.479  -0.383  -0.347
 73 A    74 A    75 A    76 A    77 A    78 A    79 A    80 A                  
 -- Virtual --                   
  0.050   0.071   0.072   0.077   0.085   0.086   0.092   0.093
 81 A    82 A    83 A    84 A    85 A    86 A    87 A    88 A                  
  0.104   0.107   0.108   0.110   0.121   0.124   0.128   0.129
 89 A    90 A    91 A    92 A    93 A    94 A    95 A    96 A                  
  0.131   0.142   0.147   0.149   0.151   0.157   0.171   0.173
 97 A    98 A    99 A   100 A   101 A   102 A   103 A   104 A                  
  0.178   0.186   0.190   0.198   0.200   0.208   0.211   0.217
105 A   106 A   107 A   108 A   109 A   110 A   111 A   112 A                  
  0.220   0.231   0.234   0.250   0.254   0.260   0.265   0.275
113 A   114 A   115 A   116 A   117 A   118 A   119 A   120 A                  
  0.277   0.285   0.290   0.293   0.299   0.306   0.309   0.317
121 A   122 A   123 A   124 A   125 A   126 A   127 A   128 A                  
  0.323   0.327   0.328   0.334   0.335   0.337   0.345   0.347
129 A   130 A   131 A   132 A   133 A   134 A   135 A   136 A                  
  0.357   0.366   0.373   0.379   0.382   0.387   0.393   0.399
137 A   138 A   139 A   140 A   141 A   142 A   143 A   144 A                  
  0.403   0.405   0.410   0.413   0.418   0.419   0.425   0.426
145 A   146 A   147 A   148 A   149 A   150 A   151 A   152 A                  
  0.431   0.436   0.442   0.447   0.455   0.461   0.463   0.465
153 A   154 A   155 A   156 A   157 A   158 A   159 A   160 A                  
  0.469   0.473   0.477   0.479   0.482   0.494   0.496   0.501
161 A   162 A   163 A   164 A   165 A   166 A   167 A   168 A                  
  0.504   0.511   0.521   0.522   0.534   0.539   0.543   0.551
169 A   170 A   171 A   172 A   173 A   174 A   175 A   176 A                  
  0.557   0.558   0.571   0.575   0.582   0.589   0.590   0.601
177 A   178 A   179 A   180 A   181 A   182 A   183 A   184 A                  
  0.603   0.611   0.619   0.624   0.642   0.665   0.675   0.689
185 A   186 A   187 A   188 A   189 A   190 A   191 A   192 A                  
  0.694   0.705   0.711   0.781   0.810   0.836   0.841   0.854
193 A   194 A   195 A   196 A   197 A   198 A   199 A   200 A                  
  0.879   0.881   0.911   0.915   0.922   0.926   0.931   0.936
201 A   202 A   203 A   204 A   205 A   206 A   207 A   208 A                  
  0.948   0.953   0.974   0.983   1.004   1.008   1.014   1.026
209 A   210 A   211 A   212 A   213 A   214 A   215 A   216 A                  
  1.039   1.047   1.052   1.083   1.087   1.106   1.112   1.120
217 A   218 A   219 A   220 A   221 A   222 A   223 A   224 A                  
  1.125   1.139   1.154   1.170   1.180   1.192   1.198   1.218
225 A   226 A   227 A   228 A   229 A   230 A   231 A   232 A                  
  1.234   1.243   1.254   1.275   1.292   1.298   1.323   1.348
233 A   234 A   235 A   236 A   237 A   238 A   239 A   240 A                  
  1.359   1.365   1.376   1.384   1.397   1.403   1.412   1.445
241 A   242 A   243 A   244 A   245 A   246 A   247 A   248 A                  
  1.452   1.458   1.463   1.465   1.474   1.502   1.510   1.536
249 A   250 A   251 A   252 A   253 A   254 A   255 A   256 A                  
  1.552   1.565   1.593   1.598   1.610   1.630   1.650   1.662
257 A   258 A   259 A   260 A   261 A   262 A   263 A   264 A                  
  1.671   1.684   1.696   1.701   1.706   1.727   1.770   1.779
265 A   266 A   267 A   268 A   269 A   270 A   271 A   272 A                  
  1.784   1.832   1.845   1.877   1.879   1.894   1.899   1.908
273 A   274 A   275 A   276 A   277 A   278 A   279 A   280 A                  
  1.921   1.934   1.936   1.955   1.961   1.966   1.974   1.983
281 A   282 A   283 A   284 A   285 A   286 A   287 A   288 A                  
  1.987   1.988   1.994   1.999   2.005   2.017   2.022   2.035
289 A   290 A   291 A   292 A   293 A   294 A   295 A   296 A                  
  2.038   2.042   2.054   2.071   2.081   2.088   2.100   2.110
297 A   298 A   299 A   300 A   301 A   302 A   303 A   304 A                  
  2.117   2.122   2.127   2.139   2.145   2.152   2.166   2.171
305 A   306 A   307 A   308 A   309 A   310 A   311 A   312 A                  
  2.174   2.186   2.188   2.205   2.209   2.224   2.229   2.249
313 A   314 A   315 A   316 A   317 A   318 A   319 A   320 A                  
  2.261   2.273   2.288   2.300   2.303   2.315   2.321   2.343
321 A   322 A   323 A   324 A   325 A   326 A   327 A   328 A                  
  2.352   2.354   2.381   2.387   2.389   2.397   2.407   2.412
329 A   330 A   331 A   332 A   333 A   334 A   335 A   336 A                  
  2.429   2.436   2.440   2.446   2.450   2.463   2.483   2.489
337 A   338 A   339 A   340 A   341 A   342 A   343 A   344 A                  
  2.494   2.533   2.546   2.558   2.572   2.586   2.591   2.600
345 A   346 A   347 A   348 A   349 A   350 A   351 A   352 A                  
  2.615   2.644   2.665   2.669   2.706   2.710   2.733   2.738
353 A   354 A   355 A   356 A   357 A   358 A   359 A   360 A                  
  2.774   2.797   2.820   2.824   2.840   2.858   2.916   2.950
361 A   362 A   363 A   364 A   365 A   366 A   367 A   368 A                  
  2.960   2.975   3.003   3.022   3.063   3.079   3.085   3.098
369 A   370 A   371 A   372 A   373 A   374 A   375 A   376 A                  
  3.117   3.130   3.162   3.183   3.200   3.211   3.260   3.269
377 A   378 A   379 A   380 A   381 A   382 A   383 A   384 A                  
  3.304   3.358   3.405   3.509   3.531   3.556   3.568   3.596
385 A   386 A   387 A   388 A   389 A   390 A   391 A   392 A                  
  3.614   3.651   3.690   3.733   3.751   3.830   4.605   4.666
393 A   394 A   395 A   396 A   397 A   398 A   399 A   400 A                  
  4.693   4.711   4.764   4.802   4.821   4.842   4.889   4.970
401 A   402 A   403 A   404 A   405 A   406 A   407 A   408 A                  
  5.008   5.017   5.046   5.123   5.234   6.223   6.305   6.458
409 A   410 A   411 A   412 A   413 A   414 A   415 A   416 A                  
  6.520   7.323   7.663
417 A   418 A   419 A                                                          
 
 Beta MOs, Restricted
 -- Occupied --                  
-26.356 -26.354 -26.353 -26.353 -26.350 -26.349 -20.636 -20.572
  1 A     2 A     3 A     4 A     5 A     6 A     7 A     8 A                  
-15.641 -11.525 -11.525 -11.440 -11.334 -11.306 -11.301 -11.290
  9 A    10 A    11 A    12 A    13 A    14 A    15 A    16 A                  
-11.284 -11.276 -11.270 -11.245 -11.235  -1.741  -1.736  -1.643
 17 A    18 A    19 A    20 A    21 A    22 A    23 A    24 A                  
 -1.639  -1.638  -1.636  -1.499  -1.392  -1.297  -1.203  -1.100
 25 A    26 A    27 A    28 A    29 A    30 A    31 A    32 A                  
 -1.087  -1.076  -0.996  -0.977  -0.954  -0.900  -0.892  -0.846
 33 A    34 A    35 A    36 A    37 A    38 A    39 A    40 A                  
 -0.834  -0.831  -0.828  -0.824  -0.820  -0.815  -0.793  -0.767
 41 A    42 A    43 A    44 A    45 A    46 A    47 A    48 A                  
 -0.727  -0.717  -0.715  -0.715  -0.710  -0.709  -0.688  -0.681
 49 A    50 A    51 A    52 A    53 A    54 A    55 A    56 A                  
 -0.667  -0.666  -0.659  -0.651  -0.648  -0.647  -0.647  -0.646
 57 A    58 A    59 A    60 A    61 A    62 A    63 A    64 A                  
 -0.629  -0.618  -0.602  -0.592  -0.569  -0.557  -0.553  -0.542
 65 A    66 A    67 A    68 A    69 A    70 A    71 A    72 A                  
 -0.533  -0.508  -0.506  -0.484  -0.482  -0.479  -0.383  -0.347
 73 A    74 A    75 A    76 A    77 A    78 A    79 A    80 A                  
 -- Virtual --                   
  0.050   0.071   0.072   0.077   0.085   0.086   0.092   0.093
 81 A    82 A    83 A    84 A    85 A    86 A    87 A    88 A                  
  0.104   0.107   0.108   0.110   0.121   0.124   0.128   0.129
 89 A    90 A    91 A    92 A    93 A    94 A    95 A    96 A                  
  0.131   0.142   0.147   0.149   0.151   0.157   0.171   0.173
 97 A    98 A    99 A   100 A   101 A   102 A   103 A   104 A                  
  0.178   0.186   0.190   0.198   0.200   0.208   0.211   0.217
105 A   106 A   107 A   108 A   109 A   110 A   111 A   112 A                  
  0.220   0.231   0.234   0.250   0.254   0.260   0.265   0.275
113 A   114 A   115 A   116 A   117 A   118 A   119 A   120 A                  
  0.277   0.285   0.290   0.293   0.299   0.306   0.309   0.317
121 A   122 A   123 A   124 A   125 A   126 A   127 A   128 A                  
  0.323   0.327   0.328   0.334   0.335   0.337   0.345   0.347
129 A   130 A   131 A   132 A   133 A   134 A   135 A   136 A                  
  0.357   0.366   0.373   0.379   0.382   0.387   0.393   0.399
137 A   138 A   139 A   140 A   141 A   142 A   143 A   144 A                  
  0.403   0.405   0.410   0.413   0.418   0.419   0.425   0.426
145 A   146 A   147 A   148 A   149 A   150 A   151 A   152 A                  
  0.431   0.436   0.442   0.447   0.455   0.461   0.463   0.465
153 A   154 A   155 A   156 A   157 A   158 A   159 A   160 A                  
  0.469   0.473   0.477   0.479   0.482   0.494   0.496   0.501
161 A   162 A   163 A   164 A   165 A   166 A   167 A   168 A                  
  0.504   0.511   0.521   0.522   0.534   0.539   0.543   0.551
169 A   170 A   171 A   172 A   173 A   174 A   175 A   176 A                  
  0.557   0.558   0.571   0.575   0.582   0.589   0.590   0.601
177 A   178 A   179 A   180 A   181 A   182 A   183 A   184 A                  
  0.603   0.611   0.619   0.624   0.642   0.665   0.675   0.689
185 A   186 A   187 A   188 A   189 A   190 A   191 A   192 A                  
  0.694   0.705   0.711   0.781   0.810   0.836   0.841   0.854
193 A   194 A   195 A   196 A   197 A   198 A   199 A   200 A                  
  0.879   0.881   0.911   0.915   0.922   0.926   0.931   0.936
201 A   202 A   203 A   204 A   205 A   206 A   207 A   208 A                  
  0.948   0.953   0.974   0.983   1.004   1.008   1.014   1.026
209 A   210 A   211 A   212 A   213 A   214 A   215 A   216 A                  
  1.039   1.047   1.052   1.083   1.087   1.106   1.112   1.120
217 A   218 A   219 A   220 A   221 A   222 A   223 A   224 A                  
  1.125   1.139   1.154   1.170   1.180   1.192   1.198   1.218
225 A   226 A   227 A   228 A   229 A   230 A   231 A   232 A                  
  1.234   1.243   1.254   1.275   1.292   1.298   1.323   1.348
233 A   234 A   235 A   236 A   237 A   238 A   239 A   240 A                  
  1.359   1.365   1.376   1.384   1.397   1.403   1.412   1.445
241 A   242 A   243 A   244 A   245 A   246 A   247 A   248 A                  
  1.452   1.458   1.463   1.465   1.474   1.502   1.510   1.536
249 A   250 A   251 A   252 A   253 A   254 A   255 A   256 A                  
  1.552   1.565   1.593   1.598   1.610   1.630   1.650   1.662
257 A   258 A   259 A   260 A   261 A   262 A   263 A   264 A                  
  1.671   1.684   1.696   1.701   1.706   1.727   1.770   1.779
265 A   266 A   267 A   268 A   269 A   270 A   271 A   272 A                  
  1.784   1.832   1.845   1.877   1.879   1.894   1.899   1.908
273 A   274 A   275 A   276 A   277 A   278 A   279 A   280 A                  
  1.921   1.934   1.936   1.955   1.961   1.966   1.974   1.983
281 A   282 A   283 A   284 A   285 A   286 A   287 A   288 A                  
  1.987   1.988   1.994   1.999   2.005   2.017   2.022   2.035
289 A   290 A   291 A   292 A   293 A   294 A   295 A   296 A                  
  2.038   2.042   2.054   2.071   2.081   2.088   2.100   2.110
297 A   298 A   299 A   300 A   301 A   302 A   303 A   304 A                  
  2.117   2.122   2.127   2.139   2.145   2.152   2.166   2.171
305 A   306 A   307 A   308 A   309 A   310 A   311 A   312 A                  
  2.174   2.186   2.188   2.205   2.209   2.224   2.229   2.249
313 A   314 A   315 A   316 A   317 A   318 A   319 A   320 A                  
  2.261   2.273   2.288   2.300   2.303   2.315   2.321   2.343
321 A   322 A   323 A   324 A   325 A   326 A   327 A   328 A                  
  2.352   2.354   2.381   2.387   2.389   2.397   2.407   2.412
329 A   330 A   331 A   332 A   333 A   334 A   335 A   336 A                  
  2.429   2.436   2.440   2.446   2.450   2.463   2.483   2.489
337 A   338 A   339 A   340 A   341 A   342 A   343 A   344 A                  
  2.494   2.533   2.546   2.558   2.572   2.586   2.591   2.600
345 A   346 A   347 A   348 A   349 A   350 A   351 A   352 A                  
  2.615   2.644   2.665   2.669   2.706   2.710   2.733   2.738
353 A   354 A   355 A   356 A   357 A   358 A   359 A   360 A                  
  2.774   2.797   2.820   2.824   2.840   2.858   2.916   2.950
361 A   362 A   363 A   364 A   365 A   366 A   367 A   368 A                  
  2.960   2.975   3.003   3.022   3.063   3.079   3.085   3.098
369 A   370 A   371 A   372 A   373 A   374 A   375 A   376 A                  
  3.117   3.130   3.162   3.183   3.200   3.211   3.260   3.269
377 A   378 A   379 A   380 A   381 A   382 A   383 A   384 A                  
  3.304   3.358   3.405   3.509   3.531   3.556   3.568   3.596
385 A   386 A   387 A   388 A   389 A   390 A   391 A   392 A                  
  3.614   3.651   3.690   3.733   3.751   3.830   4.605   4.666
393 A   394 A   395 A   396 A   397 A   398 A   399 A   400 A                  
  4.693   4.711   4.764   4.802   4.821   4.842   4.889   4.970
401 A   402 A   403 A   404 A   405 A   406 A   407 A   408 A                  
  5.008   5.017   5.046   5.123   5.234   6.223   6.305   6.458
409 A   410 A   411 A   412 A   413 A   414 A   415 A   416 A                  
  6.520   7.323   7.663
417 A   418 A   419 A                                                          

 Occupation and symmetry of molecular orbitals

 Point group: C1 (1 irreducible representation).

                           A     All 
 -------------------------------------
 All molecular orbitals:
  - Alpha                  419   419 
  - Beta                   419   419 
 -------------------------------------
 Alpha orbitals:
  - Frozen occupied        21    21  
  - Active occupied        59    59  
  - Active virtual         339   339 
  - Frozen virtual         0     0   
 -------------------------------------
 Beta orbitals:
  - Frozen occupied        21    21  
  - Active occupied        59    59  
  - Active virtual         339   339 
  - Frozen virtual         0     0   
 -------------------------------------

 Import integrals:   CPU 0.00 s  wall 0.00 s

 Import integrals:   CPU 3954.35 s  wall 1130.58 s

 MP2 amplitudes:   CPU 44.60 s  wall 122.07 s

           CCSD T amplitudes will be solved using DIIS.

           Start     Size      MaxIter   EConv     TConv     
           3         7         100       1.00e-06  1.00e-04  
 ------------------------------------------------------------------------------
           Energy (a.u.)   Ediff      Tdiff       Comment
 ------------------------------------------------------------------------------
         -1264.83349424                           
     1   -1264.79989027   3.36e-02   1.57e+00     Step took 58.15.
     2   -1264.89440773   9.45e-02   2.13e-01     
     3   -1264.89146313   2.94e-03   7.99e-02     
     4   -1264.90078362   9.32e-03   2.67e-02     Switched to DIIS steps.
     5   -1264.90384002   3.06e-03   1.72e-02     
     6   -1264.90401837   1.78e-04   3.60e-03     
     7   -1264.90400301   1.54e-05   1.79e-03     
     8   -1264.90399183   1.12e-05   4.91e-04     
     9   -1264.90399247   6.33e-07   1.86e-04     
    10   -1264.90399241   5.92e-08   5.03e-05     
 ------------------------------------------------------------------------------
         -1264.90399241                           CCSD T converged.


 ------------------------------------------------------------------------------
 == (T) code is based on LIBPT ==
 == Author: Ilya Kaliman, 2016 ==

 Starting (T) calculation...
 (T) calculation completed in 88720 sec
 ------------------------------------------------------------------------------

 SCF energy                 = -1261.72720503
 MP2 energy                 = -1264.83349424
 CCSD correlation energy     =    -3.17678738
 CCSD total energy           = -1264.90399241
 CCSD(T) correlation energy =    -0.11334800
 CCSD(T) total energy       = -1265.01734041

 CCSD  T1^2 = 0.0468  T2^2 = 0.9842  Leading amplitudes:

 Amplitude    Orbitals with energies
 -0.0222       52 (A) A                  ->    113 (A) A                  
              -0.7145                          0.2195                     
 -0.0222       52 (A) B                  ->    113 (A) B                  
              -0.7145                          0.2195                     
  0.0187       71 (A) A                  ->    113 (A) A                  
              -0.5529                          0.2195                     
  0.0187       71 (A) B                  ->    113 (A) B                  
              -0.5529                          0.2195                     

 Amplitude    Orbitals with energies
 -0.0425       79 (A) A      79 (A) B    ->    82 (A) A      82 (A) B     
              -0.3826       -0.3826            0.0709        0.0709       
  0.0425       79 (A) A      79 (A) B    ->    82 (A) B      82 (A) A     
              -0.3826       -0.3826            0.0709        0.0709       
  0.0425       79 (A) B      79 (A) A    ->    82 (A) A      82 (A) B     
              -0.3826       -0.3826            0.0709        0.0709       
 -0.0425       79 (A) B      79 (A) A    ->    82 (A) B      82 (A) A     
              -0.3826       -0.3826            0.0709        0.0709       

 CCSD calculation:   CPU 857318.93 s  wall 131632.80 s

 Total ccman2 time:   CPU 861392.47 s  wall 132906.41 s

 
 --------------------------------------------------------------
 
                    Orbital Energies (a.u.)
 --------------------------------------------------------------
 
 Alpha MOs
 -- Occupied --
-26.356 -26.354 -26.353 -26.353 -26.350 -26.349 -20.636 -20.572
-15.641 -11.525 -11.525 -11.440 -11.334 -11.306 -11.301 -11.290
-11.284 -11.276 -11.270 -11.245 -11.235  -1.741  -1.736  -1.643
 -1.639  -1.638  -1.636  -1.499  -1.392  -1.297  -1.203  -1.100
 -1.087  -1.076  -0.996  -0.977  -0.954  -0.900  -0.892  -0.846
 -0.834  -0.831  -0.828  -0.824  -0.820  -0.815  -0.793  -0.767
 -0.727  -0.717  -0.715  -0.715  -0.710  -0.709  -0.688  -0.681
 -0.667  -0.666  -0.659  -0.651  -0.648  -0.647  -0.647  -0.646
 -0.629  -0.618  -0.602  -0.592  -0.569  -0.557  -0.553  -0.542
 -0.533  -0.508  -0.506  -0.484  -0.482  -0.479  -0.383  -0.347
 -- Virtual --
  0.050   0.071   0.072   0.077   0.085   0.086   0.092   0.093
  0.104   0.107   0.108   0.110   0.121   0.124   0.128   0.129
  0.131   0.142   0.147   0.149   0.151   0.157   0.171   0.173
  0.178   0.186   0.190   0.198   0.200   0.208   0.211   0.217
  0.220   0.231   0.234   0.250   0.254   0.260   0.265   0.275
  0.277   0.285   0.290   0.293   0.299   0.306   0.309   0.317
  0.323   0.327   0.328   0.334   0.335   0.337   0.345   0.347
  0.357   0.366   0.373   0.379   0.382   0.387   0.393   0.399
  0.403   0.405   0.410   0.413   0.418   0.419   0.425   0.426
  0.431   0.436   0.442   0.447   0.455   0.461   0.463   0.465
  0.469   0.473   0.477   0.479   0.482   0.494   0.496   0.501
  0.504   0.511   0.521   0.522   0.534   0.539   0.543   0.551
  0.557   0.558   0.571   0.575   0.582   0.589   0.590   0.601
  0.603   0.611   0.619   0.624   0.642   0.665   0.675   0.689
  0.694   0.705   0.711   0.781   0.810   0.836   0.841   0.854
  0.879   0.881   0.911   0.915   0.922   0.926   0.931   0.936
  0.948   0.953   0.974   0.983   1.004   1.008   1.014   1.026
  1.039   1.047   1.052   1.083   1.087   1.106   1.112   1.120
  1.125   1.139   1.154   1.170   1.180   1.192   1.198   1.218
  1.234   1.243   1.254   1.275   1.292   1.298   1.323   1.348
  1.359   1.365   1.376   1.384   1.397   1.403   1.412   1.445
  1.452   1.458   1.463   1.465   1.474   1.502   1.510   1.536
  1.552   1.565   1.593   1.598   1.610   1.630   1.650   1.662
  1.671   1.684   1.696   1.701   1.706   1.727   1.770   1.779
  1.784   1.832   1.845   1.877   1.879   1.894   1.899   1.908
  1.921   1.934   1.936   1.955   1.961   1.966   1.974   1.983
  1.987   1.988   1.994   1.999   2.005   2.017   2.022   2.035
  2.038   2.042   2.054   2.071   2.081   2.088   2.100   2.110
  2.117   2.122   2.127   2.139   2.145   2.152   2.166   2.171
  2.174   2.186   2.188   2.205   2.209   2.224   2.229   2.249
  2.261   2.273   2.288   2.300   2.303   2.315   2.321   2.343
  2.352   2.354   2.381   2.387   2.389   2.397   2.407   2.412
  2.429   2.436   2.440   2.446   2.450   2.463   2.483   2.489
  2.494   2.533   2.546   2.558   2.572   2.586   2.591   2.600
  2.615   2.644   2.665   2.669   2.706   2.710   2.733   2.738
  2.774   2.797   2.820   2.824   2.840   2.858   2.916   2.950
  2.960   2.975   3.003   3.022   3.063   3.079   3.085   3.098
  3.117   3.130   3.162   3.183   3.200   3.211   3.260   3.269
  3.304   3.358   3.405   3.509   3.531   3.556   3.568   3.596
  3.614   3.651   3.690   3.733   3.751   3.830   4.605   4.666
  4.693   4.711   4.764   4.802   4.821   4.842   4.889   4.970
  5.008   5.017   5.046   5.123   5.234   6.223   6.305   6.458
  6.520   7.323   7.663
 --------------------------------------------------------------
 
          Ground-State Mulliken Net Atomic Charges

     Atom                 Charge (a.u.)
  ----------------------------------------
      1 C                    -0.386258
      2 N                    -0.930192
      3 C                     0.733628
      4 O                    -0.584338
      5 O                    -0.475770
      6 C                     0.078007
      7 C                    -0.282654
      8 C                    -0.688395
      9 C                     0.234744
     10 C                    -0.741839
     11 C                    -0.871153
     12 C                    -0.145416
     13 C                    -0.388914
     14 H                     0.500062
     15 H                     0.213157
     16 H                     0.213239
     17 H                     0.204425
     18 H                     0.204385
     19 H                     0.197025
     20 H                     0.204740
     21 H                     0.197021
     22 H                     0.353768
     23 H                     0.243231
     24 C                     1.994760
     25 C                     1.954237
     26 H                     0.282209
     27 F                    -0.380086
     28 F                    -0.426501
     29 F                    -0.356862
     30 F                    -0.422675
     31 F                    -0.351346
     32 F                    -0.376237
  ----------------------------------------
  Sum of atomic charges =     0.000000

 -----------------------------------------------------------------
                    Cartesian Multipole Moments
 -----------------------------------------------------------------
    Charge (ESU x 10^10)
                 0.0000
    Dipole Moment (Debye)
         X      -6.4914      Y      -4.5307      Z       0.0310
       Tot       7.9162
    Quadrupole Moments (Debye-Ang)
        XX    -114.8444     XY       1.0411     YY    -117.2809
        XZ      -0.0444     YZ       0.1334     ZZ    -122.3027
    Octopole Moments (Debye-Ang^2)
       XXX    -118.1247    XXY       7.3872    XYY      26.1655
       YYY     -10.2004    XXZ      -1.3285    XYZ       0.4531
       YYZ       0.8902    XZZ      18.8545    YZZ      12.6247
       ZZZ      -0.2221
    Hexadecapole Moments (Debye-Ang^3)
      XXXX   -9292.0521   XXXY      48.0664   XXYY   -1917.0830
      XYYY      41.7215   YYYY   -1308.7629   XXXZ      -7.0720
      XXYZ       0.7385   XYYZ       4.8449   YYYZ      -3.6402
      XXZZ   -1702.6152   XYZZ       3.4496   YYZZ    -286.1920
      XZZZ      -2.4729   YZZZ       3.3541   ZZZZ    -269.7872
 -----------------------------------------------------------------
Archival summary:
1\1\r3750\SP\ProcedureUnspecified\6-31+G*\6211211\hio507\TueDec1023:54:132019TueDec1023:54:132019\0\\#,ProcedureUnspecified,6-31+G*,\\0,1\F\C,1,1.33628\F,2,1.33861,1,106.885\F,2,1.33881,1,107.764,3,114.471,0\C,2,1.51573,1,112.174,3,-122.367,0\C,5,1.3885,2,116.52,1,138.881,0\H,6,1.07894,5,120.058,2,-1.60534,0\C,6,1.3987,5,120.092,2,178.746,0\C,8,1.39517,6,119.052,5,0.198219,0\H,9,1.08509,8,119.987,6,179.782,0\C,9,1.38332,8,120.449,6,-0.45876,0\H,11,1.08216,9,119.377,8,-179.487,0\C,11,1.39106,9,121.095,8,-0.00611647,0\N,8,1.39578,6,123.268,5,179.991,0\H,14,1.00942,8,117.259,6,-179.196,0\C,14,1.37554,8,127.617,6,1.64537,0\O,16,1.20232,14,126.357,8,-0.486445,0\O,16,1.34159,14,108.771,8,179.526,0\C,18,1.43736,16,115.378,14,179.942,0\H,19,1.0926,18,108.751,16,58.5746,0\H,19,1.09262,18,108.748,16,-58.6897,0\C,13,1.51002,11,117.683,9,179.161,0\F,22,1.3359,13,112.59,11,137.919,0\F,22,1.33963,13,112.202,11,-100.454,0\F,22,1.34346,13,110.856,11,18.3739,0\C,19,1.51318,18,107.678,16,179.943,0\H,26,1.09337,19,109.014,18,58.2092,0\H,26,1.09337,19,109.012,18,-58.2805,0\C,26,1.52631,19,110.889,18,179.964,0\H,29,1.09059,26,111.006,19,179.984,0\H,29,1.09265,26,111.303,19,-60.1084,0\H,29,1.09265,26,111.306,19,60.0748,0\\HF=-1261.72721\\@

 Total job time:  132954.00s(wall), 861769.52s(cpu) 
 Tue Dec 10 23:54:13 2019

        *************************************************************
        *                                                           *
        *  Thank you very much for using Q-Chem.  Have a nice day.  *
        *                                                           *
        *************************************************************


0 sent ACK to 0 
now end server 0 ... 
