 Entering Gaussian System, Link 0=/apps/gaussian/g09e01/g09/g09
 Initial command:
 /apps/gaussian/g09e01/g09/l1.exe "/jobfs/local/3588766.r-man2/Gau-19864.inp" -scrdir="/jobfs/local/3588766.r-man2/"
 Entering Link 1 = /apps/gaussian/g09e01/g09/l1.exe PID=     19869.
  
 Copyright (c) 1988,1990,1992,1993,1995,1998,2003,2009,2015,
            Gaussian, Inc.  All Rights Reserved.
  
 This is part of the Gaussian(R) 09 program.  It is based on
 the Gaussian(R) 03 system (copyright 2003, Gaussian, Inc.),
 the Gaussian(R) 98 system (copyright 1998, Gaussian, Inc.),
 the Gaussian(R) 94 system (copyright 1995, Gaussian, Inc.),
 the Gaussian 92(TM) system (copyright 1992, Gaussian, Inc.),
 the Gaussian 90(TM) system (copyright 1990, Gaussian, Inc.),
 the Gaussian 88(TM) system (copyright 1988, Gaussian, Inc.),
 the Gaussian 86(TM) system (copyright 1986, Carnegie Mellon
 University), and the Gaussian 82(TM) system (copyright 1983,
 Carnegie Mellon University). Gaussian is a federally registered
 trademark of Gaussian, Inc.
  
 This software contains proprietary and confidential information,
 including trade secrets, belonging to Gaussian, Inc.
  
 This software is provided under written license and may be
 used, copied, transmitted, or stored only in accord with that
 written license.
  
 The following legend is applicable only to US Government
 contracts under FAR:
  
                    RESTRICTED RIGHTS LEGEND
  
 Use, reproduction and disclosure by the US Government is
 subject to restrictions as set forth in subparagraphs (a)
 and (c) of the Commercial Computer Software - Restricted
 Rights clause in FAR 52.227-19.
  
 Gaussian, Inc.
 340 Quinnipiac St., Bldg. 40, Wallingford CT 06492
  
  
 ---------------------------------------------------------------
 Warning -- This program may not be used in any manner that
 competes with the business of Gaussian, Inc. or will provide
 assistance to any competitor of Gaussian, Inc.  The licensee
 of this program is prohibited from giving any competitor of
 Gaussian, Inc. access to this program.  By using this program,
 the user acknowledges that Gaussian, Inc. is engaged in the
 business of creating and licensing software in the field of
 computational chemistry and represents and warrants to the
 licensee that it is not a competitor of Gaussian, Inc. and that
 it will not use this program in any manner prohibited above.
 ---------------------------------------------------------------
  

 Cite this work as:
 Gaussian 09, Revision E.01,
 M. J. Frisch, G. W. Trucks, H. B. Schlegel, G. E. Scuseria, 
 M. A. Robb, J. R. Cheeseman, G. Scalmani, V. Barone, B. Mennucci, 
 G. A. Petersson, H. Nakatsuji, M. Caricato, X. Li, H. P. Hratchian, 
 A. F. Izmaylov, J. Bloino, G. Zheng, J. L. Sonnenberg, M. Hada, 
 M. Ehara, K. Toyota, R. Fukuda, J. Hasegawa, M. Ishida, T. Nakajima, 
 Y. Honda, O. Kitao, H. Nakai, T. Vreven, J. A. Montgomery, Jr., 
 J. E. Peralta, F. Ogliaro, M. Bearpark, J. J. Heyd, E. Brothers, 
 K. N. Kudin, V. N. Staroverov, T. Keith, R. Kobayashi, J. Normand, 
 K. Raghavachari, A. Rendell, J. C. Burant, S. S. Iyengar, J. Tomasi, 
 M. Cossi, N. Rega, J. M. Millam, M. Klene, J. E. Knox, J. B. Cross, 
 V. Bakken, C. Adamo, J. Jaramillo, R. Gomperts, R. E. Stratmann, 
 O. Yazyev, A. J. Austin, R. Cammi, C. Pomelli, J. W. Ochterski, 
 R. L. Martin, K. Morokuma, V. G. Zakrzewski, G. A. Voth, 
 P. Salvador, J. J. Dannenberg, S. Dapprich, A. D. Daniels, 
 O. Farkas, J. B. Foresman, J. V. Ortiz, J. Cioslowski, 
 and D. J. Fox, Gaussian, Inc., Wallingford CT, 2013.
 
 ******************************************
 Gaussian 09:  ES64L-G09RevE.01 30-Nov-2015
                14-Nov-2019 
 ******************************************
 %chk=NM2CA.M062X_6-311pGd_opt_water_GD3.chk
 %mem=196608000
 %nproc=8
 Will use up to    8 processors via shared memory.
 ----------------------------------------------------------------------
 # M062X/6-311+G* SCF=Tight INT(grid=ultrafine) OPT IOP(2/17=4) Empiric
 alDispersion=GD3 SCRF=(SMD,Solvent=h2o) maxdisk=2684354560
 ----------------------------------------------------------------------
 1/14=-1,18=20,19=15,26=4,38=1/1,3;
 2/9=110,12=2,17=4,18=5,40=1/2;
 3/5=4,6=6,7=11,11=2,16=1,25=1,30=1,70=32201,71=1,72=1,74=-55,75=-5,124=31/1,2,3;
 4//1;
 5/5=2,32=2,38=5,53=1/2;
 6/7=2,8=2,9=2,10=2,28=1/1;
 7//1,2,3,16;
 1/14=-1,18=20,19=15,26=4/3(2);
 2/9=110,17=4/2;
 99//99;
 2/9=110,17=4/2;
 3/5=4,6=6,7=11,11=2,16=1,25=1,30=1,70=32205,71=1,72=1,74=-55,75=-5,124=31/1,2,3;
 4/5=5,16=3,69=1/1;
 5/5=2,32=2,38=5,53=1/2;
 7//1,2,3,16;
 1/14=-1,18=20,19=15,26=4/3(-5);
 2/9=110,17=4/2;
 6/7=2,8=2,9=2,10=2,19=2,28=1/1;
 99/9=1/99;
 ----------------------------------
 NM2CA.M062X_6-311pGd_opt_water_GD3
 ----------------------------------
 Symbolic Z-matrix:
 Charge =  0 Multiplicity = 1
 C                    -5.85111   1.22184   0.2216 
 N                    -4.57067   0.67105   0.17037 
 C                    -3.37565   1.32793   0.1 
 O                    -3.22163   2.53232   0.09175 
 O                    -2.37794   0.44047   0.03958 
 C                    -1.04399   0.98672  -0.04639 
 C                    -0.07912  -0.17493  -0.1137 
 C                     1.35676   0.33015  -0.20356 
 C                    -6.10154   2.59691   0.27421 
 C                    -7.40784   3.06443   0.3189 
 C                    -8.48938   2.1744    0.32922 
 C                    -8.22663   0.80861   0.27325 
 C                    -6.92875   0.33421   0.22015 
 H                    -4.51522  -0.34051   0.15023 
 H                    -0.86451   1.60693   0.83417 
 H                    -0.9816    1.61245  -0.939 
 H                    -0.32006  -0.79075  -0.98446 
 H                    -0.20699  -0.799     0.77493 
 H                     1.50298   0.94541  -1.09491 
 H                     2.05955  -0.50305  -0.25356 
 H                     1.61653   0.93551   0.6685 
 H                    -5.2816    3.29693   0.27667 
 H                    -6.74617  -0.73366   0.17682 
 C                    -9.92922   2.60982   0.35743 
 C                    -7.58642   4.56258   0.39559 
 H                    -9.04485   0.10019   0.27206 
 F                    -10.15383   3.61723   1.21625 
 F                    -10.74079   1.60885   0.72689 
 F                    -10.36743   3.02258  -0.8463 
 F                    -6.48523   5.21901   0.00954 
 F                    -7.85544   4.9769    1.64536 
 F                    -8.58456   5.00103  -0.38611 
 

 GradGradGradGradGradGradGradGradGradGradGradGradGradGradGradGradGradGrad
 Berny optimization.
 Initialization pass.
                           ----------------------------
                           !    Initial Parameters    !
                           ! (Angstroms and Degrees)  !
 --------------------------                            --------------------------
 ! Name  Definition              Value          Derivative Info.                !
 --------------------------------------------------------------------------------
 ! R1    R(1,2)                  1.3948         estimate D2E/DX2                !
 ! R2    R(1,9)                  1.3987         estimate D2E/DX2                !
 ! R3    R(1,13)                 1.3961         estimate D2E/DX2                !
 ! R4    R(2,3)                  1.3655         estimate D2E/DX2                !
 ! R5    R(2,14)                 1.0133         estimate D2E/DX2                !
 ! R6    R(3,4)                  1.2142         estimate D2E/DX2                !
 ! R7    R(3,5)                  1.3367         estimate D2E/DX2                !
 ! R8    R(5,6)                  1.444          estimate D2E/DX2                !
 ! R9    R(6,7)                  1.5116         estimate D2E/DX2                !
 ! R10   R(6,15)                 1.0919         estimate D2E/DX2                !
 ! R11   R(6,16)                 1.0919         estimate D2E/DX2                !
 ! R12   R(7,8)                  1.5248         estimate D2E/DX2                !
 ! R13   R(7,17)                 1.0934         estimate D2E/DX2                !
 ! R14   R(7,18)                 1.0934         estimate D2E/DX2                !
 ! R15   R(8,19)                 1.0929         estimate D2E/DX2                !
 ! R16   R(8,20)                 1.0912         estimate D2E/DX2                !
 ! R17   R(8,21)                 1.0929         estimate D2E/DX2                !
 ! R18   R(9,10)                 1.3882         estimate D2E/DX2                !
 ! R19   R(9,22)                 1.0781         estimate D2E/DX2                !
 ! R20   R(10,11)                1.4007         estimate D2E/DX2                !
 ! R21   R(10,25)                1.5107         estimate D2E/DX2                !
 ! R22   R(11,12)                1.392          estimate D2E/DX2                !
 ! R23   R(11,24)                1.5045         estimate D2E/DX2                !
 ! R24   R(12,13)                1.3829         estimate D2E/DX2                !
 ! R25   R(12,26)                1.0823         estimate D2E/DX2                !
 ! R26   R(13,23)                1.0842         estimate D2E/DX2                !
 ! R27   R(24,27)                1.3427         estimate D2E/DX2                !
 ! R28   R(24,28)                1.3406         estimate D2E/DX2                !
 ! R29   R(24,29)                1.3459         estimate D2E/DX2                !
 ! R30   R(25,30)                1.3389         estimate D2E/DX2                !
 ! R31   R(25,31)                1.3439         estimate D2E/DX2                !
 ! R32   R(25,32)                1.3415         estimate D2E/DX2                !
 ! A1    A(2,1,9)              123.6394         estimate D2E/DX2                !
 ! A2    A(2,1,13)             117.2249         estimate D2E/DX2                !
 ! A3    A(9,1,13)             119.1356         estimate D2E/DX2                !
 ! A4    A(1,2,3)              127.9759         estimate D2E/DX2                !
 ! A5    A(1,2,14)             116.4348         estimate D2E/DX2                !
 ! A6    A(3,2,14)             115.5523         estimate D2E/DX2                !
 ! A7    A(2,3,4)              126.053          estimate D2E/DX2                !
 ! A8    A(2,3,5)              109.644          estimate D2E/DX2                !
 ! A9    A(4,3,5)              124.3031         estimate D2E/DX2                !
 ! A10   A(3,5,6)              116.1713         estimate D2E/DX2                !
 ! A11   A(5,6,7)              107.5536         estimate D2E/DX2                !
 ! A12   A(5,6,15)             108.5844         estimate D2E/DX2                !
 ! A13   A(5,6,16)             108.5568         estimate D2E/DX2                !
 ! A14   A(7,6,15)             111.5613         estimate D2E/DX2                !
 ! A15   A(7,6,16)             111.5634         estimate D2E/DX2                !
 ! A16   A(15,6,16)            108.9269         estimate D2E/DX2                !
 ! A17   A(6,7,8)              110.4361         estimate D2E/DX2                !
 ! A18   A(6,7,17)             109.1252         estimate D2E/DX2                !
 ! A19   A(6,7,18)             109.135          estimate D2E/DX2                !
 ! A20   A(8,7,17)             110.3128         estimate D2E/DX2                !
 ! A21   A(8,7,18)             110.3094         estimate D2E/DX2                !
 ! A22   A(17,7,18)            107.4582         estimate D2E/DX2                !
 ! A23   A(7,8,19)             111.1331         estimate D2E/DX2                !
 ! A24   A(7,8,20)             110.8727         estimate D2E/DX2                !
 ! A25   A(7,8,21)             111.1179         estimate D2E/DX2                !
 ! A26   A(19,8,20)            107.8381         estimate D2E/DX2                !
 ! A27   A(19,8,21)            107.8874         estimate D2E/DX2                !
 ! A28   A(20,8,21)            107.8441         estimate D2E/DX2                !
 ! A29   A(1,9,10)             120.0531         estimate D2E/DX2                !
 ! A30   A(1,9,22)             120.1488         estimate D2E/DX2                !
 ! A31   A(10,9,22)            119.7977         estimate D2E/DX2                !
 ! A32   A(9,10,11)            120.8532         estimate D2E/DX2                !
 ! A33   A(9,10,25)            116.5426         estimate D2E/DX2                !
 ! A34   A(11,10,25)           122.5807         estimate D2E/DX2                !
 ! A35   A(10,11,12)           118.5174         estimate D2E/DX2                !
 ! A36   A(10,11,24)           123.7237         estimate D2E/DX2                !
 ! A37   A(12,11,24)           117.7345         estimate D2E/DX2                !
 ! A38   A(11,12,13)           121.0173         estimate D2E/DX2                !
 ! A39   A(11,12,26)           119.9731         estimate D2E/DX2                !
 ! A40   A(13,12,26)           119.0095         estimate D2E/DX2                !
 ! A41   A(1,13,12)            120.4171         estimate D2E/DX2                !
 ! A42   A(1,13,23)            119.7515         estimate D2E/DX2                !
 ! A43   A(12,13,23)           119.8314         estimate D2E/DX2                !
 ! A44   A(11,24,27)           112.9063         estimate D2E/DX2                !
 ! A45   A(11,24,28)           111.6196         estimate D2E/DX2                !
 ! A46   A(11,24,29)           112.5561         estimate D2E/DX2                !
 ! A47   A(27,24,28)           106.4196         estimate D2E/DX2                !
 ! A48   A(27,24,29)           106.7084         estimate D2E/DX2                !
 ! A49   A(28,24,29)           106.1634         estimate D2E/DX2                !
 ! A50   A(10,25,30)           111.9841         estimate D2E/DX2                !
 ! A51   A(10,25,31)           112.1243         estimate D2E/DX2                !
 ! A52   A(10,25,32)           112.4885         estimate D2E/DX2                !
 ! A53   A(30,25,31)           106.3581         estimate D2E/DX2                !
 ! A54   A(30,25,32)           106.4815         estimate D2E/DX2                !
 ! A55   A(31,25,32)           106.9902         estimate D2E/DX2                !
 ! D1    D(9,1,2,3)             -3.2949         estimate D2E/DX2                !
 ! D2    D(9,1,2,14)           179.0365         estimate D2E/DX2                !
 ! D3    D(13,1,2,3)           176.7442         estimate D2E/DX2                !
 ! D4    D(13,1,2,14)           -0.9245         estimate D2E/DX2                !
 ! D5    D(2,1,9,10)           179.7907         estimate D2E/DX2                !
 ! D6    D(2,1,9,22)             0.0067         estimate D2E/DX2                !
 ! D7    D(13,1,9,10)           -0.249          estimate D2E/DX2                !
 ! D8    D(13,1,9,22)          179.967          estimate D2E/DX2                !
 ! D9    D(2,1,13,12)          179.8103         estimate D2E/DX2                !
 ! D10   D(2,1,13,23)           -0.2066         estimate D2E/DX2                !
 ! D11   D(9,1,13,12)           -0.1524         estimate D2E/DX2                !
 ! D12   D(9,1,13,23)          179.8306         estimate D2E/DX2                !
 ! D13   D(1,2,3,4)              1.306          estimate D2E/DX2                !
 ! D14   D(1,2,3,5)           -178.6663         estimate D2E/DX2                !
 ! D15   D(14,2,3,4)           178.9921         estimate D2E/DX2                !
 ! D16   D(14,2,3,5)            -0.9802         estimate D2E/DX2                !
 ! D17   D(2,3,5,6)            179.6826         estimate D2E/DX2                !
 ! D18   D(4,3,5,6)             -0.2903         estimate D2E/DX2                !
 ! D19   D(3,5,6,7)           -179.6117         estimate D2E/DX2                !
 ! D20   D(3,5,6,15)            59.5238         estimate D2E/DX2                !
 ! D21   D(3,5,6,16)           -58.7605         estimate D2E/DX2                !
 ! D22   D(5,6,7,8)           -179.8819         estimate D2E/DX2                !
 ! D23   D(5,6,7,17)            58.6975         estimate D2E/DX2                !
 ! D24   D(5,6,7,18)           -58.4591         estimate D2E/DX2                !
 ! D25   D(15,6,7,8)           -60.9079         estimate D2E/DX2                !
 ! D26   D(15,6,7,17)          177.6714         estimate D2E/DX2                !
 ! D27   D(15,6,7,18)           60.5148         estimate D2E/DX2                !
 ! D28   D(16,6,7,8)            61.1767         estimate D2E/DX2                !
 ! D29   D(16,6,7,17)          -60.244          estimate D2E/DX2                !
 ! D30   D(16,6,7,18)         -177.4006         estimate D2E/DX2                !
 ! D31   D(6,7,8,19)           -60.0166         estimate D2E/DX2                !
 ! D32   D(6,7,8,20)          -179.942          estimate D2E/DX2                !
 ! D33   D(6,7,8,21)            60.135          estimate D2E/DX2                !
 ! D34   D(17,7,8,19)           60.6975         estimate D2E/DX2                !
 ! D35   D(17,7,8,20)          -59.228          estimate D2E/DX2                !
 ! D36   D(17,7,8,21)         -179.1509         estimate D2E/DX2                !
 ! D37   D(18,7,8,19)          179.2594         estimate D2E/DX2                !
 ! D38   D(18,7,8,20)           59.3339         estimate D2E/DX2                !
 ! D39   D(18,7,8,21)          -60.589          estimate D2E/DX2                !
 ! D40   D(1,9,10,11)            0.8126         estimate D2E/DX2                !
 ! D41   D(1,9,10,25)          179.0916         estimate D2E/DX2                !
 ! D42   D(22,9,10,11)        -179.4026         estimate D2E/DX2                !
 ! D43   D(22,9,10,25)          -1.1236         estimate D2E/DX2                !
 ! D44   D(9,10,11,12)          -0.955          estimate D2E/DX2                !
 ! D45   D(9,10,11,24)        -179.1131         estimate D2E/DX2                !
 ! D46   D(25,10,11,12)       -179.1279         estimate D2E/DX2                !
 ! D47   D(25,10,11,24)          2.7141         estimate D2E/DX2                !
 ! D48   D(9,10,25,30)          18.7725         estimate D2E/DX2                !
 ! D49   D(9,10,25,31)        -100.6991         estimate D2E/DX2                !
 ! D50   D(9,10,25,32)         138.6572         estimate D2E/DX2                !
 ! D51   D(11,10,25,30)       -162.9809         estimate D2E/DX2                !
 ! D52   D(11,10,25,31)         77.5476         estimate D2E/DX2                !
 ! D53   D(11,10,25,32)        -43.0962         estimate D2E/DX2                !
 ! D54   D(10,11,12,13)          0.5501         estimate D2E/DX2                !
 ! D55   D(10,11,12,26)       -179.523          estimate D2E/DX2                !
 ! D56   D(24,11,12,13)        178.8193         estimate D2E/DX2                !
 ! D57   D(24,11,12,26)         -1.2538         estimate D2E/DX2                !
 ! D58   D(10,11,24,27)        -43.1491         estimate D2E/DX2                !
 ! D59   D(10,11,24,28)       -162.9875         estimate D2E/DX2                !
 ! D60   D(10,11,24,29)         77.7465         estimate D2E/DX2                !
 ! D61   D(12,11,24,27)        138.6794         estimate D2E/DX2                !
 ! D62   D(12,11,24,28)         18.841          estimate D2E/DX2                !
 ! D63   D(12,11,24,29)       -100.425          estimate D2E/DX2                !
 ! D64   D(11,12,13,1)          -0.0041         estimate D2E/DX2                !
 ! D65   D(11,12,13,23)       -179.9872         estimate D2E/DX2                !
 ! D66   D(26,12,13,1)        -179.9317         estimate D2E/DX2                !
 ! D67   D(26,12,13,23)          0.0853         estimate D2E/DX2                !
 --------------------------------------------------------------------------------
 Trust Radius=3.00D-01 FncErr=1.00D-07 GrdErr=1.00D-06
 Number of steps in this run=    164 maximum allowed number of steps=    192.
 GradGradGradGradGradGradGradGradGradGradGradGradGradGradGradGradGradGrad

                          Input orientation:                          
 ---------------------------------------------------------------------
 Center     Atomic      Atomic             Coordinates (Angstroms)
 Number     Number       Type             X           Y           Z
 ---------------------------------------------------------------------
      1          6           0       -5.851111    1.221836    0.221598
      2          7           0       -4.570671    0.671046    0.170374
      3          6           0       -3.375652    1.327929    0.099998
      4          8           0       -3.221629    2.532316    0.091749
      5          8           0       -2.377940    0.440466    0.039578
      6          6           0       -1.043991    0.986717   -0.046389
      7          6           0       -0.079123   -0.174929   -0.113698
      8          6           0        1.356760    0.330147   -0.203555
      9          6           0       -6.101543    2.596915    0.274206
     10          6           0       -7.407842    3.064428    0.318899
     11          6           0       -8.489376    2.174397    0.329216
     12          6           0       -8.226630    0.808606    0.273255
     13          6           0       -6.928749    0.334214    0.220149
     14          1           0       -4.515222   -0.340512    0.150235
     15          1           0       -0.864512    1.606928    0.834172
     16          1           0       -0.981597    1.612449   -0.938996
     17          1           0       -0.320062   -0.790750   -0.984457
     18          1           0       -0.206989   -0.799000    0.774934
     19          1           0        1.502983    0.945414   -1.094906
     20          1           0        2.059553   -0.503053   -0.253556
     21          1           0        1.616531    0.935507    0.668504
     22          1           0       -5.281598    3.296929    0.276672
     23          1           0       -6.746166   -0.733664    0.176821
     24          6           0       -9.929219    2.609824    0.357429
     25          6           0       -7.586424    4.562580    0.395591
     26          1           0       -9.044848    0.100187    0.272060
     27          9           0      -10.153828    3.617227    1.216247
     28          9           0      -10.740788    1.608849    0.726888
     29          9           0      -10.367428    3.022582   -0.846302
     30          9           0       -6.485226    5.219011    0.009542
     31          9           0       -7.855437    4.976896    1.645356
     32          9           0       -8.584555    5.001029   -0.386111
 ---------------------------------------------------------------------
                    Distance matrix (angstroms):
                    1          2          3          4          5
     1  C    0.000000
     2  N    1.394820   0.000000
     3  C    2.480714   1.365474   0.000000
     4  O    2.940816   2.300093   1.214224   0.000000
     5  O    3.564631   2.208698   1.336664   2.256185   0.000000
     6  C    4.820322   3.547408   2.361037   2.673960   1.444022
     7  C    5.948044   4.579342   3.629236   4.152918   2.384693
     8  C    7.275251   5.948990   4.845972   5.089047   3.744232
     9  C    1.398686   2.462381   3.011836   2.886411   4.309355
    10  C    2.414129   3.714818   4.395668   4.226005   5.680062
    11  C    2.807026   4.200184   5.188374   5.285230   6.359250
    12  C    2.411746   3.659993   4.881773   5.296618   5.864922
    13  C    1.396130   2.382533   3.691396   4.311714   4.555630
    14  H    2.056848   1.013276   2.021098   3.151182   2.278189
    15  H    5.038821   3.879706   2.631098   2.638851   2.069414
    16  H    5.021128   3.872776   2.625254   2.631793   2.069039
    17  H    6.008126   4.640922   3.873173   4.540934   2.607566
    18  H    6.020471   4.644163   3.875537   4.544498   2.605772
    19  H    7.476115   6.210112   5.037380   5.123316   4.074750
    20  H    8.110464   6.746710   5.746212   6.101113   4.546152
    21  H    7.486480   6.212853   5.039750   5.127400   4.073869
    22  H    2.152530   2.722495   2.746053   2.205063   4.080052
    23  H    2.151072   2.589600   3.951763   4.805854   4.525353
    24  C    4.309980   5.701570   6.682722   6.713298   7.863140
    25  C    3.768574   4.928441   5.317983   4.823456   6.651833
    26  H    3.385351   4.511594   5.803166   6.313291   6.679634
    27  F    5.024002   6.398866   7.240896   7.106119   8.481793
    28  F    4.930926   6.265742   7.397103   7.602233   8.471998
    29  F    4.977973   6.337645   7.256188   7.223763   8.442987
    30  F    4.052712   4.937143   4.981783   4.228020   6.301206
    31  F    4.488304   5.612985   5.980933   5.464599   7.291138
    32  F    4.703544   5.930405   6.392233   5.923164   7.713755
                    6          7          8          9         10
     6  C    0.000000
     7  C    1.511596   0.000000
     8  C    2.493871   1.524775   0.000000
     9  C    5.317363   6.641019   7.809788   0.000000
    10  C    6.704395   8.024381   9.196059   1.388158   0.000000
    11  C    7.548868   8.743447  10.031526   2.425550   1.400706
    12  C    7.191954   8.215774   9.607167   2.777417   2.400257
    13  C    5.926818   6.876631   8.296337   2.409773   2.773688
    14  H    3.721511   4.447027   5.920737   3.340697   4.470941
    15  H    1.091907   2.165712   2.764254   5.359116   6.723464
    16  H    1.091870   2.165709   2.766421   5.353025   6.707247
    17  H    2.136220   1.093393   2.162858   6.818066   8.172989
    18  H    2.136335   1.093380   2.162805   6.821197   8.184517
    19  H    2.754664   2.172786   1.092905   7.901313   9.267786
    20  H    3.448815   2.168216   1.091164   8.745961  10.133419
    21  H    2.755371   2.172591   1.092900   7.904708   9.278676
    22  H    4.837226   6.266732   7.286989   1.078117   2.139335
    23  H    5.960229   6.696719   8.181308   3.393785   3.857914
    24  C    9.041285  10.247010  11.527575   3.828603   2.562322
    25  C    7.468974   8.891734   9.912266   2.466464   1.510706
    26  H    8.056119   8.978236  10.415016   3.859624   3.386548
    27  F    9.565718  10.846608  12.054642   4.283631   2.941303
    28  F    9.747455  10.842488  12.200471   4.764849   3.659740
    29  F    9.576590  10.798611  12.046532   4.431084   3.180975
    30  F    6.893655   8.375437   9.243547   2.663203   2.364138
    31  F    8.073371   9.492451  10.482143   3.258911   2.370097
    32  F    8.549282   9.960278  10.985455   3.518684   2.373209
                   11         12         13         14         15
    11  C    0.000000
    12  C    1.391960   0.000000
    13  C    2.415310   1.382882   0.000000
    14  H    4.706453   3.887179   2.507041   0.000000
    15  H    7.662607   7.426488   6.226700   4.193802   0.000000
    16  H    7.634847   7.389602   6.192424   4.181744   1.777037
    17  H    8.789512   8.164165   6.811120   4.369165   3.058218
    18  H    8.811225   8.194554   6.839153   4.377366   2.494861
    19  H   10.167879   9.826289   8.555527   6.278756   3.124736
    20  H   10.899003  10.382849   9.039635   6.589168   3.766341
    21  H   10.187213   9.851911   8.578134   6.284522   2.575621
    22  H    3.398923   3.855513   3.390277   3.719448   4.762096
    23  H    3.393940   2.140017   1.084241   2.265477   6.364301
    24  C    1.504507   2.479977   3.768298   6.169180   9.132470
    25  C    2.554045   3.810138   4.282802   5.790751   7.356109
    26  H    2.148061   1.082284   2.129633   4.552644   8.336914
    27  F    2.374655   3.534357   4.708664   6.970937   9.512028
    28  F    2.355174   2.677155   4.051311   6.549062   9.876859
    29  F    2.372413   3.276906   4.493234   6.822888   9.753640
    30  F    3.659027   4.749074   4.909410   5.899916   6.731983
    31  F    3.160395   4.403985   4.944133   6.455017   7.803059
    32  F    2.917293   4.259024   4.988828   6.736409   8.521037
                   16         17         18         19         20
    16  H    0.000000
    17  H    2.493002   0.000000
    18  H    3.058211   1.763040   0.000000
    19  H    2.577282   2.519913   3.076246   0.000000
    20  H    3.767462   2.505905   2.506510   1.765134   0.000000
    21  H    3.129309   3.076140   2.518942   1.767090   1.765196
    22  H    4.775492   6.551061   6.540378   7.310362   8.283327
    23  H    6.322938   6.530439   6.566798   8.513816   8.819246
    24  C    9.095901  10.281073  10.310973  11.643659  12.401370
    25  C    7.355823   9.130317   9.129430   9.895595  10.914527
    26  H    8.292744   8.859712   8.897706  10.669571  11.133189
    27  F    9.632966  10.998924  10.892081  12.180364  12.973193
    28  F    9.900353  10.829511  10.805599  12.396331  13.010386
    29  F    9.491622  10.747565  10.975765  12.053344  12.931022
    30  F    6.648079   8.666863   8.730323   9.126606  10.287103
    31  F    8.077626   9.847006   9.623791  10.551867  11.486633
    32  F    8.342250  10.109628  10.255339  10.895358  11.983720
                   21         22         23         24         25
    21  H    0.000000
    22  H    7.301645   0.000000
    23  H    8.541814   4.289593   0.000000
    24  C   11.670666   4.698832   4.619888   0.000000
    25  C    9.895682   2.632155   5.366945   3.050148   0.000000
    26  H   10.701398   4.937736   2.447104   2.662270   4.696298
    27  F   12.084411   4.972326   5.623418   1.342713   2.856350
    28  F   12.375788   5.731934   4.663362   1.340558   4.334085
    29  F   12.258295   5.215554   5.316926   1.345870   3.412899
    30  F    9.188096   2.283524   5.960739   4.334740   1.338870
    31  F   10.344333   3.364555   5.999798   3.400346   1.343851
    32  F   11.031901   3.775284   6.048411   2.842329   1.341477
                   26         27         28         29         30
    26  H    0.000000
    27  F    3.806691   0.000000
    28  F    2.314982   2.148855   0.000000
    29  F    3.397108   2.157159   2.147782   0.000000
    30  F    5.729131   4.180967   5.626514   4.541834   0.000000
    31  F    5.204126   2.704706   4.529081   4.042005   2.147553
    32  F    4.966217   2.635351   4.170730   2.702715   2.147379
                   31         32
    31  F    0.000000
    32  F    2.158483   0.000000
 Stoichiometry    C12H11F6NO2
 Framework group  C1[X(C12H11F6NO2)]
 Deg. of freedom    90
 Full point group                 C1      NOp   1
 Largest Abelian subgroup         C1      NOp   1
 Largest concise Abelian subgroup C1      NOp   1
                         Standard orientation:                         
 ---------------------------------------------------------------------
 Center     Atomic      Atomic             Coordinates (Angstroms)
 Number     Number       Type             X           Y           Z
 ---------------------------------------------------------------------
      1          6           0       -0.516116   -0.938975   -0.046758
      2          7           0       -1.904197   -1.074264   -0.067933
      3          6           0       -2.845546   -0.086442   -0.017060
      4          8           0       -2.627122    1.106854    0.034674
      5          8           0       -4.067186   -0.628701   -0.031912
      6          6           0       -5.175074    0.295740    0.024591
      7          6           0       -6.448985   -0.517741    0.006629
      8          6           0       -7.666556    0.398480    0.061367
      9          6           0        0.141977    0.295145   -0.033076
     10          6           0        1.529076    0.343092   -0.007799
     11          6           0        2.288729   -0.833718   -0.012690
     12          6           0        1.621571   -2.055333   -0.023120
     13          6           0        0.239979   -2.112624   -0.039954
     14          1           0       -2.264853   -2.020889   -0.091532
     15          1           0       -5.114136    0.964952   -0.836050
     16          1           0       -5.088764    0.886068    0.939054
     17          1           0       -6.449621   -1.201248    0.860048
     18          1           0       -6.472685   -1.126560   -0.901258
     19          1           0       -7.663130    1.004443    0.970894
     20          1           0       -8.590578   -0.181769    0.049787
     21          1           0       -7.686948    1.077807   -0.794511
     22          1           0       -0.425770    1.211643   -0.038601
     23          1           0       -0.259890   -3.074732   -0.047649
     24          6           0        3.792358   -0.857489    0.032906
     25          6           0        2.157328    1.716943   -0.015894
     26          1           0        2.185187   -2.979271   -0.019276
     27          9           0        4.354212    0.056508   -0.774439
     28          9           0        4.279224   -2.047782   -0.345588
     29          9           0        4.275026   -0.631059    1.268675
     30          9           0        1.289504    2.667102    0.353769
     31          9           0        2.600841    2.063471   -1.236202
     32          9           0        3.201481    1.808618    0.821304
 ---------------------------------------------------------------------
 Rotational constants (GHZ):      0.7142662      0.1193944      0.1063178
 Standard basis: 6-311+G(d) (5D, 7F)
 There are   516 symmetry adapted cartesian basis functions of A   symmetry.
 There are   495 symmetry adapted basis functions of A   symmetry.
   495 basis functions,   811 primitive gaussians,   516 cartesian basis functions
    80 alpha electrons       80 beta electrons
       nuclear repulsion energy      1786.1700914022 Hartrees.
 NAtoms=   32 NActive=   32 NUniq=   32 SFac= 1.00D+00 NAtFMM=   60 NAOKFM=F Big=F
 Integral buffers will be    131072 words long.
 Raffenetti 2 integral format.
 Two-electron integral symmetry is turned on.
 Nuclear repulsion after empirical dispersion term =     1786.1685659407 Hartrees.
 ------------------------------------------------------------------------------
 Polarizable Continuum Model (PCM)
 =================================
 Model                : PCM (using non-symmetric T matrix).
 Atomic radii         : SMD-Coulomb.
 Polarization charges : Total charges.
 Charge compensation  : None.
 Solution method      : On-the-fly selection.
 Cavity type          : VdW (van der Waals Surface) (Alpha=1.000).
 Cavity algorithm     : GePol (No added spheres)
                        Default sphere list used, NSphG=   32.
                        Lebedev-Laikov grids with approx.  5.0 points / Ang**2.
                        Smoothing algorithm: York/Karplus (Gamma=1.0000).
                        Polarization charges: spherical gaussians, with
                                              point-specific exponents (IZeta= 3).
                        Self-potential: point-specific (ISelfS= 7).
                        Self-field    : sphere-specific E.n sum rule (ISelfD= 2).
 1st derivatives      : Analytical E(r).r(x)/FMM algorithm (CHGder, D1EAlg=3).
                        Cavity 1st derivative terms included.
 Solvent              : Water, Eps=  78.355300 Eps(inf)=   1.777849
 ------------------------------------------------------------------------------
 ------------------------------------------------------------------------------
 Atomic radii for non-electrostatic terms: SMD-CDS.
 ------------------------------------------------------------------------------
 Nuclear repulsion after PCM non-electrostatic terms =     1786.1837283783 Hartrees.
 One-electron integrals computed using PRISM.
 NBasis=   495 RedAO= T EigKep=  1.38D-06  NBF=   495
 NBsUse=   493 1.00D-06 EigRej=  6.73D-07 NBFU=   493
 ExpMin= 4.38D-02 ExpMax= 1.14D+04 ExpMxC= 1.72D+03 IAcc=3 IRadAn=         5 AccDes= 0.00D+00
 Harris functional with IExCor= 1009 and IRadAn=       5 diagonalized for initial guess.
 HarFok:  IExCor= 1009 AccDes= 0.00D+00 IRadAn=         5 IDoV= 1 UseB2=F ITyADJ=14
 ICtDFT=  3500011 ScaDFX=  1.000000  1.000000  1.000000  1.000000
 FoFCou: FMM=F IPFlag=           0 FMFlag=      100000 FMFlg1=           0
         NFxFlg=           0 DoJE=T BraDBF=F KetDBF=T FulRan=T
         wScrn=  0.000000 ICntrl=     500 IOpCl=  0 I1Cent=   200000004 NGrid=           0
         NMat0=    1 NMatS0=      1 NMatT0=    0 NMatD0=    1 NMtDS0=    0 NMtDT0=    0
 Petite list used in FoFCou.
 Requested convergence on RMS density matrix=1.00D-08 within 128 cycles.
 Requested convergence on MAX density matrix=1.00D-06.
 Requested convergence on             energy=1.00D-06.
 No special actions if energy rises.
 Inv3:  Mode=1 IEnd=    16879152.
 Iteration    1 A*A^-1 deviation from unit magnitude is 6.33D-15 for    859.
 Iteration    1 A*A^-1 deviation from orthogonality  is 4.83D-15 for   2173    279.
 Iteration    1 A^-1*A deviation from unit magnitude is 5.00D-15 for   2351.
 Iteration    1 A^-1*A deviation from orthogonality  is 7.89D-11 for   2356   2316.
 Error on total polarization charges =  0.04455
 SCF Done:  E(RM062X) =  -1268.13023659     A.U. after   15 cycles
            NFock= 15  Conv=0.46D-08     -V/T= 2.0030
 SMD-CDS (non-electrostatic) energy       (kcal/mol) =       9.51
 (included in total energy above)

 **********************************************************************

            Population analysis using the SCF density.

 **********************************************************************

 Orbital symmetries:
       Occupied  (A) (A) (A) (A) (A) (A) (A) (A) (A) (A) (A) (A)
                 (A) (A) (A) (A) (A) (A) (A) (A) (A) (A) (A) (A)
                 (A) (A) (A) (A) (A) (A) (A) (A) (A) (A) (A) (A)
                 (A) (A) (A) (A) (A) (A) (A) (A) (A) (A) (A) (A)
                 (A) (A) (A) (A) (A) (A) (A) (A) (A) (A) (A) (A)
                 (A) (A) (A) (A) (A) (A) (A) (A) (A) (A) (A) (A)
                 (A) (A) (A) (A) (A) (A) (A) (A)
       Virtual   (A) (A) (A) (A) (A) (A) (A) (A) (A) (A) (A) (A)
                 (A) (A) (A) (A) (A) (A) (A) (A) (A) (A) (A) (A)
                 (A) (A) (A) (A) (A) (A) (A) (A) (A) (A) (A) (A)
                 (A) (A) (A) (A) (A) (A) (A) (A) (A) (A) (A) (A)
                 (A) (A) (A) (A) (A) (A) (A) (A) (A) (A) (A) (A)
                 (A) (A) (A) (A) (A) (A) (A) (A) (A) (A) (A) (A)
                 (A) (A) (A) (A) (A) (A) (A) (A) (A) (A) (A) (A)
                 (A) (A) (A) (A) (A) (A) (A) (A) (A) (A) (A) (A)
                 (A) (A) (A) (A) (A) (A) (A) (A) (A) (A) (A) (A)
                 (A) (A) (A) (A) (A) (A) (A) (A) (A) (A) (A) (A)
                 (A) (A) (A) (A) (A) (A) (A) (A) (A) (A) (A) (A)
                 (A) (A) (A) (A) (A) (A) (A) (A) (A) (A) (A) (A)
                 (A) (A) (A) (A) (A) (A) (A) (A) (A) (A) (A) (A)
                 (A) (A) (A) (A) (A) (A) (A) (A) (A) (A) (A) (A)
                 (A) (A) (A) (A) (A) (A) (A) (A) (A) (A) (A) (A)
                 (A) (A) (A) (A) (A) (A) (A) (A) (A) (A) (A) (A)
                 (A) (A) (A) (A) (A) (A) (A) (A) (A) (A) (A) (A)
                 (A) (A) (A) (A) (A) (A) (A) (A) (A) (A) (A) (A)
                 (A) (A) (A) (A) (A) (A) (A) (A) (A) (A) (A) (A)
                 (A) (A) (A) (A) (A) (A) (A) (A) (A) (A) (A) (A)
                 (A) (A) (A) (A) (A) (A) (A) (A) (A) (A) (A) (A)
                 (A) (A) (A) (A) (A) (A) (A) (A) (A) (A) (A) (A)
                 (A) (A) (A) (A) (A) (A) (A) (A) (A) (A) (A) (A)
                 (A) (A) (A) (A) (A) (A) (A) (A) (A) (A) (A) (A)
                 (A) (A) (A) (A) (A) (A) (A) (A) (A) (A) (A) (A)
                 (A) (A) (A) (A) (A) (A) (A) (A) (A) (A) (A) (A)
                 (A) (A) (A) (A) (A) (A) (A) (A) (A) (A) (A) (A)
                 (A) (A) (A) (A) (A) (A) (A) (A) (A) (A) (A) (A)
                 (A) (A) (A) (A) (A) (A) (A) (A) (A) (A) (A) (A)
                 (A) (A) (A) (A) (A) (A) (A) (A) (A) (A) (A) (A)
                 (A) (A) (A) (A) (A) (A) (A) (A) (A) (A) (A) (A)
                 (A) (A) (A) (A) (A) (A) (A) (A) (A) (A) (A) (A)
                 (A) (A) (A) (A) (A) (A) (A) (A) (A) (A) (A) (A)
                 (A) (A) (A) (A) (A) (A) (A) (A) (A) (A) (A) (A)
                 (A) (A) (A) (A) (A)
 The electronic state is 1-A.
 Alpha  occ. eigenvalues --  -25.28911 -25.28860 -25.28766 -25.28694 -25.28574
 Alpha  occ. eigenvalues --  -25.28352 -19.67752 -19.62294 -14.80287 -10.81713
 Alpha  occ. eigenvalues --  -10.81548 -10.71872 -10.62234 -10.59936 -10.59100
 Alpha  occ. eigenvalues --  -10.59071 -10.57301 -10.57026 -10.56576 -10.53096
 Alpha  occ. eigenvalues --  -10.51914  -1.48488  -1.47974  -1.39038  -1.38674
 Alpha  occ. eigenvalues --   -1.38544  -1.38297  -1.25866  -1.15961  -1.08067
 Alpha  occ. eigenvalues --   -1.00296  -0.91482  -0.90405  -0.88828  -0.83572
 Alpha  occ. eigenvalues --   -0.82175  -0.79333  -0.75357  -0.74865  -0.71395
 Alpha  occ. eigenvalues --   -0.70822  -0.70572  -0.70064  -0.69661  -0.68579
 Alpha  occ. eigenvalues --   -0.67224  -0.66154  -0.63668  -0.60280  -0.59410
 Alpha  occ. eigenvalues --   -0.59269  -0.59164  -0.58481  -0.58300  -0.57118
 Alpha  occ. eigenvalues --   -0.56163  -0.54928  -0.54624  -0.53873  -0.53628
 Alpha  occ. eigenvalues --   -0.53219  -0.52939  -0.52420  -0.52214  -0.51393
 Alpha  occ. eigenvalues --   -0.50588  -0.49549  -0.48926  -0.46314  -0.46073
 Alpha  occ. eigenvalues --   -0.45159  -0.43849  -0.42736  -0.40987  -0.40162
 Alpha  occ. eigenvalues --   -0.40060  -0.38227  -0.38125  -0.34143  -0.30071
 Alpha virt. eigenvalues --   -0.02340  -0.00641   0.01244   0.02404   0.02676
 Alpha virt. eigenvalues --    0.03183   0.03710   0.03966   0.04473   0.04823
 Alpha virt. eigenvalues --    0.05274   0.05594   0.06486   0.06674   0.06982
 Alpha virt. eigenvalues --    0.07310   0.07586   0.07715   0.08976   0.09061
 Alpha virt. eigenvalues --    0.09290   0.09358   0.09875   0.11061   0.11710
 Alpha virt. eigenvalues --    0.11976   0.12152   0.12698   0.12880   0.13178
 Alpha virt. eigenvalues --    0.14065   0.14416   0.15430   0.15675   0.16270
 Alpha virt. eigenvalues --    0.16748   0.16947   0.17656   0.18154   0.18490
 Alpha virt. eigenvalues --    0.18695   0.19269   0.20163   0.20285   0.20972
 Alpha virt. eigenvalues --    0.21233   0.21341   0.21615   0.21817   0.22122
 Alpha virt. eigenvalues --    0.22446   0.23227   0.23401   0.23800   0.24179
 Alpha virt. eigenvalues --    0.24749   0.25269   0.25445   0.25991   0.26200
 Alpha virt. eigenvalues --    0.26480   0.26585   0.26673   0.27223   0.27661
 Alpha virt. eigenvalues --    0.27969   0.28141   0.28513   0.28916   0.29377
 Alpha virt. eigenvalues --    0.29764   0.30389   0.30606   0.31143   0.31437
 Alpha virt. eigenvalues --    0.31938   0.32146   0.32221   0.32794   0.33214
 Alpha virt. eigenvalues --    0.33559   0.34355   0.34866   0.35731   0.36247
 Alpha virt. eigenvalues --    0.36770   0.36991   0.37186   0.37834   0.38162
 Alpha virt. eigenvalues --    0.38402   0.38961   0.39603   0.40215   0.40708
 Alpha virt. eigenvalues --    0.41078   0.41249   0.41919   0.43000   0.43261
 Alpha virt. eigenvalues --    0.43610   0.44400   0.44469   0.45080   0.45723
 Alpha virt. eigenvalues --    0.46842   0.47059   0.47563   0.48355   0.49258
 Alpha virt. eigenvalues --    0.49630   0.49975   0.51431   0.52162   0.52478
 Alpha virt. eigenvalues --    0.53038   0.54519   0.55062   0.55861   0.56441
 Alpha virt. eigenvalues --    0.56952   0.57260   0.59033   0.59992   0.60669
 Alpha virt. eigenvalues --    0.61010   0.61995   0.62971   0.63969   0.64414
 Alpha virt. eigenvalues --    0.64770   0.66640   0.67099   0.68221   0.68871
 Alpha virt. eigenvalues --    0.69306   0.69852   0.70264   0.70770   0.71393
 Alpha virt. eigenvalues --    0.72067   0.72696   0.73706   0.74292   0.74868
 Alpha virt. eigenvalues --    0.75125   0.76724   0.76890   0.78045   0.78610
 Alpha virt. eigenvalues --    0.78804   0.79463   0.80386   0.81389   0.81841
 Alpha virt. eigenvalues --    0.82522   0.84720   0.86073   0.88076   0.89037
 Alpha virt. eigenvalues --    0.90298   0.92553   0.94027   0.94502   0.95089
 Alpha virt. eigenvalues --    0.96864   0.98197   0.99709   1.01241   1.03708
 Alpha virt. eigenvalues --    1.04800   1.04839   1.05451   1.06676   1.08661
 Alpha virt. eigenvalues --    1.10536   1.11204   1.11819   1.12966   1.14711
 Alpha virt. eigenvalues --    1.14993   1.15410   1.17613   1.19011   1.20885
 Alpha virt. eigenvalues --    1.22313   1.22812   1.23613   1.24487   1.25007
 Alpha virt. eigenvalues --    1.31357   1.31998   1.35839   1.38596   1.38955
 Alpha virt. eigenvalues --    1.39669   1.40880   1.41565   1.43309   1.44132
 Alpha virt. eigenvalues --    1.44579   1.46685   1.47796   1.48074   1.48684
 Alpha virt. eigenvalues --    1.49676   1.50352   1.50614   1.51512   1.52434
 Alpha virt. eigenvalues --    1.53078   1.53738   1.54235   1.55038   1.56112
 Alpha virt. eigenvalues --    1.56840   1.57840   1.58044   1.58742   1.59362
 Alpha virt. eigenvalues --    1.60339   1.61005   1.61382   1.62115   1.62273
 Alpha virt. eigenvalues --    1.63436   1.63866   1.64912   1.66239   1.69050
 Alpha virt. eigenvalues --    1.71960   1.74042   1.76435   1.77477   1.79419
 Alpha virt. eigenvalues --    1.79551   1.79685   1.80098   1.80831   1.83625
 Alpha virt. eigenvalues --    1.83815   1.85190   1.87391   1.87455   1.88091
 Alpha virt. eigenvalues --    1.89518   1.90838   1.91909   1.94883   1.97050
 Alpha virt. eigenvalues --    1.99447   1.99683   2.01807   2.03459   2.03741
 Alpha virt. eigenvalues --    2.04517   2.09026   2.09830   2.11357   2.12003
 Alpha virt. eigenvalues --    2.14604   2.16323   2.18829   2.20622   2.22065
 Alpha virt. eigenvalues --    2.23710   2.26650   2.36222   2.36951   2.37800
 Alpha virt. eigenvalues --    2.41184   2.42382   2.42874   2.44768   2.51410
 Alpha virt. eigenvalues --    2.53213   2.56188   2.57294   2.58721   2.60239
 Alpha virt. eigenvalues --    2.60921   2.63076   2.66247   2.69853   2.71356
 Alpha virt. eigenvalues --    2.73945   2.75909   2.81184   2.82381   2.85141
 Alpha virt. eigenvalues --    2.86434   2.91566   2.92816   2.95006   2.96030
 Alpha virt. eigenvalues --    2.98710   2.98920   3.01047   3.02347   3.04130
 Alpha virt. eigenvalues --    3.05100   3.06168   3.07927   3.09980   3.12636
 Alpha virt. eigenvalues --    3.13089   3.14563   3.19170   3.19540   3.22076
 Alpha virt. eigenvalues --    3.24994   3.29897   3.30064   3.30852   3.34747
 Alpha virt. eigenvalues --    3.38049   3.39884   3.41920   3.42973   3.44245
 Alpha virt. eigenvalues --    3.50755   3.53273   3.55823   3.70089   3.71697
 Alpha virt. eigenvalues --    3.74709   3.79764   3.80019   3.80292   3.82801
 Alpha virt. eigenvalues --    3.83658   3.83844   3.84862   3.85396   3.85666
 Alpha virt. eigenvalues --    3.86718   3.87428   3.88198   3.88599   3.90521
 Alpha virt. eigenvalues --    3.91206   3.94234   3.97770   3.98902   4.00431
 Alpha virt. eigenvalues --    4.00749   4.00899   4.02696   4.05528   4.10808
 Alpha virt. eigenvalues --    4.11770   4.13462   4.18852   4.21240   4.22628
 Alpha virt. eigenvalues --    4.27045   4.27862   4.30043   4.31760   4.56313
 Alpha virt. eigenvalues --    4.72278   4.79468   4.81670   4.98680   4.98760
 Alpha virt. eigenvalues --    5.01579   5.02829   5.09760   5.10329   5.15620
 Alpha virt. eigenvalues --    5.36993   5.49813   5.80248   5.96221   6.45878
 Alpha virt. eigenvalues --    6.47835   6.49592   6.49791   6.50803   6.53102
 Alpha virt. eigenvalues --    6.53388   6.54676   6.55475   6.55716   6.58072
 Alpha virt. eigenvalues --    6.62454   6.63222   6.63764   6.87419   6.88787
 Alpha virt. eigenvalues --    6.89204   6.91184  23.46018  23.58132  23.64581
 Alpha virt. eigenvalues --   23.65724  23.73119  23.82955  23.91856  23.93746
 Alpha virt. eigenvalues --   23.97802  24.09064  24.13019  24.20622  35.66879
 Alpha virt. eigenvalues --   50.01965  50.12841  66.89223  66.89491  66.90472
 Alpha virt. eigenvalues --   66.91045  66.95726  66.98073
          Condensed to atoms (all electrons):
               1          2          3          4          5          6
     1  C   25.728992  -0.405060  -0.464063  -0.179383  -0.314376  -0.540223
     2  N   -0.405060   7.504795   0.310126  -0.024176  -0.133721  -0.300225
     3  C   -0.464063   0.310126   8.600426   0.535303   0.334842  -0.641093
     4  O   -0.179383  -0.024176   0.535303   8.151664  -0.186647  -0.179167
     5  O   -0.314376  -0.133721   0.334842  -0.186647   8.266430   0.329920
     6  C   -0.540223  -0.300225  -0.641093  -0.179167   0.329920   8.413323
     7  C   -0.016534   0.028096   0.154124   0.030511  -0.153250  -0.997324
     8  C   -0.017538  -0.008141  -0.281361  -0.000600   0.032896   0.349962
     9  C   -2.868437   0.151517  -0.042144   0.313990   0.003774  -0.423973
    10  C   -5.148730   0.283581   0.658613   0.013761   0.011939  -0.053256
    11  C   -1.758301  -0.022239  -2.230093  -0.003013  -0.015123  -0.208919
    12  C    1.021516  -0.011036   0.144800  -0.002272   0.006832   0.057082
    13  C   -3.978193  -0.149100  -1.363532  -0.055216  -0.042017  -0.086172
    14  H   -0.038464   0.264614  -0.012052  -0.000192   0.014598  -0.001742
    15  H    0.003894   0.003833   0.030253  -0.000914  -0.041684   0.360766
    16  H    0.005657   0.004117   0.028973  -0.000866  -0.041291   0.361233
    17  H   -0.000777  -0.000738   0.003779  -0.000301   0.001414  -0.065228
    18  H    0.000038  -0.000689   0.006684  -0.000302   0.001366  -0.065760
    19  H   -0.000087  -0.000035  -0.001001  -0.000073  -0.000301  -0.049548
    20  H    0.000145   0.000043   0.009646   0.000028  -0.000657   0.092163
    21  H   -0.000187  -0.000035  -0.002636  -0.000064  -0.000320  -0.049369
    22  H    0.091477  -0.024953   0.086924   0.006991   0.002285   0.010439
    23  H    0.031528  -0.016435  -0.017633   0.000090  -0.000621  -0.000953
    24  C   -1.341066   0.002706  -0.357979   0.001092   0.000990  -0.012975
    25  C   -2.994435   0.036987   0.334121  -0.010016   0.003699   0.028412
    26  H   -0.004565  -0.001905   0.003692  -0.000012  -0.000012   0.000045
    27  F   -0.004393   0.000072   0.000195  -0.000003   0.000000   0.000002
    28  F    0.002078  -0.000055  -0.000785   0.000002   0.000000  -0.000009
    29  F    0.003291  -0.000014  -0.000252  -0.000001   0.000000  -0.000003
    30  F    0.223821  -0.000849   0.006898   0.000005  -0.000006   0.000241
    31  F   -0.010444   0.000445  -0.006212   0.000136  -0.000002  -0.000162
    32  F    0.028578   0.000286  -0.000812   0.000008  -0.000001  -0.000007
               7          8          9         10         11         12
     1  C   -0.016534  -0.017538  -2.868437  -5.148730  -1.758301   1.021516
     2  N    0.028096  -0.008141   0.151517   0.283581  -0.022239  -0.011036
     3  C    0.154124  -0.281361  -0.042144   0.658613  -2.230093   0.144800
     4  O    0.030511  -0.000600   0.313990   0.013761  -0.003013  -0.002272
     5  O   -0.153250   0.032896   0.003774   0.011939  -0.015123   0.006832
     6  C   -0.997324   0.349962  -0.423973  -0.053256  -0.208919   0.057082
     7  C    6.543812  -0.171301  -0.009349  -0.005121   0.001376  -0.002955
     8  C   -0.171301   6.163250  -0.017925  -0.001249  -0.001476   0.000606
     9  C   -0.009349  -0.017925  17.235676   4.827645  -8.545015  -1.394033
    10  C   -0.005121  -0.001249   4.827645  40.651486 -15.440091  -1.894104
    11  C    0.001376  -0.001476  -8.545015 -15.440091  52.272413  -8.919321
    12  C   -0.002955   0.000606  -1.394033  -1.894104  -8.919321  16.087844
    13  C    0.015343   0.000592  -4.122497  -6.950687   0.399576  -0.602695
    14  H   -0.002507  -0.000354   0.050096   0.015243   0.009742   0.009264
    15  H   -0.019951  -0.015201  -0.000032   0.000219   0.000210  -0.000029
    16  H   -0.021565  -0.014310  -0.001399   0.000594   0.000180  -0.000090
    17  H    0.448394  -0.045789   0.000445   0.000010   0.000012   0.000007
    18  H    0.445447  -0.045972   0.000516   0.000045   0.000017  -0.000019
    19  H    0.013139   0.381264   0.000000  -0.000001  -0.000000   0.000000
    20  H   -0.130815   0.379190   0.000065   0.000001   0.000001  -0.000001
    21  H    0.013753   0.382184   0.000017  -0.000001  -0.000000   0.000000
    22  H   -0.000567   0.000055   0.367910  -0.126081  -0.117608   0.005862
    23  H   -0.000033   0.000000  -0.037129   0.000752  -0.009858   0.027059
    24  C   -0.000305  -0.000042  -2.811692  -5.817795  -2.286034   1.780061
    25  C   -0.001362   0.000121   2.928952  -4.304799  -6.001157  -0.513303
    26  H    0.000001   0.000000   0.002412   0.037684   0.027254   0.297675
    27  F   -0.000000   0.000000   0.063297  -0.275187  -0.009537   0.063816
    28  F    0.000000  -0.000000   0.004201  -0.001561  -0.119176   0.046464
    29  F   -0.000000  -0.000000   0.011878  -0.030693   0.181627  -0.092101
    30  F    0.000016  -0.000000   0.142401  -0.335760  -0.056305   0.018318
    31  F    0.000001  -0.000000  -0.136196   0.299379  -0.056963   0.010359
    32  F    0.000000   0.000000   0.035556   0.037742  -0.206816   0.042486
              13         14         15         16         17         18
     1  C   -3.978193  -0.038464   0.003894   0.005657  -0.000777   0.000038
     2  N   -0.149100   0.264614   0.003833   0.004117  -0.000738  -0.000689
     3  C   -1.363532  -0.012052   0.030253   0.028973   0.003779   0.006684
     4  O   -0.055216  -0.000192  -0.000914  -0.000866  -0.000301  -0.000302
     5  O   -0.042017   0.014598  -0.041684  -0.041291   0.001414   0.001366
     6  C   -0.086172  -0.001742   0.360766   0.361233  -0.065228  -0.065760
     7  C    0.015343  -0.002507  -0.019951  -0.021565   0.448394   0.445447
     8  C    0.000592  -0.000354  -0.015201  -0.014310  -0.045789  -0.045972
     9  C   -4.122497   0.050096  -0.000032  -0.001399   0.000445   0.000516
    10  C   -6.950687   0.015243   0.000219   0.000594   0.000010   0.000045
    11  C    0.399576   0.009742   0.000210   0.000180   0.000012   0.000017
    12  C   -0.602695   0.009264  -0.000029  -0.000090   0.000007  -0.000019
    13  C   20.825042  -0.047702   0.000427   0.000831  -0.000005  -0.000071
    14  H   -0.047702   0.246442  -0.000032  -0.000030  -0.000008   0.000010
    15  H    0.000427  -0.000032   0.425695  -0.038324   0.004974  -0.007408
    16  H    0.000831  -0.000030  -0.038324   0.425522  -0.007504   0.004941
    17  H   -0.000005  -0.000008   0.004974  -0.007504   0.431335  -0.036229
    18  H   -0.000071   0.000010  -0.007408   0.004941  -0.036229   0.431278
    19  H    0.000005  -0.000000  -0.000347   0.003148  -0.007558   0.005698
    20  H   -0.000018   0.000000  -0.000140  -0.000152  -0.003093  -0.003106
    21  H    0.000004  -0.000000   0.003176  -0.000340   0.005716  -0.007602
    22  H   -0.038770   0.000076  -0.000033  -0.000020  -0.000000  -0.000000
    23  H    0.339191   0.003588  -0.000000  -0.000000  -0.000000  -0.000000
    24  C    0.606983   0.002015   0.000003  -0.000001   0.000000   0.000000
    25  C    1.252702   0.000330  -0.000069   0.000030  -0.000001   0.000001
    26  H   -0.010032   0.000010   0.000000   0.000000  -0.000000  -0.000000
    27  F    0.033492   0.000002  -0.000000   0.000000  -0.000000   0.000000
    28  F    0.145402  -0.000000   0.000000   0.000000   0.000000   0.000000
    29  F   -0.016296   0.000000   0.000000  -0.000000   0.000000  -0.000000
    30  F   -0.012407  -0.000004   0.000000   0.000000   0.000000  -0.000000
    31  F   -0.008631   0.000000   0.000000   0.000000  -0.000000   0.000000
    32  F   -0.009427   0.000002  -0.000000   0.000000  -0.000000   0.000000
              19         20         21         22         23         24
     1  C   -0.000087   0.000145  -0.000187   0.091477   0.031528  -1.341066
     2  N   -0.000035   0.000043  -0.000035  -0.024953  -0.016435   0.002706
     3  C   -0.001001   0.009646  -0.002636   0.086924  -0.017633  -0.357979
     4  O   -0.000073   0.000028  -0.000064   0.006991   0.000090   0.001092
     5  O   -0.000301  -0.000657  -0.000320   0.002285  -0.000621   0.000990
     6  C   -0.049548   0.092163  -0.049369   0.010439  -0.000953  -0.012975
     7  C    0.013139  -0.130815   0.013753  -0.000567  -0.000033  -0.000305
     8  C    0.381264   0.379190   0.382184   0.000055   0.000000  -0.000042
     9  C    0.000000   0.000065   0.000017   0.367910  -0.037129  -2.811692
    10  C   -0.000001   0.000001  -0.000001  -0.126081   0.000752  -5.817795
    11  C   -0.000000   0.000001  -0.000000  -0.117608  -0.009858  -2.286034
    12  C    0.000000  -0.000001   0.000000   0.005862   0.027059   1.780061
    13  C    0.000005  -0.000018   0.000004  -0.038770   0.339191   0.606983
    14  H   -0.000000   0.000000  -0.000000   0.000076   0.003588   0.002015
    15  H   -0.000347  -0.000140   0.003176  -0.000033  -0.000000   0.000003
    16  H    0.003148  -0.000152  -0.000340  -0.000020  -0.000000  -0.000001
    17  H   -0.007558  -0.003093   0.005716  -0.000000  -0.000000   0.000000
    18  H    0.005698  -0.003106  -0.007602  -0.000000  -0.000000   0.000000
    19  H    0.443492  -0.024084  -0.036239  -0.000000  -0.000000  -0.000000
    20  H   -0.024084   0.420674  -0.024042   0.000000   0.000000   0.000000
    21  H   -0.036239  -0.024042   0.443545  -0.000000  -0.000000  -0.000000
    22  H   -0.000000   0.000000  -0.000000   0.334167  -0.000011  -0.003991
    23  H   -0.000000   0.000000  -0.000000  -0.000011   0.362339   0.013644
    24  C   -0.000000   0.000000  -0.000000  -0.003991   0.013644  21.381314
    25  C   -0.000000  -0.000000  -0.000000   0.051400   0.000027  -6.434797
    26  H    0.000000  -0.000000   0.000000   0.000040  -0.003138  -0.049744
    27  F   -0.000000   0.000000  -0.000000   0.000008   0.000020   0.023812
    28  F   -0.000000   0.000000  -0.000000  -0.000004   0.000009   0.041448
    29  F   -0.000000   0.000000   0.000000   0.000012   0.000031   0.112710
    30  F    0.000000  -0.000000   0.000000   0.012106  -0.000004   0.002983
    31  F   -0.000000   0.000000  -0.000000  -0.001287  -0.000004   0.008391
    32  F   -0.000000  -0.000000  -0.000000   0.000542  -0.000000   0.240157
              25         26         27         28         29         30
     1  C   -2.994435  -0.004565  -0.004393   0.002078   0.003291   0.223821
     2  N    0.036987  -0.001905   0.000072  -0.000055  -0.000014  -0.000849
     3  C    0.334121   0.003692   0.000195  -0.000785  -0.000252   0.006898
     4  O   -0.010016  -0.000012  -0.000003   0.000002  -0.000001   0.000005
     5  O    0.003699  -0.000012   0.000000   0.000000   0.000000  -0.000006
     6  C    0.028412   0.000045   0.000002  -0.000009  -0.000003   0.000241
     7  C   -0.001362   0.000001  -0.000000   0.000000  -0.000000   0.000016
     8  C    0.000121   0.000000   0.000000  -0.000000  -0.000000  -0.000000
     9  C    2.928952   0.002412   0.063297   0.004201   0.011878   0.142401
    10  C   -4.304799   0.037684  -0.275187  -0.001561  -0.030693  -0.335760
    11  C   -6.001157   0.027254  -0.009537  -0.119176   0.181627  -0.056305
    12  C   -0.513303   0.297675   0.063816   0.046464  -0.092101   0.018318
    13  C    1.252702  -0.010032   0.033492   0.145402  -0.016296  -0.012407
    14  H    0.000330   0.000010   0.000002  -0.000000   0.000000  -0.000004
    15  H   -0.000069   0.000000  -0.000000   0.000000   0.000000   0.000000
    16  H    0.000030   0.000000   0.000000   0.000000  -0.000000   0.000000
    17  H   -0.000001  -0.000000  -0.000000   0.000000   0.000000   0.000000
    18  H    0.000001  -0.000000   0.000000   0.000000  -0.000000  -0.000000
    19  H   -0.000000   0.000000  -0.000000  -0.000000  -0.000000   0.000000
    20  H   -0.000000  -0.000000   0.000000   0.000000   0.000000  -0.000000
    21  H   -0.000000   0.000000  -0.000000  -0.000000   0.000000   0.000000
    22  H    0.051400   0.000040   0.000008  -0.000004   0.000012   0.012106
    23  H    0.000027  -0.003138   0.000020   0.000009   0.000031  -0.000004
    24  C   -6.434797  -0.049744   0.023812   0.041448   0.112710   0.002983
    25  C   20.094426   0.014357   0.258850   0.029606  -0.010568   0.156408
    26  H    0.014357   0.352920   0.000597   0.007229  -0.000513   0.000007
    27  F    0.258850   0.000597   9.002880  -0.026271  -0.036841   0.001697
    28  F    0.029606   0.007229  -0.026271   9.029269  -0.041564   0.000079
    29  F   -0.010568  -0.000513  -0.036841  -0.041564   8.977740   0.000075
    30  F    0.156408   0.000007   0.001697   0.000079   0.000075   9.021111
    31  F    0.076088   0.000005   0.003596   0.000135  -0.001070  -0.041157
    32  F   -0.013067   0.000025  -0.005123   0.001672   0.002689  -0.025373
              31         32
     1  C   -0.010444   0.028578
     2  N    0.000445   0.000286
     3  C   -0.006212  -0.000812
     4  O    0.000136   0.000008
     5  O   -0.000002  -0.000001
     6  C   -0.000162  -0.000007
     7  C    0.000001   0.000000
     8  C   -0.000000   0.000000
     9  C   -0.136196   0.035556
    10  C    0.299379   0.037742
    11  C   -0.056963  -0.206816
    12  C    0.010359   0.042486
    13  C   -0.008631  -0.009427
    14  H    0.000000   0.000002
    15  H    0.000000  -0.000000
    16  H    0.000000   0.000000
    17  H   -0.000000  -0.000000
    18  H    0.000000   0.000000
    19  H   -0.000000  -0.000000
    20  H    0.000000  -0.000000
    21  H   -0.000000  -0.000000
    22  H   -0.001287   0.000542
    23  H   -0.000004  -0.000000
    24  C    0.008391   0.240157
    25  C    0.076088  -0.013067
    26  H    0.000005   0.000025
    27  F    0.003596  -0.005123
    28  F    0.000135   0.001672
    29  F   -0.001070   0.002689
    30  F   -0.041157  -0.025373
    31  F    8.949797  -0.036204
    32  F   -0.036204   8.993272
 Mulliken charges:
               1
     1  C   -1.055762
     2  N   -0.491812
     3  C    0.172247
     4  O   -0.410365
     5  O   -0.080955
     6  C   -0.327480
     7  C   -0.161073
     8  C   -1.068862
     9  C    0.269472
    10  C   -0.453578
    11  C   -0.885363
    12  C   -0.188093
    13  C   -0.126120
    14  H    0.487053
    15  H    0.290711
    16  H    0.290667
    17  H    0.271144
    18  H    0.271117
    19  H    0.272526
    20  H    0.284150
    21  H    0.272440
    22  H    0.343030
    23  H    0.307543
    24  C    0.898112
    25  C    1.017055
    26  H    0.325966
    27  F   -0.094980
    28  F   -0.118167
    29  F   -0.060137
    30  F   -0.114300
    31  F   -0.050002
    32  F   -0.086185
 Sum of Mulliken charges =  -0.00000
 Mulliken charges with hydrogens summed into heavy atoms:
               1
     1  C   -1.055762
     2  N   -0.004759
     3  C    0.172247
     4  O   -0.410365
     5  O   -0.080955
     6  C    0.253898
     7  C    0.381189
     8  C   -0.239746
     9  C    0.612502
    10  C   -0.453578
    11  C   -0.885363
    12  C    0.137873
    13  C    0.181422
    24  C    0.898112
    25  C    1.017055
    27  F   -0.094980
    28  F   -0.118167
    29  F   -0.060137
    30  F   -0.114300
    31  F   -0.050002
    32  F   -0.086185
 Electronic spatial extent (au):  <R**2>=           9427.7593
 Charge=              0.0000 electrons
 Dipole moment (field-independent basis, Debye):
    X=             -7.8978    Y=             -6.7019    Z=             -0.1640  Tot=             10.3594
 Quadrupole moment (field-independent basis, Debye-Ang):
   XX=           -115.7423   YY=           -114.2634   ZZ=           -122.1844
   XY=              1.7907   XZ=             -0.1335   YZ=              0.1886
 Traceless Quadrupole moment (field-independent basis, Debye-Ang):
   XX=              1.6544   YY=              3.1333   ZZ=             -4.7877
   XY=              1.7907   XZ=             -0.1335   YZ=              0.1886
 Octapole moment (field-independent basis, Debye-Ang**2):
  XXX=           -161.6502  YYY=            -28.4555  ZZZ=              0.7820  XYY=             22.7730
  XXY=             -3.8880  XXZ=             -1.2254  XZZ=             14.8646  YZZ=             10.6275
  YYZ=              0.1928  XYZ=              1.3146
 Hexadecapole moment (field-independent basis, Debye-Ang**3):
 XXXX=          -9236.1814 YYYY=          -1285.5599 ZZZZ=           -274.8251 XXXY=             55.1494
 XXXZ=            -11.1694 YYYX=             39.7381 YYYZ=             -3.1830 ZZZX=             -0.6461
 ZZZY=              2.1996 XXYY=          -1921.1656 XXZZ=          -1704.7480 YYZZ=           -285.8403
 XXYZ=             -0.5064 YYXZ=              8.9514 ZZXY=              1.5563
 N-N= 1.786183728378D+03 E-N=-6.560458853743D+03  KE= 1.264342502975D+03
 D1PCM: PCM CHGder 1st derivatives, ID1Alg=3 FixD1E=F DoIter=F DoCFld=F I1PDM=0.
 Calling FoFJK, ICntrl=      2127 FMM=F ISym2X=0 I1Cent= 0 IOpClX= 0 NMat=1 NMatS=1 NMatT=0.
 ***** Axes restored to original set *****
 -------------------------------------------------------------------
 Center     Atomic                   Forces (Hartrees/Bohr)
 Number     Number              X              Y              Z
 -------------------------------------------------------------------
      1        6           0.000000350   -0.000000969    0.000003718
      2        7          -0.000000254   -0.000000147    0.000003843
      3        6          -0.000000292    0.000002474    0.000000143
      4        8          -0.000000773    0.000001211   -0.000005577
      5        8           0.000003845    0.000001278    0.000003674
      6        6          -0.000000764    0.000002452   -0.000000042
      7        6           0.000001949    0.000003825    0.000003925
      8        6           0.000000961    0.000004656    0.000000522
      9        6          -0.000001208   -0.000000397   -0.000003655
     10        6          -0.000000799   -0.000002247   -0.000002517
     11        6          -0.000001145   -0.000002985    0.000002590
     12        6           0.000000994   -0.000003410    0.000005355
     13        6           0.000001198   -0.000001853    0.000007373
     14        1           0.000002156    0.000000188    0.000009039
     15        1           0.000000425    0.000007086   -0.000003206
     16        1          -0.000000597   -0.000000824   -0.000003104
     17        1           0.000001562   -0.000000482    0.000007210
     18        1           0.000003075    0.000007456    0.000007130
     19        1          -0.000000199    0.000001010   -0.000002338
     20        1           0.000001946    0.000005282    0.000003825
     21        1           0.000001133    0.000008912   -0.000002373
     22        1          -0.000001364    0.000000137   -0.000007062
     23        1           0.000002461   -0.000001975    0.000012679
     24        6          -0.000001685   -0.000007576   -0.000001797
     25        6          -0.000003978   -0.000001855   -0.000011075
     26        1           0.000001798   -0.000003685    0.000010840
     27        9          -0.000000354    0.000001592   -0.000005633
     28        9           0.000001134   -0.000002165    0.000005458
     29        9          -0.000001649   -0.000010572   -0.000000823
     30        9          -0.000004458   -0.000002811   -0.000014787
     31        9           0.000000517    0.000004873   -0.000013435
     32        9          -0.000005984   -0.000008477   -0.000009898
 -------------------------------------------------------------------
 Cartesian Forces:  Max     0.000014787 RMS     0.000004763

 GradGradGradGradGradGradGradGradGradGradGradGradGradGradGradGradGradGrad
 Berny optimization.
 FormGI is forming the generalized inverse of G from B-inverse, IUseBI=4.
 GSVD:  received Info=                   1 from GESDD.
 Internal  Forces:  Max     0.000003623 RMS     0.000001045
 Search for a local minimum.
 Step number   1 out of a maximum of  164
 All quantities printed in internal units (Hartrees-Bohrs-Radians)
 Mixed Optimization -- En-DIIS/RFO-DIIS
 Second derivative matrix not updated -- first step.
 ITU=  0
     Eigenvalues ---    0.00438   0.00613   0.00624   0.00706   0.01109
     Eigenvalues ---    0.01535   0.01577   0.01760   0.01956   0.02018
     Eigenvalues ---    0.02123   0.02148   0.02153   0.02182   0.02221
     Eigenvalues ---    0.02239   0.02262   0.02272   0.02530   0.03890
     Eigenvalues ---    0.05009   0.05452   0.05549   0.05580   0.05744
     Eigenvalues ---    0.08039   0.10456   0.10528   0.10669   0.10733
     Eigenvalues ---    0.11237   0.11955   0.13577   0.15995   0.16000
     Eigenvalues ---    0.16000   0.16000   0.16000   0.16000   0.16000
     Eigenvalues ---    0.21889   0.21983   0.22002   0.22369   0.23486
     Eigenvalues ---    0.24600   0.24984   0.24991   0.25000   0.25000
     Eigenvalues ---    0.25000   0.25000   0.25000   0.25000   0.25000
     Eigenvalues ---    0.25000   0.25000   0.25000   0.29911   0.31191
     Eigenvalues ---    0.31280   0.31909   0.34423   0.34425   0.34479
     Eigenvalues ---    0.34480   0.34593   0.34597   0.34678   0.35487
     Eigenvalues ---    0.35720   0.36223   0.39039   0.42253   0.42783
     Eigenvalues ---    0.45428   0.45877   0.46335   0.46490   0.47065
     Eigenvalues ---    0.48222   0.51856   0.55910   0.56351   0.56601
     Eigenvalues ---    0.56875   0.57080   0.57459   0.57959   0.97989
 RFO step:  Lambda= 0.00000000D+00 EMin= 4.38225972D-03
 Linear search not attempted -- first point.
 Iteration  1 RMS(Cart)=  0.00016311 RMS(Int)=  0.00000002
 Iteration  2 RMS(Cart)=  0.00000003 RMS(Int)=  0.00000000
 Variable       Old X    -DE/DX   Delta X   Delta X   Delta X     New X
                                 (Linear)    (Quad)   (Total)
    R1        2.63583   0.00000   0.00000   0.00000   0.00000   2.63583
    R2        2.64313   0.00000   0.00000   0.00000   0.00000   2.64314
    R3        2.63830   0.00000   0.00000   0.00000   0.00000   2.63830
    R4        2.58037   0.00000   0.00000   0.00000   0.00000   2.58037
    R5        1.91481   0.00000   0.00000   0.00000   0.00000   1.91481
    R6        2.29455  -0.00000   0.00000  -0.00000  -0.00000   2.29455
    R7        2.52593   0.00000   0.00000   0.00000   0.00000   2.52593
    R8        2.72881  -0.00000   0.00000  -0.00000  -0.00000   2.72880
    R9        2.85650   0.00000   0.00000   0.00000   0.00000   2.85650
   R10        2.06341  -0.00000   0.00000  -0.00000  -0.00000   2.06341
   R11        2.06333   0.00000   0.00000   0.00000   0.00000   2.06334
   R12        2.88141   0.00000   0.00000   0.00000   0.00000   2.88141
   R13        2.06621  -0.00000   0.00000  -0.00000  -0.00000   2.06621
   R14        2.06619   0.00000   0.00000   0.00000   0.00000   2.06619
   R15        2.06529   0.00000   0.00000   0.00000   0.00000   2.06529
   R16        2.06200   0.00000   0.00000   0.00000   0.00000   2.06200
   R17        2.06528  -0.00000   0.00000  -0.00000  -0.00000   2.06528
   R18        2.62324  -0.00000   0.00000  -0.00000  -0.00000   2.62324
   R19        2.03735   0.00000   0.00000   0.00000   0.00000   2.03735
   R20        2.64695  -0.00000   0.00000  -0.00000  -0.00000   2.64695
   R21        2.85482  -0.00000   0.00000  -0.00000  -0.00000   2.85482
   R22        2.63042  -0.00000   0.00000  -0.00000  -0.00000   2.63042
   R23        2.84311  -0.00000   0.00000  -0.00000  -0.00000   2.84310
   R24        2.61327   0.00000   0.00000   0.00000   0.00000   2.61327
   R25        2.04522  -0.00000   0.00000  -0.00000  -0.00000   2.04522
   R26        2.04892  -0.00000   0.00000  -0.00000  -0.00000   2.04892
   R27        2.53736   0.00000   0.00000   0.00000   0.00000   2.53736
   R28        2.53329  -0.00000   0.00000  -0.00000  -0.00000   2.53328
   R29        2.54332  -0.00000   0.00000  -0.00000  -0.00000   2.54332
   R30        2.53010  -0.00000   0.00000  -0.00000  -0.00000   2.53010
   R31        2.53951  -0.00000   0.00000  -0.00000  -0.00000   2.53951
   R32        2.53502  -0.00000   0.00000  -0.00000  -0.00000   2.53502
    A1        2.15792  -0.00000   0.00000  -0.00000  -0.00000   2.15791
    A2        2.04596   0.00000   0.00000   0.00000   0.00000   2.04596
    A3        2.07931  -0.00000   0.00000   0.00000   0.00000   2.07931
    A4        2.23360  -0.00000   0.00000  -0.00000  -0.00000   2.23360
    A5        2.03217   0.00000   0.00000   0.00000   0.00000   2.03217
    A6        2.01677   0.00000   0.00000   0.00000   0.00000   2.01677
    A7        2.20004  -0.00000   0.00000  -0.00000  -0.00000   2.20004
    A8        1.91365   0.00000   0.00000   0.00001   0.00001   1.91366
    A9        2.16950  -0.00000   0.00000  -0.00000  -0.00000   2.16949
   A10        2.02757  -0.00000   0.00000  -0.00001  -0.00001   2.02757
   A11        1.87716   0.00000   0.00000   0.00000   0.00000   1.87717
   A12        1.89516  -0.00000   0.00000  -0.00000  -0.00000   1.89515
   A13        1.89467   0.00000   0.00000   0.00000   0.00000   1.89468
   A14        1.94711   0.00000   0.00000   0.00000   0.00000   1.94711
   A15        1.94715  -0.00000   0.00000  -0.00000  -0.00000   1.94714
   A16        1.90113   0.00000   0.00000  -0.00000  -0.00000   1.90113
   A17        1.92747  -0.00000   0.00000  -0.00000  -0.00000   1.92747
   A18        1.90459  -0.00000   0.00000  -0.00000  -0.00000   1.90459
   A19        1.90476   0.00000   0.00000   0.00000   0.00000   1.90477
   A20        1.92532   0.00000   0.00000   0.00000   0.00000   1.92532
   A21        1.92526  -0.00000   0.00000  -0.00000  -0.00000   1.92526
   A22        1.87550  -0.00000   0.00000  -0.00000  -0.00000   1.87550
   A23        1.93964   0.00000   0.00000   0.00000   0.00000   1.93964
   A24        1.93509   0.00000   0.00000   0.00000   0.00000   1.93509
   A25        1.93937  -0.00000   0.00000  -0.00000  -0.00000   1.93937
   A26        1.88213  -0.00000   0.00000   0.00000   0.00000   1.88213
   A27        1.88299  -0.00000   0.00000  -0.00000  -0.00000   1.88299
   A28        1.88223  -0.00000   0.00000  -0.00000  -0.00000   1.88223
   A29        2.09532  -0.00000   0.00000  -0.00000  -0.00000   2.09532
   A30        2.09699   0.00000   0.00000   0.00000   0.00000   2.09699
   A31        2.09086   0.00000   0.00000   0.00000   0.00000   2.09087
   A32        2.10929   0.00000   0.00000   0.00000   0.00000   2.10929
   A33        2.03405   0.00000   0.00000   0.00001   0.00001   2.03406
   A34        2.13944  -0.00000   0.00000  -0.00001  -0.00001   2.13942
   A35        2.06852   0.00000   0.00000   0.00000   0.00000   2.06852
   A36        2.15939  -0.00000   0.00000  -0.00002  -0.00002   2.15937
   A37        2.05485   0.00000   0.00000   0.00001   0.00001   2.05487
   A38        2.11215  -0.00000   0.00000  -0.00000  -0.00000   2.11215
   A39        2.09393   0.00000   0.00000   0.00000   0.00000   2.09393
   A40        2.07711   0.00000   0.00000   0.00000   0.00000   2.07711
   A41        2.10168   0.00000   0.00000   0.00000   0.00000   2.10168
   A42        2.09006   0.00000   0.00000  -0.00000  -0.00000   2.09006
   A43        2.09145  -0.00000   0.00000  -0.00000  -0.00000   2.09145
   A44        1.97059  -0.00000   0.00000  -0.00001  -0.00001   1.97058
   A45        1.94813   0.00000   0.00000   0.00001   0.00001   1.94814
   A46        1.96448  -0.00000   0.00000  -0.00001  -0.00001   1.96447
   A47        1.85737   0.00000   0.00000   0.00001   0.00001   1.85738
   A48        1.86241  -0.00000   0.00000  -0.00001  -0.00001   1.86240
   A49        1.85290   0.00000   0.00000   0.00000   0.00000   1.85290
   A50        1.95449   0.00000   0.00000   0.00000   0.00000   1.95449
   A51        1.95694   0.00000   0.00000   0.00001   0.00001   1.95695
   A52        1.96329  -0.00000   0.00000  -0.00001  -0.00001   1.96328
   A53        1.85630  -0.00000   0.00000  -0.00001  -0.00001   1.85629
   A54        1.85845   0.00000   0.00000   0.00001   0.00001   1.85846
   A55        1.86733  -0.00000   0.00000  -0.00000  -0.00000   1.86733
    D1       -0.05751   0.00000   0.00000   0.00004   0.00004  -0.05746
    D2        3.12478   0.00000   0.00000   0.00002   0.00002   3.12480
    D3        3.08477   0.00000   0.00000   0.00004   0.00004   3.08481
    D4       -0.01614   0.00000   0.00000   0.00002   0.00002  -0.01612
    D5        3.13794   0.00000   0.00000   0.00002   0.00002   3.13796
    D6        0.00012  -0.00000   0.00000  -0.00000  -0.00000   0.00012
    D7       -0.00435   0.00000   0.00000   0.00002   0.00002  -0.00432
    D8        3.14102  -0.00000   0.00000   0.00000   0.00000   3.14102
    D9        3.13828  -0.00000   0.00000  -0.00000  -0.00000   3.13828
   D10       -0.00361  -0.00000   0.00000  -0.00001  -0.00001  -0.00361
   D11       -0.00266  -0.00000   0.00000  -0.00001  -0.00001  -0.00267
   D12        3.13864  -0.00000   0.00000  -0.00001  -0.00001   3.13862
   D13        0.02279   0.00000   0.00000   0.00001   0.00001   0.02280
   D14       -3.11832  -0.00000   0.00000  -0.00001  -0.00001  -3.11833
   D15        3.12400   0.00000   0.00000   0.00003   0.00003   3.12403
   D16       -0.01711   0.00000   0.00000   0.00001   0.00001  -0.01709
   D17        3.13605   0.00000   0.00000   0.00005   0.00005   3.13611
   D18       -0.00507   0.00000   0.00000   0.00004   0.00004  -0.00503
   D19       -3.13482   0.00000   0.00000   0.00006   0.00006  -3.13475
   D20        1.03889   0.00000   0.00000   0.00006   0.00006   1.03895
   D21       -1.02556   0.00000   0.00000   0.00007   0.00007  -1.02550
   D22       -3.13953   0.00000   0.00000   0.00002   0.00002  -3.13951
   D23        1.02446   0.00000   0.00000   0.00002   0.00002   1.02448
   D24       -1.02030   0.00000   0.00000   0.00002   0.00002  -1.02028
   D25       -1.06304   0.00000   0.00000   0.00002   0.00002  -1.06303
   D26        3.10095   0.00000   0.00000   0.00002   0.00002   3.10097
   D27        1.05618   0.00000   0.00000   0.00002   0.00002   1.05620
   D28        1.06773  -0.00000   0.00000   0.00001   0.00001   1.06775
   D29       -1.05146  -0.00000   0.00000   0.00001   0.00001  -1.05144
   D30       -3.09622  -0.00000   0.00000   0.00001   0.00001  -3.09621
   D31       -1.04749   0.00000   0.00000   0.00001   0.00001  -1.04748
   D32       -3.14058   0.00000   0.00000   0.00001   0.00001  -3.14057
   D33        1.04955   0.00000   0.00000   0.00001   0.00001   1.04956
   D34        1.05937   0.00000   0.00000   0.00001   0.00001   1.05938
   D35       -1.03372  -0.00000   0.00000   0.00001   0.00001  -1.03372
   D36       -3.12677   0.00000   0.00000   0.00001   0.00001  -3.12676
   D37        3.12867   0.00000   0.00000   0.00001   0.00001   3.12868
   D38        1.03557  -0.00000   0.00000   0.00001   0.00001   1.03558
   D39       -1.05748   0.00000   0.00000   0.00001   0.00001  -1.05747
   D40        0.01418  -0.00000   0.00000  -0.00003  -0.00003   0.01415
   D41        3.12574  -0.00000   0.00000   0.00000   0.00000   3.12574
   D42       -3.13117  -0.00000   0.00000  -0.00001  -0.00001  -3.13118
   D43       -0.01961   0.00000   0.00000   0.00002   0.00002  -0.01959
   D44       -0.01667   0.00000   0.00000   0.00002   0.00002  -0.01665
   D45       -3.12611   0.00000   0.00000   0.00012   0.00012  -3.12600
   D46       -3.12637  -0.00000   0.00000  -0.00002  -0.00002  -3.12639
   D47        0.04737   0.00000   0.00000   0.00008   0.00008   0.04745
   D48        0.32764   0.00000   0.00000   0.00035   0.00035   0.32799
   D49       -1.75753   0.00000   0.00000   0.00035   0.00035  -1.75718
   D50        2.42002   0.00000   0.00000   0.00036   0.00036   2.42038
   D51       -2.84455   0.00000   0.00000   0.00038   0.00038  -2.84418
   D52        1.35346   0.00000   0.00000   0.00038   0.00038   1.35384
   D53       -0.75217   0.00000   0.00000   0.00039   0.00039  -0.75178
   D54        0.00960  -0.00000   0.00000   0.00000   0.00000   0.00960
   D55       -3.13327   0.00000   0.00000   0.00002   0.00002  -3.13324
   D56        3.12099  -0.00000   0.00000  -0.00009  -0.00009   3.12089
   D57       -0.02188  -0.00000   0.00000  -0.00007  -0.00007  -0.02195
   D58       -0.75309   0.00000   0.00000   0.00013   0.00013  -0.75297
[...]
 22,-0.00004686,0.00000127,-0.00000541,0.00002670,0.00000055,-0.0009279
 4,0.00139926,-0.00038935,0.00337045,0.00025427,-0.00083174,-0.00469095
 ,0.03495747,0.02370327,-0.00535287,-0.00292279,0.00213695,-0.00127416,
 0.00164440,-0.00129807,-0.00003258,-0.00019628,-0.00003212,-0.00004540
 ,-0.00000966,0.00000127,-0.00004314,-0.00001042,0.00000511,0.00000052,
 0.00000432,0.00000186,0.00000039,0.00000473,-0.00000190,-0.00000055,-0
 .00000156,0.00000098,-0.00001242,-0.00000217,0.00000084,-0.00000075,-0
 .00000155,-0.00000091,0.00000600,0.00003578,-0.00001661,-0.00065405,0.
 00020006,-0.00017133,-0.09094243,0.03889236,0.03096196,0.00096019,0.00
 137386,-0.00009586,0.00033596,0.00005185,0.00042312,0.08641599,-0.0020
 9129,0.00178192,0.00006453,0.00330993,-0.00030831,-0.00026264,-0.00214
 226,-0.00136639,0.00005071,0.00039126,0.00084335,-0.00001405,0.0008821
 5,-0.00025087,-0.00003276,-0.00021474,-0.00008454,0.00001957,0.0000261
 7,0.00004500,-0.00000176,0.00000504,-0.00002585,-0.00000082,0.00222177
 ,-0.00164702,0.00078203,-0.00276538,-0.00127316,0.00030997,0.01058251,
 -0.01837265,-0.02080433,0.00343033,0.00227771,-0.00142186,0.00100653,-
 0.00059488,0.00104956,0.00002820,0.00018933,0.00001713,0.00004472,0.00
 000923,-0.00000094,0.00004142,0.00000996,-0.00000525,-0.00000061,-0.00
 000407,-0.00000131,-0.00000048,-0.00000459,0.00000169,0.00000063,0.000
 00128,-0.00000113,0.00001180,0.00000222,-0.00000082,0.00000098,0.00000
 150,0.00000123,0.00009597,-0.00009482,0.00001561,0.00045581,-0.0001729
 2,0.00009177,0.04404056,-0.17382925,-0.08742185,0.00616707,-0.00261841
 ,-0.00227021,-0.00039310,0.00054346,-0.00037871,-0.02704540,0.26733579
 ,-0.00084581,0.00094785,0.00002871,0.00139807,-0.00011386,-0.00006721,
 -0.00094979,-0.00058552,0.00002769,0.00020281,0.00035929,-0.00000131,0
 .00041144,-0.00011594,-0.00001970,-0.00010008,-0.00004166,0.00000601,0
 .00001258,0.00002071,-0.00000115,0.00000241,-0.00001226,-0.00000042,0.
 00106198,-0.00062278,0.00001643,-0.00207797,-0.00034439,0.00082012,0.0
 0273792,-0.01641615,-0.00293627,0.00378344,0.00097423,-0.00072036,-0.0
 0014411,-0.00110794,0.00009257,0.00000411,0.00008408,0.00000326,0.0000
 1997,0.00000524,0.00000020,0.00001906,0.00000441,-0.00000180,-0.000000
 35,-0.00000139,-0.00000029,0.,-0.00000261,0.00000108,0.00000009,0.0000
 0037,-0.00000028,0.00000555,0.00000103,-0.00000045,0.00000068,0.000000
 87,0.00000068,0.00002941,-0.00005045,-0.00003765,0.00040920,-0.0001012
 1,0.00003549,0.03789219,-0.08614672,-0.13480687,0.00071858,-0.00052835
 ,-0.00342021,-0.00010605,0.00016886,0.00001337,-0.03078623,0.15366728,
 0.21271671,0.00212987,-0.00231291,0.00004737,-0.00359960,0.00048911,0.
 00022988,0.00254152,0.00141527,-0.00013937,-0.00067226,-0.00085026,0.0
 0005661,-0.00110802,0.00035021,0.00004380,0.00027364,0.00010889,-0.000
 01653,-0.00003283,-0.00005662,0.00000162,-0.00000703,0.00003366,0.0000
 0016,-0.00336131,-0.00068439,-0.00070623,-0.00294045,0.00699987,0.0022
 1672,-0.03624949,-0.03869050,0.01357933,-0.00199426,-0.00110527,0.0006
 5963,-0.00061969,-0.00075484,-0.00036469,-0.00008889,-0.00021810,-0.00
 000534,-0.00005357,-0.00001201,0.00000222,-0.00005091,-0.00001364,0.00
 000566,0.00000046,0.00000568,0.00000253,-0.00000002,0.00000602,-0.0000
 0266,-0.00000072,-0.00000192,0.00000107,-0.00001536,-0.00000254,0.0000
 0101,-0.00000086,-0.00000197,-0.00000106,-0.00046105,0.00055412,-0.000
 28759,-0.00016803,0.00016611,0.00008037,-0.16913914,-0.08140116,0.0345
 0341,0.00115218,0.00396811,0.00044976,-0.00336498,0.00140967,0.0006202
 9,0.00905321,-0.02127176,-0.00956527,0.19455014,0.00126235,-0.00063963
 ,0.00004294,-0.00121056,0.00032498,0.00008578,0.00085762,0.00044697,-0
 .00002642,-0.00019471,-0.00028944,0.00001343,-0.00033090,0.00012080,0.
 00001122,0.00008291,0.00002737,-0.00000660,-0.00000839,-0.00001638,0.0
 0000051,-0.00000187,0.00000958,0.00000032,-0.00054690,0.00005803,-0.00
 016288,0.00001572,0.00196442,0.00057628,-0.00795884,-0.00287199,0.0037
 0546,0.00345029,-0.00495439,-0.00173172,-0.00023906,0.00134676,-0.0002
 1925,-0.00004821,-0.00006880,-0.00000362,-0.00001735,-0.00000319,0.000
 00136,-0.00001620,-0.00000341,0.00000075,0.,0.00000184,0.00000097,-0.0
 0000019,0.00000198,-0.00000112,-0.00000007,-0.00000038,-0.00000002,-0.
 00000453,-0.00000071,0.00000030,-0.00000014,-0.00000054,-0.00000008,-0
 .00012627,0.00015150,-0.00008275,-0.00011750,0.00003818,0.00001594,-0.
 09333036,-0.15718659,0.03459052,0.00272909,0.00108484,-0.00011632,0.00
 378809,0.00082939,-0.00012058,-0.03209779,-0.07916872,-0.01729919,0.14
 040638,0.27305677,-0.00033093,-0.00022499,0.00008469,0.00031728,-0.000
 01002,-0.00001104,-0.00023621,-0.00011121,0.00000562,0.00010145,0.0000
 6425,0.00000673,0.00010955,-0.00003625,-0.00001110,-0.00002755,-0.0000
 0957,-0.00000653,0.00000353,0.00000534,-0.00000074,0.00000063,-0.00000
 363,0.00000104,0.00010489,0.00081300,-0.00034857,0.00127837,-0.0013312
 7,0.00139665,0.00540922,0.00635035,0.00573807,-0.00008503,0.00071667,-
 0.00006390,0.00039214,0.00000992,0.00007312,0.00000377,0.00001579,0.00
 000154,0.00000482,0.00000232,0.00000033,0.00000517,0.00000064,0.000000
 63,0.00000007,-0.00000014,-0.00000010,0.00000016,-0.00000102,0.0000006
 6,-0.00000016,-0.00000005,0.00000014,0.00000164,0.00000032,-0.00000016
 ,0.00000018,0.00000028,0.00000013,0.00008793,-0.00010073,-0.00021441,0
 .00005602,-0.00001878,0.00001803,0.03728370,0.03185206,-0.07986803,-0.
 00025982,-0.00055418,-0.00047149,0.00057474,-0.00020462,-0.00002332,-0
 .01424088,-0.02656480,0.01070585,-0.05284647,-0.06735200,0.10607471,0.
 00333236,-0.00236195,-0.00037740,-0.00517389,0.00059935,0.00001223,0.0
 0338209,0.00211616,-0.00021328,-0.00063216,-0.00130855,0.00003583,-0.0
 0137571,0.00041076,0.00010287,0.00033896,0.00012660,-0.00001888,-0.000
 04018,-0.00007097,0.00000368,-0.00000811,0.00004022,-0.00000010,-0.002
 44544,0.00278188,0.00157742,0.00374297,0.00138776,-0.00019524,-0.01686
 003,0.01795191,-0.03620379,-0.00217056,-0.00344033,-0.00172257,-0.0019
 7817,0.00013094,0.00207076,-0.00008261,-0.00029346,-0.00000842,-0.0000
 6643,-0.00001560,0.00000037,-0.00006996,-0.00001353,0.00000632,0.00000
 077,0.00000714,0.00000293,0.00000063,0.00000669,-0.00000298,-0.0000008
 6,-0.00000239,0.00000164,-0.00001866,-0.00000326,0.00000106,-0.0000010
 5,-0.00000209,-0.00000127,-0.00006303,0.00009716,0.00014816,-0.0004144
 0,0.00020692,0.00016059,-0.10570222,0.02603969,-0.06363345,0.00032205,
 0.00282513,-0.00023345,0.00016868,0.00015817,-0.00087084,0.01258867,-0
 .00503020,-0.00539559,0.01497728,-0.01368234,0.02189376,0.10167857,-0.
 00126189,0.00195590,0.00026803,0.00237588,-0.00032582,-0.00000341,-0.0
 0156365,-0.00096474,0.00007720,0.00029417,0.00059240,-0.00000796,0.000
 63484,-0.00019199,-0.00005327,-0.00015816,-0.00005821,0.00000633,0.000
 01850,0.00003229,-0.00000110,0.00000304,-0.00001790,0.00000069,0.00205
 453,-0.00145101,-0.00085494,-0.00152682,-0.00204730,0.00119658,0.01318
 229,0.00373144,0.01577322,-0.00018332,0.00098838,-0.00019512,0.0003082
 8,0.00049239,-0.00082207,0.00004876,0.00013374,0.00001088,0.00003029,0
 .00000778,-0.00000007,0.00003301,0.00000633,-0.00000287,-0.00000021,-0
 .00000335,-0.00000113,-0.00000032,-0.00000307,0.00000110,0.00000042,0.
 00000109,-0.00000097,0.00000854,0.00000158,-0.00000050,0.00000039,0.00
 000090,0.00000071,0.00010242,-0.00011852,-0.00020034,0.00006393,-0.000
 09384,0.00003390,0.02638948,-0.08584385,0.05107407,0.00277106,-0.00231
 154,0.00194701,-0.00022195,0.00014535,0.00041752,-0.00871377,0.0090111
 3,-0.03508782,-0.00552114,-0.03291263,0.05615997,-0.02239104,0.1117240
 3,0.00207837,-0.00149491,-0.00023342,-0.00307112,0.00034355,0.00004455
 ,0.00202584,0.00123884,-0.00012923,-0.00041433,-0.00076001,0.00002850,
 -0.00083667,0.00024399,0.00005928,0.00020371,0.00007817,-0.00001504,-0
 .00002486,-0.00004281,-0.00000045,-0.00000476,0.00002499,0.00000039,-0
 .00180540,0.00132148,0.00069570,0.00183141,0.00142492,0.00003047,-0.01
 303985,0.00996228,-0.01213691,-0.00192946,-0.00180096,-0.00082091,-0.0
 0126094,0.00033431,0.00092910,-0.00004362,-0.00017880,-0.00000682,-0.0
 0003982,-0.00000913,0.00000122,-0.00004222,-0.00000928,0.00000431,0.00
 000025,0.00000510,0.00000220,0.00000022,0.00000369,-0.00000114,-0.0000
 0084,-0.00000170,0.00000131,-0.00001135,-0.00000214,0.00000056,-0.0000
 0034,-0.00000094,-0.00000058,-0.00009023,0.00011805,0.00006700,-0.0003
 3411,0.00014303,0.00009066,-0.06703420,0.04962867,-0.19329034,-0.00004
 212,0.00226988,-0.00183353,0.00013559,-0.00023366,-0.00048402,-0.01229
 164,-0.02107467,-0.08226354,0.01166996,0.04790396,-0.04370318,0.084637
 06,-0.08703538,0.33153233,0.00083690,0.00053152,-0.00043672,0.00065662
 ,-0.00020593,-0.00001834,-0.00045485,-0.00044644,0.00002254,0.00000635
 ,0.00020475,0.00000524,0.00019965,-0.00002887,-0.00001176,-0.00004740,
 -0.00002502,0.00000363,0.00000697,0.00001017,-0.00000144,0.00000098,-0
 .00000597,0.00000035,-0.00382202,0.00337028,-0.00102249,-0.01132860,-0
 .01114648,0.00614407,0.00300375,-0.00168506,0.00059289,-0.00078328,-0.
 00054998,-0.00030279,-0.00009704,0.00001987,0.00013261,0.00001625,0.00
 003947,0.00002176,0.00001030,0.00000242,0.00000222,0.00001029,0.000002
 94,-0.00000419,-0.00000034,-0.00000060,0.00000041,-0.00000037,-0.00000
 010,-0.00000059,0.00000069,0.00000001,-0.00000100,0.00000196,0.0000012
 1,-0.00000010,0.00000075,-0.00000024,0.00000066,0.00199341,0.00299841,
 0.00012289,0.00017423,0.00003638,0.00003815,0.00212438,0.00258803,-0.0
 0006778,-0.18462139,-0.09283041,0.03998826,0.00012645,-0.00035131,-0.0
 0013162,-0.00077111,-0.00101171,0.00018603,-0.00078003,-0.00072478,0.0
 0020930,-0.00068415,-0.00070779,-0.00024033,0.31166106,-0.00257760,0.0
 0164828,-0.00029634,0.00196060,-0.00029564,-0.00004667,-0.00173603,-0.
 00080786,0.00010107,0.00066862,0.00054655,-0.00005477,0.00078240,-0.00
 022119,-0.00004713,-0.00019641,-0.00008898,0.00001205,0.00002581,0.000
 04037,-0.00000189,0.00000419,-0.00002350,0.00000021,0.00009646,-0.0048
 0376,0.00063898,-0.04218592,-0.02631786,0.01289069,0.00605326,-0.00546
 681,0.00107512,-0.00232522,-0.00198108,-0.00071258,-0.00030682,-0.0008
 3594,0.00009872,0.00007724,0.00013511,0.00002417,0.00003556,0.00000997
 ,-0.00000018,0.00003594,0.00000962,-0.00000430,-0.00000064,-0.00000401
 ,-0.00000081,-0.00000074,-0.00000352,0.00000075,0.00000096,0.00000123,
 -0.00000178,0.00001070,0.00000247,-0.00000067,0.00000105,0.00000116,0.
 00000141,-0.00007004,-0.00467822,0.00052831,0.00005728,-0.00013691,0.0
 0004558,0.00377542,-0.00003120,0.00026520,-0.07990097,-0.14534735,0.02
 933239,0.00026195,-0.00077504,-0.00023947,-0.00066412,0.00036701,0.000
 30435,-0.00124120,-0.00047120,0.00023147,-0.00087703,0.00025465,-0.000
 66723,0.12333863,0.15707912,0.00014564,0.00021991,0.00009120,-0.000199
 28,0.00002855,0.00002505,0.00015822,0.00010747,-0.00000487,-0.00004434
 ,-0.00006883,0.00000172,-0.00007108,0.00001917,0.00000595,0.00001714,0
 .00000978,-0.00000308,-0.00000202,-0.00000377,-0.00000050,-0.00000001,
 0.00000189,-0.00000044,0.00098427,-0.00097290,0.00035989,0.00541695,0.
 00267567,0.00604780,-0.00085331,0.00115407,0.00131497,0.00075542,-0.00
 016633,-0.00036379,-0.00039717,-0.00001096,0.00005523,-0.00000786,-0.0
 0001105,0.00000353,-0.00000382,-0.00000012,-0.00000014,-0.00000397,-0.
 00000140,0.00000215,-0.00000025,0.00000090,0.00000011,0.00000001,-0.00
 000048,0.00000060,-0.00000046,-0.00000017,0.00000050,-0.00000063,-0.00
 000040,-0.00000004,0.00000021,0.00000033,0.00000001,-0.00021002,0.0004
 6601,0.00027604,-0.00003034,0.00000731,-0.00000872,-0.00051350,-0.0002
 4230,-0.00042645,0.03892164,0.03305817,-0.08092657,-0.00005422,0.00013
 391,-0.00017410,0.00022126,0.00033573,0.00032520,0.00023045,0.00017526
 ,-0.00001007,0.00014472,-0.00012167,0.00026272,-0.07892624,-0.04537597
 ,0.10911282,0.00039431,-0.00081930,-0.00053376,-0.00016056,0.00003756,
 0.00006476,0.00022045,0.00002820,-0.00001648,-0.00011105,-0.00001502,0
 .00001448,-0.00011992,0.00004659,0.00000733,0.00003220,0.00000871,-0.0
 0000702,-0.00000185,-0.00000660,-0.00000013,-0.00000038,0.00000431,0.0
 0000046,-0.00006647,-0.00016275,-0.00054932,0.00893736,0.00655432,0.00
 912851,-0.00150878,0.00010560,0.00101054,-0.00028909,0.00131114,-0.000
 46199,0.00089936,0.00034878,0.00005927,0.00000388,-0.00001746,0.000032
 72,-0.00000490,-0.00000170,0.00000097,-0.00000545,-0.00000087,-0.00000
 068,-0.00000004,0.00000085,0.00000032,-0.00000017,0.00000119,-0.000000
 59,0.00000008,-0.00000031,0.00000007,-0.00000199,0.00000003,0.00000021
 ,0.00000006,-0.00000027,-0.00000008,0.00018672,-0.00021918,0.00026696,
 0.00001069,0.00001295,0.00006746,-0.00098764,0.00295638,0.00204899,-0.
 07490328,0.01642815,0.03573260,-0.00004877,0.00015783,-0.00012022,-0.0
 0544966,-0.00523828,-0.00250552,-0.00008637,-0.00081018,-0.00012547,0.
 00015960,-0.00034694,-0.00042114,-0.02908432,-0.00075850,0.05825415,0.
 09784966,-0.00066598,0.00044202,0.00224400,0.00128683,-0.00050802,-0.0
 0002593,-0.00141323,-0.00061398,0.00007605,0.00054996,0.00039000,-0.00
 001071,0.00067606,-0.00018633,-0.00003812,-0.00016995,-0.00007812,0.00
 001430,0.00002266,0.00003460,-0.00000153,0.00000369,-0.00002107,-0.000
 00086,-0.00257472,-0.00286396,-0.00100380,0.01116694,-0.01523250,-0.03
 985868,0.00160501,0.00123762,0.00001900,0.00107060,-0.00145619,0.00140
 620,-0.00042154,-0.00105394,-0.00035064,0.00010474,0.00010145,-0.00004
 343,0.00003096,0.00000895,-0.00000020,0.00002970,0.00000862,-0.0000032
 4,-0.00000100,-0.00000294,-0.00000037,-0.00000021,-0.00000365,0.000001
 08,0.00000041,0.00000102,-0.00000109,0.00000962,0.00000186,-0.00000059
 ,0.00000091,0.00000131,0.00000124,-0.00012891,0.00011507,-0.00105502,0
 .00004504,-0.00004798,-0.00018143,0.00293588,-0.00066028,-0.00058727,0
 .01602079,-0.10702912,-0.06815429,-0.00001486,-0.00024437,0.00009720,-
 0.00392235,-0.00131292,-0.00064231,-0.00093713,-0.00040211,0.00016642,
 -0.00119313,0.00051695,-0.00078425,-0.00767861,0.01586380,0.01706247,-
 0.01390365,0.09758400,-0.00043270,0.00028649,0.00108872,0.00109531,-0.
 00049326,-0.00000125,-0.00115810,-0.00046521,0.00005080,0.00047437,0.0
 0029102,-0.00000967,0.00056484,-0.00016693,-0.00002760,-0.00014038,-0.
 00006289,0.00000201,0.00001766,0.00002866,-0.00000243,0.00000336,-0.00
 001736,-0.00000032,-0.00161955,-0.00265247,-0.00049099,0.00733446,-0.0
 1321495,-0.01761966,0.00164399,0.00030140,0.00010096,0.00025184,-0.001
 27522,0.00073958,-0.00029300,-0.00053122,-0.00020678,0.00011145,0.0000
 8315,-0.00002955,0.00002570,0.00000873,0.00000040,0.00002390,0.0000068
 6,-0.00000049,0.00000021,-0.00000192,-0.00000043,0.00000071,-0.0000046
 8,0.00000190,-0.00000018,0.00000051,-0.00000005,0.00000796,0.00000142,
 -0.00000062,0.00000123,0.00000152,0.00000094,-0.00051541,0.00014397,-0
 .00062922,0.00002176,-0.00006732,-0.00011128,0.00234299,-0.00058543,-0
 .00217572,0.03394304,-0.07241451,-0.21198180,0.00002063,-0.00025847,0.
 00003610,-0.00093242,0.00054304,0.00125656,-0.00074443,-0.00013642,0.0
 0030668,-0.00092675,-0.00021752,0.00003170,0.04825099,0.00792356,-0.04
 794176,-0.06172832,0.08447639,0.35607874,-0.00001059,-0.00054574,0.000
 96863,-0.00050024,0.00046662,0.00008872,0.00075342,0.00019846,-0.00005
 595,-0.00037036,-0.00011996,0.00004495,-0.00039039,0.00012027,0.000023
 84,0.00009872,0.00004308,-0.00001187,-0.00001246,-0.00002001,0.0000005
 4,-0.00000266,0.00001276,0.00000042,0.00162837,0.00307132,-0.00067024,
 -0.01251069,0.01104117,-0.01550965,-0.00090350,-0.00092776,0.00039243,
 -0.00029136,0.00137102,0.00090774,0.00057275,0.00051659,-0.00010073,-0
 .00010609,-0.00005561,-0.00000928,-0.00001543,-0.00000563,0.00000178,-
 0.00001694,-0.00000582,0.00000086,-0.00000018,0.00000277,0.00000123,-0
 .00000029,0.00000241,-0.00000075,-0.00000013,-0.00000115,0.00000039,-0
 .00000610,-0.00000062,0.00000034,0.00000003,-0.00000072,-0.00000006,0.
 00070199,-0.00035123,-0.00042155,0.00004732,0.00005512,-0.00010766,-0.
 00159004,0.00659598,-0.00199543,-0.16796403,0.06581289,-0.07653479,-0.
 00000946,0.00018172,-0.00001015,-0.00261925,-0.00553762,0.00358124,0.0
 0011658,-0.00112532,0.00031420,-0.00290502,-0.00572284,0.00039699,-0.0
 8835610,-0.00434483,-0.02393157,0.00413632,-0.00253452,-0.02764516,0.2
 7052582,0.00044102,0.00035535,-0.00150394,0.00142126,-0.00090652,-0.00
 025611,-0.00155932,-0.00068814,0.00010853,0.00057703,0.00043322,-0.000
 04915,0.00073936,-0.00019683,-0.00004242,-0.00018439,-0.00008315,0.000
 01598,0.00002436,0.00003817,-0.00000211,0.00000461,-0.00002318,-0.0000
 0010,-0.00313314,-0.00659289,0.00143074,0.03805244,-0.01291596,0.02448
 700,0.00062433,0.00183449,-0.00090074,0.00039001,-0.00022760,-0.000456
 60,0.00033805,-0.00067722,0.00014639,0.00020677,0.00011539,-0.00000927
 ,0.00003284,0.00001021,-0.00000084,0.00003267,0.00001033,-0.00000359,-
 0.00000026,-0.00000401,-0.00000119,-0.00000007,-0.00000365,0.00000113,
 0.00000056,0.00000144,-0.00000123,0.00001055,0.00000196,-0.00000064,0.
 00000058,0.00000124,0.00000093,-0.00026343,0.00027849,0.00064027,0.000
 02308,-0.00007882,0.00004587,0.00166739,-0.00085379,0.00040717,0.05864
 594,-0.11425941,0.04417794,-0.00004213,-0.00013894,0.00000022,-0.00337
 459,-0.00128951,0.00268198,-0.00083574,-0.00047332,0.00013445,-0.00420
 061,-0.00325257,-0.00094906,-0.01574483,0.01633071,-0.00848025,-0.0057
 0156,0.01541020,-0.00153093,-0.06819280,0.10784429,-0.00058587,-0.0007
 2663,-0.00004289,-0.00047821,0.00046231,0.00006816,0.00059315,0.000212
 87,-0.00006678,-0.00024196,-0.00013201,0.00002691,-0.00028884,0.000084
 91,0.00002161,0.00007342,0.00003086,-0.00000373,-0.00000902,-0.0000149
 0,0.00000070,-0.00000192,0.00000899,-0.00000059,0.00089303,0.00338955,
 -0.00028264,-0.01289808,0.00367574,0.00039752,-0.00034747,-0.00147529,
 0.00065720,-0.00004903,0.00059144,0.00002652,0.00030317,0.00018589,0.0
 0001060,-0.00010816,-0.00004232,0.00000813,-0.00001241,-0.00000356,0.0
 0000162,-0.00001368,-0.00000442,0.00000169,-0.00000038,0.00000248,0.00
 000112,0.,0.00000089,-0.00000019,-0.00000056,-0.00000085,0.00000057,-0
 .00000422,-0.00000065,0.00000017,0.00000022,-0.00000018,0.00000003,0.0
 0028985,-0.00005564,0.00004960,0.00001934,0.00004354,-0.00000234,-0.00
 040346,0.00069067,-0.00329025,-0.07483921,0.05085024,-0.12176633,0.000
 00048,0.00008044,-0.00003160,0.00332257,0.00330808,-0.00177240,0.00027
 778,0.00013396,0.00031805,-0.00099539,-0.00236110,0.00113712,-0.014556
 61,-0.00602425,0.01197504,-0.04021908,0.00717939,-0.07846550,0.1402805
 5,-0.06009044,0.19102289\\-0.00000035,0.00000096,-0.00000372,0.0000002
 6,0.00000015,-0.00000384,0.00000030,-0.00000248,-0.00000014,0.00000077
 ,-0.00000121,0.00000558,-0.00000385,-0.00000127,-0.00000367,0.00000076
 ,-0.00000245,0.00000004,-0.00000195,-0.00000382,-0.00000392,-0.0000009
 6,-0.00000466,-0.00000052,0.00000119,0.00000041,0.00000366,0.00000081,
 0.00000225,0.00000252,0.00000113,0.00000298,-0.00000259,-0.00000101,0.
 00000342,-0.00000536,-0.00000118,0.00000185,-0.00000737,-0.00000216,-0
 .00000019,-0.00000904,-0.00000042,-0.00000709,0.00000321,0.00000060,0.
 00000082,0.00000310,-0.00000156,0.00000048,-0.00000721,-0.00000307,-0.
 00000746,-0.00000713,0.00000020,-0.00000101,0.00000234,-0.00000195,-0.
 00000528,-0.00000382,-0.00000113,-0.00000891,0.00000237,0.00000136,-0.
 00000014,0.00000706,-0.00000246,0.00000198,-0.00001268,0.00000169,0.00
 000756,0.00000180,0.00000398,0.00000185,0.00001107,-0.00000180,0.00000
 368,-0.00001084,0.00000035,-0.00000159,0.00000563,-0.00000113,0.000002
 17,-0.00000546,0.00000165,0.00001057,0.00000082,0.00000446,0.00000281,
 0.00001479,-0.00000052,-0.00000487,0.00001344,0.00000598,0.00000848,0.
 00000990\\\@


 THE FIRST AND LAST THING REQUIRED OF GENIUS IS THE LOVE OF TRUTH.

                          -- GOETHE
 Job cpu time:       0 days  6 hours 36 minutes 55.4 seconds.
 File lengths (MBytes):  RWF=    903 Int=      0 D2E=      0 Chk=     26 Scr=      1
 Normal termination of Gaussian 09 at Thu Nov 14 17:22:43 2019.
pbs_rusage has been removed.
Please contact help@nci.org.au if you require this functionality.
