 Entering Gaussian System, Link 0=/apps/gaussian/g16c01/g16/g16
 Initial command:
 /apps/gaussian/g16c01/g16/l1.exe "/jobfs/11098734.gadi-pbs/Gau-303897.inp" -scrdir="/jobfs/11098734.gadi-pbs/"
 Entering Link 1 = /apps/gaussian/g16c01/g16/l1.exe PID=    303898.
  
 Copyright (c) 1988-2019, Gaussian, Inc.  All Rights Reserved.
  
 This is part of the Gaussian(R) 16 program.  It is based on
 the Gaussian(R) 09 system (copyright 2009, Gaussian, Inc.),
 the Gaussian(R) 03 system (copyright 2003, Gaussian, Inc.),
 the Gaussian(R) 98 system (copyright 1998, Gaussian, Inc.),
 the Gaussian(R) 94 system (copyright 1995, Gaussian, Inc.),
 the Gaussian 92(TM) system (copyright 1992, Gaussian, Inc.),
 the Gaussian 90(TM) system (copyright 1990, Gaussian, Inc.),
 the Gaussian 88(TM) system (copyright 1988, Gaussian, Inc.),
 the Gaussian 86(TM) system (copyright 1986, Carnegie Mellon
 University), and the Gaussian 82(TM) system (copyright 1983,
 Carnegie Mellon University). Gaussian is a federally registered
 trademark of Gaussian, Inc.
  
 This software contains proprietary and confidential information,
 including trade secrets, belonging to Gaussian, Inc.
  
 This software is provided under written license and may be
 used, copied, transmitted, or stored only in accord with that
 written license.
  
 The following legend is applicable only to US Government
 contracts under FAR:
  
                    RESTRICTED RIGHTS LEGEND
  
 Use, reproduction and disclosure by the US Government is
 subject to restrictions as set forth in subparagraphs (a)
 and (c) of the Commercial Computer Software - Restricted
 Rights clause in FAR 52.227-19.
  
 Gaussian, Inc.
 340 Quinnipiac St., Bldg. 40, Wallingford CT 06492
  
  
 ---------------------------------------------------------------
 Warning -- This program may not be used in any manner that
 competes with the business of Gaussian, Inc. or will provide
 assistance to any competitor of Gaussian, Inc.  The licensee
 of this program is prohibited from giving any competitor of
 Gaussian, Inc. access to this program.  By using this program,
 the user acknowledges that Gaussian, Inc. is engaged in the
 business of creating and licensing software in the field of
 computational chemistry and represents and warrants to the
 licensee that it is not a competitor of Gaussian, Inc. and that
 it will not use this program in any manner prohibited above.
 ---------------------------------------------------------------
  

 Cite this work as:
 Gaussian 16, Revision C.01,
 M. J. Frisch, G. W. Trucks, H. B. Schlegel, G. E. Scuseria, 
 M. A. Robb, J. R. Cheeseman, G. Scalmani, V. Barone, 
 G. A. Petersson, H. Nakatsuji, X. Li, M. Caricato, A. V. Marenich, 
 J. Bloino, B. G. Janesko, R. Gomperts, B. Mennucci, H. P. Hratchian, 
 J. V. Ortiz, A. F. Izmaylov, J. L. Sonnenberg, D. Williams-Young, 
 F. Ding, F. Lipparini, F. Egidi, J. Goings, B. Peng, A. Petrone, 
 T. Henderson, D. Ranasinghe, V. G. Zakrzewski, J. Gao, N. Rega, 
 G. Zheng, W. Liang, M. Hada, M. Ehara, K. Toyota, R. Fukuda, 
 J. Hasegawa, M. Ishida, T. Nakajima, Y. Honda, O. Kitao, H. Nakai, 
 T. Vreven, K. Throssell, J. A. Montgomery, Jr., J. E. Peralta, 
 F. Ogliaro, M. J. Bearpark, J. J. Heyd, E. N. Brothers, K. N. Kudin, 
 V. N. Staroverov, T. A. Keith, R. Kobayashi, J. Normand, 
 K. Raghavachari, A. P. Rendell, J. C. Burant, S. S. Iyengar, 
 J. Tomasi, M. Cossi, J. M. Millam, M. Klene, C. Adamo, R. Cammi, 
 J. W. Ochterski, R. L. Martin, K. Morokuma, O. Farkas, 
 J. B. Foresman, and D. J. Fox, Gaussian, Inc., Wallingford CT, 2019.
 
 ******************************************
 Gaussian 16:  ES64L-G16RevC.01  3-Jul-2019
                10-Sep-2020 
 ******************************************
 %NprocShared=8
 Will use up to    8 processors via shared memory.
 %Mem=192000MB
 %chk=NM2CA.DSDPBEP86_AUG-cc-PVTZ.chk
 ---------------------------------------------------------------------
 # DSDPBEP86/AUG-cc-PVTZ SCF=Tight INT(grid=ultrafine) MaxDisk=60000MB
 ---------------------------------------------------------------------
 1/38=1,172=1/1;
 2/12=2,17=6,18=5,40=1/2;
 3/5=16,6=1,7=10,11=9,25=1,30=1,74=-77,75=-5/1,2,3;
 4//1;
 5/5=2,32=2,38=5/2;
 8/10=1/1;
 9/16=-3/6;
 6/7=2,8=2,9=2,10=2/1;
 99/5=1,9=1/99;
 ---------------------------
 NM2CA.DSDPBEP86_AUG-cc-PVTZ
 ---------------------------
 Symbolic Z-matrix:
 Charge =  0 Multiplicity = 1
 C                    -5.85881   1.21115   0.1766 
 N                    -4.57836   0.6614    0.09656 
 C                    -3.37726   1.33126   0.06888 
 O                    -3.22516   2.52347   0.10141 
 O                    -2.38342   0.43283  -0.00156 
 C                    -1.05642   0.98384  -0.03965 
 C                    -0.08145  -0.17084  -0.11607 
 C                     1.35809   0.33443  -0.16115 
 C                    -6.10194   2.58818   0.20903 
 C                    -7.40408   3.06352   0.2891 
 C                    -8.48939   2.18038   0.34957 
 C                    -8.23394   0.81365   0.3067 
 C                    -6.94036   0.33097   0.22158 
 H                    -4.50843  -0.34515   0.06635 
 H                    -0.9012    1.58822   0.85723 
 H                    -0.97464   1.64299  -0.9072 
 H                    -0.3043   -0.76696  -1.00514 
 H                    -0.23046  -0.82077   0.75045 
 H                     1.52814   0.97133  -1.03254 
 H                     2.06249  -0.49635  -0.21597 
 H                     1.60218   0.9178    0.72991 
 H                    -5.27558   3.28055   0.16597 
 H                    -6.76938  -0.74021   0.19373 
 C                    -9.93135   2.62258   0.42288 
 C                    -7.57263   4.56866   0.34878 
 H                    -9.05945   0.11522   0.34894 
 F                    -10.1165   3.62875   1.28194 
 F                    -10.72063   1.61462   0.83023 
 F                    -10.40194   3.0142   -0.76867 
 F                    -6.47793   5.20043  -0.0921 
 F                    -7.78434   4.99042   1.60166 
 F                    -8.59386   4.99195  -0.40194 
 
                          Input orientation:                          
 ---------------------------------------------------------------------
 Center     Atomic      Atomic             Coordinates (Angstroms)
 Number     Number       Type             X           Y           Z
 ---------------------------------------------------------------------
      1          6           0       -5.858807    1.211149    0.176598
      2          7           0       -4.578355    0.661396    0.096564
      3          6           0       -3.377264    1.331260    0.068884
      4          8           0       -3.225161    2.523475    0.101413
      5          8           0       -2.383425    0.432832   -0.001563
      6          6           0       -1.056422    0.983842   -0.039651
      7          6           0       -0.081453   -0.170844   -0.116075
      8          6           0        1.358087    0.334433   -0.161153
      9          6           0       -6.101941    2.588175    0.209031
     10          6           0       -7.404077    3.063520    0.289101
     11          6           0       -8.489391    2.180381    0.349571
     12          6           0       -8.233939    0.813654    0.306695
     13          6           0       -6.940361    0.330967    0.221576
     14          1           0       -4.508434   -0.345149    0.066348
     15          1           0       -0.901195    1.588218    0.857233
     16          1           0       -0.974638    1.642992   -0.907200
     17          1           0       -0.304298   -0.766965   -1.005138
     18          1           0       -0.230455   -0.820774    0.750445
     19          1           0        1.528142    0.971335   -1.032539
     20          1           0        2.062485   -0.496353   -0.215974
     21          1           0        1.602175    0.917798    0.729908
     22          1           0       -5.275577    3.280555    0.165967
     23          1           0       -6.769379   -0.740205    0.193727
     24          6           0       -9.931351    2.622581    0.422883
     25          6           0       -7.572635    4.568661    0.348781
     26          1           0       -9.059452    0.115221    0.348944
     27          9           0      -10.116501    3.628753    1.281939
     28          9           0      -10.720630    1.614615    0.830233
     29          9           0      -10.401940    3.014199   -0.768667
     30          9           0       -6.477932    5.200433   -0.092105
     31          9           0       -7.784342    4.990419    1.601661
     32          9           0       -8.593863    4.991946   -0.401936
 ---------------------------------------------------------------------
                    Distance matrix (angstroms):
                    1          2          3          4          5
     1  C    0.000000
     2  N    1.395776   0.000000
     3  C    2.486782   1.375537   0.000000
     4  O    2.943458   2.301846   1.202319   0.000000
     5  O    3.565922   2.208979   1.341585   2.256082   0.000000
     6  C    4.812623   3.539285   2.349210   2.663418   1.437358
     7  C    5.947553   4.578206   3.626692   4.146029   2.382564
     8  C    7.277793   5.951023   4.844598   5.085961   3.746206
     9  C    1.398702   2.458951   3.003888   2.879520   4.303164
    10  C    2.414910   3.713754   4.389128   4.217845   5.675557
    11  C    2.808790   4.203276   5.189763   5.281233   6.360821
    12  C    2.411675   3.664782   4.889965   5.296554   5.870993
    13  C    1.395171   2.388280   3.703992   4.315581   4.563533
    14  H    2.063426   1.009423   2.022349   3.142773   2.263963
    15  H    5.018303   3.867703   2.611214   2.616636   2.066265
    16  H    5.021575   3.867538   2.611997   2.618664   2.066239
    17  H    6.013486   4.639130   3.872879   4.536836   2.601816
    18  H    6.011352   4.639895   3.872748   4.535802   2.602369
    19  H    7.489095   6.217736   5.040405   5.127267   4.080839
    20  H    8.112740   6.748246   5.745623   6.097483   4.547029
    21  H    7.487220   6.218185   5.040111   5.126049   4.081084
    22  H    2.150049   2.711259   2.722640   2.186675   4.062282
    23  H    2.153420   2.602790   3.976556   4.818881   4.544310
    24  C    4.317222   5.710279   6.689460   6.714622   7.870599
    25  C    3.773558   4.929101   5.306623   4.810874   6.644977
    26  H    3.387460   4.521308   5.817597   6.316638   6.692762
    27  F    5.019417   6.393855   7.222693   7.078549   8.465327
    28  F    4.922128   6.258949   7.388164   7.585464   8.461530
    29  F    4.978410   6.340224   7.271853   7.245965   8.458634
    30  F    4.045974   4.924108   4.960904   4.217117   6.285157
    31  F    4.474524   5.593219   5.929687   5.396544   7.246504
    32  F    4.702091   5.926759   6.390243   5.930403   7.714620
                    6          7          8          9         10
     6  C    0.000000
     7  C    1.513178   0.000000
     8  C    2.503268   1.526307   0.000000
     9  C    5.300282   6.630548   7.801821   0.000000
    10  C    6.687740   8.015367   9.188371   1.388496   0.000000
    11  C    7.538716   8.742912  10.032009   2.426101   1.400535
    12  C    7.187883   8.222591   9.615378   2.775586   2.398098
    13  C    5.925810   6.885524   8.307270   2.407923   2.772442
    14  H    3.700519   4.434165   5.910132   3.341260   4.478101
    15  H    1.092596   2.171084   2.777309   5.335526   6.692291
    16  H    1.092615   2.171097   2.776783   5.331846   6.692288
    17  H    2.136160   1.093367   2.165389   6.807631   8.170345
    18  H    2.136144   1.093374   2.165405   6.810904   8.170767
    19  H    2.768746   2.176069   1.092647   7.897711   9.268684
    20  H    3.456827   2.170808   1.090591   8.738010  10.126382
    21  H    2.768523   2.176105   1.092649   7.900309   9.268819
    22  H    4.808164   6.242646   7.265820   1.078945   2.143077
    23  H    5.971992   6.719264   8.205882   3.394676   3.857494
    24  C    9.036800  10.252521  11.533782   3.835530   2.568937
    25  C    7.447337   8.876756   9.896793   2.470788   1.515726
    26  H    8.059404   8.994584  10.432323   3.857713   3.381762
    27  F    9.530330  10.820979  12.025025   4.283763   2.943206
    28  F    9.723759  10.829379  12.186760   4.760882   3.659463
    29  F    9.591273  10.820482  12.076773   4.430279   3.179384
    30  F    6.868418   8.352613   9.224203   2.656302   2.359971
    31  F    8.000716   9.429939  10.410078   3.246639   2.362278
    32  F    8.544540   9.959782  10.990529   3.515831   2.368956
                   11         12         13         14         15
    11  C    0.000000
    12  C    1.391056   0.000000
    13  C    2.415825   1.383321   0.000000
    14  H    4.722980   3.908961   2.528932   0.000000
    15  H    7.628178   7.394063   6.201311   4.168403   0.000000
    16  H    7.638048   7.406672   6.211714   4.169917   1.766810
    17  H    8.804422   8.191366   6.837222   4.358987   3.061306
    18  H    8.796457   8.180710   6.828546   4.358361   2.502906
    19  H   10.184448   9.854777   8.584778   6.275423   3.139022
    20  H   10.900773  10.392577   9.051362   6.578719   3.778970
    21  H   10.177352   9.845765   8.577744   6.274941   2.594713
    22  H    3.401866   3.854517   3.387427   3.707312   4.740999
    23  H    3.393015   2.138265   1.085090   2.298732   6.348022
    24  C    1.510021   2.483329   3.773333   6.192137   9.099576
    25  C    2.558188   3.813026   4.286490   5.797812   7.324593
    26  H    2.142395   1.082158   2.133850   4.582964   8.305735
    27  F    2.369510   3.524191   4.699748   6.979970   9.448070
    28  F    2.351500   2.664445   4.038397   6.558626   9.819508
    29  F    2.367181   3.270937   4.490305   6.834901   9.743773
    30  F    3.655374   4.741985   4.901421   5.887063   6.711880
    31  F    3.156127   4.395956   4.932284   6.446475   7.714068
    32  F    2.912143   4.253214   4.984733   6.737552   8.505764
                   16         17         18         19         20
    16  H    0.000000
    17  H    2.503366   0.000000
    18  H    3.061330   1.757959   0.000000
    19  H    2.594367   2.525920   3.079505   0.000000
    20  H    3.778719   2.509517   2.509341   1.762502   0.000000
    21  H    3.137833   3.079520   2.526180   1.764814   1.762498
    22  H    4.725608   6.516711   6.528075   7.284196   8.261845
    23  H    6.361658   6.575353   6.563075   8.560488   8.844725
    24  C    9.107766  10.305746  10.299095  11.668969  12.409190
    25  C    7.326021   9.117605   9.116740   9.882962  10.899948
    26  H    8.323232   8.903062   8.887546  10.711609  11.153055
    27  F    9.607769  10.992379  10.854247  12.166199  12.945577
    28  F    9.899689  10.841609  10.769460  12.406295  12.998415
    29  F    9.527508  10.784966  10.976056  12.106600  12.961147
    30  F    6.603484   8.634653   8.717557   9.103126  10.266813
    31  F    7.991978   9.792544   9.568476  10.479236  11.417901
    32  F    8.338068  10.111667  10.249990  10.909535  11.988069
                   21         22         23         24         25
    21  H    0.000000
    22  H    7.294116   0.000000
    23  H    8.550988   4.289374   0.000000
    24  C   11.662880   4.709051   4.621570   0.000000
    25  C    9.881862   2.639907   5.371529   3.058800   0.000000
    26  H   10.698577   4.936651   2.449546   2.655660   4.695078
    27  F   12.040822   4.980078   5.610279   1.335904   2.868008
    28  F   12.342899   5.732818   4.643566   1.343463   4.343738
    29  F   12.277597   5.217670   5.311991   1.339630   3.416140
    30  F    9.181765   2.279954   5.954647   4.340119   1.338615
    31  F   10.269026   3.358385   5.987694   3.406731   1.338808
    32  F   11.038069   3.776559   6.044925   2.843077   1.336284
                   26         27         28         29         30
    26  H    0.000000
    27  F    3.785861   0.000000
    28  F    2.288960   2.150758   0.000000
    29  F    3.384583   2.159661   2.148692   0.000000
    30  F    5.719978   4.194921   5.631100   4.542597   0.000000
    31  F    5.192568   2.719434   4.540147   4.046692   2.149338
    32  F    4.956112   2.648048   4.177050   2.704647   2.148634
                   31         32
    31  F    0.000000
    32  F    2.160956   0.000000
 Stoichiometry    C12H11F6NO2
 Framework group  C1[X(C12H11F6NO2)]
 Deg. of freedom    90
 Full point group                 C1      NOp   1
 Largest Abelian subgroup         C1      NOp   1
 Largest concise Abelian subgroup C1      NOp   1
                         Standard orientation:                         
 ---------------------------------------------------------------------
 Center     Atomic      Atomic             Coordinates (Angstroms)
 Number     Number       Type             X           Y           Z
 ---------------------------------------------------------------------
      1          6           0        0.510894   -0.952751   -0.013891
      2          7           0        1.900103   -1.087861   -0.019826
      3          6           0        2.841286   -0.084827   -0.005673
      4          8           0        2.622845    1.097420    0.006315
      5          8           0        4.062995   -0.639152   -0.007610
      6          6           0        5.160562    0.288851    0.004933
      7          6           0        6.442322   -0.515381    0.002094
      8          6           0        7.661199    0.403209    0.014100
      9          6           0       -0.139634    0.285414   -0.025189
     10          6           0       -1.526917    0.343048   -0.018522
     11          6           0       -2.295005   -0.827718    0.010568
     12          6           0       -1.635329   -2.052406    0.011787
     13          6           0       -0.253697   -2.119676   -0.000161
     14          1           0        2.273384   -2.025723   -0.023219
     15          1           0        5.077848    0.918673    0.893893
     16          1           0        5.084170    0.934995   -0.872831
     17          1           0        6.457785   -1.157833   -0.882478
     18          1           0        6.452016   -1.173182    0.875404
     19          1           0        7.675742    1.054962   -0.862761
     20          1           0        8.586181   -0.174540    0.012362
     21          1           0        7.669711    1.039982    0.901979
     22          1           0        0.438986    1.195872   -0.044829
     23          1           0        0.235210   -3.088367    0.005144
     24          6           0       -3.804923   -0.844213    0.004577
     25          6           0       -2.146762    1.726140   -0.002030
     26          1           0       -2.211261   -2.968380    0.030794
     27          9           0       -4.331326    0.064624    0.830141
     28          9           0       -4.271741   -2.041247    0.397109
     29          9           0       -4.308735   -0.623326   -1.216894
     30          9           0       -1.273523    2.657378   -0.404697
     31          9           0       -2.541966    2.073184    1.229140
     32          9           0       -3.207285    1.813197   -0.810341
 ---------------------------------------------------------------------
 Rotational constants (GHZ):           0.7143392           0.1196733           0.1065306
 Standard basis: Aug-CC-pVTZ (5D, 7F)
 There are  1430 symmetry adapted cartesian basis functions of A   symmetry.
 There are  1219 symmetry adapted basis functions of A   symmetry.
  1219 basis functions,  1809 primitive gaussians,  1430 cartesian basis functions
    80 alpha electrons       80 beta electrons
       nuclear repulsion energy      1787.1003473205 Hartrees.
 NAtoms=   32 NActive=   32 NUniq=   32 SFac= 1.00D+00 NAtFMM=   60 NAOKFM=F Big=F
 Integral buffers will be    131072 words long.
 Regular integral format.
 Two-electron integral symmetry is turned on.
 Nuclear repulsion after empirical dispersion term =     1787.0773955738 Hartrees.
 One-electron integrals computed using PRISM.
 NBasis=  1219 RedAO= T EigKep=  1.40D-06  NBF=  1219
 NBsUse=  1215 1.00D-06 EigRej=  8.37D-07 NBFU=  1215
 ExpMin= 2.53D-02 ExpMax= 1.95D+04 ExpMxC= 6.65D+02 IAcc=3 IRadAn=         5 AccDes= 0.00D+00
 Harris functional with IExCor= 1004 and IRadAn=       5 diagonalized for initial guess.
 HarFok:  IExCor= 1004 AccDes= 0.00D+00 IRadAn=         5 IDoV= 1 UseB2=F ITyADJ=14
 ICtDFT=  3500011 ScaDFX=  1.000000  1.000000  1.000000  1.000000
 FoFCou: FMM=F IPFlag=           0 FMFlag=      100000 FMFlg1=           0
         NFxFlg=           0 DoJE=T BraDBF=F KetDBF=T FulRan=T
         wScrn=  0.000000 ICntrl=       500 IOpCl=  0 I1Cent=   200000004 NGrid=           0
         NMat0=    1 NMatS0=      1 NMatT0=    0 NMatD0=    1 NMtDS0=    0 NMtDT0=    0
 Petite list used in FoFCou.
 Requested convergence on RMS density matrix=1.00D-08 within 128 cycles.
 Requested convergence on MAX density matrix=1.00D-06.
 Requested convergence on             energy=1.00D-06.
 No special actions if energy rises.
 SCF Done:  E(RDSDPBEP86) =  -1264.69245236     A.U. after   13 cycles
            NFock= 13  Conv=0.67D-08     -V/T= 2.0031
 DoSCS=T DFT=T ScalE2(SS,OS)=  0.220000  0.520000
 ExpMin= 2.53D-02 ExpMax= 1.95D+04 ExpMxC= 6.65D+02 IAcc=3 IRadAn=         5 AccDes= 0.00D+00
 HarFok:  IExCor=  205 AccDes= 0.00D+00 IRadAn=         5 IDoV=-2 UseB2=F ITyADJ=14
 ICtDFT= 12500011 ScaDFX=  1.000000  1.000000  1.000000  1.000000
 GSVD:  LWork=        -609 too small for GESVD, short by        2520 words or        2520 for optimal perf.
 Range of M.O.s used for correlation:    22  1215
 NBasis=  1219 NAE=    80 NBE=    80 NFC=    21 NFV=     0
 NROrb=   1194 NOA=    59 NOB=    59 NVA=  1135 NVB=  1135

 **** Warning!!: The largest alpha MO coefficient is  0.12208738D+03

 DoSCS=T DFT=T ScalE2(SS,OS)=  0.220000  0.520000
 Fully direct method using O(OVN) memory.
 JobTyp=1 Pass  1:  I=   1 to  59 NPSUse=  8 ParTrn=T ParDer=T DoDerP=F.
 Spin components of T(2) and E(2):
     alpha-alpha T2 =       0.1931025063D+00 E2=     -0.1348551358D+00
     alpha-beta  T2 =       0.9948400795D+00 E2=     -0.1788872553D+01
     beta-beta   T2 =       0.1931025063D+00 E2=     -0.1348551358D+00
 E2(DSDPBEP86) =    -0.2058582825D+01 E(DSDPBEP86) =    -0.12667510351818D+04

 **********************************************************************

            Population analysis using the SCF Density.

 **********************************************************************

 Orbital symmetries:
       Occupied  (A) (A) (A) (A) (A) (A) (A) (A) (A) (A) (A) (A)
                 (A) (A) (A) (A) (A) (A) (A) (A) (A) (A) (A) (A)
                 (A) (A) (A) (A) (A) (A) (A) (A) (A) (A) (A) (A)
                 (A) (A) (A) (A) (A) (A) (A) (A) (A) (A) (A) (A)
                 (A) (A) (A) (A) (A) (A) (A) (A) (A) (A) (A) (A)
                 (A) (A) (A) (A) (A) (A) (A) (A) (A) (A) (A) (A)
                 (A) (A) (A) (A) (A) (A) (A) (A)
       Virtual   (A) (A) (A) (A) (A) (A) (A) (A) (A) (A) (A) (A)
                 (A) (A) (A) (A) (A) (A) (A) (A) (A) (A) (A) (A)
                 (A) (A) (A) (A) (A) (A) (A) (A) (A) (A) (A) (A)
                 (A) (A) (A) (A) (A) (A) (A) (A) (A) (A) (A) (A)
                 (A) (A) (A) (A) (A) (A) (A) (A) (A) (A) (A) (A)
                 (A) (A) (A) (A) (A) (A) (A) (A) (A) (A) (A) (A)
                 (A) (A) (A) (A) (A) (A) (A) (A) (A) (A) (A) (A)
                 (A) (A) (A) (A) (A) (A) (A) (A) (A) (A) (A) (A)
                 (A) (A) (A) (A) (A) (A) (A) (A) (A) (A) (A) (A)
                 (A) (A) (A) (A) (A) (A) (A) (A) (A) (A) (A) (A)
                 (A) (A) (A) (A) (A) (A) (A) (A) (A) (A) (A) (A)
                 (A) (A) (A) (A) (A) (A) (A) (A) (A) (A) (A) (A)
                 (A) (A) (A) (A) (A) (A) (A) (A) (A) (A) (A) (A)
                 (A) (A) (A) (A) (A) (A) (A) (A) (A) (A) (A) (A)
                 (A) (A) (A) (A) (A) (A) (A) (A) (A) (A) (A) (A)
                 (A) (A) (A) (A) (A) (A) (A) (A) (A) (A) (A) (A)
                 (A) (A) (A) (A) (A) (A) (A) (A) (A) (A) (A) (A)
                 (A) (A) (A) (A) (A) (A) (A) (A) (A) (A) (A) (A)
                 (A) (A) (A) (A) (A) (A) (A) (A) (A) (A) (A) (A)
                 (A) (A) (A) (A) (A) (A) (A) (A) (A) (A) (A) (A)
                 (A) (A) (A) (A) (A) (A) (A) (A) (A) (A) (A) (A)
                 (A) (A) (A) (A) (A) (A) (A) (A) (A) (A) (A) (A)
                 (A) (A) (A) (A) (A) (A) (A) (A) (A) (A) (A) (A)
                 (A) (A) (A) (A) (A) (A) (A) (A) (A) (A) (A) (A)
                 (A) (A) (A) (A) (A) (A) (A) (A) (A) (A) (A) (A)
                 (A) (A) (A) (A) (A) (A) (A) (A) (A) (A) (A) (A)
                 (A) (A) (A) (A) (A) (A) (A) (A) (A) (A) (A) (A)
                 (A) (A) (A) (A) (A) (A) (A) (A) (A) (A) (A) (A)
                 (A) (A) (A) (A) (A) (A) (A) (A) (A) (A) (A) (A)
                 (A) (A) (A) (A) (A) (A) (A) (A) (A) (A) (A) (A)
                 (A) (A) (A) (A) (A) (A) (A) (A) (A) (A) (A) (A)
                 (A) (A) (A) (A) (A) (A) (A) (A) (A) (A) (A) (A)
                 (A) (A) (A) (A) (A) (A) (A) (A) (A) (A) (A) (A)
                 (A) (A) (A) (A) (A) (A) (A) (A) (A) (A) (A) (A)
                 (A) (A) (A) (A) (A) (A) (A) (A) (A) (A) (A) (A)
                 (A) (A) (A) (A) (A) (A) (A) (A) (A) (A) (A) (A)
                 (A) (A) (A) (A) (A) (A) (A) (A) (A) (A) (A) (A)
                 (A) (A) (A) (A) (A) (A) (A) (A) (A) (A) (A) (A)
                 (A) (A) (A) (A) (A) (A) (A) (A) (A) (A) (A) (A)
                 (A) (A) (A) (A) (A) (A) (A) (A) (A) (A) (A) (A)
                 (A) (A) (A) (A) (A) (A) (A) (A) (A) (A) (A) (A)
                 (A) (A) (A) (A) (A) (A) (A) (A) (A) (A) (A) (A)
                 (A) (A) (A) (A) (A) (A) (A) (A) (A) (A) (A) (A)
                 (A) (A) (A) (A) (A) (A) (A) (A) (A) (A) (A) (A)
                 (A) (A) (A) (A) (A) (A) (A) (A) (A) (A) (A) (A)
                 (A) (A) (A) (A) (A) (A) (A) (A) (A) (A) (A) (A)
                 (A) (A) (A) (A) (A) (A) (A) (A) (A) (A) (A) (A)
                 (A) (A) (A) (A) (A) (A) (A) (A) (A) (A) (A) (A)
                 (A) (A) (A) (A) (A) (A) (A) (A) (A) (A) (A) (A)
                 (A) (A) (A) (A) (A) (A) (A) (A) (A) (A) (A) (A)
                 (A) (A) (A) (A) (A) (A) (A) (A) (A) (A) (A) (A)
                 (A) (A) (A) (A) (A) (A) (A) (A) (A) (A) (A) (A)
                 (A) (A) (A) (A) (A) (A) (A) (A) (A) (A) (A) (A)
                 (A) (A) (A) (A) (A) (A) (A) (A) (A) (A) (A) (A)
                 (A) (A) (A) (A) (A) (A) (A) (A) (A) (A) (A) (A)
                 (A) (A) (A) (A) (A) (A) (A) (A) (A) (A) (A) (A)
                 (A) (A) (A) (A) (A) (A) (A) (A) (A) (A) (A) (A)
                 (A) (A) (A) (A) (A) (A) (A) (A) (A) (A) (A) (A)
                 (A) (A) (A) (A) (A) (A) (A) (A) (A) (A) (A) (A)
                 (A) (A) (A) (A) (A) (A) (A) (A) (A) (A) (A) (A)
                 (A) (A) (A) (A) (A) (A) (A) (A) (A) (A) (A) (A)
                 (A) (A) (A) (A) (A) (A) (A) (A) (A) (A) (A) (A)
                 (A) (A) (A) (A) (A) (A) (A) (A) (A) (A) (A) (A)
                 (A) (A) (A) (A) (A) (A) (A) (A) (A) (A) (A) (A)
                 (A) (A) (A) (A) (A) (A) (A) (A) (A) (A) (A) (A)
                 (A) (A) (A) (A) (A) (A) (A) (A) (A) (A) (A) (A)
                 (A) (A) (A) (A) (A) (A) (A) (A) (A) (A) (A) (A)
                 (A) (A) (A) (A) (A) (A) (A) (A) (A) (A) (A) (A)
                 (A) (A) (A) (A) (A) (A) (A) (A) (A) (A) (A) (A)
                 (A) (A) (A) (A) (A) (A) (A) (A) (A) (A) (A) (A)
                 (A) (A) (A) (A) (A) (A) (A) (A) (A) (A) (A) (A)
                 (A) (A) (A) (A) (A) (A) (A) (A) (A) (A) (A) (A)
                 (A) (A) (A) (A) (A) (A) (A) (A) (A) (A) (A) (A)
                 (A) (A) (A) (A) (A) (A) (A) (A) (A) (A) (A) (A)
                 (A) (A) (A) (A) (A) (A) (A) (A) (A) (A) (A) (A)
                 (A) (A) (A) (A) (A) (A) (A) (A) (A) (A) (A) (A)
                 (A) (A) (A) (A) (A) (A) (A) (A) (A) (A) (A) (A)
                 (A) (A) (A) (A) (A) (A) (A) (A) (A) (A) (A) (A)
                 (A) (A) (A) (A) (A) (A) (A) (A) (A) (A) (A) (A)
                 (A) (A) (A) (A) (A) (A) (A) (A) (A) (A) (A) (A)
                 (A) (A) (A) (A) (A) (A) (A) (A) (A) (A) (A) (A)
                 (A) (A) (A) (A) (A) (A) (A) (A) (A) (A) (A) (A)
                 (A) (A) (A) (A) (A) (A) (A) (A) (A) (A) (A) (A)
                 (A) (A) (A) (A) (A) (A) (A) (A) (A) (A) (A) (A)
                 (A) (A) (A) (A) (A) (A) (A) (A) (A) (A) (A) (A)
                 (A) (A) (A) (A) (A) (A) (A) (A) (A) (A) (A) (A)
                 (A) (A) (A) (A) (A) (A) (A) (A) (A) (A) (A) (A)
                 (A) (A) (A) (A) (A) (A) (A) (A) (A) (A) (A) (A)
                 (A) (A) (A) (A) (A) (A) (A) (A) (A) (A) (A) (A)
                 (A) (A) (A) (A) (A) (A) (A) (A) (A) (A) (A) (A)
                 (A) (A) (A) (A) (A) (A) (A) (A) (A) (A) (A) (A)
                 (A) (A) (A) (A) (A) (A) (A) (A) (A) (A) (A) (A)
                 (A) (A) (A) (A) (A) (A) (A) (A) (A) (A) (A) (A)
                 (A) (A) (A) (A) (A) (A) (A) (A) (A) (A) (A) (A)
                 (A) (A) (A) (A) (A) (A) (A)
 The electronic state is 1-A.
 Alpha  occ. eigenvalues --  -25.71249 -25.71084 -25.70945 -25.70940 -25.70706
 Alpha  occ. eigenvalues --  -25.70671 -20.06898 -20.00268 -15.14831 -11.09104
 Alpha  occ. eigenvalues --  -11.09061 -11.00580 -10.91132 -10.88752 -10.87972
 Alpha  occ. eigenvalues --  -10.87048 -10.86235 -10.85688 -10.85085 -10.83067
 Alpha  occ. eigenvalues --  -10.82038  -1.58025  -1.57564  -1.48552  -1.48245
 Alpha  occ. eigenvalues --   -1.48080  -1.47947  -1.36115  -1.25856  -1.17674
 Alpha  occ. eigenvalues --   -1.08751  -0.99419  -0.98032  -0.97074  -0.89672
 Alpha  occ. eigenvalues --   -0.88136  -0.85846  -0.81080  -0.80170  -0.76144
 Alpha  occ. eigenvalues --   -0.74756  -0.74479  -0.74117  -0.73787  -0.73385
 Alpha  occ. eigenvalues --   -0.73096  -0.71197  -0.68857  -0.65052  -0.64295
 Alpha  occ. eigenvalues --   -0.62784  -0.62623  -0.62107  -0.61902  -0.61262
 Alpha  occ. eigenvalues --   -0.60152  -0.58829  -0.58414  -0.58128  -0.57281
 Alpha  occ. eigenvalues --   -0.57208  -0.56975  -0.55927  -0.55810  -0.55642
 Alpha  occ. eigenvalues --   -0.54799  -0.53177  -0.53129  -0.50503  -0.49859
 Alpha  occ. eigenvalues --   -0.49157  -0.47890  -0.47647  -0.45150  -0.45024
 Alpha  occ. eigenvalues --   -0.43310  -0.42303  -0.41340  -0.35241  -0.31579
 Alpha virt. eigenvalues --    0.00576   0.01389   0.01747   0.02501   0.02579
 Alpha virt. eigenvalues --    0.02854   0.03238   0.03797   0.04648   0.04886
 Alpha virt. eigenvalues --    0.05170   0.05543   0.05793   0.06477   0.06658
 Alpha virt. eigenvalues --    0.07081   0.07387   0.08117   0.08339   0.08679
 Alpha virt. eigenvalues --    0.08949   0.09288   0.09851   0.10045   0.10434
 Alpha virt. eigenvalues --    0.10652   0.10750   0.11132   0.11434   0.11746
 Alpha virt. eigenvalues --    0.11795   0.12317   0.12866   0.13073   0.13120
 Alpha virt. eigenvalues --    0.13698   0.14032   0.14194   0.14635   0.15029
 Alpha virt. eigenvalues --    0.15168   0.15274   0.15476   0.16056   0.16575
 Alpha virt. eigenvalues --    0.17117   0.17408   0.17697   0.17949   0.18078
 Alpha virt. eigenvalues --    0.18807   0.18949   0.19349   0.19646   0.19904
 Alpha virt. eigenvalues --    0.19941   0.20274   0.20701   0.21321   0.21496
 Alpha virt. eigenvalues --    0.21605   0.21941   0.22284   0.22662   0.23093
 Alpha virt. eigenvalues --    0.23595   0.24103   0.24324   0.24458   0.24572
 Alpha virt. eigenvalues --    0.24759   0.25046   0.25405   0.25771   0.26190
 Alpha virt. eigenvalues --    0.26579   0.26753   0.26903   0.27383   0.27502
 Alpha virt. eigenvalues --    0.27814   0.28154   0.28632   0.28804   0.29117
 Alpha virt. eigenvalues --    0.29241   0.29474   0.29823   0.30036   0.30133
 Alpha virt. eigenvalues --    0.30545   0.30837   0.30991   0.31294   0.31352
 Alpha virt. eigenvalues --    0.31578   0.31748   0.31960   0.32245   0.32601
 Alpha virt. eigenvalues --    0.33109   0.33538   0.33871   0.34027   0.34647
 Alpha virt. eigenvalues --    0.34732   0.34789   0.35022   0.35427   0.35532
 Alpha virt. eigenvalues --    0.35720   0.36438   0.36578   0.36683   0.36972
 Alpha virt. eigenvalues --    0.37221   0.37449   0.37715   0.37965   0.38374
 Alpha virt. eigenvalues --    0.38508   0.38678   0.38915   0.39308   0.39886
 Alpha virt. eigenvalues --    0.40292   0.40364   0.40608   0.40856   0.41151
 Alpha virt. eigenvalues --    0.41318   0.41419   0.41876   0.42135   0.42247
 Alpha virt. eigenvalues --    0.42468   0.42844   0.42876   0.43099   0.43755
 Alpha virt. eigenvalues --    0.43939   0.44150   0.44430   0.44701   0.45046
 Alpha virt. eigenvalues --    0.45477   0.45835   0.46040   0.46608   0.46756
 Alpha virt. eigenvalues --    0.47165   0.47272   0.47311   0.47702   0.47888
 Alpha virt. eigenvalues --    0.48325   0.48482   0.48745   0.48885   0.49295
 Alpha virt. eigenvalues --    0.49608   0.49916   0.50438   0.50580   0.50888
 Alpha virt. eigenvalues --    0.51228   0.51444   0.51846   0.51902   0.52388
 Alpha virt. eigenvalues --    0.52662   0.53032   0.53462   0.53741   0.54120
 Alpha virt. eigenvalues --    0.54452   0.55005   0.55320   0.55524   0.55629
 Alpha virt. eigenvalues --    0.56018   0.56656   0.57212   0.57919   0.58402
 Alpha virt. eigenvalues --    0.58730   0.58907   0.59203   0.59849   0.60382
 Alpha virt. eigenvalues --    0.61018   0.61688   0.61887   0.62253   0.62460
 Alpha virt. eigenvalues --    0.62826   0.63435   0.63947   0.64250   0.65102
 Alpha virt. eigenvalues --    0.65351   0.65677   0.65837   0.66364   0.66714
 Alpha virt. eigenvalues --    0.66957   0.67034   0.67746   0.68403   0.69147
 Alpha virt. eigenvalues --    0.69456   0.70168   0.70586   0.71086   0.71997
 Alpha virt. eigenvalues --    0.72293   0.72528   0.72865   0.72981   0.73460
 Alpha virt. eigenvalues --    0.73761   0.74199   0.74809   0.75046   0.75702
 Alpha virt. eigenvalues --    0.76377   0.76504   0.76779   0.77358   0.77927
 Alpha virt. eigenvalues --    0.78023   0.78386   0.78788   0.79524   0.79675
 Alpha virt. eigenvalues --    0.79881   0.80248   0.80718   0.81270   0.81511
 Alpha virt. eigenvalues --    0.81799   0.82542   0.83607   0.83897   0.84284
 Alpha virt. eigenvalues --    0.84361   0.84693   0.84884   0.85100   0.85723
 Alpha virt. eigenvalues --    0.85916   0.86320   0.86486   0.86745   0.87093
 Alpha virt. eigenvalues --    0.87368   0.87745   0.87963   0.88314   0.88775
 Alpha virt. eigenvalues --    0.89017   0.89363   0.89809   0.90220   0.90658
 Alpha virt. eigenvalues --    0.90825   0.91359   0.91808   0.91976   0.92179
 Alpha virt. eigenvalues --    0.92697   0.93449   0.93951   0.94191   0.94626
 Alpha virt. eigenvalues --    0.95424   0.95710   0.96397   0.96704   0.97371
 Alpha virt. eigenvalues --    0.97455   0.98040   0.98283   0.98519   0.99010
 Alpha virt. eigenvalues --    0.99348   0.99598   1.00087   1.00218   1.00899
 Alpha virt. eigenvalues --    1.01253   1.01521   1.02074   1.02182   1.02891
 Alpha virt. eigenvalues --    1.03178   1.03424   1.03864   1.04194   1.05079
 Alpha virt. eigenvalues --    1.05279   1.05407   1.05706   1.05790   1.06251
 Alpha virt. eigenvalues --    1.06477   1.06846   1.07457   1.07675   1.07820
 Alpha virt. eigenvalues --    1.08253   1.08572   1.09033   1.09512   1.09665
 Alpha virt. eigenvalues --    1.10122   1.10611   1.10945   1.11312   1.11586
 Alpha virt. eigenvalues --    1.11872   1.12321   1.12791   1.13110   1.13509
 Alpha virt. eigenvalues --    1.14270   1.14332   1.15030   1.15200   1.15414
 Alpha virt. eigenvalues --    1.15851   1.16231   1.16626   1.17126   1.17999
 Alpha virt. eigenvalues --    1.18266   1.18563   1.18740   1.18904   1.19286
 Alpha virt. eigenvalues --    1.19570   1.19667   1.20448   1.20795   1.21491
 Alpha virt. eigenvalues --    1.21842   1.22232   1.22858   1.23003   1.23587
 Alpha virt. eigenvalues --    1.24467   1.25026   1.25291   1.25408   1.25646
 Alpha virt. eigenvalues --    1.26239   1.26968   1.27457   1.27752   1.28155
 Alpha virt. eigenvalues --    1.28766   1.29207   1.29636   1.29951   1.30784
 Alpha virt. eigenvalues --    1.31201   1.31480   1.31790   1.32048   1.32529
 Alpha virt. eigenvalues --    1.32668   1.33098   1.33384   1.33694   1.34319
 Alpha virt. eigenvalues --    1.35164   1.35367   1.35604   1.36184   1.37104
 Alpha virt. eigenvalues --    1.37529   1.38050   1.38150   1.38829   1.38864
 Alpha virt. eigenvalues --    1.39540   1.39765   1.39920   1.40416   1.41016
 Alpha virt. eigenvalues --    1.41073   1.41841   1.42224   1.42814   1.43502
 Alpha virt. eigenvalues --    1.43575   1.44127   1.44480   1.45120   1.45883
 Alpha virt. eigenvalues --    1.46112   1.46900   1.47906   1.48032   1.48352
 Alpha virt. eigenvalues --    1.49239   1.49965   1.50150   1.50678   1.51839
 Alpha virt. eigenvalues --    1.52166   1.52926   1.52989   1.53418   1.54041
 Alpha virt. eigenvalues --    1.54684   1.55114   1.55932   1.56298   1.56491
 Alpha virt. eigenvalues --    1.56786   1.57194   1.57674   1.58369   1.58976
 Alpha virt. eigenvalues --    1.59419   1.59537   1.60426   1.60602   1.61244
 Alpha virt. eigenvalues --    1.61551   1.61879   1.62187   1.62919   1.62943
 Alpha virt. eigenvalues --    1.63544   1.63929   1.64991   1.65526   1.65809
 Alpha virt. eigenvalues --    1.65948   1.66258   1.66838   1.67584   1.67758
 Alpha virt. eigenvalues --    1.68660   1.68835   1.69322   1.69721   1.69983
 Alpha virt. eigenvalues --    1.70446   1.70854   1.71540   1.72547   1.72824
 Alpha virt. eigenvalues --    1.72894   1.73533   1.73994   1.74603   1.75185
 Alpha virt. eigenvalues --    1.75831   1.76793   1.76999   1.77554   1.78032
 Alpha virt. eigenvalues --    1.78866   1.79637   1.79929   1.80470   1.80707
 Alpha virt. eigenvalues --    1.81347   1.82569   1.82865   1.82921   1.83988
 Alpha virt. eigenvalues --    1.84516   1.85330   1.85346   1.85526   1.85977
 Alpha virt. eigenvalues --    1.86313   1.87014   1.87836   1.87957   1.88379
 Alpha virt. eigenvalues --    1.89012   1.89616   1.90071   1.90421   1.90579
 Alpha virt. eigenvalues --    1.91567   1.91749   1.92555   1.93177   1.93695
 Alpha virt. eigenvalues --    1.94291   1.95056   1.95628   1.95892   1.96037
 Alpha virt. eigenvalues --    1.97090   1.97467   1.97915   1.98293   1.99452
 Alpha virt. eigenvalues --    1.99752   2.00563   2.00681   2.01362   2.01470
 Alpha virt. eigenvalues --    2.02070   2.02828   2.03002   2.04213   2.05007
 Alpha virt. eigenvalues --    2.05436   2.06621   2.07284   2.08602   2.09259
 Alpha virt. eigenvalues --    2.09522   2.09879   2.10629   2.11722   2.13027
 Alpha virt. eigenvalues --    2.13459   2.13492   2.14089   2.15052   2.15393
 Alpha virt. eigenvalues --    2.15984   2.16533   2.17947   2.18515   2.20004
 Alpha virt. eigenvalues --    2.20224   2.20827   2.20990   2.22576   2.23635
 Alpha virt. eigenvalues --    2.24057   2.24622   2.25605   2.26502   2.27058
 Alpha virt. eigenvalues --    2.28119   2.29751   2.30425   2.30808   2.31381
 Alpha virt. eigenvalues --    2.31691   2.32458   2.32753   2.34066   2.35043
 Alpha virt. eigenvalues --    2.35241   2.36073   2.36707   2.37821   2.38477
 Alpha virt. eigenvalues --    2.39176   2.40678   2.41477   2.42667   2.43687
 Alpha virt. eigenvalues --    2.44703   2.45975   2.46253   2.47569   2.48823
 Alpha virt. eigenvalues --    2.49095   2.49652   2.50537   2.51694   2.52922
 Alpha virt. eigenvalues --    2.53908   2.54930   2.56219   2.56578   2.57679
 Alpha virt. eigenvalues --    2.58551   2.59303   2.60689   2.61934   2.62079
 Alpha virt. eigenvalues --    2.63774   2.64430   2.66261   2.66736   2.69433
 Alpha virt. eigenvalues --    2.70093   2.70447   2.71265   2.72004   2.73137
 Alpha virt. eigenvalues --    2.73592   2.74759   2.75846   2.76186   2.76474
 Alpha virt. eigenvalues --    2.77209   2.78397   2.78913   2.79827   2.80320
 Alpha virt. eigenvalues --    2.81298   2.82536   2.82650   2.83834   2.84818
 Alpha virt. eigenvalues --    2.86141   2.86437   2.86906   2.87272   2.88302
 Alpha virt. eigenvalues --    2.89087   2.90818   2.90893   2.91530   2.92655
 Alpha virt. eigenvalues --    2.93057   2.94499   2.95638   2.96146   2.96855
 Alpha virt. eigenvalues --    2.97528   2.98309   2.98967   2.99898   3.00193
 Alpha virt. eigenvalues --    3.00634   3.01119   3.01441   3.02849   3.03037
 Alpha virt. eigenvalues --    3.04385   3.05473   3.06574   3.06774   3.07278
 Alpha virt. eigenvalues --    3.08504   3.09105   3.09512   3.10712   3.12058
 Alpha virt. eigenvalues --    3.12725   3.13043   3.13714   3.14291   3.14888
 Alpha virt. eigenvalues --    3.16281   3.16871   3.17024   3.18790   3.19035
 Alpha virt. eigenvalues --    3.20420   3.21013   3.21748   3.22815   3.23598
 Alpha virt. eigenvalues --    3.24494   3.25122   3.25863   3.26338   3.27072
 Alpha virt. eigenvalues --    3.27735   3.28116   3.28705   3.29042   3.29466
 Alpha virt. eigenvalues --    3.30339   3.31826   3.32416   3.32476   3.32883
 Alpha virt. eigenvalues --    3.33618   3.33978   3.34166   3.35338   3.35381
 Alpha virt. eigenvalues --    3.36384   3.36597   3.36851   3.37665   3.37878
 Alpha virt. eigenvalues --    3.38761   3.39422   3.40343   3.41831   3.42022
 Alpha virt. eigenvalues --    3.43301   3.43438   3.44309   3.46245   3.46503
 Alpha virt. eigenvalues --    3.46914   3.47519   3.47696   3.47913   3.48636
 Alpha virt. eigenvalues --    3.49380   3.51204   3.51905   3.52753   3.53450
 Alpha virt. eigenvalues --    3.54464   3.54666   3.55461   3.55701   3.56783
 Alpha virt. eigenvalues --    3.56880   3.57366   3.58497   3.59286   3.59607
 Alpha virt. eigenvalues --    3.59859   3.60416   3.60837   3.61475   3.61910
 Alpha virt. eigenvalues --    3.62258   3.62902   3.63973   3.64135   3.64864
 Alpha virt. eigenvalues --    3.65328   3.65913   3.66075   3.66732   3.67174
 Alpha virt. eigenvalues --    3.67487   3.67874   3.68295   3.69242   3.69611
 Alpha virt. eigenvalues --    3.70738   3.71027   3.71223   3.72021   3.72981
 Alpha virt. eigenvalues --    3.73890   3.74276   3.74992   3.75473   3.76037
 Alpha virt. eigenvalues --    3.76645   3.77947   3.78183   3.78296   3.78834
 Alpha virt. eigenvalues --    3.79639   3.80148   3.80871   3.81379   3.81689
 Alpha virt. eigenvalues --    3.82792   3.83409   3.84188   3.84610   3.84938
 Alpha virt. eigenvalues --    3.85354   3.86107   3.86797   3.87194   3.87904
 Alpha virt. eigenvalues --    3.88298   3.88500   3.89787   3.90973   3.91332
 Alpha virt. eigenvalues --    3.92589   3.92822   3.93677   3.94175   3.94988
 Alpha virt. eigenvalues --    3.96098   3.97629   3.97928   3.99171   4.00074
 Alpha virt. eigenvalues --    4.00512   4.01135   4.01779   4.02316   4.02820
 Alpha virt. eigenvalues --    4.04004   4.04856   4.05287   4.05757   4.06573
 Alpha virt. eigenvalues --    4.07501   4.08246   4.08535   4.08920   4.10453
 Alpha virt. eigenvalues --    4.10818   4.11490   4.11645   4.12268   4.12617
 Alpha virt. eigenvalues --    4.12892   4.14028   4.14584   4.15056   4.15669
 Alpha virt. eigenvalues --    4.16368   4.17175   4.17468   4.17910   4.18326
 Alpha virt. eigenvalues --    4.18537   4.19668   4.21469   4.22008   4.22959
 Alpha virt. eigenvalues --    4.23389   4.23889   4.24662   4.25489   4.25701
 Alpha virt. eigenvalues --    4.26486   4.28034   4.29102   4.29836   4.30191
 Alpha virt. eigenvalues --    4.30530   4.32447   4.33101   4.33360   4.34198
 Alpha virt. eigenvalues --    4.35045   4.35637   4.36644   4.37210   4.38334
 Alpha virt. eigenvalues --    4.38918   4.39573   4.40330   4.41877   4.42681
 Alpha virt. eigenvalues --    4.43895   4.44169   4.44749   4.46058   4.46548
 Alpha virt. eigenvalues --    4.47071   4.47793   4.49553   4.49739   4.51235
 Alpha virt. eigenvalues --    4.52143   4.52481   4.53175   4.54637   4.55273
 Alpha virt. eigenvalues --    4.55990   4.56424   4.57345   4.58048   4.58651
 Alpha virt. eigenvalues --    4.59803   4.61000   4.61398   4.61926   4.63567
 Alpha virt. eigenvalues --    4.63676   4.64448   4.66555   4.67206   4.68900
 Alpha virt. eigenvalues --    4.70245   4.70975   4.71501   4.72258   4.73440
 Alpha virt. eigenvalues --    4.74893   4.75157   4.75424   4.76137   4.78520
 Alpha virt. eigenvalues --    4.79256   4.79491   4.80806   4.81123   4.82151
 Alpha virt. eigenvalues --    4.83130   4.84108   4.84217   4.85500   4.86213
 Alpha virt. eigenvalues --    4.86966   4.88454   4.88691   4.89109   4.90843
 Alpha virt. eigenvalues --    4.92292   4.92805   4.95200   4.95447   4.95969
 Alpha virt. eigenvalues --    4.96649   4.96942   4.97387   4.98031   4.99845
 Alpha virt. eigenvalues --    4.99919   5.01232   5.01730   5.03261   5.04005
 Alpha virt. eigenvalues --    5.06859   5.07175   5.07509   5.08925   5.09307
 Alpha virt. eigenvalues --    5.10204   5.11300   5.12147   5.14023   5.15079
 Alpha virt. eigenvalues --    5.15872   5.18286   5.19306   5.19632   5.20236
 Alpha virt. eigenvalues --    5.20387   5.22400   5.23081   5.24050   5.24476
 Alpha virt. eigenvalues --    5.24805   5.26808   5.27715   5.31243   5.35773
 Alpha virt. eigenvalues --    5.36894   5.37884   5.39304   5.39566   5.43542
 Alpha virt. eigenvalues --    5.44573   5.45188   5.45561   5.46073   5.47993
 Alpha virt. eigenvalues --    5.49743   5.50700   5.53767   5.54057   5.55279
 Alpha virt. eigenvalues --    5.57637   5.59049   5.60011   5.61009   5.61437
 Alpha virt. eigenvalues --    5.62837   5.65422   5.68459   5.68745   5.69972
 Alpha virt. eigenvalues --    5.72959   5.73247   5.73898   5.75034   5.77019
 Alpha virt. eigenvalues --    5.79895   5.81327   5.81772   5.84561   5.84920
 Alpha virt. eigenvalues --    5.86382   5.87421   5.88049   5.89483   5.90122
 Alpha virt. eigenvalues --    5.93203   5.94988   5.97005   5.98643   6.00110
 Alpha virt. eigenvalues --    6.00796   6.01885   6.04246   6.05837   6.06425
 Alpha virt. eigenvalues --    6.10000   6.10044   6.11397   6.16389   6.20534
 Alpha virt. eigenvalues --    6.22979   6.24332   6.28472   6.31098   6.33211
 Alpha virt. eigenvalues --    6.35647   6.39945   6.45027   6.53354   6.56969
 Alpha virt. eigenvalues --    6.57443   6.60076   6.60661   6.66600   6.67218
 Alpha virt. eigenvalues --    6.68879   6.72884   6.74388   6.77525   6.77597
 Alpha virt. eigenvalues --    6.80287   6.83443   6.84679   6.90309   6.98103
 Alpha virt. eigenvalues --    6.98289   6.99782   7.00199   7.03497   7.08664
 Alpha virt. eigenvalues --    7.10704   7.16084   7.17537   7.19392   7.21514
 Alpha virt. eigenvalues --    7.22222   7.27403   7.30782   7.32265   7.35353
 Alpha virt. eigenvalues --    7.41218   7.47150   7.47495   7.51743   7.63666
 Alpha virt. eigenvalues --    7.70772   7.72066   7.82818   7.91235   8.07241
 Alpha virt. eigenvalues --    8.20398   8.43423   8.71636   8.75803   8.76775
 Alpha virt. eigenvalues --    8.77166   8.78732   8.79971   8.80335   8.82121
 Alpha virt. eigenvalues --    8.82869   8.84213   8.86550   8.88635   8.93638
 Alpha virt. eigenvalues --    8.95663   8.98321   9.00363   9.07877   9.09821
 Alpha virt. eigenvalues --    9.10860   9.11459   9.12112   9.13817   9.15145
 Alpha virt. eigenvalues --    9.15851   9.16731   9.18269   9.19057   9.19618
 Alpha virt. eigenvalues --    9.21227   9.22099   9.23560   9.24419   9.25447
 Alpha virt. eigenvalues --    9.26354   9.27641   9.27821   9.28208   9.28862
 Alpha virt. eigenvalues --    9.30524   9.30945   9.31273   9.33574   9.33985
 Alpha virt. eigenvalues --    9.35078   9.35277   9.38190   9.39747   9.41055
 Alpha virt. eigenvalues --    9.41682   9.43037   9.44995   9.46935   9.47401
 Alpha virt. eigenvalues --    9.48731   9.50633   9.51281   9.52599   9.53480
 Alpha virt. eigenvalues --    9.54942   9.56147   9.58852   9.62086   9.73127
 Alpha virt. eigenvalues --    9.74439   9.75124   9.77967   9.80526   9.84696
 Alpha virt. eigenvalues --    9.95671   9.97884  10.00816  10.01877  15.27913
 Alpha virt. eigenvalues --   15.89914  16.09651  16.13534  16.22544  16.42886
 Alpha virt. eigenvalues --   16.44259  16.56662  16.88287  17.04366  17.39231
 Alpha virt. eigenvalues --   17.55991  18.03500  18.15917  18.65383  19.13336
 Alpha virt. eigenvalues --   20.25218  20.34421  20.70461  21.09407  21.40147
          Condensed to atoms (all electrons):
               1          2          3          4          5          6
     1  C    9.895342  -0.372567  -0.798979   0.149495  -0.016977   0.058938
     2  N   -0.372567   8.173032   0.365296  -0.173927  -0.371052  -0.102721
     3  C   -0.798979   0.365296   5.931850   0.236159   0.245249  -0.158614
     4  O    0.149495  -0.173927   0.236159   8.869311  -0.069633   0.007798
     5  O   -0.016977  -0.371052   0.245249  -0.069633   8.651812   0.222443
     6  C    0.058938  -0.102721  -0.158614   0.007798   0.222443   5.580065
     7  C   -0.005902  -0.010198   0.020577  -0.009032  -0.112373   0.079849
     8  C    0.002715   0.001462  -0.008088  -0.005026   0.003964  -0.027978
     9  C   -1.314428  -0.402040  -0.029894  -0.174543  -0.018177  -0.041280
    10  C   -0.127003   0.120250  -0.030310   0.046680  -0.004971  -0.008969
    11  C    0.059414  -0.053729   0.010365   0.001150   0.008941   0.006789
    12  C   -0.582973   0.202284  -0.030623   0.004412  -0.001773  -0.005668
    13  C   -0.878437  -0.531911   0.044706   0.001185  -0.049364  -0.023101
    14  H    0.006453   0.245178  -0.101445   0.024576   0.100856   0.004451
    15  H   -0.009238   0.019683  -0.035015  -0.005337  -0.038986   0.297981
    16  H   -0.007180   0.020368  -0.037494  -0.001654  -0.039743   0.294929
    17  H   -0.000791  -0.006906  -0.002511   0.005290  -0.030999   0.044911
    18  H   -0.000049  -0.006676  -0.001835   0.005829  -0.032654   0.041616
    19  H    0.000379  -0.000516   0.004944   0.000093  -0.000206  -0.004976
    20  H    0.000261  -0.000566   0.001685  -0.000435   0.000167  -0.008079
    21  H    0.000294  -0.000691   0.005213  -0.000023   0.000037  -0.004822
    22  H   -0.731635   0.082653  -0.030392  -0.129271   0.009428  -0.038014
    23  H   -0.031963  -0.007571  -0.007822  -0.001867  -0.014676   0.000539
    24  C    0.013754   0.010471   0.005193  -0.000113   0.000484   0.000120
    25  C   -0.002005   0.013613   0.010805  -0.007675   0.000410  -0.002072
    26  H   -0.020654  -0.043262  -0.017092   0.001202  -0.000274  -0.000194
    27  F   -0.004510   0.002444   0.000561  -0.000064  -0.000003  -0.000013
    28  F   -0.019933   0.002368   0.000400  -0.000023   0.000013   0.000011
    29  F    0.003336  -0.000326  -0.000075  -0.000034  -0.000004  -0.000017
    30  F   -0.031222   0.011626   0.010105  -0.008027   0.000680   0.000514
    31  F    0.029480  -0.004258  -0.002500   0.001467   0.000003   0.000059
    32  F    0.002799  -0.002185   0.000322  -0.000018  -0.000001   0.000027
               7          8          9         10         11         12
     1  C   -0.005902   0.002715  -1.314428  -0.127003   0.059414  -0.582973
     2  N   -0.010198   0.001462  -0.402040   0.120250  -0.053729   0.202284
     3  C    0.020577  -0.008088  -0.029894  -0.030310   0.010365  -0.030623
     4  O   -0.009032  -0.005026  -0.174543   0.046680   0.001150   0.004412
     5  O   -0.112373   0.003964  -0.018177  -0.004971   0.008941  -0.001773
     6  C    0.079849  -0.027978  -0.041280  -0.008969   0.006789  -0.005668
     7  C    5.506689   0.112739   0.000635   0.000396   0.000260  -0.000505
     8  C    0.112739   5.798942  -0.002102   0.000025   0.000056   0.000006
     9  C    0.000635  -0.002102  11.016908  -1.122239  -0.355201  -0.092101
    10  C    0.000396   0.000025  -1.122239   9.273664  -1.372586  -0.026657
    11  C    0.000260   0.000056  -0.355201  -1.372586   8.853396  -0.943076
    12  C   -0.000505   0.000006  -0.092101  -0.026657  -0.943076   9.336070
    13  C    0.002338  -0.000382  -0.143601  -0.143714  -0.036381  -0.522313
    14  H    0.005280   0.000445  -0.026605  -0.007847  -0.003144  -0.008011
    15  H    0.009938  -0.003403   0.003943   0.000681  -0.000221  -0.000439
    16  H    0.012224  -0.003351   0.004559  -0.000244  -0.000021  -0.000275
    17  H    0.403970  -0.039703   0.000267  -0.000034   0.000020  -0.000068
    18  H    0.404647  -0.040792   0.000002  -0.000049   0.000089  -0.000065
    19  H    0.038908   0.360314   0.000025   0.000042   0.000007   0.000011
    20  H   -0.030085   0.450354  -0.000178  -0.000006   0.000004  -0.000005
    21  H    0.037644   0.361866   0.000063   0.000005  -0.000002   0.000018
    22  H   -0.001451  -0.000494  -0.110090  -0.355009  -0.048181  -0.019963
    23  H    0.000336  -0.000033  -0.008298  -0.038884   0.064437  -0.460886
    24  C   -0.000015   0.000002   0.044900  -0.257817  -0.367390  -0.468763
    25  C   -0.000071  -0.000032  -0.350390  -0.400213  -0.101849   0.066747
    26  H   -0.000018   0.000007   0.003519  -0.053752  -0.168277   0.392197
    27  F   -0.000000  -0.000000   0.000486   0.003928   0.011334  -0.023936
    28  F   -0.000000   0.000000  -0.006081   0.023391  -0.014125  -0.011005
    29  F    0.000000  -0.000000  -0.004026  -0.033001   0.071105  -0.017495
    30  F    0.000003  -0.000001   0.058974  -0.055695  -0.002311  -0.000795
    31  F   -0.000001   0.000000  -0.030770   0.029850  -0.007266   0.003955
    32  F    0.000002  -0.000000  -0.029186  -0.030690   0.049648   0.003297
              13         14         15         16         17         18
     1  C   -0.878437   0.006453  -0.009238  -0.007180  -0.000791  -0.000049
     2  N   -0.531911   0.245178   0.019683   0.020368  -0.006906  -0.006676
     3  C    0.044706  -0.101445  -0.035015  -0.037494  -0.002511  -0.001835
     4  O    0.001185   0.024576  -0.005337  -0.001654   0.005290   0.005829
     5  O   -0.049364   0.100856  -0.038986  -0.039743  -0.030999  -0.032654
     6  C   -0.023101   0.004451   0.297981   0.294929   0.044911   0.041616
     7  C    0.002338   0.005280   0.009938   0.012224   0.403970   0.404647
     8  C   -0.000382   0.000445  -0.003403  -0.003351  -0.039703  -0.040792
     9  C   -0.143601  -0.026605   0.003943   0.004559   0.000267   0.000002
    10  C   -0.143714  -0.007847   0.000681  -0.000244  -0.000034  -0.000049
    11  C   -0.036381  -0.003144  -0.000221  -0.000021   0.000020   0.000089
    12  C   -0.522313  -0.008011  -0.000439  -0.000275  -0.000068  -0.000065
    13  C    8.877366   0.031819   0.000829   0.000134   0.000149  -0.000022
    14  H    0.031819   0.813255  -0.000979  -0.001344  -0.000320  -0.000385
    15  H    0.000829  -0.000979   0.421685   0.019748   0.018204  -0.017707
    16  H    0.000134  -0.001344   0.019748   0.421892  -0.016606   0.018831
    17  H    0.000149  -0.000320   0.018204  -0.016606   0.403096   0.008503
    18  H   -0.000022  -0.000385  -0.017707   0.018831   0.008503   0.407496
    19  H    0.000011   0.000133  -0.008100  -0.009721   0.000796   0.000742
    20  H   -0.000059   0.000024  -0.000252  -0.000402  -0.002259  -0.002645
    21  H    0.000023   0.000113  -0.009736  -0.008216   0.000437   0.000791
    22  H   -0.020259  -0.027123  -0.003533  -0.004249  -0.000113  -0.000207
    23  H    0.177692  -0.043717   0.000200   0.000303   0.000095   0.000049
    24  C    0.035805  -0.000213   0.000003   0.000003  -0.000003  -0.000001
    25  C    0.002442  -0.000893  -0.000128  -0.000086  -0.000000  -0.000002
    26  H   -0.241403  -0.004634  -0.000071  -0.000074  -0.000007   0.000009
    27  F   -0.005732   0.000041   0.000001   0.000001  -0.000000   0.000000
    28  F    0.014116   0.000021   0.000002   0.000001  -0.000000  -0.000000
    29  F    0.008487  -0.000231  -0.000002   0.000001   0.000001  -0.000000
    30  F   -0.003724  -0.000012   0.000094   0.000069   0.000000   0.000001
    31  F   -0.008021   0.000175  -0.000043  -0.000025  -0.000000   0.000000
    32  F   -0.001100  -0.000003   0.000005  -0.000017   0.000001   0.000000
              19         20         21         22         23         24
     1  C    0.000379   0.000261   0.000294  -0.731635  -0.031963   0.013754
     2  N   -0.000516  -0.000566  -0.000691   0.082653  -0.007571   0.010471
     3  C    0.004944   0.001685   0.005213  -0.030392  -0.007822   0.005193
     4  O    0.000093  -0.000435  -0.000023  -0.129271  -0.001867  -0.000113
     5  O   -0.000206   0.000167   0.000037   0.009428  -0.014676   0.000484
     6  C   -0.004976  -0.008079  -0.004822  -0.038014   0.000539   0.000120
     7  C    0.038908  -0.030085   0.037644  -0.001451   0.000336  -0.000015
     8  C    0.360314   0.450354   0.361866  -0.000494  -0.000033   0.000002
     9  C    0.000025  -0.000178   0.000063  -0.110090  -0.008298   0.044900
    10  C    0.000042  -0.000006   0.000005  -0.355009  -0.038884  -0.257817
    11  C    0.000007   0.000004  -0.000002  -0.048181   0.064437  -0.367390
    12  C    0.000011  -0.000005   0.000018  -0.019963  -0.460886  -0.468763
    13  C    0.000011  -0.000059   0.000023  -0.020259   0.177692   0.035805
    14  H    0.000133   0.000024   0.000113  -0.027123  -0.043717  -0.000213
    15  H   -0.008100  -0.000252  -0.009736  -0.003533   0.000200   0.000003
    16  H   -0.009721  -0.000402  -0.008216  -0.004249   0.000303   0.000003
    17  H    0.000796  -0.002259   0.000437  -0.000113   0.000095  -0.000003
    18  H    0.000742  -0.002645   0.000791  -0.000207   0.000049  -0.000001
    19  H    0.315684   0.000449   0.021733   0.000094  -0.000016   0.000001
    20  H    0.000449   0.305516   0.000891  -0.000023   0.000004   0.000000
    21  H    0.021733   0.000891   0.315456   0.000072  -0.000007   0.000000
    22  H    0.000094  -0.000023   0.000072   2.114883  -0.044808   0.001160
    23  H   -0.000016   0.000004  -0.000007  -0.044808   1.185024  -0.011223
    24  C    0.000001   0.000000   0.000000   0.001160  -0.011223   5.383267
    25  C    0.000001  -0.000003   0.000002  -0.118720  -0.002536  -0.045272
    26  H    0.000002  -0.000000   0.000002   0.015595  -0.189774  -0.085933
    27  F    0.000000  -0.000000  -0.000000  -0.002660   0.000070   0.182931
    28  F    0.000000   0.000000   0.000000  -0.000562  -0.004301   0.165884
    29  F   -0.000000  -0.000000   0.000000  -0.000286   0.002001   0.136684
    30  F   -0.000001   0.000000  -0.000002  -0.032194   0.000021   0.007206
    31  F    0.000000  -0.000000   0.000001   0.002514  -0.000326   0.001260
    32  F    0.000000  -0.000000   0.000000   0.005437  -0.000197   0.009077
              25         26         27         28         29         30
     1  C   -0.002005  -0.020654  -0.004510  -0.019933   0.003336  -0.031222
     2  N    0.013613  -0.043262   0.002444   0.002368  -0.000326   0.011626
     3  C    0.010805  -0.017092   0.000561   0.000400  -0.000075   0.010105
     4  O   -0.007675   0.001202  -0.000064  -0.000023  -0.000034  -0.008027
     5  O    0.000410  -0.000274  -0.000003   0.000013  -0.000004   0.000680
     6  C   -0.002072  -0.000194  -0.000013   0.000011  -0.000017   0.000514
     7  C   -0.000071  -0.000018  -0.000000  -0.000000   0.000000   0.000003
     8  C   -0.000032   0.000007  -0.000000   0.000000  -0.000000  -0.000001
     9  C   -0.350390   0.003519   0.000486  -0.006081  -0.004026   0.058974
    10  C   -0.400213  -0.053752   0.003928   0.023391  -0.033001  -0.055695
    11  C   -0.101849  -0.168277   0.011334  -0.014125   0.071105  -0.002311
    12  C    0.066747   0.392197  -0.023936  -0.011005  -0.017495  -0.000795
    13  C    0.002442  -0.241403  -0.005732   0.014116   0.008487  -0.003724
    14  H   -0.000893  -0.004634   0.000041   0.000021  -0.000231  -0.000012
    15  H   -0.000128  -0.000071   0.000001   0.000002  -0.000002   0.000094
    16  H   -0.000086  -0.000074   0.000001   0.000001   0.000001   0.000069
    17  H   -0.000000  -0.000007  -0.000000  -0.000000   0.000001   0.000000
    18  H   -0.000002   0.000009   0.000000  -0.000000  -0.000000   0.000001
    19  H    0.000001   0.000002   0.000000   0.000000  -0.000000  -0.000001
    20  H   -0.000003  -0.000000  -0.000000   0.000000  -0.000000   0.000000
    21  H    0.000002   0.000002  -0.000000   0.000000   0.000000  -0.000002
    22  H   -0.118720   0.015595  -0.002660  -0.000562  -0.000286  -0.032194
    23  H   -0.002536  -0.189774   0.000070  -0.004301   0.002001   0.000021
    24  C   -0.045272  -0.085933   0.182931   0.165884   0.136684   0.007206
    25  C    5.139960   0.002880   0.012897   0.003320  -0.001057   0.206347
    26  H    0.002880   1.082131   0.003198  -0.002136   0.001925  -0.000498
    27  F    0.012897   0.003198   9.353096  -0.082394  -0.025400   0.005628
    28  F    0.003320  -0.002136  -0.082394   9.378338  -0.065866   0.000284
    29  F   -0.001057   0.001925  -0.025400  -0.065866   9.337114  -0.000967
    30  F    0.206347  -0.000498   0.005628   0.000284  -0.000967   9.359734
    31  F    0.153834  -0.000297  -0.002427  -0.000508  -0.002269  -0.066148
    32  F    0.180495  -0.001086  -0.000626   0.004408  -0.003660  -0.088140
              31         32
     1  C    0.029480   0.002799
     2  N   -0.004258  -0.002185
     3  C   -0.002500   0.000322
     4  O    0.001467  -0.000018
     5  O    0.000003  -0.000001
     6  C    0.000059   0.000027
     7  C   -0.000001   0.000002
     8  C    0.000000  -0.000000
     9  C   -0.030770  -0.029186
    10  C    0.029850  -0.030690
    11  C   -0.007266   0.049648
    12  C    0.003955   0.003297
    13  C   -0.008021  -0.001100
    14  H    0.000175  -0.000003
    15  H   -0.000043   0.000005
    16  H   -0.000025  -0.000017
    17  H   -0.000000   0.000001
    18  H    0.000000   0.000000
    19  H    0.000000   0.000000
    20  H   -0.000000  -0.000000
    21  H    0.000001   0.000000
    22  H    0.002514   0.005437
    23  H   -0.000326  -0.000197
    24  C    0.001260   0.009077
    25  C    0.153834   0.180495
    26  H   -0.000297  -0.001086
    27  F   -0.002427  -0.000626
    28  F   -0.000508   0.004408
    29  F   -0.002269  -0.003660
    30  F   -0.066148  -0.088140
    31  F    9.332086  -0.022175
    32  F   -0.022175   9.354027
 Mulliken charges:
               1
     1  C    0.733786
     2  N   -0.179626
     3  C    0.399260
     4  O   -0.767945
     5  O   -0.442618
     6  C   -0.214520
     7  C   -0.466787
     8  C   -0.961514
     9  C   -0.873052
    10  C    0.570782
    11  C    0.336746
    12  C   -0.791601
    13  C   -0.587579
    14  H   -0.005910
    15  H    0.340195
    16  H    0.337638
    17  H    0.214583
    18  H    0.214484
    19  H    0.279167
    20  H    0.285642
    21  H    0.278840
    22  H    0.487400
    23  H    0.438133
    24  C    1.238540
    25  C    1.239251
    26  H    0.326771
    27  F   -0.428850
    28  F   -0.385621
    29  F   -0.405937
    30  F   -0.371551
    31  F   -0.407647
    32  F   -0.430459
 Sum of Mulliken charges =  -0.00000
 Mulliken charges with hydrogens summed into heavy atoms:
               1
     1  C    0.733786
     2  N   -0.185536
     3  C    0.399260
     4  O   -0.767945
     5  O   -0.442618
     6  C    0.463313
     7  C   -0.037720
     8  C   -0.117865
     9  C   -0.385652
    10  C    0.570782
    11  C    0.336746
    12  C   -0.464830
    13  C   -0.149446
    24  C    1.238540
    25  C    1.239251
    27  F   -0.428850
    28  F   -0.385621
    29  F   -0.405937
    30  F   -0.371551
    31  F   -0.407647
    32  F   -0.430459
 Electronic spatial extent (au):  <R**2>=           9408.0143
 Charge=             -0.0000 electrons
 Dipole moment (field-independent basis, Debye):
    X=              6.2760    Y=             -4.3118    Z=             -0.0296  Tot=              7.6145
 Quadrupole moment (field-independent basis, Debye-Ang):
   XX=           -112.9620   YY=           -116.1249   ZZ=           -120.7247
   XY=             -1.4237   XZ=             -0.0641   YZ=             -0.1471
 Traceless Quadrupole moment (field-independent basis, Debye-Ang):
   XX=              3.6419   YY=              0.4790   ZZ=             -4.1209
   XY=             -1.4237   XZ=             -0.0641   YZ=             -0.1471
 Octapole moment (field-independent basis, Debye-Ang**2):
  XXX=            113.4467  YYY=             -8.3855  ZZZ=              0.2075  XYY=            -25.2939
  XXY=              6.4069  XXZ=              1.3003  XZZ=            -19.0907  YZZ=             12.2551
  YYZ=             -0.8150  XYZ=              0.4916
 Hexadecapole moment (field-independent basis, Debye-Ang**3):
 XXXX=          -9181.0927 YYYY=          -1305.0526 ZZZZ=           -267.6141 XXXY=            -53.7953
 XXXZ=             -6.8491 YYYX=            -41.1074 YYYZ=              3.0338 ZZZX=             -2.2626
 ZZZY=             -3.0185 XXYY=          -1897.3330 XXZZ=          -1684.0619 YYZZ=           -283.1026
 XXYZ=             -0.9573 YYXZ=              4.2416 ZZXY=             -3.7669
 N-N= 1.787077395574D+03 E-N=-6.558873653738D+03  KE= 1.260828587326D+03
 Unable to Open any file for archive entry.
 1\1\GINC-GADI-CPU-CLX-0483\SP\RDSDPBEP86-FC\Aug-CC-pVTZ\C12H11F6N1O2\H
 IO507\10-Sep-2020\0\\# DSDPBEP86/AUG-cc-PVTZ SCF=Tight INT(grid=ultraf
 ine) MaxDisk=60000MB\\NM2CA.DSDPBEP86_AUG-cc-PVTZ\\0,1\C,0,-5.85880726
 86,1.2111492307,0.1765981364\N,0,-4.5783552515,0.6613963421,0.09656373
 84\C,0,-3.3772640731,1.3312596646,0.0688840707\O,0,-3.2251605941,2.523
 4746613,0.1014129193\O,0,-2.3834248538,0.4328324766,-0.0015628558\C,0,
 -1.0564220882,0.9838422492,-0.0396510138\C,0,-0.0814529449,-0.17084444
 06,-0.1160746397\C,0,1.3580869879,0.3344326272,-0.1611529455\C,0,-6.10
 19413123,2.5881754102,0.2090307151\C,0,-7.4040772143,3.0635195247,0.28
 91005306\C,0,-8.4893914329,2.1803809261,0.3495706037\C,0,-8.2339387569
 ,0.813654447,0.3066952856\C,0,-6.9403606759,0.3309673082,0.2215756196\
 H,0,-4.5084338831,-0.345148954,0.0663478128\H,0,-0.9011950882,1.588218
 227,0.8572329536\H,0,-0.974638408,1.6429924946,-0.9071998292\H,0,-0.30
 42977462,-0.766964602,-1.0051377612\H,0,-0.2304552435,-0.8207738729,0.
 7504451019\H,0,1.5281416988,0.9713349765,-1.0325394672\H,0,2.062485456
 8,-0.4963533344,-0.2159735193\H,0,1.6021751227,0.9177976369,0.72990771
 94\H,0,-5.2755772973,3.2805548985,0.1659665702\H,0,-6.7693793068,-0.74
 02053567,0.1937269816\C,0,-9.9313505744,2.6225811931,0.4228828754\C,0,
 -7.5726345193,4.5686610814,0.3487813804\H,0,-9.0594515796,0.1152207494
 ,0.3489440029\F,0,-10.1165013281,3.6287527417,1.2819388412\F,0,-10.720
 6302911,1.6146152223,0.8302329734\F,0,-10.4019397942,3.0141985411,-0.7
 686665911\F,0,-6.4779323569,5.2004330284,-0.0921049858\F,0,-7.78434190
 63,4.9904186235,1.6016609346\F,0,-8.593863476,4.9919462782,-0.40193615
 84\\Version=ES64L-G16RevC.01\State=1-A\HF=-1264.6924524\MP2=-1266.7510
 352\RMSD=6.703e-09\PG=C01 [X(C12H11F6N1O2)]\\@
 The archive entry for this job was punched.


 IT IS THE BEHAVIOR AND DISTRIBUTION OF THE ELECTRONS 
 AROUND THE NUCLEUS THAT GIVES THE FUNDAMENTAL 
 CHARACTER OF AN ATOM:  IT MUST BE THE SAME FOR MOLECULES.

                               -- C. A. COULSON, 1951
 Job cpu time:       1 days  8 hours 34 minutes 48.5 seconds.
 Elapsed time:       0 days  4 hours  6 minutes  7.5 seconds.
 File lengths (MBytes):  RWF=    767 Int=      0 D2E=      0 Chk=     97 Scr=      1
 Normal termination of Gaussian 16 at Thu Sep 10 15:33:12 2020.
