 Entering Gaussian System, Link 0=/apps/gaussian/g09e01/g09/g09
 AtFile(1): /home/507/hio507/Basis/GTMP2LARGE.gbs
 Initial command:
 /apps/gaussian/g09e01/g09/l1.exe "/jobfs/local/4046998.r-man2/Gau-44179.inp" -scrdir="/jobfs/local/4046998.r-man2/"
 Entering Link 1 = /apps/gaussian/g09e01/g09/l1.exe PID=     44180.
  
 Copyright (c) 1988,1990,1992,1993,1995,1998,2003,2009,2015,
            Gaussian, Inc.  All Rights Reserved.
  
 This is part of the Gaussian(R) 09 program.  It is based on
 the Gaussian(R) 03 system (copyright 2003, Gaussian, Inc.),
 the Gaussian(R) 98 system (copyright 1998, Gaussian, Inc.),
 the Gaussian(R) 94 system (copyright 1995, Gaussian, Inc.),
 the Gaussian 92(TM) system (copyright 1992, Gaussian, Inc.),
 the Gaussian 90(TM) system (copyright 1990, Gaussian, Inc.),
 the Gaussian 88(TM) system (copyright 1988, Gaussian, Inc.),
 the Gaussian 86(TM) system (copyright 1986, Carnegie Mellon
 University), and the Gaussian 82(TM) system (copyright 1983,
 Carnegie Mellon University). Gaussian is a federally registered
 trademark of Gaussian, Inc.
  
 This software contains proprietary and confidential information,
 including trade secrets, belonging to Gaussian, Inc.
  
 This software is provided under written license and may be
 used, copied, transmitted, or stored only in accord with that
 written license.
  
 The following legend is applicable only to US Government
 contracts under FAR:
  
                    RESTRICTED RIGHTS LEGEND
  
 Use, reproduction and disclosure by the US Government is
 subject to restrictions as set forth in subparagraphs (a)
 and (c) of the Commercial Computer Software - Restricted
 Rights clause in FAR 52.227-19.
  
 Gaussian, Inc.
 340 Quinnipiac St., Bldg. 40, Wallingford CT 06492
  
  
 ---------------------------------------------------------------
 Warning -- This program may not be used in any manner that
 competes with the business of Gaussian, Inc. or will provide
 assistance to any competitor of Gaussian, Inc.  The licensee
 of this program is prohibited from giving any competitor of
 Gaussian, Inc. access to this program.  By using this program,
 the user acknowledges that Gaussian, Inc. is engaged in the
 business of creating and licensing software in the field of
 computational chemistry and represents and warrants to the
 licensee that it is not a competitor of Gaussian, Inc. and that
 it will not use this program in any manner prohibited above.
 ---------------------------------------------------------------
  

 Cite this work as:
 Gaussian 09, Revision E.01,
 M. J. Frisch, G. W. Trucks, H. B. Schlegel, G. E. Scuseria, 
 M. A. Robb, J. R. Cheeseman, G. Scalmani, V. Barone, B. Mennucci, 
 G. A. Petersson, H. Nakatsuji, M. Caricato, X. Li, H. P. Hratchian, 
 A. F. Izmaylov, J. Bloino, G. Zheng, J. L. Sonnenberg, M. Hada, 
 M. Ehara, K. Toyota, R. Fukuda, J. Hasegawa, M. Ishida, T. Nakajima, 
 Y. Honda, O. Kitao, H. Nakai, T. Vreven, J. A. Montgomery, Jr., 
 J. E. Peralta, F. Ogliaro, M. Bearpark, J. J. Heyd, E. Brothers, 
 K. N. Kudin, V. N. Staroverov, T. Keith, R. Kobayashi, J. Normand, 
 K. Raghavachari, A. Rendell, J. C. Burant, S. S. Iyengar, J. Tomasi, 
 M. Cossi, N. Rega, J. M. Millam, M. Klene, J. E. Knox, J. B. Cross, 
 V. Bakken, C. Adamo, J. Jaramillo, R. Gomperts, R. E. Stratmann, 
 O. Yazyev, A. J. Austin, R. Cammi, C. Pomelli, J. W. Ochterski, 
 R. L. Martin, K. Morokuma, V. G. Zakrzewski, G. A. Voth, 
 P. Salvador, J. J. Dannenberg, S. Dapprich, A. D. Daniels, 
 O. Farkas, J. B. Foresman, J. V. Ortiz, J. Cioslowski, 
 and D. J. Fox, Gaussian, Inc., Wallingford CT, 2013.
 
 ******************************************
 Gaussian 09:  ES64L-G09RevE.01 30-Nov-2015
                 9-Dec-2019 
 ******************************************
 %chk=NM2CA_c2.MP2_GTMP2LARGE.chk
 %mem=1114112000
 %nproc=8
 Will use up to    8 processors via shared memory.
 -------------------------------------------------------------
 # MP2/Gen 5D SCF=Tight INT(grid=ultrafine) maxdisk=3489660928
 -------------------------------------------------------------
 1/38=1/1;
 2/12=2,17=6,18=5,40=1/2;
 3/5=7,8=1,11=9,16=1,25=1,30=1,75=-5/1,2,3;
 4//1;
 5/5=2,32=2,38=5/2;
 8/10=1/1;
 9/16=-3/6;
 6/7=2,8=2,9=2,10=2/1;
 99/5=1,9=1/99;
 -----------------------
 NM2CA_c2.MP2_GTMP2LARGE
 -----------------------
 Symbolic Z-matrix:
 Charge =  0 Multiplicity = 1
 C                    -5.81651   1.50248   0.22126 
 N                    -4.57911   0.85891   0.16426 
 C                    -3.33781   1.44448   0.08081 
 O                    -3.10742   2.62469   0.04944 
 O                    -2.40649   0.48017   0.03914 
 C                    -1.04714   0.93803  -0.04934 
 C                    -0.15327  -0.28216  -0.09328 
 C                     1.31549   0.12224  -0.18701 
 C                    -6.95415   0.68996   0.28999 
 C                    -8.22508   1.23472   0.34583 
 C                    -8.38707   2.62733   0.34553 
 C                    -7.25225   3.42516   0.2717 
 C                    -5.97345   2.88787   0.21079 
 H                    -4.57797  -0.15053   0.17716 
 H                    -0.83178   1.56849   0.81674 
 H                    -0.94087   1.55206  -0.94686 
 H                    -0.43452  -0.89879  -0.95121 
 H                    -0.32686  -0.88326   0.80333 
 H                     1.50895   0.70928  -1.08806 
 H                     1.9614   -0.75588  -0.21925 
 H                     1.6172    0.72425   0.6735 
 H                    -6.8412   -0.38781   0.29153 
 H                    -5.11196   3.53533   0.15673 
 C                    -9.73282   3.30954   0.38121 
 C                    -9.38539   0.2676    0.44695 
 H                    -7.36389   4.5018    0.2685 
 F                    -10.56886   2.74505   1.25881 
 F                    -10.33622   3.29757  -0.81528 
 F                    -9.61012   4.59811   0.7343 
 F                    -9.01896  -0.96926   0.07321 
 F                    -10.40868   0.62013  -0.33351 
 F                    -9.84052   0.16792   1.70114 
 
                          Input orientation:                          
 ---------------------------------------------------------------------
 Center     Atomic      Atomic             Coordinates (Angstroms)
 Number     Number       Type             X           Y           Z
 ---------------------------------------------------------------------
      1          6           0       -5.816510    1.502476    0.221260
      2          7           0       -4.579106    0.858914    0.164256
      3          6           0       -3.337808    1.444480    0.080809
      4          8           0       -3.107425    2.624687    0.049442
      5          8           0       -2.406493    0.480166    0.039136
      6          6           0       -1.047136    0.938034   -0.049338
      7          6           0       -0.153274   -0.282158   -0.093282
      8          6           0        1.315486    0.122241   -0.187005
      9          6           0       -6.954149    0.689956    0.289992
     10          6           0       -8.225079    1.234724    0.345827
     11          6           0       -8.387075    2.627334    0.345535
     12          6           0       -7.252251    3.425156    0.271701
     13          6           0       -5.973445    2.887873    0.210785
     14          1           0       -4.577971   -0.150529    0.177164
     15          1           0       -0.831776    1.568493    0.816744
     16          1           0       -0.940866    1.552059   -0.946863
     17          1           0       -0.434521   -0.898790   -0.951205
     18          1           0       -0.326858   -0.883263    0.803329
     19          1           0        1.508947    0.709277   -1.088056
     20          1           0        1.961405   -0.755877   -0.219247
     21          1           0        1.617198    0.724253    0.673499
     22          1           0       -6.841204   -0.387811    0.291533
     23          1           0       -5.111963    3.535327    0.156734
     24          6           0       -9.732821    3.309536    0.381205
     25          6           0       -9.385393    0.267595    0.446949
     26          1           0       -7.363890    4.501800    0.268496
     27          9           0      -10.568858    2.745049    1.258809
     28          9           0      -10.336222    3.297569   -0.815276
     29          9           0       -9.610124    4.598114    0.734299
     30          9           0       -9.018959   -0.969256    0.073208
     31          9           0      -10.408677    0.620130   -0.333513
     32          9           0       -9.840521    0.167921    1.701141
 ---------------------------------------------------------------------
                    Distance matrix (angstroms):
                    1          2          3          4          5
     1  C    0.000000
     2  N    1.395919   0.000000
     3  C    2.483356   1.375018   0.000000
     4  O    2.937350   2.301518   1.202892   0.000000
     5  O    3.564618   2.208926   1.341262   2.256188   0.000000
     6  C    4.810275   3.539307   2.349596   2.664460   1.437123
     7  C    5.946100   4.577812   3.626685   4.146942   2.382367
     8  C    7.275789   5.950823   4.844913   5.087267   3.745982
     9  C    1.399691   2.384362   3.700134   4.312579   4.559398
    10  C    2.426605   3.669784   4.898944   5.311330   5.875317
    11  C    2.808657   4.202475   5.192718   5.287947   6.361727
    12  C    2.400124   3.707134   4.391171   4.227260   5.675246
    13  C    1.394297   2.462320   3.007800   2.882598   4.306932
    14  H    2.065998   1.009526   2.022707   3.143349   2.265424
    15  H    5.020611   3.869332   2.614799   2.623524   2.066123
    16  H    5.013868   3.866759   2.610174   2.614791   2.066207
    17  H    6.008873   4.638035   3.871051   4.534380   2.602109
    18  H    6.013887   4.639527   3.873789   4.539341   2.601502
    19  H    7.483702   6.217321   5.039623   5.125777   4.080898
    20  H    8.111114   6.747808   5.745716   6.098643   4.546768
    21  H    7.488001   6.218653   5.042032   5.130610   4.080697
    22  H    2.151307   2.586041   3.959227   4.803630   4.525897
    23  H    2.152449   2.728953   2.743180   2.204303   4.082573
    24  C    4.316079   5.710813   6.668198   6.668955   7.861133
    25  C    3.783224   4.850769   6.171904   6.717646   6.994036
    26  H    3.375286   4.586557   5.058831   4.657148   6.387638
    27  F    5.020489   6.374377   7.440918   7.559765   8.558125
    28  F    4.972380   6.328579   7.294842   7.311362   8.458628
    29  F    4.923179   6.294260   7.050845   6.829974   8.326647
    30  F    4.048093   4.802373   6.172654   6.918326   6.769541
    31  F    4.708960   5.855654   7.130807   7.581107   8.012078
    32  F    4.490407   5.524670   6.822050   7.355162   7.623945
                    6          7          8          9         10
     6  C    0.000000
     7  C    1.513205   0.000000
     8  C    2.503289   1.526296   0.000000
     9  C    5.921950   6.880684   8.302812   0.000000
    10  C    7.194932   8.224827   9.619974   1.383890   0.000000
    11  C    7.542172   8.743751  10.034878   2.410352   1.402001
    12  C    6.692704   8.017036   9.193790   2.751458   2.397891
    13  C    5.304532   6.634452   7.806118   2.408089   2.796603
    14  H    3.701765   4.434908   5.910995   2.522968   3.904967
    15  H    1.092683   2.171042   2.776669   6.207475   7.415800
    16  H    1.092644   2.171003   2.777209   6.199403   7.404829
    17  H    2.136021   1.093328   2.165417   6.824239   8.180890
    18  H    2.136109   1.093330   2.165431   6.830778   8.190059
    19  H    2.768543   2.176120   1.092672   8.574578   9.853090
    20  H    3.456808   2.170747   1.090570   9.046373  10.394530
    21  H    2.768912   2.176095   1.092665   8.579991   9.860951
    22  H    5.953594   6.699825   8.186620   1.083670   2.133232
    23  H    4.828169   6.262931   7.285562   3.392278   3.875567
    24  C    9.013906  10.241734  11.512897   3.819887   2.565030
    25  C    8.379875   9.264237  10.720626   2.472644   1.513900
    26  H    7.259671   8.660838   9.732399   3.833863   3.379557
    27  F    9.779557  10.930532  12.255902   4.269442   2.933926
    28  F    9.614634  10.817955  12.092962   4.411313   3.171816
    29  F    9.345322  10.673985  11.842770   4.746084   3.658094
    30  F    8.197727   8.893829  10.395183   2.657710   2.358410
    31  F    9.371247  10.297821  11.735645   3.511039   2.367980
    32  F    8.998937   9.862317  11.314755   3.254997   2.363176
                   11         12         13         14         15
    11  C    0.000000
    12  C    1.389171   0.000000
    13  C    2.431387   1.388426   0.000000
    14  H    4.717430   4.466120   3.343705   0.000000
    15  H    7.643672   6.705726   5.342725   4.171100   0.000000
    16  H    7.633644   6.695294   5.333985   4.170224   1.767054
    17  H    8.795351   8.165381   6.809458   4.359047   3.061200
    18  H    8.803463   8.173504   6.815902   4.359008   2.503244
    19  H   10.181620   9.272730   7.900599   6.276195   3.137754
    20  H   10.902116  10.129833   8.742064   6.579288   3.778602
    21  H   10.188952   9.280271   7.906530   6.276282   2.594366
    22  H    3.388766   3.835111   3.389636   2.278510   6.341624
    23  H    3.403888   2.146203   1.079014   3.724393   4.756475
    24  C    1.509206   2.485677   3.786786   6.211776   9.080172
    25  C    2.564233   3.814603   4.308481   4.833106   8.659875
    26  H    2.136928   1.082421   2.131062   5.423453   7.181460
    27  F    2.368144   3.526587   4.715567   6.741295   9.817865
    28  F    2.365560   3.272412   4.500497   6.784672   9.797331
    29  F    2.351799   2.673835   4.052706   6.941367   9.286808
    30  F    3.661817   4.740413   4.916455   4.517023   8.603661
    31  F    2.928626   4.265851   5.011007   5.903544   9.692240
    32  F    3.162102   4.399094   4.957174   5.488019   9.159763
                   16         17         18         19         20
    16  H    0.000000
    17  H    2.502611   0.000000
    18  H    3.061204   1.757903   0.000000
    19  H    2.594572   2.526198   3.079562   0.000000
    20  H    3.778779   2.509312   2.509589   1.762448   0.000000
    21  H    3.139192   3.079527   2.525929   1.764942   1.762459
    22  H    6.333301   6.546074   6.553176   8.534161   8.825094
    23  H    4.748613   6.539678   6.545170   7.305650   8.281807
    24  C    9.063716  10.292896  10.306789  11.631742  12.395283
    25  C    8.654628   9.134188   9.138300  11.010811  11.412323
    26  H    7.171701   8.869622   8.877205   9.744265  10.716444
    27  F    9.949193  10.993931  10.875232  12.470988  13.093839
    28  F    9.557031  10.755073  10.967526  12.127725  12.962149
    29  F    9.341348  10.828138  10.780969  11.919639  12.785725
    30  F    8.523682   8.645633   8.723136  10.723937  10.986330
    31  F    9.533317  10.108039  10.256494  11.941819  12.446902
    32  F    9.387844   9.830852   9.613576  11.699706  11.992779
                   21         22         23         24         25
    21  H    0.000000
    22  H    8.539739   0.000000
    23  H    7.311005   4.289459   0.000000
    24  C   11.644400   4.694663   4.631814   0.000000
    25  C   11.014393   2.631845   5.387439   3.062423   0.000000
    26  H    9.751606   4.917522   2.453107   2.654436   4.695403
    27  F   12.366332   4.964458   5.622883   1.337084   2.863125
    28  F   12.317575   5.198289   5.319231   1.340077   3.417313
    29  F   11.877005   5.720350   4.657956   1.341701   4.345856
    30  F   10.786851   2.264589   5.963461   4.348853   1.343040
    31  F   12.068412   3.759453   6.065797   2.863653   1.334358
    32  F   11.517156   3.360318   6.006987   3.409337   1.337937
                   26         27         28         29         30
    26  H    0.000000
    27  F    3.786649   0.000000
    28  F    3.385188   2.158988   0.000000
    29  F    2.296044   2.151309   2.149377   0.000000
    30  F    5.719252   4.195700   4.553063   5.637564   0.000000
    31  F    4.969960   2.660156   2.721401   4.195505   2.150090
    32  F    5.193138   2.714355   4.046329   4.540317   2.149024
                   31         32
    31  F    0.000000
    32  F    2.160350   0.000000
 Stoichiometry    C12H11F6NO2
 Framework group  C1[X(C12H11F6NO2)]
 Deg. of freedom    90
 Full point group                 C1      NOp   1
 Largest Abelian subgroup         C1      NOp   1
 Largest concise Abelian subgroup C1      NOp   1
                         Standard orientation:                         
 ---------------------------------------------------------------------
 Center     Atomic      Atomic             Coordinates (Angstroms)
 Number     Number       Type             X           Y           Z
 ---------------------------------------------------------------------
      1          6           0        0.587052   -0.076126   -0.011015
      2          7           0        1.913396    0.359076   -0.010192
      3          6           0        3.046504   -0.419858   -0.011510
      4          8           0        3.084623   -1.622112   -0.020585
      5          8           0        4.122192    0.381248   -0.001066
      6          6           0        5.392527   -0.290741   -0.001189
      7          6           0        6.472745    0.768735    0.019563
      8          6           0        7.859804    0.131831    0.019641
      9          6           0       -0.406478    0.909672    0.004278
     10          6           0       -1.749847    0.577266    0.008819
     11          6           0       -2.134341   -0.770793   -0.013683
     12          6           0       -1.140942   -1.741803   -0.023384
     13          6           0        0.209247   -1.418204   -0.023477
     14          1           0        2.076831    1.355231    0.000109
     15          1           0        5.457188   -0.919534   -0.892478
     16          1           0        5.445531   -0.942216    0.874392
     17          1           0        6.340491    1.394684    0.906164
     18          1           0        6.351368    1.418199   -0.851548
     19          1           0        8.003276   -0.507075    0.894368
     20          1           0        8.639828    0.893846    0.035039
     21          1           0        8.014449   -0.482885   -0.870373
     22          1           0       -0.121226    1.954989    0.021093
     23          1           0        0.956515   -2.196507   -0.033799
     24          6           0       -3.572564   -1.227470    0.012105
     25          6           0       -2.742469    1.720264   -0.003356
     26          1           0       -1.424638   -2.786274   -0.038587
     27          9           0       -4.351672   -0.508781   -0.802923
     28          9           0       -4.102036   -1.157376    1.241151
     29          9           0       -3.678381   -2.507136   -0.377023
     30          9           0       -2.161895    2.870000    0.377165
     31          9           0       -3.766559    1.511188    0.826125
     32          9           0       -3.241161    1.931471   -1.226783
 ---------------------------------------------------------------------
 Rotational constants (GHZ):      0.6913408      0.1132756      0.1009532
 General basis read from cards:  (5D, 7F)
 There are   929 symmetry adapted cartesian basis functions of A   symmetry.
 There are   824 symmetry adapted basis functions of A   symmetry.
   824 basis functions,  1224 primitive gaussians,   929 cartesian basis functions
    80 alpha electrons       80 beta electrons
       nuclear repulsion energy      1771.8738722444 Hartrees.
 NAtoms=   32 NActive=   32 NUniq=   32 SFac= 1.00D+00 NAtFMM=   60 NAOKFM=F Big=F
 Integral buffers will be    131072 words long.
 Raffenetti 1 integral format.
 Two-electron integral symmetry is turned on.
 One-electron integrals computed using PRISM.
 NBasis=   824 RedAO= T EigKep=  1.09D-06  NBF=   824
 NBsUse=   821 1.00D-06 EigRej=  7.29D-07 NBFU=   821
 ExpMin= 3.60D-02 ExpMax= 1.14D+04 ExpMxC= 1.72D+03 IAcc=3 IRadAn=         5 AccDes= 0.00D+00
 Harris functional with IExCor=  205 and IRadAn=       5 diagonalized for initial guess.
 HarFok:  IExCor=  205 AccDes= 0.00D+00 IRadAn=         5 IDoV= 1 UseB2=F ITyADJ=14
 ICtDFT=  3500011 ScaDFX=  1.000000  1.000000  1.000000  1.000000
 FoFCou: FMM=F IPFlag=           0 FMFlag=      100000 FMFlg1=           0
         NFxFlg=           0 DoJE=T BraDBF=F KetDBF=T FulRan=T
         wScrn=  0.000000 ICntrl=     500 IOpCl=  0 I1Cent=   200000004 NGrid=           0
         NMat0=    1 NMatS0=      1 NMatT0=    0 NMatD0=    1 NMtDS0=    0 NMtDT0=    0
 Petite list used in FoFCou.
 Requested convergence on RMS density matrix=1.00D-08 within 128 cycles.
 Requested convergence on MAX density matrix=1.00D-06.
 Requested convergence on             energy=1.00D-06.
 No special actions if energy rises.
 Initial convergence to 1.0D-05 achieved.  Increase integral accuracy.
 SCF Done:  E(RHF) =  -1262.11803983     A.U. after   16 cycles
            NFock= 16  Conv=0.30D-08     -V/T= 2.0009
 ExpMin= 3.60D-02 ExpMax= 1.14D+04 ExpMxC= 1.72D+03 IAcc=3 IRadAn=         5 AccDes= 0.00D+00
 HarFok:  IExCor=  205 AccDes= 0.00D+00 IRadAn=         5 IDoV=-2 UseB2=F ITyADJ=14
 ICtDFT= 12500011 ScaDFX=  1.000000  1.000000  1.000000  1.000000
 Range of M.O.s used for correlation:    22   821
 NBasis=   824 NAE=    80 NBE=    80 NFC=    21 NFV=     0
 NROrb=    800 NOA=    59 NOB=    59 NVA=   741 NVB=   741

 **** Warning!!: The largest alpha MO coefficient is  0.12075064D+03

 Fully direct method using O(OVN) memory.
 JobTyp=1 Pass  1:  I=   1 to   3 NPSUse=  8 ParTrn=T ParDer=T DoDerP=F.
 JobTyp=1 Pass  2:  I=   4 to   6 NPSUse=  8 ParTrn=T ParDer=T DoDerP=F.
 JobTyp=1 Pass  3:  I=   7 to   9 NPSUse=  8 ParTrn=T ParDer=T DoDerP=F.
 JobTyp=1 Pass  4:  I=  10 to  12 NPSUse=  8 ParTrn=T ParDer=T DoDerP=F.
 JobTyp=1 Pass  5:  I=  13 to  16 NPSUse=  8 ParTrn=T ParDer=T DoDerP=F.
 JobTyp=1 Pass  6:  I=  17 to  20 NPSUse=  8 ParTrn=T ParDer=T DoDerP=F.
 JobTyp=1 Pass  7:  I=  21 to  24 NPSUse=  8 ParTrn=T ParDer=T DoDerP=F.
 JobTyp=1 Pass  8:  I=  25 to  29 NPSUse=  8 ParTrn=T ParDer=T DoDerP=F.
 JobTyp=1 Pass  9:  I=  30 to  35 NPSUse=  8 ParTrn=T ParDer=T DoDerP=F.
 JobTyp=1 Pass 10:  I=  36 to  44 NPSUse=  8 ParTrn=T ParDer=T DoDerP=F.
 JobTyp=1 Pass 11:  I=  45 to  59 NPSUse=  8 ParTrn=T ParDer=T DoDerP=F.
 Spin components of T(2) and E(2):
     alpha-alpha T2 =       0.1439925567D+00 E2=     -0.5306170432D+00
     alpha-beta  T2 =       0.7487033478D+00 E2=     -0.2977681629D+01
     beta-beta   T2 =       0.1439925567D+00 E2=     -0.5306170432D+00
 ANorm=    0.1427125944D+01
 E2 =    -0.4038915716D+01 EUMP2 =    -0.12661569555457D+04

 **********************************************************************

            Population analysis using the SCF density.

 **********************************************************************

 Orbital symmetries:
       Occupied  (A) (A) (A) (A) (A) (A) (A) (A) (A) (A) (A) (A)
                 (A) (A) (A) (A) (A) (A) (A) (A) (A) (A) (A) (A)
                 (A) (A) (A) (A) (A) (A) (A) (A) (A) (A) (A) (A)
                 (A) (A) (A) (A) (A) (A) (A) (A) (A) (A) (A) (A)
                 (A) (A) (A) (A) (A) (A) (A) (A) (A) (A) (A) (A)
                 (A) (A) (A) (A) (A) (A) (A) (A) (A) (A) (A) (A)
                 (A) (A) (A) (A) (A) (A) (A) (A)
       Virtual   (A) (A) (A) (A) (A) (A) (A) (A) (A) (A) (A) (A)
                 (A) (A) (A) (A) (A) (A) (A) (A) (A) (A) (A) (A)
                 (A) (A) (A) (A) (A) (A) (A) (A) (A) (A) (A) (A)
                 (A) (A) (A) (A) (A) (A) (A) (A) (A) (A) (A) (A)
                 (A) (A) (A) (A) (A) (A) (A) (A) (A) (A) (A) (A)
                 (A) (A) (A) (A) (A) (A) (A) (A) (A) (A) (A) (A)
                 (A) (A) (A) (A) (A) (A) (A) (A) (A) (A) (A) (A)
                 (A) (A) (A) (A) (A) (A) (A) (A) (A) (A) (A) (A)
                 (A) (A) (A) (A) (A) (A) (A) (A) (A) (A) (A) (A)
                 (A) (A) (A) (A) (A) (A) (A) (A) (A) (A) (A) (A)
                 (A) (A) (A) (A) (A) (A) (A) (A) (A) (A) (A) (A)
                 (A) (A) (A) (A) (A) (A) (A) (A) (A) (A) (A) (A)
                 (A) (A) (A) (A) (A) (A) (A) (A) (A) (A) (A) (A)
                 (A) (A) (A) (A) (A) (A) (A) (A) (A) (A) (A) (A)
                 (A) (A) (A) (A) (A) (A) (A) (A) (A) (A) (A) (A)
                 (A) (A) (A) (A) (A) (A) (A) (A) (A) (A) (A) (A)
                 (A) (A) (A) (A) (A) (A) (A) (A) (A) (A) (A) (A)
                 (A) (A) (A) (A) (A) (A) (A) (A) (A) (A) (A) (A)
                 (A) (A) (A) (A) (A) (A) (A) (A) (A) (A) (A) (A)
                 (A) (A) (A) (A) (A) (A) (A) (A) (A) (A) (A) (A)
                 (A) (A) (A) (A) (A) (A) (A) (A) (A) (A) (A) (A)
                 (A) (A) (A) (A) (A) (A) (A) (A) (A) (A) (A) (A)
                 (A) (A) (A) (A) (A) (A) (A) (A) (A) (A) (A) (A)
                 (A) (A) (A) (A) (A) (A) (A) (A) (A) (A) (A) (A)
                 (A) (A) (A) (A) (A) (A) (A) (A) (A) (A) (A) (A)
                 (A) (A) (A) (A) (A) (A) (A) (A) (A) (A) (A) (A)
                 (A) (A) (A) (A) (A) (A) (A) (A) (A) (A) (A) (A)
                 (A) (A) (A) (A) (A) (A) (A) (A) (A) (A) (A) (A)
                 (A) (A) (A) (A) (A) (A) (A) (A) (A) (A) (A) (A)
                 (A) (A) (A) (A) (A) (A) (A) (A) (A) (A) (A) (A)
                 (A) (A) (A) (A) (A) (A) (A) (A) (A) (A) (A) (A)
                 (A) (A) (A) (A) (A) (A) (A) (A) (A) (A) (A) (A)
                 (A) (A) (A) (A) (A) (A) (A) (A) (A) (A) (A) (A)
                 (A) (A) (A) (A) (A) (A) (A) (A) (A) (A) (A) (A)
                 (A) (A) (A) (A) (A) (A) (A) (A) (A) (A) (A) (A)
                 (A) (A) (A) (A) (A) (A) (A) (A) (A) (A) (A) (A)
                 (A) (A) (A) (A) (A) (A) (A) (A) (A) (A) (A) (A)
                 (A) (A) (A) (A) (A) (A) (A) (A) (A) (A) (A) (A)
                 (A) (A) (A) (A) (A) (A) (A) (A) (A) (A) (A) (A)
                 (A) (A) (A) (A) (A) (A) (A) (A) (A) (A) (A) (A)
                 (A) (A) (A) (A) (A) (A) (A) (A) (A) (A) (A) (A)
                 (A) (A) (A) (A) (A) (A) (A) (A) (A) (A) (A) (A)
                 (A) (A) (A) (A) (A) (A) (A) (A) (A) (A) (A) (A)
                 (A) (A) (A) (A) (A) (A) (A) (A) (A) (A) (A) (A)
                 (A) (A) (A) (A) (A) (A) (A) (A) (A) (A) (A) (A)
                 (A) (A) (A) (A) (A) (A) (A) (A) (A) (A) (A) (A)
                 (A) (A) (A) (A) (A) (A) (A) (A) (A) (A) (A) (A)
                 (A) (A) (A) (A) (A) (A) (A) (A) (A) (A) (A) (A)
                 (A) (A) (A) (A) (A) (A) (A) (A) (A) (A) (A) (A)
                 (A) (A) (A) (A) (A) (A) (A) (A) (A) (A) (A) (A)
                 (A) (A) (A) (A) (A) (A) (A) (A) (A) (A) (A) (A)
                 (A) (A) (A) (A) (A) (A) (A) (A) (A) (A) (A) (A)
                 (A) (A) (A) (A) (A) (A) (A) (A) (A) (A) (A) (A)
                 (A) (A) (A) (A) (A) (A) (A) (A) (A) (A) (A) (A)
                 (A) (A) (A) (A) (A) (A) (A) (A) (A) (A) (A) (A)
                 (A) (A) (A) (A) (A) (A) (A) (A) (A) (A) (A) (A)
                 (A) (A) (A) (A) (A) (A) (A) (A) (A) (A) (A) (A)
                 (A) (A) (A) (A) (A) (A) (A) (A) (A) (A) (A) (A)
                 (A) (A) (A) (A) (A) (A) (A) (A) (A) (A) (A) (A)
                 (A) (A) (A) (A) (A) (A) (A) (A) (A) (A) (A) (A)
                 (A) (A) (A) (A) (A) (A) (A) (A) (A) (A) (A) (A)
                 (A) (A) (A) (A) (A) (A) (A) (A) (A)
 The electronic state is 1-A.
 Alpha  occ. eigenvalues --  -26.34618 -26.34281 -26.34039 -26.33999 -26.33728
 Alpha  occ. eigenvalues --  -26.33404 -20.62123 -20.55511 -15.62922 -11.51933
 Alpha  occ. eigenvalues --  -11.51308 -11.42951 -11.32601 -11.30020 -11.29718
 Alpha  occ. eigenvalues --  -11.28225 -11.27318 -11.27299 -11.25825 -11.23993
 Alpha  occ. eigenvalues --  -11.23063  -1.73974  -1.73186  -1.64268  -1.63922
 Alpha  occ. eigenvalues --   -1.63545  -1.63210  -1.49442  -1.38681  -1.29350
 Alpha  occ. eigenvalues --   -1.19987  -1.09558  -1.08464  -1.07326  -0.99694
 Alpha  occ. eigenvalues --   -0.97278  -0.95220  -0.89811  -0.88759  -0.84998
 Alpha  occ. eigenvalues --   -0.83282  -0.83196  -0.83005  -0.82412  -0.82064
 Alpha  occ. eigenvalues --   -0.81594  -0.77805  -0.77361  -0.72322  -0.71958
 Alpha  occ. eigenvalues --   -0.71738  -0.71373  -0.71053  -0.71022  -0.69023
 Alpha  occ. eigenvalues --   -0.67676  -0.67103  -0.67011  -0.66096  -0.65375
 Alpha  occ. eigenvalues --   -0.65212  -0.64687  -0.64631  -0.64576  -0.62347
 Alpha  occ. eigenvalues --   -0.61543  -0.60211  -0.59098  -0.56686  -0.55401
 Alpha  occ. eigenvalues --   -0.55228  -0.54126  -0.53079  -0.50722  -0.50437
 Alpha  occ. eigenvalues --   -0.48385  -0.48161  -0.47850  -0.38186  -0.34677
 Alpha virt. eigenvalues --    0.03124   0.03972   0.04685   0.05290   0.05741
 Alpha virt. eigenvalues --    0.06194   0.07428   0.07858   0.07976   0.08335
 Alpha virt. eigenvalues --    0.08971   0.09113   0.09914   0.10334   0.10823
 Alpha virt. eigenvalues --    0.11002   0.11690   0.12008   0.12541   0.13317
 Alpha virt. eigenvalues --    0.14115   0.14921   0.15830   0.15994   0.16423
 Alpha virt. eigenvalues --    0.17055   0.17253   0.17372   0.17727   0.17944
 Alpha virt. eigenvalues --    0.18020   0.18512   0.18595   0.18782   0.19224
 Alpha virt. eigenvalues --    0.19514   0.20154   0.20285   0.21178   0.21430
 Alpha virt. eigenvalues --    0.21644   0.22758   0.22846   0.23341   0.23891
 Alpha virt. eigenvalues --    0.24483   0.25172   0.25507   0.25774   0.26352
 Alpha virt. eigenvalues --    0.26889   0.27774   0.27928   0.28718   0.28990
 Alpha virt. eigenvalues --    0.29622   0.30292   0.30460   0.30750   0.31390
 Alpha virt. eigenvalues --    0.31459   0.31818   0.32758   0.33060   0.33640
 Alpha virt. eigenvalues --    0.34383   0.34696   0.35415   0.35984   0.36451
 Alpha virt. eigenvalues --    0.37107   0.37330   0.38065   0.38399   0.38724
 Alpha virt. eigenvalues --    0.39212   0.39318   0.39674   0.40075   0.40274
 Alpha virt. eigenvalues --    0.40681   0.41575   0.41819   0.42204   0.43024
 Alpha virt. eigenvalues --    0.43318   0.43504   0.43717   0.44426   0.44745
 Alpha virt. eigenvalues --    0.45267   0.45900   0.46381   0.46498   0.46855
 Alpha virt. eigenvalues --    0.47128   0.47587   0.48179   0.49159   0.49250
 Alpha virt. eigenvalues --    0.49548   0.50233   0.50865   0.50978   0.51991
 Alpha virt. eigenvalues --    0.52846   0.53210   0.54113   0.54425   0.54565
 Alpha virt. eigenvalues --    0.55084   0.55503   0.55753   0.56011   0.57150
 Alpha virt. eigenvalues --    0.57505   0.58019   0.58562   0.58741   0.59790
 Alpha virt. eigenvalues --    0.60850   0.61084   0.61653   0.63265   0.64258
 Alpha virt. eigenvalues --    0.65257   0.65878   0.66769   0.67222   0.67766
 Alpha virt. eigenvalues --    0.68061   0.68951   0.69350   0.69421   0.70062
 Alpha virt. eigenvalues --    0.70758   0.71162   0.71962   0.72216   0.72975
 Alpha virt. eigenvalues --    0.73839   0.74641   0.74910   0.75135   0.76213
 Alpha virt. eigenvalues --    0.77307   0.78279   0.78864   0.79192   0.80197
 Alpha virt. eigenvalues --    0.80980   0.81186   0.81862   0.82262   0.83042
 Alpha virt. eigenvalues --    0.84132   0.84321   0.85035   0.85282   0.85588
 Alpha virt. eigenvalues --    0.85969   0.86749   0.86858   0.87438   0.88037
 Alpha virt. eigenvalues --    0.88512   0.88882   0.90019   0.91812   0.92272
 Alpha virt. eigenvalues --    0.92681   0.93236   0.93912   0.94959   0.95791
 Alpha virt. eigenvalues --    0.96035   0.96376   0.96978   0.98255   0.98611
 Alpha virt. eigenvalues --    0.99820   1.00064   1.01437   1.01766   1.03178
 Alpha virt. eigenvalues --    1.03309   1.03774   1.04901   1.05414   1.05987
 Alpha virt. eigenvalues --    1.06720   1.07770   1.08591   1.09255   1.09915
 Alpha virt. eigenvalues --    1.12069   1.13504   1.14527   1.15332   1.15611
 Alpha virt. eigenvalues --    1.16750   1.17749   1.19041   1.20398   1.21571
 Alpha virt. eigenvalues --    1.22380   1.23176   1.23823   1.24307   1.24888
 Alpha virt. eigenvalues --    1.25914   1.27435   1.28323   1.28679   1.29646
 Alpha virt. eigenvalues --    1.30204   1.31504   1.31870   1.32980   1.33313
 Alpha virt. eigenvalues --    1.34051   1.35408   1.36073   1.36598   1.37303
 Alpha virt. eigenvalues --    1.37659   1.38366   1.39038   1.40143   1.40405
 Alpha virt. eigenvalues --    1.41311   1.41820   1.43424   1.43641   1.45607
 Alpha virt. eigenvalues --    1.46211   1.48141   1.48653   1.49499   1.49729
 Alpha virt. eigenvalues --    1.50361   1.51445   1.52811   1.53131   1.54091
 Alpha virt. eigenvalues --    1.54634   1.55626   1.56813   1.57615   1.58350
 Alpha virt. eigenvalues --    1.58486   1.59382   1.60171   1.60422   1.61811
 Alpha virt. eigenvalues --    1.62708   1.63012   1.63859   1.64491   1.65432
 Alpha virt. eigenvalues --    1.66314   1.66558   1.67212   1.67415   1.67679
 Alpha virt. eigenvalues --    1.68081   1.68618   1.69761   1.70323   1.71533
 Alpha virt. eigenvalues --    1.72160   1.72582   1.73672   1.74471   1.75076
 Alpha virt. eigenvalues --    1.75178   1.76141   1.76584   1.77371   1.78331
 Alpha virt. eigenvalues --    1.79133   1.79328   1.79861   1.80519   1.81627
 Alpha virt. eigenvalues --    1.82003   1.82644   1.83544   1.84119   1.85502
 Alpha virt. eigenvalues --    1.85585   1.86231   1.88289   1.90238   1.90714
 Alpha virt. eigenvalues --    1.91916   1.94603   1.95395   1.97554   2.00285
 Alpha virt. eigenvalues --    2.00820   2.02492   2.05396   2.05530   2.06566
 Alpha virt. eigenvalues --    2.07645   2.10278   2.11278   2.13305   2.16103
 Alpha virt. eigenvalues --    2.17343   2.21191   2.21570   2.22264   2.23899
 Alpha virt. eigenvalues --    2.27027   2.28219   2.29526   2.30674   2.30809
 Alpha virt. eigenvalues --    2.31527   2.32965   2.34916   2.35792   2.39192
 Alpha virt. eigenvalues --    2.39714   2.40521   2.41016   2.42443   2.42958
 Alpha virt. eigenvalues --    2.44724   2.45952   2.46394   2.47056   2.47476
 Alpha virt. eigenvalues --    2.52012   2.55135   2.57130   2.59611   2.60948
 Alpha virt. eigenvalues --    2.63059   2.65036   2.66555   2.67755   2.69870
 Alpha virt. eigenvalues --    2.70471   2.75352   2.79246   2.80953   2.81573
 Alpha virt. eigenvalues --    2.83304   2.86011   2.87000   2.88790   2.90744
 Alpha virt. eigenvalues --    2.91552   2.92361   2.93316   2.94137   2.96207
 Alpha virt. eigenvalues --    2.96471   2.97267   2.97584   2.99521   3.00112
 Alpha virt. eigenvalues --    3.02469   3.02725   3.04052   3.04542   3.04997
 Alpha virt. eigenvalues --    3.05590   3.08791   3.09163   3.10862   3.11503
 Alpha virt. eigenvalues --    3.11807   3.12424   3.13968   3.14428   3.14779
 Alpha virt. eigenvalues --    3.16058   3.16199   3.17486   3.17912   3.18896
 Alpha virt. eigenvalues --    3.19484   3.20580   3.20988   3.23374   3.23924
 Alpha virt. eigenvalues --    3.25272   3.27228   3.27581   3.28294   3.31027
 Alpha virt. eigenvalues --    3.31801   3.33531   3.34777   3.35346   3.36961
 Alpha virt. eigenvalues --    3.37669   3.38876   3.39334   3.40196   3.41477
 Alpha virt. eigenvalues --    3.42368   3.43837   3.44425   3.45210   3.45435
 Alpha virt. eigenvalues --    3.47490   3.47714   3.48699   3.49216   3.49827
 Alpha virt. eigenvalues --    3.50622   3.51341   3.52596   3.53030   3.54074
 Alpha virt. eigenvalues --    3.55276   3.55527   3.56142   3.59117   3.61893
 Alpha virt. eigenvalues --    3.62625   3.64043   3.64984   3.65888   3.66035
 Alpha virt. eigenvalues --    3.67062   3.68783   3.68891   3.69276   3.69953
 Alpha virt. eigenvalues --    3.70373   3.70813   3.71127   3.71795   3.72101
 Alpha virt. eigenvalues --    3.72298   3.73796   3.74727   3.75780   3.76186
 Alpha virt. eigenvalues --    3.77077   3.77815   3.79043   3.80457   3.81106
 Alpha virt. eigenvalues --    3.81589   3.82606   3.83584   3.84687   3.85457
 Alpha virt. eigenvalues --    3.86102   3.86983   3.88081   3.89129   3.89889
 Alpha virt. eigenvalues --    3.90515   3.91066   3.91454   3.92667   3.93312
 Alpha virt. eigenvalues --    3.93665   3.94240   3.95901   3.97215   3.98055
 Alpha virt. eigenvalues --    3.98353   3.98723   3.99568   4.00903   4.02146
 Alpha virt. eigenvalues --    4.02898   4.03745   4.04582   4.05750   4.06515
 Alpha virt. eigenvalues --    4.07012   4.09066   4.10495   4.12419   4.12721
 Alpha virt. eigenvalues --    4.14088   4.14961   4.15647   4.16866   4.17418
 Alpha virt. eigenvalues --    4.19084   4.19851   4.21052   4.22426   4.25065
 Alpha virt. eigenvalues --    4.26331   4.26851   4.27694   4.28011   4.30230
 Alpha virt. eigenvalues --    4.30835   4.32479   4.33307   4.34229   4.35376
 Alpha virt. eigenvalues --    4.37622   4.38755   4.39104   4.40295   4.41559
 Alpha virt. eigenvalues --    4.42593   4.43846   4.44922   4.46281   4.47430
 Alpha virt. eigenvalues --    4.48581   4.49200   4.51095   4.53339   4.55654
 Alpha virt. eigenvalues --    4.55719   4.58551   4.60082   4.60663   4.60941
 Alpha virt. eigenvalues --    4.63621   4.66834   4.67287   4.68109   4.68607
 Alpha virt. eigenvalues --    4.69139   4.69793   4.70813   4.72121   4.72763
 Alpha virt. eigenvalues --    4.73168   4.74273   4.75323   4.75989   4.77827
 Alpha virt. eigenvalues --    4.79430   4.80048   4.80435   4.81815   4.84113
 Alpha virt. eigenvalues --    4.84550   4.86514   4.86984   4.89506   4.90092
 Alpha virt. eigenvalues --    4.91376   4.91813   4.92858   4.93113   4.94812
 Alpha virt. eigenvalues --    4.99527   4.99895   5.01106   5.02089   5.06376
 Alpha virt. eigenvalues --    5.07943   5.08554   5.11247   5.12224   5.15943
 Alpha virt. eigenvalues --    5.18862   5.20355   5.31343   5.32094   5.33164
 Alpha virt. eigenvalues --    5.37964   5.42348   5.44344   5.47608   5.49463
 Alpha virt. eigenvalues --    5.52144   5.55501   5.60200   5.63823   5.64016
 Alpha virt. eigenvalues --    5.64309   5.66189   5.66435   5.71033   5.72174
 Alpha virt. eigenvalues --    5.75159   5.79321   5.83390   5.85804   5.87643
 Alpha virt. eigenvalues --    5.90752   5.93986   5.94289   5.97375   5.98822
 Alpha virt. eigenvalues --    6.00859   6.02889   6.05344   6.10604   6.13891
 Alpha virt. eigenvalues --    6.14660   6.17999   6.21314   6.21823   6.26474
 Alpha virt. eigenvalues --    6.27831   6.34474   6.40615   6.48680   6.48834
 Alpha virt. eigenvalues --    6.51416   6.65936   6.86312   6.88966   6.93776
 Alpha virt. eigenvalues --    6.96430   6.97507   6.98635   7.00558   7.01190
 Alpha virt. eigenvalues --    7.03849   7.03944   7.05190   7.06630   7.06880
 Alpha virt. eigenvalues --    7.07114   7.08330   7.08988   7.09901   7.11266
 Alpha virt. eigenvalues --    7.11531   7.11695   7.11975   7.12073   7.12291
 Alpha virt. eigenvalues --    7.13141   7.13604   7.13866   7.14402   7.15455
 Alpha virt. eigenvalues --    7.15898   7.16261   7.16782   7.17339   7.18574
 Alpha virt. eigenvalues --    7.18701   7.20852   7.24009   7.24374   7.25218
 Alpha virt. eigenvalues --    7.26491   7.29292   7.29759   7.35354   7.35924
 Alpha virt. eigenvalues --    7.36018   7.37294   7.38500   7.39549   7.42005
 Alpha virt. eigenvalues --    7.45086   7.53594   7.54192   7.54336   7.55740
 Alpha virt. eigenvalues --    7.57389   7.60810   7.64790   7.67203   7.72956
 Alpha virt. eigenvalues --    7.75959   7.77473   7.78094   7.79974   7.81004
 Alpha virt. eigenvalues --    7.84136   7.87198   7.87716   7.91408   7.91948
 Alpha virt. eigenvalues --    7.94818   7.97179   8.15576   8.28255   8.35647
 Alpha virt. eigenvalues --    8.36162   8.40746   8.41186   8.42439   8.45321
 Alpha virt. eigenvalues --    9.68861   9.70169   9.71618   9.72115   9.73440
 Alpha virt. eigenvalues --    9.74836   9.82182   9.83294   9.83780   9.86744
 Alpha virt. eigenvalues --    9.87759   9.92109  10.02771  10.04366  10.11857
 Alpha virt. eigenvalues --   10.13883  10.14564  10.14869  10.24103  10.24991
 Alpha virt. eigenvalues --   10.38617  10.43506  10.51864  10.54716  10.56787
 Alpha virt. eigenvalues --   10.58590  10.76245  10.76611  10.78117  10.82303
 Alpha virt. eigenvalues --   25.03731  25.37965  25.50866  25.58141  25.64931
 Alpha virt. eigenvalues --   25.66823  25.67560  25.76203  25.86552  25.89351
 Alpha virt. eigenvalues --   26.10571  26.31495  37.36054  51.79181  51.94405
 Alpha virt. eigenvalues --   68.83708  68.84084  68.85246  68.85741  68.88182
 Alpha virt. eigenvalues --   68.94002
          Condensed to atoms (all electrons):
               1          2          3          4          5          6
     1  C   30.052935  -0.831183  -0.547308  -0.382257  -0.099814  -0.806280
     2  N   -0.831183   7.041095   0.598517   0.020078   0.090392  -0.111839
     3  C   -0.547308   0.598517   7.675710   0.408679   0.231141  -0.560021
     4  O   -0.382257   0.020078   0.408679   8.138319  -0.074573  -0.153897
     5  O   -0.099814   0.090392   0.231141  -0.074573   8.099793   0.255582
     6  C   -0.806280  -0.111839  -0.560021  -0.153897   0.255582   6.946293
     7  C   -0.001680  -0.045314   0.139465   0.054319  -0.202263  -0.572133
     8  C   -0.024627  -0.004038  -0.191305   0.001728   0.027966   0.359488
     9  C   -1.427864   0.020365  -0.339860  -0.074357  -0.019450  -0.079312
    10  C   -9.881704  -0.045670  -1.625834  -0.025179  -0.007989  -0.158589
    11  C    2.990892   0.059388  -0.184287   0.032854   0.013456  -0.021004
    12  C   -5.177341   0.276098   0.417956   0.133087  -0.004570   0.034622
    13  C   -3.556125   0.010075  -0.340888   0.389754   0.005552  -0.044155
    14  H    0.171235   0.403399  -0.018100   0.006536  -0.009139   0.000284
    15  H   -0.007397   0.008154   0.035845  -0.009937  -0.048558   0.463266
    16  H   -0.004494   0.007761   0.037961  -0.009707  -0.048089   0.462012
    17  H    0.002243   0.001963   0.001775  -0.001105   0.000608  -0.021755
    18  H    0.002384   0.001915   0.002228  -0.001075   0.000721  -0.021650
    19  H    0.000709  -0.000023  -0.000023   0.000380  -0.000063  -0.022934
    20  H   -0.000546  -0.000642   0.002832   0.000442  -0.002305   0.016566
    21  H    0.000790  -0.000073  -0.000333   0.000411  -0.000164  -0.022984
    22  H   -0.396127  -0.021825  -0.020640  -0.001170   0.000991  -0.003696
    23  H   -0.220166  -0.020378   0.062715  -0.013704   0.003265   0.005171
    24  C    1.415649   0.024368   0.022200   0.002093   0.002110   0.001691
    25  C   -5.412832  -0.045417  -0.194475  -0.000011  -0.002922  -0.007302
    26  H    0.045559  -0.000819   0.003213  -0.000244  -0.000053   0.000518
    27  F   -0.015504   0.000083  -0.000433  -0.000000   0.000000  -0.000002
    28  F   -0.002042  -0.000042  -0.000616   0.000000   0.000000  -0.000001
    29  F    0.011547  -0.000103  -0.001920   0.000006   0.000000  -0.000015
    30  F    0.125458   0.001408  -0.003677   0.000000   0.000000  -0.000062
    31  F    0.007029   0.000033  -0.000640   0.000000  -0.000000  -0.000007
    32  F   -0.041776  -0.000077  -0.002722   0.000001  -0.000003  -0.000022
               7          8          9         10         11         12
     1  C   -0.001680  -0.024627  -1.427864  -9.881704   2.990892  -5.177341
     2  N   -0.045314  -0.004038   0.020365  -0.045670   0.059388   0.276098
     3  C    0.139465  -0.191305  -0.339860  -1.625834  -0.184287   0.417956
     4  O    0.054319   0.001728  -0.074357  -0.025179   0.032854   0.133087
     5  O   -0.202263   0.027966  -0.019450  -0.007989   0.013456  -0.004570
     6  C   -0.572133   0.359488  -0.079312  -0.158589  -0.021004   0.034622
     7  C    5.766008  -0.066252  -0.003977  -0.003527   0.002031  -0.000023
     8  C   -0.066252   5.177908   0.003164  -0.000479  -0.000120   0.000114
     9  C   -0.003977   0.003164  10.301673   0.298666  -1.573574  -0.296361
    10  C   -0.003527  -0.000479   0.298666  31.089662  -5.578395  -3.467417
    11  C    0.002031  -0.000120  -1.573574  -5.578395  28.495741  -0.253022
    12  C   -0.000023   0.000114  -0.296361  -3.467417  -0.253022  13.765236
    13  C    0.004251  -0.003113  -0.371381   2.268994 -12.015352   0.536778
    14  H   -0.007411  -0.005797  -0.159791  -0.188197  -0.008161   0.020278
    15  H   -0.070298  -0.006812   0.005813   0.002063  -0.000919   0.001060
    16  H   -0.068125  -0.007711   0.004098  -0.001250   0.001596   0.001587
    17  H    0.428022  -0.028299   0.002391   0.001002  -0.000363  -0.000619
    18  H    0.428177  -0.029707   0.000872   0.000428  -0.000191  -0.000178
    19  H   -0.005692   0.417411  -0.000309   0.000004  -0.000022   0.000002
    20  H   -0.038315   0.409678  -0.000144  -0.000063   0.000007   0.000008
    21  H   -0.005534   0.418436  -0.000141  -0.000016   0.000004  -0.000078
    22  H    0.001134   0.000428   0.449746   0.312006   0.075593  -0.010647
    23  H    0.001689  -0.000055  -0.007627   0.054562  -0.115050   0.053903
    24  C   -0.000119   0.000009  -1.368344  -1.095081  -1.495812  -1.143009
    25  C   -0.000604  -0.000024   1.028127  -5.207597  -3.910543   0.801028
    26  H   -0.000119   0.000004   0.008661   0.034665  -0.001406   0.384331
    27  F   -0.000000   0.000000   0.033818  -0.136944   0.022040   0.055467
    28  F   -0.000000   0.000000  -0.002230   0.024760  -0.006200  -0.081688
    29  F   -0.000000  -0.000000  -0.006520   0.056514  -0.166407  -0.008510
    30  F   -0.000002   0.000000   0.116767  -0.311281   0.074252  -0.010181
    31  F    0.000000   0.000000  -0.018331   0.092584  -0.060219  -0.002877
    32  F   -0.000001  -0.000000  -0.001867  -0.105992   0.004709   0.012151
              13         14         15         16         17         18
     1  C   -3.556125   0.171235  -0.007397  -0.004494   0.002243   0.002384
     2  N    0.010075   0.403399   0.008154   0.007761   0.001963   0.001915
     3  C   -0.340888  -0.018100   0.035845   0.037961   0.001775   0.002228
     4  O    0.389754   0.006536  -0.009937  -0.009707  -0.001105  -0.001075
     5  O    0.005552  -0.009139  -0.048558  -0.048089   0.000608   0.000721
     6  C   -0.044155   0.000284   0.463266   0.462012  -0.021755  -0.021650
     7  C    0.004251  -0.007411  -0.070298  -0.068125   0.428022   0.428177
     8  C   -0.003113  -0.005797  -0.006812  -0.007711  -0.028299  -0.029707
     9  C   -0.371381  -0.159791   0.005813   0.004098   0.002391   0.000872
    10  C    2.268994  -0.188197   0.002063  -0.001250   0.001002   0.000428
    11  C  -12.015352  -0.008161  -0.000919   0.001596  -0.000363  -0.000191
    12  C    0.536778   0.020278   0.001060   0.001587  -0.000619  -0.000178
    13  C   19.112822   0.111600  -0.005017  -0.007338  -0.002517  -0.001483
    14  H    0.111600   0.464368  -0.000169   0.000060   0.000508   0.000755
    15  H   -0.005017  -0.000169   0.587712  -0.052341   0.007407  -0.010091
    16  H   -0.007338   0.000060  -0.052341   0.586920  -0.010165   0.007350
    17  H   -0.002517   0.000508   0.007407  -0.010165   0.625874  -0.047019
    18  H   -0.001483   0.000755  -0.010091   0.007350  -0.047019   0.626019
    19  H    0.000140   0.000138   0.000262  -0.000137  -0.007903   0.005555
    20  H    0.000061   0.000000  -0.001933  -0.001855  -0.005722  -0.005660
    21  H   -0.000120   0.000102  -0.000217   0.000250   0.005472  -0.007939
    22  H   -0.014839  -0.012748   0.000059   0.000070  -0.000051  -0.000074
    23  H    0.529217  -0.000406  -0.000650  -0.000959  -0.000075  -0.000088
    24  C   -3.308852  -0.001941  -0.000144   0.000075  -0.000014  -0.000015
    25  C    3.099581   0.000647   0.000340  -0.000318   0.000089   0.000059
    26  H   -0.079963   0.000202   0.000027   0.000036   0.000005   0.000005
    27  F    0.015371   0.000070  -0.000000   0.000000  -0.000000  -0.000000
    28  F   -0.022150  -0.000060   0.000000  -0.000000   0.000000  -0.000000
    29  F    0.129094  -0.000005  -0.000000  -0.000000  -0.000000   0.000000
    30  F   -0.017917   0.004025   0.000001  -0.000001   0.000000  -0.000000
    31  F   -0.005310  -0.000139   0.000000  -0.000000   0.000000   0.000000
    32  F    0.016319   0.000393   0.000000  -0.000001   0.000000  -0.000000
              19         20         21         22         23         24
     1  C    0.000709  -0.000546   0.000790  -0.396127  -0.220166   1.415649
     2  N   -0.000023  -0.000642  -0.000073  -0.021825  -0.020378   0.024368
     3  C   -0.000023   0.002832  -0.000333  -0.020640   0.062715   0.022200
     4  O    0.000380   0.000442   0.000411  -0.001170  -0.013704   0.002093
     5  O   -0.000063  -0.002305  -0.000164   0.000991   0.003265   0.002110
     6  C   -0.022934   0.016566  -0.022984  -0.003696   0.005171   0.001691
     7  C   -0.005692  -0.038315  -0.005534   0.001134   0.001689  -0.000119
     8  C    0.417411   0.409678   0.418436   0.000428  -0.000055   0.000009
     9  C   -0.000309  -0.000144  -0.000141   0.449746  -0.007627  -1.368344
    10  C    0.000004  -0.000063  -0.000016   0.312006   0.054562  -1.095081
    11  C   -0.000022   0.000007   0.000004   0.075593  -0.115050  -1.495812
    12  C    0.000002   0.000008  -0.000078  -0.010647   0.053903  -1.143009
    13  C    0.000140   0.000061  -0.000120  -0.014839   0.529217  -3.308852
    14  H    0.000138   0.000000   0.000102  -0.012748  -0.000406  -0.001941
    15  H    0.000262  -0.001933  -0.000217   0.000059  -0.000650  -0.000144
    16  H   -0.000137  -0.001855   0.000250   0.000070  -0.000959   0.000075
    17  H   -0.007903  -0.005722   0.005472  -0.000051  -0.000075  -0.000014
    18  H    0.005555  -0.005660  -0.007939  -0.000074  -0.000088  -0.000015
    19  H    0.622349  -0.025471  -0.042970  -0.000008   0.000015  -0.000001
    20  H   -0.025471   0.586822  -0.025512   0.000002   0.000025   0.000000
    21  H   -0.042970  -0.025512   0.622289  -0.000005   0.000006   0.000001
    22  H   -0.000008   0.000002  -0.000005   0.539847   0.001179  -0.000874
    23  H    0.000015   0.000025   0.000006   0.001179   0.404686  -0.022735
    24  C   -0.000001   0.000000   0.000001  -0.000874  -0.022735  18.105222
    25  C    0.000004  -0.000003  -0.000004  -0.021143   0.046533  -6.951761
    26  H   -0.000001  -0.000001  -0.000000   0.000579  -0.012546  -0.007798
    27  F   -0.000000  -0.000000   0.000000  -0.000538   0.000126   0.011943
    28  F   -0.000000  -0.000000   0.000000   0.000168  -0.000311   0.302449
    29  F    0.000000  -0.000000   0.000000  -0.000100   0.000242   0.138496
    30  F   -0.000000  -0.000000   0.000000  -0.029016  -0.000258   0.015217
    31  F    0.000000  -0.000000  -0.000000   0.002386  -0.000055   0.122408
    32  F    0.000000  -0.000000   0.000000  -0.001778   0.000121  -0.056077
              25         26         27         28         29         30
     1  C   -5.412832   0.045559  -0.015504  -0.002042   0.011547   0.125458
     2  N   -0.045417  -0.000819   0.000083  -0.000042  -0.000103   0.001408
     3  C   -0.194475   0.003213  -0.000433  -0.000616  -0.001920  -0.003677
     4  O   -0.000011  -0.000244  -0.000000   0.000000   0.000006   0.000000
     5  O   -0.002922  -0.000053   0.000000   0.000000   0.000000   0.000000
     6  C   -0.007302   0.000518  -0.000002  -0.000001  -0.000015  -0.000062
     7  C   -0.000604  -0.000119  -0.000000  -0.000000  -0.000000  -0.000002
     8  C   -0.000024   0.000004   0.000000   0.000000  -0.000000   0.000000
     9  C    1.028127   0.008661   0.033818  -0.002230  -0.006520   0.116767
    10  C   -5.207597   0.034665  -0.136944   0.024760   0.056514  -0.311281
    11  C   -3.910543  -0.001406   0.022040  -0.006200  -0.166407   0.074252
    12  C    0.801028   0.384331   0.055467  -0.081688  -0.008510  -0.010181
    13  C    3.099581  -0.079963   0.015371  -0.022150   0.129094  -0.017917
    14  H    0.000647   0.000202   0.000070  -0.000060  -0.000005   0.004025
    15  H    0.000340   0.000027  -0.000000   0.000000  -0.000000   0.000001
    16  H   -0.000318   0.000036   0.000000  -0.000000  -0.000000  -0.000001
    17  H    0.000089   0.000005  -0.000000   0.000000  -0.000000   0.000000
    18  H    0.000059   0.000005  -0.000000  -0.000000   0.000000  -0.000000
    19  H    0.000004  -0.000001  -0.000000  -0.000000   0.000000  -0.000000
    20  H   -0.000003  -0.000001  -0.000000  -0.000000  -0.000000  -0.000000
    21  H   -0.000004  -0.000000   0.000000   0.000000   0.000000   0.000000
    22  H   -0.021143   0.000579  -0.000538   0.000168  -0.000100  -0.029016
    23  H    0.046533  -0.012546   0.000126  -0.000311   0.000242  -0.000258
    24  C   -6.951761  -0.007798   0.011943   0.302449   0.138496   0.015217
    25  C   20.541873  -0.024500   0.158028  -0.048464   0.013486   0.201343
    26  H   -0.024500   0.475852   0.001437  -0.000924  -0.012177  -0.000066
    27  F    0.158028   0.001437   9.051607   0.030125   0.021967  -0.001202
    28  F   -0.048464  -0.000924   0.030125   9.047777   0.004607   0.000103
    29  F    0.013486  -0.012177   0.021967   0.004607   9.118638   0.000074
    30  F    0.201343  -0.000066  -0.001202   0.000103   0.000074   9.103102
    31  F    0.007787   0.000041   0.015410   0.009731  -0.001313   0.020702
    32  F    0.344112  -0.000023   0.009289  -0.001225   0.000047   0.004689
              31         32
     1  C    0.007029  -0.041776
     2  N    0.000033  -0.000077
     3  C   -0.000640  -0.002722
     4  O    0.000000   0.000001
     5  O   -0.000000  -0.000003
     6  C   -0.000007  -0.000022
     7  C    0.000000  -0.000001
     8  C    0.000000  -0.000000
     9  C   -0.018331  -0.001867
    10  C    0.092584  -0.105992
    11  C   -0.060219   0.004709
    12  C   -0.002877   0.012151
    13  C   -0.005310   0.016319
    14  H   -0.000139   0.000393
    15  H    0.000000   0.000000
    16  H   -0.000000  -0.000001
    17  H    0.000000   0.000000
    18  H    0.000000  -0.000000
    19  H    0.000000   0.000000
    20  H   -0.000000  -0.000000
    21  H   -0.000000   0.000000
    22  H    0.002386  -0.001778
    23  H   -0.000055   0.000121
    24  C    0.122408  -0.056077
    25  C    0.007787   0.344112
    26  H    0.000041  -0.000023
    27  F    0.015410   0.009289
    28  F    0.009731  -0.001225
    29  F   -0.001313   0.000047
    30  F    0.020702   0.004689
    31  F    9.041853   0.030655
    32  F    0.030655   9.034281
 Mulliken charges:
               1
     1  C    0.010638
     2  N   -0.437648
     3  C    0.392845
     4  O   -0.441473
     5  O   -0.211624
     6  C    0.062168
     7  C    0.266291
     8  C   -0.447995
     9  C   -0.522722
    10  C   -0.394705
    11  C   -0.381513
    12  C   -0.037184
    13  C   -0.433090
    14  H    0.227464
    15  H    0.102475
    16  H    0.102715
    17  H    0.048249
    18  H    0.048704
    19  H    0.058588
    20  H    0.091731
    21  H    0.058331
    22  H    0.151091
    23  H    0.251606
    24  C    1.288646
    25  C    1.584888
    26  H    0.185505
    27  F   -0.272159
    28  F   -0.253767
    29  F   -0.297647
    30  F   -0.293478
    31  F   -0.261728
    32  F   -0.245203
 Sum of Mulliken charges =  -0.00000
 Mulliken charges with hydrogens summed into heavy atoms:
               1
     1  C    0.010638
     2  N   -0.210183
     3  C    0.392845
     4  O   -0.441473
     5  O   -0.211624
     6  C    0.267359
     7  C    0.363245
     8  C   -0.239345
     9  C   -0.371631
    10  C   -0.394705
    11  C   -0.381513
    12  C    0.148321
    13  C   -0.181484
    24  C    1.288646
    25  C    1.584888
    27  F   -0.272159
    28  F   -0.253767
    29  F   -0.297647
    30  F   -0.293478
    31  F   -0.261728
    32  F   -0.245203
 Electronic spatial extent (au):  <R**2>=           9886.5611
 Charge=              0.0000 electrons
 Dipole moment (field-independent basis, Debye):
    X=              6.4925    Y=              1.1928    Z=              0.0058  Tot=              6.6012
 Quadrupole moment (field-independent basis, Debye-Ang):
   XX=           -117.1945   YY=           -121.4448   ZZ=           -121.4217
   XY=              7.5213   XZ=              0.1669   YZ=              0.1025
 Traceless Quadrupole moment (field-independent basis, Debye-Ang):
   XX=              2.8258   YY=             -1.4245   ZZ=             -1.4014
   XY=              7.5213   XZ=              0.1669   YZ=              0.1025
 Octapole moment (field-independent basis, Debye-Ang**2):
  XXX=            117.8549  YYY=             10.9146  ZZZ=              0.1965  XYY=            -29.2396
  XXY=             22.3487  XXZ=             -0.3195  XZZ=            -20.2231  YZZ=              4.0218
  YYZ=              0.4964  XYZ=             -1.2456
 Hexadecapole moment (field-independent basis, Debye-Ang**3):
 XXXX=          -9665.7924 YYYY=          -1369.9648 ZZZZ=           -268.1329 XXXY=             13.6537
 XXXZ=              5.4864 YYYX=             28.3745 YYYZ=             -6.9655 ZZZX=             -0.0049
 ZZZY=              3.1114 XXYY=          -2041.4600 XXZZ=          -1777.4435 YYZZ=           -279.1092
 XXYZ=              4.1976 YYXZ=             -3.1713 ZZXY=            -11.4276
 N-N= 1.771873872244D+03 E-N=-6.527390990150D+03  KE= 1.260952451459D+03
 1\1\GINC-R3710\SP\RMP2-FC\Gen\C12H11F6N1O2\ROOT\09-Dec-2019\0\\# MP2/G
 en 5D SCF=Tight INT(grid=ultrafine) maxdisk=3489660928\\NM2CA_c2.MP2_G
 TMP2LARGE\\0,1\C,0,-5.8165102221,1.5024757836,0.2212603451\N,0,-4.5791
 064725,0.8589135928,0.1642559533\C,0,-3.3378077155,1.4444796831,0.0808
 085345\O,0,-3.1074249503,2.6246873298,0.0494415844\O,0,-2.4064932612,0
 .4801661694,0.0391363875\C,0,-1.047136191,0.9380336952,-0.0493378016\C
 ,0,-0.1532739999,-0.282158292,-0.0932824801\C,0,1.3154860527,0.1222409
 537,-0.18700508\C,0,-6.9541491172,0.689955862,0.2899922494\C,0,-8.2250
 788661,1.2347241791,0.3458269295\C,0,-8.3870746121,2.6273343332,0.3455
 348755\C,0,-7.2522505671,3.4251563159,0.2717014226\C,0,-5.9734453456,2
 .8878728966,0.2107852248\H,0,-4.5779711915,-0.1505288053,0.1771641896\
 H,0,-0.831776091,1.5684931723,0.81674399\H,0,-0.9408663987,1.552058664
 8,-0.9468626421\H,0,-0.4345210724,-0.8987901162,-0.9512051984\H,0,-0.3
 268576954,-0.8832626467,0.8033291339\H,0,1.508947373,0.7092770821,-1.0
 880560087\H,0,1.9614049074,-0.7558771273,-0.219246886\H,0,1.617197861,
 0.7242534288,0.6734993705\H,0,-6.8412039748,-0.3878111577,0.2915328773
 \H,0,-5.1119629431,3.5353274358,0.1567335482\C,0,-9.7328207716,3.30953
 59279,0.3812052674\C,0,-9.3853925872,0.2675952419,0.446949001\H,0,-7.3
 638899367,4.5017996182,0.2684964863\F,0,-10.5688581647,2.7450489931,1.
 2588093709\F,0,-10.3362222839,3.2975689582,-0.8152764807\F,0,-9.610124
 3373,4.5981137972,0.734299317\F,0,-9.0189592434,-0.9692559193,0.073207
 8339\F,0,-10.4086768562,0.6201301961,-0.333512755\F,0,-9.8405213257,0.
 1679207535,1.7011414395\\Version=ES64L-G09RevE.01\State=1-A\HF=-1262.1
 180398\MP2=-1266.1569555\RMSD=2.983e-09\PG=C01 [X(C12H11F6N1O2)]\\@


 WERE I TO AWAIT PERFECTION, MY BOOK WOULD NEVER BE FINISHED.
                                    -- HISTORY OF CHINESE WRITING

                                       TAI T'UNG, 13TH CENTURY
 Job cpu time:       0 days  8 hours  5 minutes 33.7 seconds.
 File lengths (MBytes):  RWF=    363 Int=      0 D2E=      0 Chk=     40 Scr=      1
 Normal termination of Gaussian 09 at Mon Dec  9 12:00:28 2019.
pbs_rusage has been removed.
Please contact help@nci.org.au if you require this functionality.
