 Entering Gaussian System, Link 0=/apps/gaussian/g09e01/g09/g09
 Initial command:
 /apps/gaussian/g09e01/g09/l1.exe "/jobfs/local/3588784.r-man2/Gau-10299.inp" -scrdir="/jobfs/local/3588784.r-man2/"
 Entering Link 1 = /apps/gaussian/g09e01/g09/l1.exe PID=     10300.
  
 Copyright (c) 1988,1990,1992,1993,1995,1998,2003,2009,2015,
            Gaussian, Inc.  All Rights Reserved.
  
 This is part of the Gaussian(R) 09 program.  It is based on
 the Gaussian(R) 03 system (copyright 2003, Gaussian, Inc.),
 the Gaussian(R) 98 system (copyright 1998, Gaussian, Inc.),
 the Gaussian(R) 94 system (copyright 1995, Gaussian, Inc.),
 the Gaussian 92(TM) system (copyright 1992, Gaussian, Inc.),
 the Gaussian 90(TM) system (copyright 1990, Gaussian, Inc.),
 the Gaussian 88(TM) system (copyright 1988, Gaussian, Inc.),
 the Gaussian 86(TM) system (copyright 1986, Carnegie Mellon
 University), and the Gaussian 82(TM) system (copyright 1983,
 Carnegie Mellon University). Gaussian is a federally registered
 trademark of Gaussian, Inc.
  
 This software contains proprietary and confidential information,
 including trade secrets, belonging to Gaussian, Inc.
  
 This software is provided under written license and may be
 used, copied, transmitted, or stored only in accord with that
 written license.
  
 The following legend is applicable only to US Government
 contracts under FAR:
  
                    RESTRICTED RIGHTS LEGEND
  
 Use, reproduction and disclosure by the US Government is
 subject to restrictions as set forth in subparagraphs (a)
 and (c) of the Commercial Computer Software - Restricted
 Rights clause in FAR 52.227-19.
  
 Gaussian, Inc.
 340 Quinnipiac St., Bldg. 40, Wallingford CT 06492
  
  
 ---------------------------------------------------------------
 Warning -- This program may not be used in any manner that
 competes with the business of Gaussian, Inc. or will provide
 assistance to any competitor of Gaussian, Inc.  The licensee
 of this program is prohibited from giving any competitor of
 Gaussian, Inc. access to this program.  By using this program,
 the user acknowledges that Gaussian, Inc. is engaged in the
 business of creating and licensing software in the field of
 computational chemistry and represents and warrants to the
 licensee that it is not a competitor of Gaussian, Inc. and that
 it will not use this program in any manner prohibited above.
 ---------------------------------------------------------------
  

 Cite this work as:
 Gaussian 09, Revision E.01,
 M. J. Frisch, G. W. Trucks, H. B. Schlegel, G. E. Scuseria, 
 M. A. Robb, J. R. Cheeseman, G. Scalmani, V. Barone, B. Mennucci, 
 G. A. Petersson, H. Nakatsuji, M. Caricato, X. Li, H. P. Hratchian, 
 A. F. Izmaylov, J. Bloino, G. Zheng, J. L. Sonnenberg, M. Hada, 
 M. Ehara, K. Toyota, R. Fukuda, J. Hasegawa, M. Ishida, T. Nakajima, 
 Y. Honda, O. Kitao, H. Nakai, T. Vreven, J. A. Montgomery, Jr., 
 J. E. Peralta, F. Ogliaro, M. Bearpark, J. J. Heyd, E. Brothers, 
 K. N. Kudin, V. N. Staroverov, T. Keith, R. Kobayashi, J. Normand, 
 K. Raghavachari, A. Rendell, J. C. Burant, S. S. Iyengar, J. Tomasi, 
 M. Cossi, N. Rega, J. M. Millam, M. Klene, J. E. Knox, J. B. Cross, 
 V. Bakken, C. Adamo, J. Jaramillo, R. Gomperts, R. E. Stratmann, 
 O. Yazyev, A. J. Austin, R. Cammi, C. Pomelli, J. W. Ochterski, 
 R. L. Martin, K. Morokuma, V. G. Zakrzewski, G. A. Voth, 
 P. Salvador, J. J. Dannenberg, S. Dapprich, A. D. Daniels, 
 O. Farkas, J. B. Foresman, J. V. Ortiz, J. Cioslowski, 
 and D. J. Fox, Gaussian, Inc., Wallingford CT, 2013.
 
 ******************************************
 Gaussian 09:  ES64L-G09RevE.01 30-Nov-2015
                14-Nov-2019 
 ******************************************
 %chk=NM2CA.M062X_6-311pGd_opt_GD3.chk
 %mem=196608000
 %nproc=8
 Will use up to    8 processors via shared memory.
 ----------------------------------------------------------------------
 # M062X/6-311+G* SCF=Tight INT(grid=ultrafine) OPT IOP(2/17=4) Empiric
 alDispersion=GD3 maxdisk=2684354560
 ----------------------------------------------------------------------
 1/14=-1,18=20,19=15,26=4,38=1/1,3;
 2/9=110,12=2,17=4,18=5,40=1/2;
 3/5=4,6=6,7=11,11=2,16=1,25=1,30=1,71=1,74=-55,75=-5,124=31/1,2,3;
 4//1;
 5/5=2,32=2,38=5/2;
 6/7=2,8=2,9=2,10=2,28=1/1;
 7//1,2,3,16;
 1/14=-1,18=20,19=15,26=4/3(2);
 2/9=110,17=4/2;
 99//99;
 2/9=110,17=4/2;
 3/5=4,6=6,7=11,11=2,16=1,25=1,30=1,71=1,74=-55,75=-5,124=31/1,2,3;
 4/5=5,16=3,69=1/1;
 5/5=2,32=2,38=5/2;
 7//1,2,3,16;
 1/14=-1,18=20,19=15,26=4/3(-5);
 2/9=110,17=4/2;
 6/7=2,8=2,9=2,10=2,19=2,28=1/1;
 99/9=1/99;
 ----------------------------
 NM2CA.M062X_6-311pGd_opt_GD3
 ----------------------------
 Symbolic Z-matrix:
 Charge =  0 Multiplicity = 1
 C                    -5.85879   1.2111    0.17659 
 N                    -4.57835   0.66133   0.09655 
 C                    -3.37726   1.33117   0.06886 
 O                    -3.22514   2.52339   0.10133 
 O                    -2.38343   0.43275  -0.00149 
 C                    -1.05645   0.98382  -0.03969 
 C                    -0.08144  -0.17084  -0.11599 
 C                     1.35808   0.3345   -0.16122 
 C                    -6.1019    2.58814   0.20902 
 C                    -7.40403   3.06349   0.28912 
 C                    -8.48935   2.18037   0.34955 
 C                    -8.23394   0.81364   0.30667 
 C                    -6.94036   0.33093   0.22156 
 H                    -4.50845  -0.34522   0.0664 
 H                    -0.9012    1.58832   0.8571 
 H                    -0.97471   1.64285  -0.90734 
 H                    -0.30429  -0.76711  -1.00495 
 H                    -0.23036  -0.82064   0.75064 
 H                     1.52807   0.97124  -1.03274 
 H                     2.06251  -0.49627  -0.2159 
 H                     1.60216   0.91805   0.72972 
 H                    -5.27553   3.2805    0.16594 
 H                    -6.7694   -0.74024   0.19371 
 C                    -9.93125   2.62271   0.42289 
 C                    -7.57272   4.56861   0.34881 
 H                    -9.05946   0.11522   0.3489 
 F                    -10.11626   3.62872   1.28217 
 F                    -10.72065   1.61476   0.83007 
 F                    -10.40182   3.01461  -0.76855 
 F                    -6.47785   5.20054  -0.09142 
 F                    -7.7852    4.99028   1.60158 
 F                    -8.59359   4.99181  -0.40241 
 

 GradGradGradGradGradGradGradGradGradGradGradGradGradGradGradGradGradGrad
 Berny optimization.
 Initialization pass.
                           ----------------------------
                           !    Initial Parameters    !
                           ! (Angstroms and Degrees)  !
 --------------------------                            --------------------------
 ! Name  Definition              Value          Derivative Info.                !
 --------------------------------------------------------------------------------
 ! R1    R(1,2)                  1.3958         estimate D2E/DX2                !
 ! R2    R(1,9)                  1.3987         estimate D2E/DX2                !
 ! R3    R(1,13)                 1.3952         estimate D2E/DX2                !
 ! R4    R(2,3)                  1.3755         estimate D2E/DX2                !
 ! R5    R(2,14)                 1.0094         estimate D2E/DX2                !
 ! R6    R(3,4)                  1.2023         estimate D2E/DX2                !
 ! R7    R(3,5)                  1.3416         estimate D2E/DX2                !
 ! R8    R(5,6)                  1.4374         estimate D2E/DX2                !
 ! R9    R(6,7)                  1.5132         estimate D2E/DX2                !
 ! R10   R(6,15)                 1.0926         estimate D2E/DX2                !
 ! R11   R(6,16)                 1.0926         estimate D2E/DX2                !
 ! R12   R(7,8)                  1.5263         estimate D2E/DX2                !
 ! R13   R(7,17)                 1.0934         estimate D2E/DX2                !
 ! R14   R(7,18)                 1.0934         estimate D2E/DX2                !
 ! R15   R(8,19)                 1.0926         estimate D2E/DX2                !
 ! R16   R(8,20)                 1.0906         estimate D2E/DX2                !
 ! R17   R(8,21)                 1.0927         estimate D2E/DX2                !
 ! R18   R(9,10)                 1.3885         estimate D2E/DX2                !
 ! R19   R(9,22)                 1.0789         estimate D2E/DX2                !
 ! R20   R(10,11)                1.4005         estimate D2E/DX2                !
 ! R21   R(10,25)                1.5157         estimate D2E/DX2                !
 ! R22   R(11,12)                1.391          estimate D2E/DX2                !
 ! R23   R(11,24)                1.51           estimate D2E/DX2                !
 ! R24   R(12,13)                1.3833         estimate D2E/DX2                !
 ! R25   R(12,26)                1.0822         estimate D2E/DX2                !
 ! R26   R(13,23)                1.0851         estimate D2E/DX2                !
 ! R27   R(24,27)                1.3359         estimate D2E/DX2                !
 ! R28   R(24,28)                1.3435         estimate D2E/DX2                !
 ! R29   R(24,29)                1.3396         estimate D2E/DX2                !
 ! R30   R(25,30)                1.3386         estimate D2E/DX2                !
 ! R31   R(25,31)                1.3388         estimate D2E/DX2                !
 ! R32   R(25,32)                1.3363         estimate D2E/DX2                !
 ! A1    A(2,1,9)              123.268          estimate D2E/DX2                !
 ! A2    A(2,1,13)             117.6796         estimate D2E/DX2                !
 ! A3    A(9,1,13)             119.0521         estimate D2E/DX2                !
 ! A4    A(1,2,3)              127.6167         estimate D2E/DX2                !
 ! A5    A(1,2,14)             117.2586         estimate D2E/DX2                !
 ! A6    A(3,2,14)             115.1199         estimate D2E/DX2                !
 ! A7    A(2,3,4)              126.3571         estimate D2E/DX2                !
 ! A8    A(2,3,5)              108.7713         estimate D2E/DX2                !
 ! A9    A(4,3,5)              124.8716         estimate D2E/DX2                !
 ! A10   A(3,5,6)              115.3759         estimate D2E/DX2                !
 ! A11   A(5,6,7)              107.6773         estimate D2E/DX2                !
 ! A12   A(5,6,15)             108.7525         estimate D2E/DX2                !
 ! A13   A(5,6,16)             108.7485         estimate D2E/DX2                !
 ! A14   A(7,6,15)             111.8403         estimate D2E/DX2                !
 ! A15   A(7,6,16)             111.8401         estimate D2E/DX2                !
 ! A16   A(15,6,16)            107.9049         estimate D2E/DX2                !
 ! A17   A(6,7,8)              110.8892         estimate D2E/DX2                !
 ! A18   A(6,7,17)             109.0143         estimate D2E/DX2                !
 ! A19   A(6,7,18)             109.0119         estimate D2E/DX2                !
 ! A20   A(8,7,17)             110.4079         estimate D2E/DX2                !
 ! A21   A(8,7,18)             110.4088         estimate D2E/DX2                !
 ! A22   A(17,7,18)            107.0117         estimate D2E/DX2                !
 ! A23   A(7,8,19)             111.3034         estimate D2E/DX2                !
 ! A24   A(7,8,20)             111.0061         estimate D2E/DX2                !
 ! A25   A(7,8,21)             111.3059         estimate D2E/DX2                !
 ! A26   A(19,8,20)            107.6638         estimate D2E/DX2                !
 ! A27   A(19,8,21)            107.7216         estimate D2E/DX2                !
 ! A28   A(20,8,21)            107.6634         estimate D2E/DX2                !
 ! A29   A(1,9,10)             120.0914         estimate D2E/DX2                !
 ! A30   A(1,9,22)             119.8492         estimate D2E/DX2                !
 ! A31   A(10,9,22)            120.0584         estimate D2E/DX2                !
 ! A32   A(9,10,11)            120.8872         estimate D2E/DX2                !
 ! A33   A(9,10,25)            116.5259         estimate D2E/DX2                !
 ! A34   A(11,10,25)           122.5618         estimate D2E/DX2                !
 ! A35   A(10,11,12)           118.4194         estimate D2E/DX2                !
 ! A36   A(10,11,24)           123.8735         estimate D2E/DX2                !
 ! A37   A(12,11,24)           117.6873         estimate D2E/DX2                !
 ! A38   A(11,12,13)           121.0936         estimate D2E/DX2                !
 ! A39   A(11,12,26)           119.5274         estimate D2E/DX2                !
 ! A40   A(13,12,26)           119.3769         estimate D2E/DX2                !
 ! A41   A(1,13,12)            120.4491         estimate D2E/DX2                !
 ! A42   A(1,13,23)            119.9872         estimate D2E/DX2                !
 ! A43   A(12,13,23)           119.5633         estimate D2E/DX2                !
 ! A44   A(11,24,27)           112.5867         estimate D2E/DX2                !
 ! A45   A(11,24,28)           110.8558         estimate D2E/DX2                !
 ! A46   A(11,24,29)           112.2056         estimate D2E/DX2                !
 ! A47   A(27,24,28)           106.7783         estimate D2E/DX2                !
 ! A48   A(27,24,29)           107.6454         estimate D2E/DX2                !
 ! A49   A(28,24,29)           106.418          estimate D2E/DX2                !
 ! A50   A(10,25,30)           111.3953         estimate D2E/DX2                !
 ! A51   A(10,25,31)           111.5468         estimate D2E/DX2                !
 ! A52   A(10,25,32)           112.1715         estimate D2E/DX2                !
 ! A53   A(30,25,31)           106.7902         estimate D2E/DX2                !
 ! A54   A(30,25,32)           106.8861         estimate D2E/DX2                !
 ! A55   A(31,25,32)           107.7614         estimate D2E/DX2                !
 ! D1    D(9,1,2,3)              1.6448         estimate D2E/DX2                !
 ! D2    D(9,1,2,14)          -179.1994         estimate D2E/DX2                !
 ! D3    D(13,1,2,3)          -178.5598         estimate D2E/DX2                !
 ! D4    D(13,1,2,14)            0.596          estimate D2E/DX2                !
 ! D5    D(2,1,9,10)           179.9928         estimate D2E/DX2                !
 ! D6    D(2,1,9,22)             0.3432         estimate D2E/DX2                !
 ! D7    D(13,1,9,10)            0.2            estimate D2E/DX2                !
 ! D8    D(13,1,9,22)         -179.4496         estimate D2E/DX2                !
 ! D9    D(2,1,13,12)          179.7375         estimate D2E/DX2                !
 ! D10   D(2,1,13,23)           -0.0227         estimate D2E/DX2                !
 ! D11   D(9,1,13,12)           -0.4582         estimate D2E/DX2                !
 ! D12   D(9,1,13,23)          179.7816         estimate D2E/DX2                !
 ! D13   D(1,2,3,4)             -0.4897         estimate D2E/DX2                !
 ! D14   D(1,2,3,5)            179.522          estimate D2E/DX2                !
 ! D15   D(14,2,3,4)          -179.6609         estimate D2E/DX2                !
 ! D16   D(14,2,3,5)             0.3508         estimate D2E/DX2                !
 ! D17   D(2,3,5,6)            179.9368         estimate D2E/DX2                !
 ! D18   D(4,3,5,6)             -0.0518         estimate D2E/DX2                !
 ! D19   D(3,5,6,7)            179.9433         estimate D2E/DX2                !
 ! D20   D(3,5,6,15)            58.5744         estimate D2E/DX2                !
 ! D21   D(3,5,6,16)           -58.6902         estimate D2E/DX2                !
 ! D22   D(5,6,7,8)            179.9627         estimate D2E/DX2                !
 ! D23   D(5,6,7,17)            58.2076         estimate D2E/DX2                !
 ! D24   D(5,6,7,18)           -58.2825         estimate D2E/DX2                !
 ! D25   D(15,6,7,8)           -60.6155         estimate D2E/DX2                !
 ! D26   D(15,6,7,17)          177.6293         estimate D2E/DX2                !
 ! D27   D(15,6,7,18)           61.1393         estimate D2E/DX2                !
 ! D28   D(16,6,7,8)            60.5459         estimate D2E/DX2                !
 ! D29   D(16,6,7,17)          -61.2093         estimate D2E/DX2                !
 ! D30   D(16,6,7,18)         -177.6993         estimate D2E/DX2                !
 ! D31   D(6,7,8,19)           -60.1112         estimate D2E/DX2                !
 ! D32   D(6,7,8,20)           179.981          estimate D2E/DX2                !
 ! D33   D(6,7,8,21)            60.072          estimate D2E/DX2                !
 ! D34   D(17,7,8,19)           60.8243         estimate D2E/DX2                !
 ! D35   D(17,7,8,20)          -59.0835         estimate D2E/DX2                !
 ! D36   D(17,7,8,21)         -178.9925         estimate D2E/DX2                !
 ! D37   D(18,7,8,19)          178.9558         estimate D2E/DX2                !
 ! D38   D(18,7,8,20)           59.0479         estimate D2E/DX2                !
 ! D39   D(18,7,8,21)          -60.861          estimate D2E/DX2                !
 ! D40   D(1,9,10,11)            0.5244         estimate D2E/DX2                !
 ! D41   D(1,9,10,25)          178.7464         estimate D2E/DX2                !
 ! D42   D(22,9,10,11)        -179.8268         estimate D2E/DX2                !
 ! D43   D(22,9,10,25)          -1.6048         estimate D2E/DX2                !
 ! D44   D(9,10,11,12)          -0.9755         estimate D2E/DX2                !
 ! D45   D(9,10,11,24)        -179.3181         estimate D2E/DX2                !
 ! D46   D(25,10,11,12)       -179.0879         estimate D2E/DX2                !
 ! D47   D(25,10,11,24)          2.5695         estimate D2E/DX2                !
 ! D48   D(9,10,25,30)          19.0783         estimate D2E/DX2                !
 ! D49   D(9,10,25,31)        -100.1481         estimate D2E/DX2                !
 ! D50   D(9,10,25,32)         138.8498         estimate D2E/DX2                !
 ! D51   D(11,10,25,30)       -162.7321         estimate D2E/DX2                !
 ! D52   D(11,10,25,31)         78.0414         estimate D2E/DX2                !
 ! D53   D(11,10,25,32)        -42.9606         estimate D2E/DX2                !
 ! D54   D(10,11,12,13)          0.7173         estimate D2E/DX2                !
 ! D55   D(10,11,12,26)       -179.8031         estimate D2E/DX2                !
 ! D56   D(24,11,12,13)        179.1633         estimate D2E/DX2                !
 ! D57   D(24,11,12,26)         -1.3571         estimate D2E/DX2                !
 ! D58   D(10,11,24,27)        -43.7399         estimate D2E/DX2                !
 ! D59   D(10,11,24,28)       -163.2813         estimate D2E/DX2                !
 ! D60   D(10,11,24,29)         77.8891         estimate D2E/DX2                !
 ! D61   D(12,11,24,27)        137.9063         estimate D2E/DX2                !
 ! D62   D(12,11,24,28)         18.3648         estimate D2E/DX2                !
 ! D63   D(12,11,24,29)       -100.4648         estimate D2E/DX2                !
 ! D64   D(11,12,13,1)          -0.0073         estimate D2E/DX2                !
 ! D65   D(11,12,13,23)        179.7539         estimate D2E/DX2                !
 ! D66   D(26,12,13,1)        -179.4876         estimate D2E/DX2                !
 ! D67   D(26,12,13,23)          0.2736         estimate D2E/DX2                !
 --------------------------------------------------------------------------------
 Trust Radius=3.00D-01 FncErr=1.00D-07 GrdErr=1.00D-06
 Number of steps in this run=    164 maximum allowed number of steps=    192.
 GradGradGradGradGradGradGradGradGradGradGradGradGradGradGradGradGradGrad

                          Input orientation:                          
 ---------------------------------------------------------------------
 Center     Atomic      Atomic             Coordinates (Angstroms)
 Number     Number       Type             X           Y           Z
 ---------------------------------------------------------------------
      1          6           0       -5.858793    1.211100    0.176589
      2          7           0       -4.578353    0.661327    0.096555
      3          6           0       -3.377263    1.331175    0.068865
      4          8           0       -3.225143    2.523390    0.101327
      5          8           0       -2.383427    0.432750   -0.001492
      6          6           0       -1.056446    0.983816   -0.039692
      7          6           0       -0.081436   -0.170839   -0.115989
      8          6           0        1.358078    0.334497   -0.161217
      9          6           0       -6.101898    2.588136    0.209022
     10          6           0       -7.404025    3.063489    0.289125
     11          6           0       -8.489348    2.180366    0.349554
     12          6           0       -8.233937    0.813638    0.306668
     13          6           0       -6.940361    0.330935    0.221563
     14          1           0       -4.508446   -0.345222    0.066400
     15          1           0       -0.901202    1.588324    0.857101
     16          1           0       -0.974710    1.642849   -0.907336
     17          1           0       -0.304292   -0.767113   -1.004948
     18          1           0       -0.230363   -0.820638    0.750643
     19          1           0        1.528072    0.971236   -1.032738
     20          1           0        2.062511   -0.496270   -0.215897
     21          1           0        1.602165    0.918050    0.729722
     22          1           0       -5.275526    3.280502    0.165937
     23          1           0       -6.769397   -0.740241    0.193711
     24          6           0       -9.931250    2.622711    0.422891
     25          6           0       -7.572718    4.568613    0.348807
     26          1           0       -9.059463    0.115219    0.348901
     27          9           0      -10.116255    3.628717    1.282168
     28          9           0      -10.720647    1.614759    0.830066
     29          9           0      -10.401816    3.014610   -0.768551
     30          9           0       -6.477851    5.200545   -0.091424
     31          9           0       -7.785202    4.990276    1.601580
     32          9           0       -8.593587    4.991813   -0.402410
 ---------------------------------------------------------------------
                    Distance matrix (angstroms):
                    1          2          3          4          5
     1  C    0.000000
     2  N    1.395773   0.000000
     3  C    2.486768   1.375529   0.000000
     4  O    2.943448   2.301843   1.202319   0.000000
     5  O    3.565909   2.208973   1.341576   2.256066   0.000000
     6  C    4.812585   3.539265   2.349177   2.663348   1.437363
     7  C    5.947539   4.578203   3.626664   4.145961   2.382560
     8  C    7.277759   5.951007   4.844560   5.085872   3.746202
     9  C    1.398707   2.458949   3.003869   2.879498   4.303142
    10  C    2.414902   3.713743   4.389105   4.217823   5.675531
    11  C    2.808774   4.203257   5.189733   5.281206   6.360791
    12  C    2.411681   3.664784   4.889957   5.296550   5.870988
    13  C    1.395171   2.388277   3.703980   4.315572   4.563525
    14  H    2.063423   1.009424   2.022347   3.142773   2.263969
    15  H    5.018277   3.867712   2.611191   2.616532   2.066283
    16  H    5.021511   3.867483   2.611966   2.618625   2.066247
    17  H    6.013472   4.639111   3.872859   4.536808   2.601807
    18  H    6.011383   4.639943   3.872738   4.535729   2.602379
    19  H    7.489044   6.217698   5.040376   5.127215   4.080840
    20  H    8.112720   6.748239   5.745588   6.097398   4.547023
    21  H    7.487171   6.218168   5.040050   5.125904   4.081070
    22  H    2.150056   2.711261   2.722628   2.186656   4.062260
    23  H    2.153421   2.602788   3.976546   4.818875   4.544308
    24  C    4.317199   5.710256   6.689405   6.714547   7.870556
    25  C    3.773605   4.929172   5.306714   4.810987   6.645059
    26  H    3.387467   4.521312   5.817591   6.316635   6.692761
    27  F    5.019279   6.393703   7.222522   7.078387   8.465141
    28  F    4.922153   6.258981   7.388176   7.585463   8.461552
    29  F    4.978453   6.340274   7.271834   7.245870   8.458661
    30  F    4.046077   4.924218   4.960984   4.217158   6.285241
    31  F    4.474799   5.593637   5.930275   5.397261   7.247072
    32  F    4.701928   5.926565   6.390024   5.930182   7.714394
                    6          7          8          9         10
     6  C    0.000000
     7  C    1.513173   0.000000
     8  C    2.503260   1.526306   0.000000
     9  C    5.300216   6.630501   7.801744   0.000000
    10  C    6.687670   8.015317   9.188289   1.388493   0.000000
    11  C    7.538652   8.742876  10.031945   2.426096   1.400530
    12  C    7.187858   8.222597   9.615365   2.775602   2.398102
    13  C    5.925788   6.885533   8.307263   2.407932   2.772437
    14  H    3.700528   4.434196   5.910155   3.341260   4.478091
    15  H    1.092597   2.171077   2.777301   5.335435   6.692191
    16  H    1.092616   2.171090   2.776757   5.331780   6.692221
    17  H    2.136167   1.093369   2.165387   6.807618   8.170334
    18  H    2.136141   1.093376   2.165404   6.810875   8.170733
    19  H    2.768759   2.176069   1.092648   7.897643   9.268614
    20  H    3.456819   2.170805   1.090592   8.737946  10.126314
    21  H    2.768490   2.176102   1.092651   7.900184   9.268684
    22  H    4.808086   6.242580   7.265720   1.078942   2.143077
    23  H    5.971989   6.719297   8.205905   3.394684   3.857489
    24  C    9.036708  10.252470  11.533691   3.835475   2.568860
    25  C    7.447382   8.876810   9.896817   2.470858   1.515723
    26  H    8.059389   8.994605  10.432328   3.857730   3.381767
    27  F    9.530108  10.820770  12.024790   4.283633   2.943095
    28  F    9.723752  10.829413  12.186768   4.760882   3.659428
    29  F    9.591210  10.820498  12.076712   4.430217   3.179280
    30  F    6.868414   8.352634   9.224157   2.656367   2.360005
    31  F    8.001353   9.430544  10.410730   3.246999   2.362274
    32  F    8.544244   9.959504  10.990196   3.515683   2.368905
                   11         12         13         14         15
    11  C    0.000000
    12  C    1.391050   0.000000
    13  C    2.415810   1.383324   0.000000
    14  H    4.722960   3.908960   2.528927   0.000000
    15  H    7.628110   7.394059   6.201320   4.168455   0.000000
    16  H    7.637963   7.406603   6.211644   4.169878   1.766808
    17  H    8.804400   8.191361   6.837211   4.358979   3.061309
    18  H    8.796461   8.180780   6.828624   4.358463   2.502890
    19  H   10.184371   9.854728   8.584731   6.275405   3.139054
    20  H   10.900727  10.392583   9.051372   6.578753   3.778949
    21  H   10.177259   9.845749   8.577743   6.274984   2.594675
    22  H    3.401861   3.854532   3.387435   3.707316   4.740874
    23  H    3.393002   2.138265   1.085090   2.298727   6.348071
    24  C    1.510009   2.483369   3.773352   6.192133   9.099464
    25  C    2.558112   3.812981   4.286489   5.797869   7.324589
    26  H    2.142397   1.082158   2.133856   4.582965   8.305753
    27  F    2.369455   3.524115   4.699633   6.979814   9.447808
    28  F    2.351489   2.664483   4.038446   6.558670   9.819517
    29  F    2.367205   3.271097   4.490447   6.835015   9.743649
    30  F    3.655415   4.742074   4.901528   5.887189   6.711695
    31  F    3.155786   4.395732   4.932308   6.446816   7.714724
    32  F    2.912138   4.253150   4.984605   6.737366   8.505462
                   16         17         18         19         20
    16  H    0.000000
    17  H    2.503380   0.000000
    18  H    3.061326   1.757962   0.000000
    19  H    2.594361   2.525903   3.079505   0.000000
    20  H    3.778708   2.509524   2.509320   1.762506   0.000000
    21  H    3.137766   3.079518   2.526189   1.764818   1.762503
    22  H    4.725552   6.516697   6.528009   7.284125   8.261755
    23  H    6.361589   6.575339   6.563200   8.560450   8.844766
    24  C    9.107647  10.305724  10.299091  11.668859  12.409125
    25  C    7.326097   9.117711   9.116780   9.883024  10.899980
    26  H    8.323161   8.903058   8.887645  10.711563  11.153081
    27  F    9.607572  10.992218  10.854038  12.165991  12.945349
    28  F    9.899628  10.841635  10.769565  12.406259  12.998446
    29  F    9.527398  10.785051  10.976135  12.106502  12.961140
    30  F    6.603595   8.634831   8.717501   9.103182  10.266790
    31  F    7.992666   9.793137   9.569033  10.479951  11.418531
    32  F    8.337733  10.111414  10.249762  10.909185  11.987755
                   21         22         23         24         25
    21  H    0.000000
    22  H    7.293947   0.000000
    23  H    8.551040   4.289381   0.000000
    24  C   11.662747   4.708978   4.621610   0.000000
    25  C    9.881811   2.640031   5.371528   3.058545   0.000000
    26  H   10.698592   4.936666   2.449551   2.655749   4.695012
    27  F   12.040526   4.979948   5.610168   1.335901   2.867778
    28  F   12.342899   5.732809   4.643636   1.343468   4.343538
    29  F   12.277457   5.217549   5.312187   1.339609   3.415730
    30  F    9.181541   2.279997   5.954766   4.340012   1.338609
    31  F   10.269655   3.358998   5.987719   3.405906   1.338801
    32  F   11.037691   3.776391   6.044789   2.843081   1.336263
                   26         27         28         29         30
    26  H    0.000000
    27  F    3.785824   0.000000
    28  F    2.289033   2.150746   0.000000
    29  F    3.384831   2.159658   2.148677   0.000000
    30  F    5.720065   4.194685   5.631014   4.542501   0.000000
    31  F    5.192218   2.718396   4.539403   4.045670   2.149334
    32  F    4.956075   2.648462   4.177065   2.704271   2.148632
                   31         32
    31  F    0.000000
    32  F    2.160894   0.000000
 Stoichiometry    C12H11F6NO2
 Framework group  C1[X(C12H11F6NO2)]
 Deg. of freedom    90
 Full point group                 C1      NOp   1
 Largest Abelian subgroup         C1      NOp   1
 Largest concise Abelian subgroup C1      NOp   1
                         Standard orientation:                         
 ---------------------------------------------------------------------
 Center     Atomic      Atomic             Coordinates (Angstroms)
 Number     Number       Type             X           Y           Z
 ---------------------------------------------------------------------
      1          6           0        0.510941   -0.952789   -0.013909
      2          7           0        1.900147   -1.087900   -0.019837
      3          6           0        2.841319   -0.084867   -0.005689
      4          8           0        2.622879    1.097382    0.006233
      5          8           0        4.063027   -0.639171   -0.007530
      6          6           0        5.160548    0.288895    0.004905
      7          6           0        6.442344   -0.515273    0.002199
      8          6           0        7.661172    0.403382    0.014059
      9          6           0       -0.139581    0.285385   -0.025208
     10          6           0       -1.526862    0.343009   -0.018514
     11          6           0       -2.294942   -0.827757    0.010530
     12          6           0       -1.635286   -2.052449    0.011738
     13          6           0       -0.253650   -2.119714   -0.000187
     14          1           0        2.273426   -2.025764   -0.023168
     15          1           0        5.077801    0.918846    0.893771
     16          1           0        5.084145    0.934912   -0.872953
     17          1           0        6.457851   -1.157874   -0.882267
     18          1           0        6.452069   -1.172928    0.875621
     19          1           0        7.675708    1.054960   -0.862934
     20          1           0        8.586182   -0.174323    0.012466
     21          1           0        7.669618    1.040333    0.901813
     22          1           0        0.439038    1.195841   -0.044864
     23          1           0        0.235256   -3.088405    0.005115
     24          6           0       -3.804851   -0.844120    0.004556
     25          6           0       -2.146851    1.726034   -0.002029
     26          1           0       -2.211220   -2.968422    0.030726
     27          9           0       -4.331095    0.064596    0.830349
     28          9           0       -4.271759   -2.041185    0.396904
     29          9           0       -4.308730   -0.622963   -1.216816
     30          9           0       -1.273551    2.657492   -0.404032
     31          9           0       -2.542771    2.072743    1.228998
     32          9           0       -3.206978    1.813098   -0.810825
 ---------------------------------------------------------------------
 Rotational constants (GHZ):      0.7143845      0.1196733      0.1065315
 Standard basis: 6-311+G(d) (5D, 7F)
 There are   516 symmetry adapted cartesian basis functions of A   symmetry.
 There are   495 symmetry adapted basis functions of A   symmetry.
   495 basis functions,   811 primitive gaussians,   516 cartesian basis functions
    80 alpha electrons       80 beta electrons
       nuclear repulsion energy      1787.1186681455 Hartrees.
 NAtoms=   32 NActive=   32 NUniq=   32 SFac= 1.00D+00 NAtFMM=   60 NAOKFM=F Big=F
 Integral buffers will be    131072 words long.
 Raffenetti 2 integral format.
 Two-electron integral symmetry is turned on.
 Nuclear repulsion after empirical dispersion term =     1787.1171404180 Hartrees.
 One-electron integrals computed using PRISM.
 NBasis=   495 RedAO= T EigKep=  1.37D-06  NBF=   495
 NBsUse=   493 1.00D-06 EigRej=  6.84D-07 NBFU=   493
 ExpMin= 4.38D-02 ExpMax= 1.14D+04 ExpMxC= 1.72D+03 IAcc=3 IRadAn=         5 AccDes= 0.00D+00
 Harris functional with IExCor= 1009 and IRadAn=       5 diagonalized for initial guess.
 HarFok:  IExCor= 1009 AccDes= 0.00D+00 IRadAn=         5 IDoV= 1 UseB2=F ITyADJ=14
 ICtDFT=  3500011 ScaDFX=  1.000000  1.000000  1.000000  1.000000
 FoFCou: FMM=F IPFlag=           0 FMFlag=      100000 FMFlg1=           0
         NFxFlg=           0 DoJE=T BraDBF=F KetDBF=T FulRan=T
         wScrn=  0.000000 ICntrl=     500 IOpCl=  0 I1Cent=   200000004 NGrid=           0
         NMat0=    1 NMatS0=      1 NMatT0=    0 NMatD0=    1 NMtDS0=    0 NMtDT0=    0
 Petite list used in FoFCou.
 Requested convergence on RMS density matrix=1.00D-08 within 128 cycles.
 Requested convergence on MAX density matrix=1.00D-06.
 Requested convergence on             energy=1.00D-06.
 No special actions if energy rises.
 SCF Done:  E(RM062X) =  -1268.12051212     A.U. after   16 cycles
            NFock= 16  Conv=0.33D-08     -V/T= 2.0030

 **********************************************************************

            Population analysis using the SCF density.

 **********************************************************************

 Orbital symmetries:
       Occupied  (A) (A) (A) (A) (A) (A) (A) (A) (A) (A) (A) (A)
                 (A) (A) (A) (A) (A) (A) (A) (A) (A) (A) (A) (A)
                 (A) (A) (A) (A) (A) (A) (A) (A) (A) (A) (A) (A)
                 (A) (A) (A) (A) (A) (A) (A) (A) (A) (A) (A) (A)
                 (A) (A) (A) (A) (A) (A) (A) (A) (A) (A) (A) (A)
                 (A) (A) (A) (A) (A) (A) (A) (A) (A) (A) (A) (A)
                 (A) (A) (A) (A) (A) (A) (A) (A)
       Virtual   (A) (A) (A) (A) (A) (A) (A) (A) (A) (A) (A) (A)
                 (A) (A) (A) (A) (A) (A) (A) (A) (A) (A) (A) (A)
                 (A) (A) (A) (A) (A) (A) (A) (A) (A) (A) (A) (A)
                 (A) (A) (A) (A) (A) (A) (A) (A) (A) (A) (A) (A)
                 (A) (A) (A) (A) (A) (A) (A) (A) (A) (A) (A) (A)
                 (A) (A) (A) (A) (A) (A) (A) (A) (A) (A) (A) (A)
                 (A) (A) (A) (A) (A) (A) (A) (A) (A) (A) (A) (A)
                 (A) (A) (A) (A) (A) (A) (A) (A) (A) (A) (A) (A)
                 (A) (A) (A) (A) (A) (A) (A) (A) (A) (A) (A) (A)
                 (A) (A) (A) (A) (A) (A) (A) (A) (A) (A) (A) (A)
                 (A) (A) (A) (A) (A) (A) (A) (A) (A) (A) (A) (A)
                 (A) (A) (A) (A) (A) (A) (A) (A) (A) (A) (A) (A)
                 (A) (A) (A) (A) (A) (A) (A) (A) (A) (A) (A) (A)
                 (A) (A) (A) (A) (A) (A) (A) (A) (A) (A) (A) (A)
                 (A) (A) (A) (A) (A) (A) (A) (A) (A) (A) (A) (A)
                 (A) (A) (A) (A) (A) (A) (A) (A) (A) (A) (A) (A)
                 (A) (A) (A) (A) (A) (A) (A) (A) (A) (A) (A) (A)
                 (A) (A) (A) (A) (A) (A) (A) (A) (A) (A) (A) (A)
                 (A) (A) (A) (A) (A) (A) (A) (A) (A) (A) (A) (A)
                 (A) (A) (A) (A) (A) (A) (A) (A) (A) (A) (A) (A)
                 (A) (A) (A) (A) (A) (A) (A) (A) (A) (A) (A) (A)
                 (A) (A) (A) (A) (A) (A) (A) (A) (A) (A) (A) (A)
                 (A) (A) (A) (A) (A) (A) (A) (A) (A) (A) (A) (A)
                 (A) (A) (A) (A) (A) (A) (A) (A) (A) (A) (A) (A)
                 (A) (A) (A) (A) (A) (A) (A) (A) (A) (A) (A) (A)
                 (A) (A) (A) (A) (A) (A) (A) (A) (A) (A) (A) (A)
                 (A) (A) (A) (A) (A) (A) (A) (A) (A) (A) (A) (A)
                 (A) (A) (A) (A) (A) (A) (A) (A) (A) (A) (A) (A)
                 (A) (A) (A) (A) (A) (A) (A) (A) (A) (A) (A) (A)
                 (A) (A) (A) (A) (A) (A) (A) (A) (A) (A) (A) (A)
                 (A) (A) (A) (A) (A) (A) (A) (A) (A) (A) (A) (A)
                 (A) (A) (A) (A) (A) (A) (A) (A) (A) (A) (A) (A)
                 (A) (A) (A) (A) (A) (A) (A) (A) (A) (A) (A) (A)
                 (A) (A) (A) (A) (A) (A) (A) (A) (A) (A) (A) (A)
                 (A) (A) (A) (A) (A)
 The electronic state is 1-A.
 Alpha  occ. eigenvalues --  -25.28200 -25.28030 -25.27909 -25.27892 -25.27605
 Alpha  occ. eigenvalues --  -25.27605 -19.68879 -19.62866 -14.81923 -10.81089
 Alpha  occ. eigenvalues --  -10.81015 -10.72481 -10.63479 -10.61088 -10.60405
 Alpha  occ. eigenvalues --  -10.59690 -10.58645 -10.58330 -10.57771 -10.55419
 Alpha  occ. eigenvalues --  -10.54319  -1.47757  -1.47308  -1.38290  -1.37949
 Alpha  occ. eigenvalues --   -1.37808  -1.37654  -1.26999  -1.17096  -1.09506
 Alpha  occ. eigenvalues --   -1.01028  -0.92578  -0.91099  -0.90216  -0.83851
 Alpha  occ. eigenvalues --   -0.82492  -0.80243  -0.76003  -0.75236  -0.71478
 Alpha  occ. eigenvalues --   -0.70297  -0.70002  -0.69995  -0.69590  -0.69345
 Alpha  occ. eigenvalues --   -0.68609  -0.67128  -0.64752  -0.61147  -0.60859
 Alpha  occ. eigenvalues --   -0.58600  -0.58329  -0.57973  -0.57636  -0.57336
 Alpha  occ. eigenvalues --   -0.56262  -0.55399  -0.55066  -0.54148  -0.53406
 Alpha  occ. eigenvalues --   -0.53211  -0.53012  -0.52345  -0.51514  -0.51429
 Alpha  occ. eigenvalues --   -0.51121  -0.50466  -0.49817  -0.47720  -0.47408
 Alpha  occ. eigenvalues --   -0.45939  -0.45002  -0.44602  -0.42568  -0.42321
 Alpha  occ. eigenvalues --   -0.41395  -0.39626  -0.38567  -0.35112  -0.31123
 Alpha virt. eigenvalues --   -0.03006  -0.01561  -0.00890   0.00910   0.01826
 Alpha virt. eigenvalues --    0.02264   0.02591   0.03316   0.04153   0.04275
 Alpha virt. eigenvalues --    0.04829   0.05002   0.05972   0.06240   0.06543
 Alpha virt. eigenvalues --    0.06739   0.06938   0.07125   0.07727   0.08232
 Alpha virt. eigenvalues --    0.08268   0.08657   0.09370   0.10672   0.11105
 Alpha virt. eigenvalues --    0.11204   0.11498   0.12100   0.12708   0.12939
 Alpha virt. eigenvalues --    0.13467   0.13587   0.14239   0.15061   0.15500
 Alpha virt. eigenvalues --    0.16285   0.16949   0.17101   0.17336   0.17717
 Alpha virt. eigenvalues --    0.17761   0.18645   0.18875   0.19238   0.19914
 Alpha virt. eigenvalues --    0.19931   0.20336   0.20507   0.20956   0.21635
 Alpha virt. eigenvalues --    0.21810   0.22178   0.22308   0.22584   0.23212
 Alpha virt. eigenvalues --    0.23570   0.23886   0.24557   0.24766   0.25085
 Alpha virt. eigenvalues --    0.25552   0.26067   0.26666   0.26709   0.27104
 Alpha virt. eigenvalues --    0.27381   0.27931   0.28255   0.28348   0.28686
 Alpha virt. eigenvalues --    0.28996   0.29361   0.29659   0.30075   0.30746
 Alpha virt. eigenvalues --    0.31142   0.31612   0.32387   0.32813   0.33288
 Alpha virt. eigenvalues --    0.33413   0.33955   0.34998   0.35680   0.36356
 Alpha virt. eigenvalues --    0.36606   0.37508   0.37912   0.38075   0.38146
 Alpha virt. eigenvalues --    0.38498   0.39212   0.39663   0.40420   0.40776
 Alpha virt. eigenvalues --    0.41304   0.41492   0.41827   0.42275   0.42927
 Alpha virt. eigenvalues --    0.43311   0.44468   0.44672   0.45079   0.46280
 Alpha virt. eigenvalues --    0.46388   0.46978   0.47204   0.48052   0.48525
 Alpha virt. eigenvalues --    0.49244   0.50049   0.51455   0.51925   0.52312
 Alpha virt. eigenvalues --    0.53236   0.53970   0.54366   0.55535   0.55737
 Alpha virt. eigenvalues --    0.56898   0.57494   0.57890   0.58814   0.59751
 Alpha virt. eigenvalues --    0.60195   0.60566   0.62013   0.63016   0.63202
 Alpha virt. eigenvalues --    0.63608   0.65634   0.66287   0.66546   0.66935
 Alpha virt. eigenvalues --    0.68690   0.68767   0.68962   0.69623   0.70711
 Alpha virt. eigenvalues --    0.71365   0.71647   0.71984   0.72955   0.73279
 Alpha virt. eigenvalues --    0.73728   0.75637   0.76063   0.76496   0.76918
 Alpha virt. eigenvalues --    0.77916   0.78111   0.80069   0.80296   0.80776
 Alpha virt. eigenvalues --    0.82931   0.83467   0.84898   0.87181   0.87543
 Alpha virt. eigenvalues --    0.89582   0.90858   0.92637   0.93539   0.94665
 Alpha virt. eigenvalues --    0.95764   0.97481   0.98811   1.00568   1.02541
 Alpha virt. eigenvalues --    1.03069   1.04080   1.04522   1.05554   1.07728
 Alpha virt. eigenvalues --    1.09649   1.10354   1.11231   1.11700   1.13944
 Alpha virt. eigenvalues --    1.14797   1.14965   1.17013   1.18616   1.19773
 Alpha virt. eigenvalues --    1.20960   1.21628   1.23463   1.23607   1.24704
 Alpha virt. eigenvalues --    1.30251   1.30755   1.34814   1.38157   1.39150
 Alpha virt. eigenvalues --    1.39823   1.40500   1.41212   1.43126   1.44146
 Alpha virt. eigenvalues --    1.44690   1.47010   1.47942   1.48366   1.48756
 Alpha virt. eigenvalues --    1.49288   1.50148   1.50669   1.51078   1.52660
 Alpha virt. eigenvalues --    1.53359   1.54205   1.54837   1.55407   1.56351
 Alpha virt. eigenvalues --    1.56823   1.57423   1.58545   1.58709   1.59425
 Alpha virt. eigenvalues --    1.59905   1.60195   1.60733   1.60967   1.61691
 Alpha virt. eigenvalues --    1.62510   1.63250   1.64366   1.66148   1.67352
 Alpha virt. eigenvalues --    1.71309   1.72413   1.75684   1.76882   1.77254
 Alpha virt. eigenvalues --    1.78026   1.78907   1.79422   1.80361   1.82580
 Alpha virt. eigenvalues --    1.82954   1.83585   1.86137   1.86735   1.87803
 Alpha virt. eigenvalues --    1.89084   1.90367   1.91205   1.94530   1.96294
 Alpha virt. eigenvalues --    1.97756   1.99309   2.01186   2.03183   2.04215
 Alpha virt. eigenvalues --    2.04703   2.07588   2.07956   2.11461   2.12350
 Alpha virt. eigenvalues --    2.14173   2.15584   2.16772   2.19641   2.21337
 Alpha virt. eigenvalues --    2.23693   2.26140   2.34828   2.36008   2.36658
 Alpha virt. eigenvalues --    2.39688   2.41204   2.42238   2.43790   2.49424
 Alpha virt. eigenvalues --    2.50759   2.53628   2.55134   2.57387   2.58475
 Alpha virt. eigenvalues --    2.58708   2.60883   2.64248   2.68113   2.70379
 Alpha virt. eigenvalues --    2.72549   2.74027   2.79378   2.81470   2.84096
 Alpha virt. eigenvalues --    2.85596   2.91380   2.91810   2.94220   2.95483
 Alpha virt. eigenvalues --    2.99286   3.00049   3.00452   3.01510   3.03286
 Alpha virt. eigenvalues --    3.04934   3.05935   3.06441   3.10270   3.11330
 Alpha virt. eigenvalues --    3.12166   3.14128   3.17075   3.17864   3.20072
 Alpha virt. eigenvalues --    3.24109   3.27600   3.28284   3.28739   3.33726
 Alpha virt. eigenvalues --    3.36904   3.38361   3.41067   3.43482   3.43859
 Alpha virt. eigenvalues --    3.50280   3.52664   3.55570   3.70002   3.71185
 Alpha virt. eigenvalues --    3.73022   3.78865   3.80802   3.81099   3.82631
 Alpha virt. eigenvalues --    3.84594   3.84641   3.85626   3.86267   3.86422
 Alpha virt. eigenvalues --    3.87337   3.88064   3.88943   3.89290   3.90075
 Alpha virt. eigenvalues --    3.91200   3.94457   3.96095   3.99162   4.00955
 Alpha virt. eigenvalues --    4.01517   4.02173   4.02309   4.06174   4.09457
 Alpha virt. eigenvalues --    4.11100   4.12986   4.17851   4.22239   4.23735
 Alpha virt. eigenvalues --    4.28480   4.29483   4.31835   4.33435   4.54905
 Alpha virt. eigenvalues --    4.72584   4.79859   4.80794   4.99973   5.00378
 Alpha virt. eigenvalues --    5.02617   5.04245   5.08174   5.09207   5.15289
 Alpha virt. eigenvalues --    5.36909   5.49535   5.79599   5.95690   6.46684
 Alpha virt. eigenvalues --    6.48739   6.50456   6.50882   6.51864   6.53655
 Alpha virt. eigenvalues --    6.54216   6.55526   6.56307   6.56819   6.59254
 Alpha virt. eigenvalues --    6.63200   6.63815   6.64361   6.89255   6.90309
 Alpha virt. eigenvalues --    6.91062   6.92562  23.45536  23.56088  23.65051
 Alpha virt. eigenvalues --   23.65540  23.70926  23.80368  23.92000  23.92801
 Alpha virt. eigenvalues --   23.96669  24.08273  24.12000  24.19540  35.64720
 Alpha virt. eigenvalues --   50.00927  50.13011  66.90064  66.90449  66.91151
 Alpha virt. eigenvalues --   66.91797  66.96607  66.98814
          Condensed to atoms (all electrons):
               1          2          3          4          5          6
     1  C   27.321211  -0.389238  -0.465843  -0.196775  -0.349806  -0.579813
     2  N   -0.389238   7.669231   0.176898   0.009242  -0.223498  -0.335978
     3  C   -0.465843   0.176898   9.100917   0.480847   0.340582  -0.688655
     4  O   -0.196775   0.009242   0.480847   8.026824  -0.196769  -0.191914
     5  O   -0.349806  -0.223498   0.340582  -0.196769   8.330408   0.386206
     6  C   -0.579813  -0.335978  -0.688655  -0.191914   0.386206   8.538187
     7  C   -0.010916   0.034962   0.155182   0.029173  -0.170086  -0.991177
     8  C   -0.016114  -0.006156  -0.275748   0.000833   0.032565   0.342906
     9  C   -3.198357   0.191307  -0.079942   0.373624   0.006062  -0.447042
    10  C   -4.516027   0.288794   0.707708   0.012563   0.014044  -0.061138
    11  C   -2.281728  -0.042351  -2.385192  -0.000164  -0.019781  -0.225367
    12  C    0.853156  -0.006033   0.228716  -0.003864   0.006314   0.066106
    13  C   -5.043129  -0.146852  -1.548512  -0.065135  -0.046633  -0.109864
    14  H   -0.039181   0.256900   0.010855   0.000093   0.024279  -0.005079
    15  H    0.007625   0.005313   0.047156  -0.002801  -0.044115   0.345857
    16  H    0.005323   0.005354   0.040170  -0.002780  -0.044230   0.354510
    17  H   -0.000093  -0.000706   0.009743  -0.000343   0.000674  -0.065601
    18  H   -0.000455  -0.000643   0.007471  -0.000345   0.000843  -0.065120
    19  H   -0.000147  -0.000031  -0.000738  -0.000081  -0.000407  -0.048215
    20  H    0.000129   0.000046   0.008770   0.000033  -0.000667   0.091308
    21  H   -0.000110  -0.000044  -0.000362  -0.000089  -0.000426  -0.048013
    22  H    0.079703  -0.026013   0.099800   0.009117   0.003104   0.011396
    23  H    0.062247  -0.021119  -0.019389   0.000191  -0.000858  -0.001358
    24  C   -1.325954   0.007643  -0.337353   0.000770   0.000866  -0.012675
    25  C   -3.107070   0.036569   0.328135  -0.006424   0.005105   0.027284
    26  H    0.003727  -0.002509   0.004267  -0.000013  -0.000013   0.000059
    27  F    0.004526   0.000089   0.000656  -0.000003   0.000000   0.000005
    28  F   -0.001731  -0.000025  -0.000938   0.000002   0.000000  -0.000011
    29  F   -0.003448   0.000014  -0.000620  -0.000003   0.000000  -0.000003
    30  F    0.251370  -0.001016   0.007107  -0.000116  -0.000002   0.000187
    31  F   -0.004118   0.000480  -0.005160   0.000117  -0.000002  -0.000159
    32  F    0.022795   0.000255  -0.001695   0.000022  -0.000001  -0.000024
               7          8          9         10         11         12
     1  C   -0.010916  -0.016114  -3.198357  -4.516027  -2.281728   0.853156
     2  N    0.034962  -0.006156   0.191307   0.288794  -0.042351  -0.006033
     3  C    0.155182  -0.275748  -0.079942   0.707708  -2.385192   0.228716
     4  O    0.029173   0.000833   0.373624   0.012563  -0.000164  -0.003864
     5  O   -0.170086   0.032565   0.006062   0.014044  -0.019781   0.006314
     6  C   -0.991177   0.342906  -0.447042  -0.061138  -0.225367   0.066106
     7  C    6.501966  -0.134110  -0.009325  -0.004768   0.001628  -0.002910
     8  C   -0.134110   6.076450  -0.018929  -0.001357  -0.001469   0.000647
     9  C   -0.009325  -0.018929  18.520933   5.270296  -9.233341  -1.534569
    10  C   -0.004768  -0.001357   5.270296  43.994563 -17.860132  -2.155917
    11  C    0.001628  -0.001469  -9.233341 -17.860132  55.945878  -9.723917
    12  C   -0.002910   0.000647  -1.534569  -2.155917  -9.723917  17.312481
    13  C    0.014166   0.000755  -4.735519  -8.495241   1.152859  -0.390097
    14  H   -0.001909  -0.000572   0.043120   0.012565   0.009465   0.016112
    15  H   -0.023276  -0.015192   0.000209   0.000431   0.000322  -0.000089
    16  H   -0.022908  -0.014055  -0.001600   0.000749   0.000198  -0.000096
    17  H    0.441681  -0.046117   0.000862   0.000032   0.000024  -0.000022
    18  H    0.443412  -0.045563   0.000447   0.000040   0.000012  -0.000011
    19  H    0.014856   0.378853   0.000025  -0.000001  -0.000000   0.000000
    20  H   -0.135899   0.388780   0.000064   0.000001   0.000001  -0.000001
    21  H    0.013777   0.379327   0.000034   0.000000  -0.000000  -0.000000
    22  H   -0.000678   0.000052   0.370233  -0.105068  -0.123685   0.003300
    23  H    0.000012  -0.000001  -0.052741  -0.004614   0.010526   0.066121
    24  C   -0.000287  -0.000041  -2.880334  -5.077331  -2.614453   1.193405
    25  C   -0.001463   0.000095   2.952730  -5.252626  -5.460744  -0.152979
    26  H    0.000001   0.000000   0.004484   0.034295   0.052044   0.255205
    27  F   -0.000000   0.000000   0.079311  -0.256785  -0.012466   0.071183
    28  F    0.000000  -0.000000   0.000217  -0.027505  -0.158589   0.074884
    29  F   -0.000000   0.000000   0.001456  -0.080559   0.242161  -0.092099
    30  F    0.000015  -0.000000   0.188389  -0.385313  -0.089108   0.022070
    31  F    0.000000  -0.000000  -0.121850   0.349710  -0.095980   0.007222
    32  F    0.000000  -0.000000   0.014233   0.046329  -0.188675   0.044700
              13         14         15         16         17         18
     1  C   -5.043129  -0.039181   0.007625   0.005323  -0.000093  -0.000455
     2  N   -0.146852   0.256900   0.005313   0.005354  -0.000706  -0.000643
     3  C   -1.548512   0.010855   0.047156   0.040170   0.009743   0.007471
     4  O   -0.065135   0.000093  -0.002801  -0.002780  -0.000343  -0.000345
     5  O   -0.046633   0.024279  -0.044115  -0.044230   0.000674   0.000843
     6  C   -0.109864  -0.005079   0.345857   0.354510  -0.065601  -0.065120
     7  C    0.014166  -0.001909  -0.023276  -0.022908   0.441681   0.443412
     8  C    0.000755  -0.000572  -0.015192  -0.014055  -0.046117  -0.045563
     9  C   -4.735519   0.043120   0.000209  -0.001600   0.000862   0.000447
    10  C   -8.495241   0.012565   0.000431   0.000749   0.000032   0.000040
    11  C    1.152859   0.009465   0.000322   0.000198   0.000024   0.000012
    12  C   -0.390097   0.016112  -0.000089  -0.000096  -0.000022  -0.000011
    13  C   23.426432  -0.063572   0.000540   0.001047  -0.000198   0.000043
    14  H   -0.063572   0.323281  -0.000023  -0.000003   0.000002  -0.000002
    15  H    0.000540  -0.000023   0.447436  -0.039806   0.005440  -0.007776
    16  H    0.001047  -0.000003  -0.039806   0.447399  -0.007804   0.005425
    17  H   -0.000198   0.000002   0.005440  -0.007804   0.445522  -0.036966
    18  H    0.000043  -0.000002  -0.007776   0.005425  -0.036966   0.445388
    19  H    0.000004  -0.000000  -0.000526   0.003765  -0.008101   0.006140
    20  H   -0.000017  -0.000000  -0.000204  -0.000201  -0.003225  -0.003222
    21  H   -0.000000  -0.000000   0.003783  -0.000533   0.006144  -0.008080
    22  H   -0.051294   0.000166  -0.000056  -0.000048  -0.000000  -0.000000
    23  H    0.265749   0.007137  -0.000000  -0.000000  -0.000000  -0.000000
    24  C    0.470212   0.002496   0.000003  -0.000003   0.000000  -0.000000
    25  C    1.297894  -0.000088  -0.000074   0.000014  -0.000001   0.000001
    26  H    0.006839  -0.000002   0.000000   0.000000  -0.000000  -0.000000
    27  F    0.028215   0.000002  -0.000000   0.000000  -0.000000   0.000000
    28  F    0.166481   0.000001   0.000000   0.000000   0.000000   0.000000
    29  F   -0.014744   0.000001   0.000000  -0.000000   0.000000  -0.000000
    30  F   -0.015030  -0.000005   0.000001   0.000000   0.000000   0.000000
    31  F   -0.010534  -0.000000   0.000000  -0.000000  -0.000000   0.000000
    32  F   -0.003937   0.000001  -0.000000   0.000000  -0.000000   0.000000
              19         20         21         22         23         24
     1  C   -0.000147   0.000129  -0.000110   0.079703   0.062247  -1.325954
     2  N   -0.000031   0.000046  -0.000044  -0.026013  -0.021119   0.007643
     3  C   -0.000738   0.008770  -0.000362   0.099800  -0.019389  -0.337353
     4  O   -0.000081   0.000033  -0.000089   0.009117   0.000191   0.000770
     5  O   -0.000407  -0.000667  -0.000426   0.003104  -0.000858   0.000866
     6  C   -0.048215   0.091308  -0.048013   0.011396  -0.001358  -0.012675
     7  C    0.014856  -0.135899   0.013777  -0.000678   0.000012  -0.000287
     8  C    0.378853   0.388780   0.379327   0.000052  -0.000001  -0.000041
     9  C    0.000025   0.000064   0.000034   0.370233  -0.052741  -2.880334
    10  C   -0.000001   0.000001   0.000000  -0.105068  -0.004614  -5.077331
    11  C   -0.000000   0.000001  -0.000000  -0.123685   0.010526  -2.614453
    12  C    0.000000  -0.000001  -0.000000   0.003300   0.066121   1.193405
    13  C    0.000004  -0.000017  -0.000000  -0.051294   0.265749   0.470212
    14  H   -0.000000  -0.000000  -0.000000   0.000166   0.007137   0.002496
    15  H   -0.000526  -0.000204   0.003783  -0.000056  -0.000000   0.000003
    16  H    0.003765  -0.000201  -0.000533  -0.000048  -0.000000  -0.000003
    17  H   -0.008101  -0.003225   0.006144  -0.000000  -0.000000   0.000000
    18  H    0.006140  -0.003222  -0.008080  -0.000000  -0.000000  -0.000000
    19  H    0.456477  -0.024848  -0.037546  -0.000000  -0.000000  -0.000000
    20  H   -0.024848   0.429114  -0.024845   0.000000   0.000000   0.000000
    21  H   -0.037546  -0.024845   0.456437  -0.000000  -0.000000  -0.000000
    22  H   -0.000000   0.000000  -0.000000   0.331296  -0.000042  -0.002462
    23  H   -0.000000   0.000000  -0.000000  -0.000042   0.432157   0.019170
    24  C   -0.000000   0.000000  -0.000000  -0.002462   0.019170  21.935461
    25  C   -0.000000  -0.000000  -0.000000   0.044110  -0.001564  -6.622948
    26  H    0.000000  -0.000000   0.000000   0.000048  -0.004408  -0.058855
    27  F   -0.000000   0.000000  -0.000000   0.000017   0.000030  -0.025498
    28  F   -0.000000   0.000000  -0.000000  -0.000009   0.000070   0.054104
    29  F   -0.000000  -0.000000   0.000000   0.000012   0.000038   0.125454
    30  F    0.000000  -0.000000   0.000000   0.013152  -0.000004  -0.001526
    31  F   -0.000000   0.000000  -0.000000  -0.001003  -0.000005   0.001156
    32  F   -0.000000  -0.000000  -0.000000   0.000706  -0.000000   0.268135
              25         26         27         28         29         30
     1  C   -3.107070   0.003727   0.004526  -0.001731  -0.003448   0.251370
     2  N    0.036569  -0.002509   0.000089  -0.000025   0.000014  -0.001016
     3  C    0.328135   0.004267   0.000656  -0.000938  -0.000620   0.007107
     4  O   -0.006424  -0.000013  -0.000003   0.000002  -0.000003  -0.000116
     5  O    0.005105  -0.000013   0.000000   0.000000   0.000000  -0.000002
     6  C    0.027284   0.000059   0.000005  -0.000011  -0.000003   0.000187
     7  C   -0.001463   0.000001  -0.000000   0.000000  -0.000000   0.000015
     8  C    0.000095   0.000000   0.000000  -0.000000   0.000000  -0.000000
     9  C    2.952730   0.004484   0.079311   0.000217   0.001456   0.188389
    10  C   -5.252626   0.034295  -0.256785  -0.027505  -0.080559  -0.385313
    11  C   -5.460744   0.052044  -0.012466  -0.158589   0.242161  -0.089108
    12  C   -0.152979   0.255205   0.071183   0.074884  -0.092099   0.022070
    13  C    1.297894   0.006839   0.028215   0.166481  -0.014744  -0.015030
    14  H   -0.000088  -0.000002   0.000002   0.000001   0.000001  -0.000005
    15  H   -0.000074   0.000000  -0.000000   0.000000   0.000000   0.000001
    16  H    0.000014   0.000000   0.000000   0.000000  -0.000000   0.000000
    17  H   -0.000001  -0.000000  -0.000000   0.000000   0.000000   0.000000
    18  H    0.000001  -0.000000   0.000000   0.000000  -0.000000   0.000000
    19  H   -0.000000   0.000000  -0.000000  -0.000000  -0.000000   0.000000
    20  H   -0.000000  -0.000000   0.000000   0.000000  -0.000000  -0.000000
    21  H   -0.000000   0.000000  -0.000000  -0.000000   0.000000   0.000000
    22  H    0.044110   0.000048   0.000017  -0.000009   0.000012   0.013152
    23  H   -0.001564  -0.004408   0.000030   0.000070   0.000038  -0.000004
    24  C   -6.622948  -0.058855  -0.025498   0.054104   0.125454  -0.001526
    25  C   20.464747   0.016992   0.268052   0.028789  -0.010639   0.163526
    26  H    0.016992   0.391309   0.000731   0.007501  -0.000579   0.000008
    27  F    0.268052   0.000731   8.976013  -0.029337  -0.039451   0.001713
    28  F    0.028789   0.007501  -0.029337   9.036874  -0.041348   0.000069
    29  F   -0.010639  -0.000579  -0.039451  -0.041348   8.944051   0.000067
    30  F    0.163526   0.000008   0.001713   0.000069   0.000067   9.012583
    31  F    0.061006   0.000010   0.004178   0.000120  -0.001074  -0.041857
    32  F   -0.045418   0.000047  -0.007165   0.001761   0.003050  -0.027974
              31         32
     1  C   -0.004118   0.022795
     2  N    0.000480   0.000255
     3  C   -0.005160  -0.001695
     4  O    0.000117   0.000022
     5  O   -0.000002  -0.000001
     6  C   -0.000159  -0.000024
     7  C    0.000000   0.000000
     8  C   -0.000000  -0.000000
     9  C   -0.121850   0.014233
    10  C    0.349710   0.046329
    11  C   -0.095980  -0.188675
    12  C    0.007222   0.044700
    13  C   -0.010534  -0.003937
    14  H   -0.000000   0.000001
    15  H    0.000000  -0.000000
    16  H   -0.000000   0.000000
    17  H   -0.000000  -0.000000
    18  H    0.000000   0.000000
    19  H   -0.000000  -0.000000
    20  H    0.000000  -0.000000
    21  H   -0.000000  -0.000000
    22  H   -0.001003   0.000706
    23  H   -0.000005  -0.000000
    24  C    0.001156   0.268135
    25  C    0.061006  -0.045418
    26  H    0.000010   0.000047
    27  F    0.004178  -0.007165
    28  F    0.000120   0.001761
    29  F   -0.001074   0.003050
    30  F   -0.041857  -0.027974
    31  F    8.920741  -0.037971
    32  F   -0.037971   8.970668
 Mulliken charges:
               1
     1  C   -1.081761
     2  N   -0.480885
     3  C    0.055166
     4  O   -0.275833
     5  O   -0.053759
     6  C   -0.286805
     7  C   -0.141120
     8  C   -1.025839
     9  C    0.295509
    10  C   -0.447739
    11  C   -0.897979
    12  C   -0.159019
    13  C   -0.090929
    14  H    0.403961
    15  H    0.269823
    16  H    0.270115
    17  H    0.259054
    18  H    0.258961
    19  H    0.260520
    20  H    0.274882
    21  H    0.260546
    22  H    0.344146
    23  H    0.242657
    24  C    0.880843
    25  C    0.966990
    26  H    0.288813
    27  F   -0.064016
    28  F   -0.111383
    29  F   -0.031739
    30  F   -0.098307
    31  F   -0.025029
    32  F   -0.059845
 Sum of Mulliken charges =  -0.00000
 Mulliken charges with hydrogens summed into heavy atoms:
               1
     1  C   -1.081761
     2  N   -0.076924
     3  C    0.055166
     4  O   -0.275833
     5  O   -0.053759
     6  C    0.253133
     7  C    0.376895
     8  C   -0.229890
     9  C    0.639655
    10  C   -0.447739
    11  C   -0.897979
    12  C    0.129793
    13  C    0.151728
    24  C    0.880843
    25  C    0.966990
    27  F   -0.064016
    28  F   -0.111383
    29  F   -0.031739
    30  F   -0.098307
    31  F   -0.025029
    32  F   -0.059845
 Electronic spatial extent (au):  <R**2>=           9409.5469
 Charge=             -0.0000 electrons
 Dipole moment (field-independent basis, Debye):
    X=              6.4494    Y=             -4.3358    Z=             -0.0293  Tot=              7.7714
 Quadrupole moment (field-independent basis, Debye-Ang):
   XX=           -113.5211   YY=           -116.5180   ZZ=           -121.9286
   XY=             -0.9964   XZ=             -0.0375   YZ=             -0.1093
 Traceless Quadrupole moment (field-independent basis, Debye-Ang):
   XX=              3.8015   YY=              0.8045   ZZ=             -4.6060
   XY=             -0.9964   XZ=             -0.0375   YZ=             -0.1093
 Octapole moment (field-independent basis, Debye-Ang**2):
  XXX=            121.8650  YYY=            -10.5789  ZZZ=              0.2164  XYY=            -24.5477
  XXY=              6.5252  XXZ=              1.2087  XZZ=            -18.3316  YZZ=             12.1517
  YYZ=             -0.8344  XYZ=              0.3984
 Hexadecapole moment (field-independent basis, Debye-Ang**3):
 XXXX=          -9214.6774 YYYY=          -1315.3277 ZZZZ=           -272.4608 XXXY=            -49.8989
 XXXZ=             -6.1993 YYYX=            -41.5553 YYYZ=              3.5217 ZZZX=             -2.2461
 ZZZY=             -3.0199 XXYY=          -1913.5497 XXZZ=          -1700.6434 YYZZ=           -286.2496
 XXYZ=             -0.5339 YYXZ=              4.5192 ZZXY=             -2.4535
 N-N= 1.787117140418D+03 E-N=-6.562058008903D+03  KE= 1.264389984418D+03
 Calling FoFJK, ICntrl=      2127 FMM=F ISym2X=0 I1Cent= 0 IOpClX= 0 NMat=1 NMatS=1 NMatT=0.
 ***** Axes restored to original set *****
 -------------------------------------------------------------------
 Center     Atomic                   Forces (Hartrees/Bohr)
 Number     Number              X              Y              Z
 -------------------------------------------------------------------
      1        6          -0.000002020    0.000003266   -0.000002429
      2        7          -0.000004029   -0.000004357    0.000001103
      3        6           0.000000961    0.000007006    0.000006017
      4        8          -0.000002402    0.000000249   -0.000001312
      5        8           0.000008587    0.000000527   -0.000004595
      6        6          -0.000000274   -0.000003288   -0.000000545
      7        6           0.000002264   -0.000002559   -0.000000293
      8        6          -0.000000179   -0.000000669   -0.000000019
      9        6           0.000000790    0.000000534    0.000001060
     10        6          -0.000003787   -0.000003725   -0.000000921
     11        6           0.000004694    0.000007886   -0.000006771
     12        6           0.000001130   -0.000002527   -0.000000268
     13        6          -0.000001792   -0.000000392   -0.000001534
     14        1           0.000000285    0.000001020   -0.000002910
     15        1          -0.000001857   -0.000001702    0.000000523
     16        1          -0.000000685    0.000000242    0.000000995
     17        1          -0.000000521    0.000001578   -0.000000944
     18        1          -0.000000479   -0.000000553   -0.000002495
     19        1           0.000000283    0.000000370    0.000001345
     20        1          -0.000000079    0.000000742   -0.000001008
     21        1           0.000000368   -0.000001620   -0.000000261
     22        1           0.000000829    0.000000293    0.000002914
     23        1           0.000000113    0.000000166   -0.000003081
     24        6          -0.000005232   -0.000023797    0.000024692
     25        6           0.000013163   -0.000006352    0.000018072
     26        1           0.000000011    0.000000844   -0.000002477
     27        9          -0.000004761    0.000008090   -0.000008061
     28        9           0.000000949    0.000001762   -0.000003463
     29        9          -0.000003818    0.000005931   -0.000014480
     30        9           0.000004546    0.000000785   -0.000000670
     31        9           0.000011866    0.000003659    0.000009858
     32        9          -0.000018927    0.000006591   -0.000008044
 -------------------------------------------------------------------
 Cartesian Forces:  Max     0.000024692 RMS     0.000005965

 GradGradGradGradGradGradGradGradGradGradGradGradGradGradGradGradGradGrad
 Berny optimization.
 FormGI is forming the generalized inverse of G from B-inverse, IUseBI=4.
 GSVD:  received Info=                   1 from GESDD.
 Internal  Forces:  Max     0.000022562 RMS     0.000005279
 Search for a local minimum.
 Step number   1 out of a maximum of  164
 All quantities printed in internal units (Hartrees-Bohrs-Radians)
 Mixed Optimization -- En-DIIS/RFO-DIIS
 Second derivative matrix not updated -- first step.
 ITU=  0
     Eigenvalues ---    0.00418   0.00558   0.00592   0.00634   0.01198
     Eigenvalues ---    0.01508   0.01551   0.01748   0.01879   0.02015
     Eigenvalues ---    0.02018   0.02128   0.02155   0.02162   0.02181
     Eigenvalues ---    0.02224   0.02242   0.02264   0.02465   0.03815
     Eigenvalues ---    0.04969   0.05389   0.05502   0.05539   0.05710
     Eigenvalues ---    0.08118   0.10490   0.10609   0.10822   0.10910
     Eigenvalues ---    0.11294   0.12017   0.13615   0.15999   0.15999
     Eigenvalues ---    0.16000   0.16000   0.16000   0.16000   0.16000
     Eigenvalues ---    0.21882   0.21941   0.22000   0.22369   0.23486
     Eigenvalues ---    0.24600   0.24985   0.24992   0.25000   0.25000
     Eigenvalues ---    0.25000   0.25000   0.25000   0.25000   0.25000
     Eigenvalues ---    0.25000   0.25000   0.25000   0.29767   0.30782
     Eigenvalues ---    0.31034   0.31350   0.34425   0.34426   0.34508
     Eigenvalues ---    0.34508   0.34512   0.34514   0.34744   0.35386
     Eigenvalues ---    0.35735   0.36122   0.39949   0.42317   0.42778
     Eigenvalues ---    0.45958   0.46069   0.46328   0.46387   0.47133
     Eigenvalues ---    0.48154   0.49929   0.56435   0.56853   0.57293
     Eigenvalues ---    0.57474   0.57518   0.58051   0.58133   1.03666
 RFO step:  Lambda=-9.58097034D-08 EMin= 4.17966476D-03
 Linear search not attempted -- first point.
 Iteration  1 RMS(Cart)=  0.00052370 RMS(Int)=  0.00000026
 Iteration  2 RMS(Cart)=  0.00000028 RMS(Int)=  0.00000000
 Variable       Old X    -DE/DX   Delta X   Delta X   Delta X     New X
                                 (Linear)    (Quad)   (Total)
    R1        2.63763   0.00000   0.00000   0.00001   0.00001   2.63764
    R2        2.64317  -0.00000   0.00000  -0.00001  -0.00001   2.64317
    R3        2.63649  -0.00000   0.00000  -0.00000  -0.00000   2.63649
    R4        2.59937   0.00001   0.00000   0.00001   0.00001   2.59939
    R5        1.90754  -0.00000   0.00000  -0.00000  -0.00000   1.90753
    R6        2.27205  -0.00000   0.00000  -0.00000  -0.00000   2.27205
    R7        2.53521   0.00001   0.00000   0.00002   0.00002   2.53523
    R8        2.71622  -0.00000   0.00000  -0.00001  -0.00001   2.71622
    R9        2.85948   0.00000   0.00000   0.00001   0.00001   2.85949
   R10        2.06471  -0.00000   0.00000  -0.00000  -0.00000   2.06471
   R11        2.06475  -0.00000   0.00000  -0.00000  -0.00000   2.06474
   R12        2.88430   0.00000   0.00000   0.00000   0.00000   2.88430
   R13        2.06617  -0.00000   0.00000  -0.00000  -0.00000   2.06617
   R14        2.06618  -0.00000   0.00000  -0.00000  -0.00000   2.06618
   R15        2.06481  -0.00000   0.00000  -0.00000  -0.00000   2.06480
   R16        2.06092  -0.00000   0.00000  -0.00000  -0.00000   2.06092
   R17        2.06481  -0.00000   0.00000  -0.00000  -0.00000   2.06481
   R18        2.62387   0.00000   0.00000   0.00000   0.00000   2.62388
   R19        2.03891   0.00000   0.00000   0.00000   0.00000   2.03891
   R20        2.64662   0.00001   0.00000   0.00002   0.00002   2.64664
   R21        2.86430   0.00000   0.00000   0.00001   0.00001   2.86431
   R22        2.62870   0.00000   0.00000   0.00001   0.00001   2.62871
   R23        2.85350   0.00001   0.00000   0.00003   0.00003   2.85354
   R24        2.61410  -0.00000   0.00000  -0.00000  -0.00000   2.61410
   R25        2.04498  -0.00000   0.00000  -0.00000  -0.00000   2.04498
   R26        2.05052   0.00000   0.00000   0.00000   0.00000   2.05052
   R27        2.52449   0.00000   0.00000   0.00000   0.00000   2.52449
   R28        2.53879  -0.00000   0.00000  -0.00000  -0.00000   2.53878
   R29        2.53149   0.00002   0.00000   0.00003   0.00003   2.53152
   R30        2.52960   0.00000   0.00000   0.00001   0.00001   2.52961
   R31        2.52997   0.00001   0.00000   0.00001   0.00001   2.52998
   R32        2.52517   0.00002   0.00000   0.00004   0.00004   2.52521
    A1        2.15143   0.00000   0.00000   0.00001   0.00001   2.15144
    A2        2.05390  -0.00000   0.00000  -0.00000  -0.00000   2.05390
    A3        2.07785  -0.00000   0.00000  -0.00001  -0.00001   2.07785
    A4        2.22733   0.00000   0.00000   0.00001   0.00001   2.22734
    A5        2.04655  -0.00000   0.00000  -0.00000  -0.00000   2.04655
    A6        2.00922  -0.00000   0.00000  -0.00001  -0.00001   2.00921
    A7        2.20535  -0.00000   0.00000  -0.00001  -0.00001   2.20534
    A8        1.89842  -0.00000   0.00000  -0.00001  -0.00001   1.89841
    A9        2.17942   0.00000   0.00000   0.00001   0.00001   2.17944
   A10        2.01369   0.00001   0.00000   0.00004   0.00004   2.01373
   A11        1.87932   0.00000   0.00000   0.00001   0.00001   1.87933
   A12        1.89809  -0.00000   0.00000  -0.00002  -0.00002   1.89807
   A13        1.89802  -0.00000   0.00000  -0.00000  -0.00000   1.89802
   A14        1.95198   0.00000   0.00000   0.00001   0.00001   1.95199
   A15        1.95198   0.00000   0.00000   0.00001   0.00001   1.95198
   A16        1.88330   0.00000   0.00000   0.00000   0.00000   1.88330
   A17        1.93538   0.00000   0.00000   0.00000   0.00000   1.93539
   A18        1.90266  -0.00000   0.00000  -0.00001  -0.00001   1.90265
   A19        1.90262  -0.00000   0.00000   0.00000   0.00000   1.90262
   A20        1.92698   0.00000   0.00000   0.00000   0.00000   1.92698
   A21        1.92700  -0.00000   0.00000   0.00000   0.00000   1.92700
   A22        1.86771   0.00000   0.00000  -0.00000  -0.00000   1.86770
   A23        1.94261   0.00000   0.00000   0.00000   0.00000   1.94261
   A24        1.93742   0.00000   0.00000   0.00000   0.00000   1.93743
   A25        1.94265   0.00000   0.00000   0.00000   0.00000   1.94266
   A26        1.87909  -0.00000   0.00000  -0.00000  -0.00000   1.87908
   A27        1.88010  -0.00000   0.00000  -0.00000  -0.00000   1.88009
   A28        1.87908  -0.00000   0.00000  -0.00000  -0.00000   1.87908
   A29        2.09599   0.00000   0.00000   0.00001   0.00001   2.09601
   A30        2.09176  -0.00000   0.00000  -0.00001  -0.00001   2.09176
   A31        2.09541  -0.00000   0.00000  -0.00001  -0.00001   2.09541
   A32        2.10988  -0.00000   0.00000  -0.00000  -0.00000   2.10988
   A33        2.03376  -0.00002   0.00000  -0.00008  -0.00008   2.03368
   A34        2.13911   0.00002   0.00000   0.00008   0.00008   2.13919
   A35        2.06681  -0.00001   0.00000  -0.00002  -0.00002   2.06679
   A36        2.16200   0.00002   0.00000   0.00008   0.00008   2.16208
   A37        2.05403  -0.00002   0.00000  -0.00007  -0.00007   2.05396
   A38        2.11348   0.00000   0.00000   0.00002   0.00002   2.11350
   A39        2.08615  -0.00000   0.00000  -0.00001  -0.00001   2.08614
   A40        2.08352  -0.00000   0.00000  -0.00001  -0.00001   2.08351
   A41        2.10223   0.00000   0.00000  -0.00000  -0.00000   2.10223
   A42        2.09417  -0.00000   0.00000  -0.00000  -0.00000   2.09417
   A43        2.08677   0.00000   0.00000   0.00000   0.00000   2.08678
   A44        1.96501   0.00001   0.00000   0.00006   0.00006   1.96507
   A45        1.93480   0.00000   0.00000   0.00002   0.00002   1.93482
   A46        1.95836  -0.00001   0.00000  -0.00005  -0.00005   1.95830
   A47        1.86363   0.00000   0.00000   0.00004   0.00004   1.86368
   A48        1.87877  -0.00001   0.00000  -0.00005  -0.00005   1.87871
   A49        1.85734   0.00000   0.00000  -0.00001  -0.00001   1.85733
   A50        1.94421  -0.00001   0.00000  -0.00004  -0.00004   1.94417
   A51        1.94686   0.00000   0.00000   0.00002   0.00002   1.94688
   A52        1.95776   0.00000   0.00000   0.00001   0.00001   1.95778
   A53        1.86384  -0.00000   0.00000  -0.00004  -0.00004   1.86380
   A54        1.86551   0.00000   0.00000   0.00001   0.00001   1.86552
   A55        1.88079   0.00000   0.00000   0.00004   0.00004   1.88083
    D1        0.02871  -0.00000   0.00000  -0.00001  -0.00001   0.02870
    D2       -3.12762   0.00000   0.00000   0.00004   0.00004  -3.12758
    D3       -3.11646   0.00000   0.00000   0.00002   0.00002  -3.11643
    D4        0.01040   0.00000   0.00000   0.00007   0.00007   0.01047
    D5        3.14147   0.00000   0.00000   0.00003   0.00003   3.14150
    D6        0.00599  -0.00000   0.00000  -0.00007  -0.00007   0.00592
    D7        0.00349  -0.00000   0.00000  -0.00001  -0.00001   0.00348
    D8       -3.13199  -0.00000   0.00000  -0.00011  -0.00011  -3.13209
    D9        3.13701   0.00000   0.00000   0.00001   0.00001   3.13702
   D10       -0.00040  -0.00000   0.00000  -0.00004  -0.00004  -0.00043
   D11       -0.00800   0.00000   0.00000   0.00004   0.00004  -0.00795
   D12        3.13778   0.00000   0.00000  -0.00000  -0.00000   3.13778
   D13       -0.00855  -0.00000   0.00000  -0.00001  -0.00001  -0.00856
   D14        3.13325   0.00000   0.00000   0.00011   0.00011   3.13336
   D15       -3.13567  -0.00000   0.00000  -0.00006  -0.00006  -3.13573
   D16        0.00612   0.00000   0.00000   0.00007   0.00007   0.00619
   D17        3.14049   0.00000   0.00000   0.00001   0.00001   3.14050
   D18       -0.00090   0.00000   0.00000   0.00013   0.00013  -0.00077
   D19        3.14060   0.00000   0.00000   0.00000   0.00000   3.14061
   D20        1.02232  -0.00000   0.00000   0.00000   0.00000   1.02232
   D21       -1.02434   0.00000   0.00000   0.00001   0.00001  -1.02433
   D22        3.14094   0.00000   0.00000   0.00002   0.00002   3.14096
   D23        1.01591   0.00000   0.00000   0.00002   0.00002   1.01594
   D24       -1.01722   0.00000   0.00000   0.00003   0.00003  -1.01719
   D25       -1.05794  -0.00000   0.00000   0.00001   0.00001  -1.05793
   D26        3.10022  -0.00000   0.00000   0.00001   0.00001   3.10022
   D27        1.06708  -0.00000   0.00000   0.00001   0.00001   1.06710
   D28        1.05673   0.00000   0.00000   0.00002   0.00002   1.05675
   D29       -1.06830   0.00000   0.00000   0.00002   0.00002  -1.06828
   D30       -3.10144   0.00000   0.00000   0.00003   0.00003  -3.10141
   D31       -1.04914   0.00000   0.00000   0.00004   0.00004  -1.04910
   D32        3.14126   0.00000   0.00000   0.00004   0.00004   3.14130
   D33        1.04845   0.00000   0.00000   0.00004   0.00004   1.04849
   D34        1.06158  -0.00000   0.00000   0.00003   0.00003   1.06161
   D35       -1.03120  -0.00000   0.00000   0.00003   0.00003  -1.03117
   D36       -3.12401  -0.00000   0.00000   0.00003   0.00003  -3.12398
   D37        3.12337   0.00000   0.00000   0.00003   0.00003   3.12340
   D38        1.03058   0.00000   0.00000   0.00003   0.00003   1.03061
   D39       -1.06223   0.00000   0.00000   0.00003   0.00003  -1.06219
   D40        0.00915  -0.00000   0.00000  -0.00008  -0.00008   0.00907
   D41        3.11971  -0.00000   0.00000  -0.00017  -0.00017   3.11954
   D42       -3.13857  -0.00000   0.00000   0.00002   0.00002  -3.13855
   D43       -0.02801  -0.00000   0.00000  -0.00007  -0.00007  -0.02808
   D44       -0.01703   0.00000   0.00000   0.00013   0.00013  -0.01690
   D45       -3.12969   0.00001   0.00000   0.00034   0.00034  -3.12935
   D46       -3.12567   0.00001   0.00000   0.00022   0.00022  -3.12545
   D47        0.04485   0.00001   0.00000   0.00043   0.00043   0.04528
   D48        0.33298   0.00001   0.00000   0.00130   0.00130   0.33428
   D49       -1.74791   0.00001   0.00000   0.00137   0.00137  -1.74655
   D50        2.42339   0.00000   0.00000   0.00129   0.00129   2.42468
   D51       -2.84021   0.00000   0.00000   0.00121   0.00121  -2.83900
   D52        1.36208   0.00001   0.00000   0.00128   0.00128   1.36336
   D53       -0.74980   0.00000   0.00000   0.00120   0.00120  -0.74860
   D54        0.01252  -0.00000   0.00000  -0.00009  -0.00009   0.01243
   D55       -3.13816  -0.00000   0.00000   0.00002   0.00002  -3.13814
   D56        3.12699  -0.00001   0.00000  -0.00028  -0.00028   3.12670
   D57       -0.02369  -0.00000   0.00000  -0.00017  -0.00017  -0.02386
   D58       -0.76340   0.00001   0.00000   0.00056   0.00056  -0.76285
   D59       -2.84980  -0.00000   0.00000   0.00045   0.00045  -2.84935
   D60        1.35942   0.00000   0.00000   0.00049   0.00049   1.35991
   D61        2.40692   0.00001   0.00000   0.00077   0.00077   2.40768
   D62        0.32053   0.00000   0.00000   0.00066   0.00066   0.32118
   D63       -1.75344   0.00000   0.00000   0.00070   0.00070  -1.75275
   D64       -0.00013   0.00000   0.00000   0.00000   0.00000  -0.00012
   D65        3.13730   0.00000   0.00000   0.00005   0.00005   3.13735
   D66       -3.13265  -0.00000   0.00000  -0.00011  -0.00011  -3.13276
   D67        0.00478  -0.00000   0.00000  -0.00006  -0.00006   0.00472
         Item               Value     Threshold  Converged?
 Maximum Force            0.000023     0.000450     YES
 RMS     Force            0.000005     0.000300     YES
 Maximum Displacement     0.003265     0.001800     NO 
 RMS     Displacement     0.000524     0.001200     YES
 Predicted change in Energy=-4.790495D-08
 GradGradGradGradGradGradGradGradGradGradGradGradGradGradGradGradGradGrad

                          Input orientation:                          
 ---------------------------------------------------------------------
 Center     Atomic      Atomic             Coordinates (Angstroms)
 Number     Number       Type             X           Y           Z
 ---------------------------------------------------------------------
      1          6           0       -5.858799    1.211148    0.176689
      2          7           0       -4.578345    0.661393    0.096690
      3          6           0       -3.377253    1.331254    0.069011
      4          8           0       -3.225151    2.523472    0.101444
      5          8           0       -2.383415    0.432826   -0.001455
      6          6           0       -1.056415    0.983837   -0.039648
      7          6           0       -0.081447   -0.170850   -0.116077
      8          6           0        1.358089    0.334430   -0.161274
      9          6           0       -6.101933    2.588176    0.209106
     10          6           0       -7.404066    3.063521    0.289210
     11          6           0       -8.489393    2.180379    0.349556
     12          6           0       -8.233933    0.813654    0.306743
[...]
 ,-0.00000082,-0.00000026,0.00005696,0.00000219,-0.00031304,0.00089806,
 -0.00039995,0.00260742,-0.00007044,-0.00084448,-0.00338493,0.03454956,
 0.02348876,-0.00505097,-0.00263822,0.00212484,-0.00126462,0.00144401,-
 0.00131375,0.00004396,-0.00014918,-0.00002218,-0.00005113,-0.00002437,
 0.00000050,-0.00004931,-0.00002472,0.00000240,0.00000679,0.00000509,-0
 .00000163,0.00000689,0.00000614,0.00000089,0.00000491,-0.00001279,0.00
 000305,-0.00003745,0.00001035,0.00000213,0.00000440,-0.00001320,-0.000
 00476,0.00003135,0.00004096,-0.00001497,-0.00060275,0.00023853,-0.0001
 6326,-0.09451135,0.04023641,0.03246309,-0.00093760,0.00218975,-0.00006
 180,0.00016198,0.00027657,0.00051380,0.08603786,-0.00188326,0.00129178
 ,0.00003238,0.00317528,0.00003621,-0.00025232,-0.00246798,-0.00135511,
 0.00000004,0.00053282,0.00090243,0.00004102,0.00119379,-0.00023318,-0.
 00003207,-0.00047851,-0.00015101,0.00000739,0.00003115,0.00005923,-0.0
 0000152,-0.00000236,-0.00005226,-0.00000353,0.00204026,-0.00095769,0.0
 0079966,-0.00217696,-0.00126873,0.00034617,0.00971788,-0.01783253,-0.0
 2069931,0.00323910,0.00145823,-0.00121830,0.00091001,-0.00005110,0.001
 04616,-0.00006838,0.00013167,-0.00000885,0.00005572,0.00002106,0.00000
 716,0.00005009,0.00002040,-0.00000767,-0.00000815,-0.00000087,0.000008
 36,-0.00000810,-0.00000490,-0.00000514,-0.00000257,0.00000996,-0.00000
 612,0.00003164,-0.00000637,-0.00000217,-0.00000053,0.00001217,0.000009
 30,0.00016686,-0.00021970,-0.00003840,0.00038846,-0.00019102,0.0000723
 2,0.04216295,-0.19450445,-0.10211245,0.00890355,-0.00576656,-0.0046489
 1,-0.00063211,0.00075881,-0.00043059,-0.02507994,0.28262844,-0.0007412
 6,0.00077394,-0.00006335,0.00132040,0.00005886,-0.00001610,-0.00113421
 ,-0.00053629,-0.00004107,0.00027759,0.00036445,0.00006468,0.00058633,-
 0.00012517,-0.00000406,-0.00023865,-0.00007473,-0.00001572,0.00001492,
 0.00002901,-0.00000470,-0.00000122,-0.00002616,-0.00000340,0.00099235,
 -0.00038134,0.00006514,-0.00176309,-0.00032331,0.00095040,0.00308199,-
 0.01717987,-0.00269531,0.00389688,0.00042437,-0.00066081,-0.00024849,-
 0.00087483,0.00019863,-0.00005389,0.00005300,-0.00003535,0.00002794,0.
 00001366,0.00000604,0.00002187,0.00000855,-0.00000007,-0.00000440,0.00
 000261,0.00000636,-0.00000321,-0.00000620,-0.00000043,-0.00000256,0.00
 000310,-0.00000109,0.00001598,-0.00000355,-0.00000212,0.00000088,0.000
 00822,0.00000606,0.00004590,-0.00009037,-0.00009268,0.00036909,-0.0001
 3560,-0.00000345,0.03603223,-0.09970211,-0.15445896,0.00175666,-0.0017
 2325,-0.00698050,-0.00017189,0.00024551,-0.00017551,-0.02875700,0.1653
 4750,0.22367944,0.00190852,-0.00179681,0.00003973,-0.00307397,0.000369
 74,0.00022164,0.00277494,0.00049269,-0.00012495,-0.00085013,-0.0003500
 4,0.00002844,-0.00159085,0.00057139,0.00006499,0.00063941,0.00015735,-
 0.00001460,-0.00003053,-0.00008678,-0.00000064,-0.00000270,0.00007388,
 0.00000256,-0.00259773,-0.00096032,-0.00056700,-0.00356302,0.00668606,
 0.00211633,-0.03528054,-0.03757239,0.01523790,-0.00294987,-0.00116513,
 0.00088784,-0.00055758,-0.00063509,-0.00040073,-0.00002975,-0.00018575
 ,0.00001459,-0.00005825,-0.00003253,0.00000555,-0.00005619,-0.00003282
 ,-0.00000255,0.00000698,0.00000820,0.00000238,0.00000616,0.00000997,-0
 .00000355,0.00000790,-0.00001607,0.00000088,-0.00004951,0.00001456,0.0
 0000289,0.00000741,-0.00001713,-0.00000342,-0.00039737,0.00052108,-0.0
 0026122,-0.00014993,0.00017813,0.00008818,-0.17157702,-0.08401430,0.03
 994154,0.00046573,0.00354980,0.00039664,-0.00433940,0.00156932,0.00108
 717,0.00971950,-0.02019744,-0.00882943,0.19369185,0.00113306,-0.000326
 82,0.00007451,-0.00066767,0.00050596,0.00006284,0.00051644,-0.00017717
 ,-0.00002225,-0.00014776,0.00009894,0.00000138,-0.00027769,0.00020552,
 0.00000586,0.00010500,0.00000141,0.00000424,0.00000016,-0.00001915,0.0
 0000144,-0.00000297,0.00001317,0.00000070,0.00010790,-0.00001284,-0.00
 013191,-0.00060323,0.00204106,0.00045091,-0.00744732,-0.00238918,0.003
 92502,0.00319332,-0.00636997,-0.00170774,-0.00019978,0.00210993,-0.000
 31194,-0.00009596,-0.00007314,0.00002054,-0.00000868,-0.00000675,0.000
 00609,-0.00000738,-0.00000465,-0.00000731,-0.00000030,0.00000225,0.000
 00561,-0.00000152,0.00000487,-0.00000715,0.00000380,-0.00000178,-0.000
 00427,-0.00001068,0.00000414,0.00000106,0.00000334,-0.00000366,0.00000
 265,-0.00009496,0.00008712,-0.00007854,-0.00021019,0.00005368,0.000034
 37,-0.09066189,-0.16496139,0.03946761,0.00476564,-0.00098761,-0.000379
 10,0.00319685,0.00205408,-0.00018415,-0.03331368,-0.07598436,-0.014135
 04,0.13748375,0.27321991,-0.00041163,-0.00024897,0.00001276,0.00037260
 ,-0.00003739,0.00001321,-0.00036985,0.00002201,-0.00001736,0.00015102,
 -0.00000940,0.00003924,0.00023316,-0.00010053,-0.00000324,-0.00009408,
 -0.00001763,-0.00002077,0.00000396,0.00001319,-0.00000468,0.00000085,-
 0.00001161,-0.00000037,0.00001351,0.00086970,-0.00036088,0.00166353,-0
 .00153774,0.00128476,0.00699065,0.00757236,0.00542848,0.00009963,0.000
 93431,0.00047607,0.00049948,-0.00003828,0.00020048,0.00000140,0.000022
 57,-0.00002865,0.00000881,0.00000805,0.00000083,0.00000603,0.00000251,
 0.00000429,-0.00000107,0.00000124,0.00000082,0.00000003,-0.00000479,0.
 00000334,-0.00000255,0.00000058,0.00000189,0.00000783,-0.00000248,-0.0
 0000142,-0.00000050,0.00000430,0.00000131,0.00007672,-0.00010891,-0.00
 021427,0.00006745,-0.00003475,-0.00002058,0.04087855,0.03727278,-0.090
 20430,-0.00081854,-0.00033776,-0.00173443,0.00094889,-0.00046147,-0.00
 063325,-0.01433182,-0.02503753,0.01352099,-0.05801506,-0.07418295,0.11
 295431,0.00295890,-0.00146692,-0.00042682,-0.00452562,0.00034735,0.000
 06200,0.00351542,0.00142466,-0.00020297,-0.00077476,-0.00094580,0.0000
 2746,-0.00178748,0.00051109,0.00012950,0.00070843,0.00018559,-0.000028
 08,-0.00003895,-0.00009555,-0.00000331,-0.00000146,0.00008039,0.000001
 30,-0.00146162,0.00198225,0.00160696,0.00270038,0.00108127,-0.00005125
 ,-0.01775601,0.01811344,-0.03652778,-0.00234627,-0.00328487,-0.0013391
 5,-0.00188327,0.00012769,0.00206869,0.00000186,-0.00023271,-0.00000782
 ,-0.00006949,-0.00003323,0.00000149,-0.00007620,-0.00003399,0.00000365
 ,0.00000905,0.00001000,0.00000026,0.00000975,0.00000582,0.00000205,0.0
 0000610,-0.00001912,0.00000523,-0.00005209,0.00001381,0.00000182,0.000
 00705,-0.00001619,-0.00000483,-0.00005908,0.00012904,0.00010288,-0.000
 38495,0.00023238,0.00016327,-0.12005463,0.03040442,-0.07714823,-0.0019
 5757,0.00365754,-0.00143925,-0.00007920,0.00040382,-0.00100573,0.01365
 620,-0.00594349,-0.00705992,0.01788283,-0.01240465,0.02115251,0.113167
 92,-0.00102189,0.00157832,0.00026214,0.00213348,-0.00012742,-0.0000266
 6,-0.00165294,-0.00082682,0.00006699,0.00035313,0.00054489,-0.00000539
 ,0.00080853,-0.00018739,-0.00006377,-0.00032216,-0.00009487,0.00001361
 ,0.00001996,0.00004089,0.00000221,-0.00000101,-0.00003562,0.00000031,0
 .00182211,-0.00099368,-0.00091266,-0.00108317,-0.00197528,0.00101708,0
 .01321032,0.00429938,0.01508309,-0.00030512,0.00051622,-0.00022613,0.0
 0016456,0.00076805,-0.00079432,-0.00000382,0.00009522,0.00001435,0.000
 03303,0.00001427,0.00000195,0.00003741,0.00001482,-0.00000516,-0.00000
 455,-0.00000398,0.00000268,-0.00000538,-0.00000098,-0.00000412,-0.0000
 0143,0.00000856,-0.00000483,0.00002180,-0.00000474,-0.00000060,-0.0000
 0208,0.00000657,0.00000400,0.00014017,-0.00019054,-0.00016145,0.000022
 65,-0.00008084,0.00003716,0.02980022,-0.09254775,0.05574166,0.00509522
 ,-0.00386834,0.00297161,-0.00033170,0.00032593,0.00046869,-0.01089791,
 0.01037306,-0.03571946,-0.00199542,-0.02954364,0.05510650,-0.02725088,
 0.11282988,0.00151105,-0.00086578,-0.00035874,-0.00228857,0.00011346,0
 .00012496,0.00180158,0.00072743,-0.00015277,-0.00043200,-0.00048235,0.
 00008336,-0.00092998,0.00025070,0.00009370,0.00036526,0.00010253,-0.00
 004933,-0.00002179,-0.00004918,-0.00001097,-0.00000023,0.00004267,-0.0
 0000113,-0.00132678,0.00065882,0.00072474,0.00096499,0.00112026,0.0002
 8068,-0.01254633,0.00902567,-0.01016063,-0.00195365,-0.00105932,-0.000
 23580,-0.00105267,0.00025307,0.00095033,0.00002110,-0.00010750,-0.0000
 6157,-0.00003303,-0.00001447,0.00000547,-0.00004303,-0.00002273,0.0000
 0663,0.00000388,0.00001094,0.00000289,0.00000625,-0.00000230,0.0000058
 6,0.00000069,-0.00001335,0.00000590,-0.00002656,0.00000647,-0.00000084
 ,0.00000511,-0.00000512,-0.00000018,-0.00010865,0.00013873,-0.00001813
 ,-0.00028075,0.00015792,0.00002265,-0.07641945,0.05276547,-0.21721215,
 -0.00229584,0.00261193,-0.00593061,0.00021000,-0.00022102,-0.00090700,
 -0.01579114,-0.01984907,-0.07629600,0.00833655,0.04667456,-0.04249471,
 0.10043109,-0.08952838,0.34628934,0.00078236,0.00078011,-0.00049209,0.
 00180389,0.00024058,-0.00008292,-0.00136725,-0.00276081,0.00003368,0.0
 0011886,0.00181805,-0.00007865,0.00011068,0.00050910,0.00000657,-0.000
 01103,-0.00009270,0.00002360,0.00002879,0.,-0.00000324,-0.00000670,0.0
 0000437,0.00000442,-0.00432685,0.00318420,-0.00101591,-0.01123734,-0.0
 1107875,0.00704415,0.00324112,-0.00188435,0.00038695,-0.00061983,-0.00
 005674,-0.00024742,0.00016733,0.00022194,0.00013089,-0.00001919,0.0000
 0215,0.00004082,0.00002981,-0.00001799,0.00002527,0.00003587,-0.000014
 00,-0.00003868,-0.00000699,0.00000801,0.00001254,-0.00000976,0.0000168
 8,-0.00001439,0.00001095,-0.00000453,-0.00001463,-0.00001050,0.0000137
 9,0.00000091,0.00000902,-0.00000822,0.00000965,0.00216852,0.00167392,0
 .00008972,0.00023928,0.00008324,0.00003708,0.00032227,0.00480132,-0.00
 012758,-0.19581330,-0.09190275,0.04955875,0.00008183,-0.00029258,-0.00
 012961,-0.00017867,-0.00182318,-0.00027922,-0.00047457,-0.00116614,0.0
 0028695,-0.00004913,-0.00124784,0.00023333,0.31329215,-0.00286701,0.00
 176259,-0.00024171,0.00282159,0.00020453,-0.00010308,-0.00297615,-0.00
 186967,0.00011338,0.00101877,0.00141527,-0.00008763,0.00131088,-0.0000
 7143,-0.00006517,-0.00053360,-0.00021981,0.00003189,0.00004848,0.00006
 296,-0.00000149,-0.00000706,-0.00005484,0.00000154,0.00018608,-0.00491
 061,0.00100475,-0.04124166,-0.02596458,0.01472680,0.00570891,-0.005581
 30,0.00083876,-0.00221930,-0.00156783,-0.00057913,-0.00010522,-0.00056
 546,0.00012933,-0.00002622,0.00008341,0.00004290,0.00006338,0.00001329
 ,0.00001807,0.00006774,0.00001472,-0.00002877,-0.00001119,-0.00000003,
 0.00001332,-0.00001350,0.00000649,-0.00001436,0.00000397,0.00000964,-0
 .00001699,0.00002950,0.00000149,-0.00000114,0.00000319,0.00000669,0.00
 001454,-0.00013417,-0.00562401,0.00079727,0.00004020,-0.00013567,0.000
 04660,0.00348754,-0.00100605,0.00029532,-0.08410253,-0.14926343,0.0358
 4962,0.00025402,-0.00076695,-0.00022641,-0.00058495,0.00079070,0.00032
 291,-0.00103245,-0.00012114,0.00017332,-0.00087398,0.00048687,-0.00069
 897,0.12224879,0.15753711,0.00029257,0.00021670,0.00008789,-0.00055900
 ,-0.00009826,0.00010224,0.00047222,0.00069187,-0.00009401,-0.00010649,
 -0.00048667,0.00020403,-0.00010561,-0.00009591,0.00001658,0.00003123,0
 .00003796,-0.00005020,-0.00000923,-0.00000422,0.00000021,0.00000186,0.
 00000222,-0.00000654,0.00106719,-0.00042063,0.00089257,0.00673739,0.00
 380382,0.00561272,-0.00101338,0.00146568,0.00133482,0.00077184,-0.0003
 0663,-0.00041387,-0.00050673,-0.00004797,0.00004631,0.00000220,-0.0000
 0182,-0.00003239,-0.00000467,0.00000442,0.00000047,-0.00001842,0.00000
 037,0.00001784,0.00000092,0.00000467,-0.00000049,0.00000394,-0.0000104
 9,0.00000685,-0.00000504,-0.00000206,0.00000713,0.00000090,-0.00000337
 ,-0.00000053,0.00000034,0.00000404,0.00000017,-0.00035874,0.00058461,-
 0.00061276,-0.00005079,0.00000618,-0.00002751,-0.00032643,-0.00097019,
 -0.00173709,0.04808493,0.03755947,-0.09312601,-0.00005160,0.00014033,-
 0.00016659,0.00008660,0.00084289,0.00091126,0.00018615,0.00030455,0.00
 013942,0.00019910,-0.00013961,0.00072618,-0.09146246,-0.05213144,0.119
 75418,0.00035972,-0.00097143,-0.00041910,0.00013715,0.00008217,0.00004
 363,0.00016541,-0.00068838,-0.00002423,-0.00014205,0.00044396,0.000022
 79,-0.00029665,0.00023434,0.00001761,0.00014021,0.00001126,-0.00000608
 ,0.00000266,-0.00001657,-0.00000025,-0.00000101,0.00001750,0.00000153,
 -0.00026639,-0.00043886,-0.00049472,0.00960268,0.00576762,0.00748152,-
 0.00129906,0.00025374,0.00090840,-0.00015606,0.00134818,-0.00047134,0.
 00097999,0.00038200,-0.00001059,0.00002657,-0.00001886,0.00003210,-0.0
 0000275,-0.00001168,0.00000670,-0.00000312,-0.00000958,-0.00000816,-0.
 00000018,0.00000405,0.00000236,-0.00000045,0.00000562,-0.00000290,0.00
 000404,-0.00000500,-0.00000211,-0.00001319,0.00000689,0.00000095,0.000
 00391,-0.00000577,0.00000080,0.00029421,-0.00046609,0.00017663,0.00005
 682,0.00001842,0.00006121,-0.00190532,0.00471606,0.00275000,-0.0781868
 2,0.01461299,0.03250410,-0.00009204,0.00020928,-0.00008890,-0.00468369
 ,-0.00565664,-0.00272956,0.00006059,-0.00119794,-0.00015580,0.00045760
 ,-0.00070129,-0.00042282,-0.02230373,0.00182577,0.05675653,0.09398890,
 -0.00080457,0.00067466,0.00221552,0.00178642,-0.00013196,-0.00001417,-
 0.00244605,-0.00079898,0.00001604,0.00085551,0.00063574,0.00007296,0.0
 0132403,-0.00027743,-0.00005281,-0.00055729,-0.00018752,0.00000314,0.0
 0003719,0.00006519,0.00000030,-0.00000440,-0.00006096,-0.00000557,-0.0
 0240338,-0.00278211,-0.00055716,0.00957328,-0.01599517,-0.04084830,0.0
 0126703,0.00075267,0.00011964,0.00084780,-0.00083363,0.00149459,-0.000
 18980,-0.00096993,-0.00027885,-0.00001891,0.00005140,-0.00006074,0.000
 05784,0.00002492,0.00001158,0.00005110,0.00002365,-0.00000824,-0.00000
 970,0.00000033,0.00001129,-0.00000907,-0.00000581,-0.00000722,-0.00000
 263,0.00001109,-0.00000839,0.00003641,-0.00000604,-0.00000209,0.000000
 55,0.00001352,0.00001263,-0.00008782,-0.00016022,-0.00116744,0.0000052
 7,-0.00004264,-0.00018777,0.00349993,-0.00318110,-0.00194182,0.0151218
 6,-0.11715555,-0.07948725,0.00004918,-0.00024614,0.00005186,-0.0039825
 9,0.00019538,0.00045615,-0.00086699,0.00026463,0.00024838,-0.00136465,
 0.00090652,-0.00045737,-0.00652962,0.01772761,0.01727273,-0.01258789,0
 .10434489,-0.00025409,0.00016017,0.00099672,0.00093816,-0.00032186,0.0
 0011048,-0.00142019,0.00001738,-0.00013771,0.00059068,0.00002507,0.000
 28765,0.00091906,-0.00031787,-0.00000742,-0.00038623,-0.00011199,-0.00
 007015,0.00002032,0.00004722,-0.00000269,-0.00000125,-0.00004343,-0.00
 001176,-0.00115480,-0.00250209,0.00022244,0.00594621,-0.01366109,-0.01
 733847,0.00129731,-0.00019664,0.00045044,0.00002655,-0.00104877,0.0008
 3282,-0.00021583,-0.00045134,-0.00013583,0.00003208,0.00002940,-0.0000
 9868,0.00004452,0.00002657,0.00001055,0.00002184,0.00001817,0.00001493
 ,-0.00000599,0.00000717,0.00000986,-0.00000183,-0.00001857,0.00000270,
 -0.00000713,0.00000420,0.00000300,0.00002691,-0.00000659,-0.00000271,0
 .00000275,0.00001538,0.00001030,-0.00045071,0.00032765,-0.00113113,-0.
 00002488,-0.00007183,-0.00014921,0.00217765,-0.00271959,-0.00673072,0.
 03045612,-0.07880735,-0.24012556,0.00005733,-0.00028390,-0.00004704,-0
 .00080313,0.00235020,0.00333746,-0.00068762,0.00035322,0.00083879,-0.0
 0056609,-0.00037667,0.00174014,0.04525882,0.00543457,-0.04885577,-0.05
 300462,0.09552164,0.37712684,-0.00009163,-0.00057230,0.00089569,0.0000
 0280,0.00049845,0.00007846,0.00080693,-0.00108700,-0.00010372,-0.00047
 637,0.00068568,0.00008171,-0.00082782,0.00048100,0.00006319,0.00036721
 ,0.00006630,-0.00003180,-0.00000729,-0.00004470,-0.00000392,-0.0000023
 1,0.00004433,-0.00000022,0.00126964,0.00298996,-0.00042905,-0.01291068
 ,0.01065240,-0.01491425,-0.00059937,-0.00046839,0.00050987,0.00007358,
 0.00136336,0.00088651,0.00065497,0.00058917,-0.00009615,-0.00005521,-0
 .00003061,-0.00004409,-0.00001345,-0.00002573,0.00001456,-0.00001926,-
 0.00002775,-0.00000998,0.00000109,0.00001202,0.00000540,0.00000141,0.0
 0000683,-0.00000157,0.00000647,-0.00001420,-0.00000039,-0.00003190,0.0
 0001361,0.00000107,0.00000852,-0.00001106,0.00000190,0.00075980,-0.000
 80713,-0.00049520,0.00011436,0.00005884,-0.00012925,-0.00437854,0.0099
 6858,-0.00416845,-0.19081618,0.06996187,-0.08585792,-0.00010619,0.0003
 0332,-0.00005084,-0.00151415,-0.00616998,0.00357699,0.00045708,-0.0019
 8888,0.00073735,-0.00172373,-0.00683400,0.00208238,-0.08600789,-0.0023
 8983,-0.02011734,0.00307205,-0.00264807,-0.02883191,0.29198607,0.00030
 542,0.00031052,-0.00150469,0.00162648,-0.00059454,-0.00024902,-0.00229
 986,-0.00058460,0.00012279,0.00081000,0.00047405,-0.00006437,0.0012999
 1,-0.00031278,-0.00007215,-0.00054433,-0.00017124,0.00003117,0.0000338
 8,0.00006560,0.00000097,-0.00000232,-0.00006056,0.00000024,-0.00282861
 ,-0.00632838,0.00129304,0.03868235,-0.01270102,0.02346651,0.00028374,0
 .00160735,-0.00079303,0.00018059,0.00018398,-0.00043081,0.00047305,-0.
 00054384,0.00011757,0.00010967,0.00005307,0.00001948,0.00004877,0.0000
 2535,0.00000284,0.00005218,0.00002724,-0.00000967,-0.00000767,-0.00000
 629,0.00000552,-0.00000862,-0.00000157,-0.00000718,-0.00000215,0.00001
 420,-0.00000904,0.00003724,-0.00000772,-0.00000147,-0.00000307,0.00001
 163,0.00000784,-0.00016442,0.00011799,0.00072176,-0.00000554,-0.000070
 66,0.00006133,0.00274319,-0.00371850,0.00084718,0.06660833,-0.12111440
 ,0.04771774,0.00001667,-0.00013489,0.00001421,-0.00350572,-0.00010970,
 0.00292542,-0.00072844,0.00031658,-0.00007961,-0.00474454,-0.00232755,
 -0.00128372,-0.01672625,0.01759944,-0.00822327,-0.00716386,0.01714297,
 -0.00339841,-0.07457609,0.11083827,-0.00071734,-0.00064891,-0.00010182
 ,-0.00020729,0.00041559,0.00009350,0.00056490,-0.00028362,-0.00013749,
 -0.00025570,0.00016127,0.00013856,-0.00043960,0.00020093,0.00005392,0.
 00018666,0.00004309,-0.00004318,-0.00000666,-0.00002377,-0.00000277,-0
 .00000086,0.00002213,-0.00000475,0.00065546,0.00327550,-0.00003345,-0.
 01301266,0.00397667,0.00148778,-0.00015268,-0.00118868,0.00081379,0.00
 001038,0.00060164,0.00000472,0.00036668,0.00014138,0.00001683,-0.00008
 314,-0.00001444,-0.00003031,-0.00000665,-0.00001021,0.00001011,-0.0000
 1759,-0.00001477,0.00000287,0.00000013,0.00001023,0.00000444,0.0000023
 8,-0.00000288,0.00000250,0.00000049,-0.00000887,0.00000326,-0.00001516
 ,0.00000539,-0.00000019,0.00000529,-0.00000258,0.00000253,0.00027687,-
 0.00014508,-0.00013382,0.00004441,0.00004254,-0.00002616,-0.00141580,0
 .00170497,-0.00647386,-0.08360734,0.05057576,-0.13204606,-0.00002960,0
 .00010394,-0.00007314,0.00352563,0.00344341,-0.00119577,0.00024885,-0.
 00024479,0.00081790,-0.00014803,-0.00282483,0.00282774,-0.00919732,-0.
 00565860,0.01526288,-0.04292568,0.00757674,-0.07115025,0.14635095,-0.0
 6122916,0.18990966\\-0.00000176,-0.00000168,0.00000130,0.00000061,0.00
 000078,-0.00000070,-0.00000076,-0.00000264,-0.00000323,-0.00000069,0.0
 0000257,0.00000014,0.00000039,0.00000051,0.00000292,0.00000229,-0.0000
 0037,-0.00000052,-0.00000033,0.,0.00000106,0.00000064,0.00000024,0.,-0
 .00000346,0.00000233,-0.00000025,0.00000971,0.00000297,-0.00000340,-0.
 00000382,-0.00000604,0.00000221,-0.00000192,0.00000275,0.00000056,0.00
 000181,0.00000080,0.00000131,0.00000009,-0.00000003,0.00000261,-0.0000
 0033,0.00000061,-0.00000092,-0.00000067,-0.00000066,-0.00000055,0.,-0.
 00000071,0.00000170,0.00000057,0.00000083,0.00000155,-0.00000016,-0.00
 000078,-0.00000037,0.00000012,0.00000037,0.00000105,0.00000018,0.00000
 119,-0.00000051,0.00000013,0.00000119,-0.00000151,0.00000031,-0.000000
 13,0.00000320,-0.00000198,0.00000539,-0.00000717,-0.00000420,0.0000034
 7,-0.00000094,-0.00000066,-0.00000020,0.00000252,-0.00000693,-0.000002
 22,0.00000213,-0.00000125,-0.00000558,0.00000189,0.00000093,-0.0000057
 6,0.00000447,-0.00000035,-0.00000476,-0.00000225,0.00000694,0.00000311
 ,0.00000085,0.00000452,0.00000245,-0.00000915\\\@


 IN THE LONG RUN, DIGGING FOR TRUTH HAS ALWAYS PROVED NOT ONLY 
 MORE INTERESTING BUT MORE PROFITABLE THAN DIGGING FOR GOLD.

                             -- GEORGE R. HARRISON
 Job cpu time:       0 days  6 hours  0 minutes 54.2 seconds.
 File lengths (MBytes):  RWF=    808 Int=      0 D2E=      0 Chk=     19 Scr=      1
 Normal termination of Gaussian 09 at Thu Nov 14 17:49:01 2019.
pbs_rusage has been removed.
Please contact help@nci.org.au if you require this functionality.
