 Entering Gaussian System, Link 0=/apps/gaussian/g09e01/g09/g09
 Initial command:
 /apps/gaussian/g09e01/g09/l1.exe "/jobfs/local/3588779.r-man2/Gau-10171.inp" -scrdir="/jobfs/local/3588779.r-man2/"
 Entering Link 1 = /apps/gaussian/g09e01/g09/l1.exe PID=     10172.
  
 Copyright (c) 1988,1990,1992,1993,1995,1998,2003,2009,2015,
            Gaussian, Inc.  All Rights Reserved.
  
 This is part of the Gaussian(R) 09 program.  It is based on
 the Gaussian(R) 03 system (copyright 2003, Gaussian, Inc.),
 the Gaussian(R) 98 system (copyright 1998, Gaussian, Inc.),
 the Gaussian(R) 94 system (copyright 1995, Gaussian, Inc.),
 the Gaussian 92(TM) system (copyright 1992, Gaussian, Inc.),
 the Gaussian 90(TM) system (copyright 1990, Gaussian, Inc.),
 the Gaussian 88(TM) system (copyright 1988, Gaussian, Inc.),
 the Gaussian 86(TM) system (copyright 1986, Carnegie Mellon
 University), and the Gaussian 82(TM) system (copyright 1983,
 Carnegie Mellon University). Gaussian is a federally registered
 trademark of Gaussian, Inc.
  
 This software contains proprietary and confidential information,
 including trade secrets, belonging to Gaussian, Inc.
  
 This software is provided under written license and may be
 used, copied, transmitted, or stored only in accord with that
 written license.
  
 The following legend is applicable only to US Government
 contracts under FAR:
  
                    RESTRICTED RIGHTS LEGEND
  
 Use, reproduction and disclosure by the US Government is
 subject to restrictions as set forth in subparagraphs (a)
 and (c) of the Commercial Computer Software - Restricted
 Rights clause in FAR 52.227-19.
  
 Gaussian, Inc.
 340 Quinnipiac St., Bldg. 40, Wallingford CT 06492
  
  
 ---------------------------------------------------------------
 Warning -- This program may not be used in any manner that
 competes with the business of Gaussian, Inc. or will provide
 assistance to any competitor of Gaussian, Inc.  The licensee
 of this program is prohibited from giving any competitor of
 Gaussian, Inc. access to this program.  By using this program,
 the user acknowledges that Gaussian, Inc. is engaged in the
 business of creating and licensing software in the field of
 computational chemistry and represents and warrants to the
 licensee that it is not a competitor of Gaussian, Inc. and that
 it will not use this program in any manner prohibited above.
 ---------------------------------------------------------------
  

 Cite this work as:
 Gaussian 09, Revision E.01,
 M. J. Frisch, G. W. Trucks, H. B. Schlegel, G. E. Scuseria, 
 M. A. Robb, J. R. Cheeseman, G. Scalmani, V. Barone, B. Mennucci, 
 G. A. Petersson, H. Nakatsuji, M. Caricato, X. Li, H. P. Hratchian, 
 A. F. Izmaylov, J. Bloino, G. Zheng, J. L. Sonnenberg, M. Hada, 
 M. Ehara, K. Toyota, R. Fukuda, J. Hasegawa, M. Ishida, T. Nakajima, 
 Y. Honda, O. Kitao, H. Nakai, T. Vreven, J. A. Montgomery, Jr., 
 J. E. Peralta, F. Ogliaro, M. Bearpark, J. J. Heyd, E. Brothers, 
 K. N. Kudin, V. N. Staroverov, T. Keith, R. Kobayashi, J. Normand, 
 K. Raghavachari, A. Rendell, J. C. Burant, S. S. Iyengar, J. Tomasi, 
 M. Cossi, N. Rega, J. M. Millam, M. Klene, J. E. Knox, J. B. Cross, 
 V. Bakken, C. Adamo, J. Jaramillo, R. Gomperts, R. E. Stratmann, 
 O. Yazyev, A. J. Austin, R. Cammi, C. Pomelli, J. W. Ochterski, 
 R. L. Martin, K. Morokuma, V. G. Zakrzewski, G. A. Voth, 
 P. Salvador, J. J. Dannenberg, S. Dapprich, A. D. Daniels, 
 O. Farkas, J. B. Foresman, J. V. Ortiz, J. Cioslowski, 
 and D. J. Fox, Gaussian, Inc., Wallingford CT, 2013.
 
 ******************************************
 Gaussian 09:  ES64L-G09RevE.01 30-Nov-2015
                14-Nov-2019 
 ******************************************
 %chk=NM2CA_c2.M062X_6-311pGd_opt_GD3.chk
 %mem=196608000
 %nproc=8
 Will use up to    8 processors via shared memory.
 ----------------------------------------------------------------------
 # M062X/6-311+G* SCF=Tight INT(grid=ultrafine) OPT IOP(2/17=4) Empiric
 alDispersion=GD3 maxdisk=2684354560
 ----------------------------------------------------------------------
 1/14=-1,18=20,19=15,26=4,38=1/1,3;
 2/9=110,12=2,17=4,18=5,40=1/2;
 3/5=4,6=6,7=11,11=2,16=1,25=1,30=1,71=1,74=-55,75=-5,124=31/1,2,3;
 4//1;
 5/5=2,32=2,38=5/2;
 6/7=2,8=2,9=2,10=2,28=1/1;
 7//1,2,3,16;
 1/14=-1,18=20,19=15,26=4/3(2);
 2/9=110,17=4/2;
 99//99;
 2/9=110,17=4/2;
 3/5=4,6=6,7=11,11=2,16=1,25=1,30=1,71=1,74=-55,75=-5,124=31/1,2,3;
 4/5=5,16=3,69=1/1;
 5/5=2,32=2,38=5/2;
 7//1,2,3,16;
 1/14=-1,18=20,19=15,26=4/3(-5);
 2/9=110,17=4/2;
 6/7=2,8=2,9=2,10=2,19=2,28=1/1;
 99/9=1/99;
 -------------------------------
 NM2CA_c2.M062X_6-311pGd_opt_GD3
 -------------------------------
 Symbolic Z-matrix:
 Charge =  0 Multiplicity = 1
 C                    -5.81651   1.50248   0.22126 
 N                    -4.57911   0.85891   0.16426 
 C                    -3.33781   1.44448   0.08081 
 O                    -3.10742   2.62469   0.04944 
 O                    -2.40649   0.48017   0.03914 
 C                    -1.04714   0.93803  -0.04934 
 C                    -0.15327  -0.28216  -0.09328 
 C                     1.31549   0.12224  -0.18701 
 C                    -6.95415   0.68996   0.28999 
 C                    -8.22508   1.23472   0.34583 
 C                    -8.38707   2.62733   0.34553 
 C                    -7.25225   3.42516   0.2717 
 C                    -5.97345   2.88787   0.21079 
 H                    -4.57797  -0.15053   0.17716 
 H                    -0.83178   1.56849   0.81674 
 H                    -0.94087   1.55206  -0.94686 
 H                    -0.43452  -0.89879  -0.95121 
 H                    -0.32686  -0.88326   0.80333 
 H                     1.50895   0.70928  -1.08806 
 H                     1.9614   -0.75588  -0.21925 
 H                     1.6172    0.72425   0.6735 
 H                    -6.8412   -0.38781   0.29153 
 H                    -5.11196   3.53533   0.15673 
 C                    -9.73282   3.30954   0.38121 
 C                    -9.38539   0.2676    0.44695 
 H                    -7.36389   4.5018    0.2685 
 F                    -10.56886   2.74505   1.25881 
 F                    -10.33622   3.29757  -0.81528 
 F                    -9.61012   4.59811   0.7343 
 F                    -9.01896  -0.96926   0.07321 
 F                    -10.40868   0.62013  -0.33351 
 F                    -9.84052   0.16792   1.70114 
 

 GradGradGradGradGradGradGradGradGradGradGradGradGradGradGradGradGradGrad
 Berny optimization.
 Initialization pass.
                           ----------------------------
                           !    Initial Parameters    !
                           ! (Angstroms and Degrees)  !
 --------------------------                            --------------------------
 ! Name  Definition              Value          Derivative Info.                !
 --------------------------------------------------------------------------------
 ! R1    R(1,2)                  1.3959         estimate D2E/DX2                !
 ! R2    R(1,9)                  1.3997         estimate D2E/DX2                !
 ! R3    R(1,13)                 1.3943         estimate D2E/DX2                !
 ! R4    R(2,3)                  1.375          estimate D2E/DX2                !
 ! R5    R(2,14)                 1.0095         estimate D2E/DX2                !
 ! R6    R(3,4)                  1.2029         estimate D2E/DX2                !
 ! R7    R(3,5)                  1.3413         estimate D2E/DX2                !
 ! R8    R(5,6)                  1.4371         estimate D2E/DX2                !
 ! R9    R(6,7)                  1.5132         estimate D2E/DX2                !
 ! R10   R(6,15)                 1.0927         estimate D2E/DX2                !
 ! R11   R(6,16)                 1.0926         estimate D2E/DX2                !
 ! R12   R(7,8)                  1.5263         estimate D2E/DX2                !
 ! R13   R(7,17)                 1.0933         estimate D2E/DX2                !
 ! R14   R(7,18)                 1.0933         estimate D2E/DX2                !
 ! R15   R(8,19)                 1.0927         estimate D2E/DX2                !
 ! R16   R(8,20)                 1.0906         estimate D2E/DX2                !
 ! R17   R(8,21)                 1.0927         estimate D2E/DX2                !
 ! R18   R(9,10)                 1.3839         estimate D2E/DX2                !
 ! R19   R(9,22)                 1.0837         estimate D2E/DX2                !
 ! R20   R(10,11)                1.402          estimate D2E/DX2                !
 ! R21   R(10,25)                1.5139         estimate D2E/DX2                !
 ! R22   R(11,12)                1.3892         estimate D2E/DX2                !
 ! R23   R(11,24)                1.5092         estimate D2E/DX2                !
 ! R24   R(12,13)                1.3884         estimate D2E/DX2                !
 ! R25   R(12,26)                1.0824         estimate D2E/DX2                !
 ! R26   R(13,23)                1.079          estimate D2E/DX2                !
 ! R27   R(24,27)                1.3371         estimate D2E/DX2                !
 ! R28   R(24,28)                1.3401         estimate D2E/DX2                !
 ! R29   R(24,29)                1.3417         estimate D2E/DX2                !
 ! R30   R(25,30)                1.343          estimate D2E/DX2                !
 ! R31   R(25,31)                1.3344         estimate D2E/DX2                !
 ! R32   R(25,32)                1.3379         estimate D2E/DX2                !
 ! A1    A(2,1,9)              117.0559         estimate D2E/DX2                !
 ! A2    A(2,1,13)             123.8869         estimate D2E/DX2                !
 ! A3    A(9,1,13)             119.0571         estimate D2E/DX2                !
 ! A4    A(1,2,3)              127.3283         estimate D2E/DX2                !
 ! A5    A(1,2,14)             117.4819         estimate D2E/DX2                !
 ! A6    A(3,2,14)             115.1878         estimate D2E/DX2                !
 ! A7    A(2,3,4)              126.3212         estimate D2E/DX2                !
 ! A8    A(2,3,5)              108.8166         estimate D2E/DX2                !
 ! A9    A(4,3,5)              124.8622         estimate D2E/DX2                !
 ! A10   A(3,5,6)              115.4444         estimate D2E/DX2                !
 ! A11   A(5,6,7)              107.6754         estimate D2E/DX2                !
 ! A12   A(5,6,15)             108.7511         estimate D2E/DX2                !
 ! A13   A(5,6,16)             108.7602         estimate D2E/DX2                !
 ! A14   A(7,6,15)             111.8298         estimate D2E/DX2                !
 ! A15   A(7,6,16)             111.8291         estimate D2E/DX2                !
 ! A16   A(15,6,16)            107.9186         estimate D2E/DX2                !
 ! A17   A(6,7,8)              110.8899         estimate D2E/DX2                !
 ! A18   A(6,7,17)             109.0031         estimate D2E/DX2                !
 ! A19   A(6,7,18)             109.0099         estimate D2E/DX2                !
 ! A20   A(8,7,17)             110.4134         estimate D2E/DX2                !
 ! A21   A(8,7,18)             110.4144         estimate D2E/DX2                !
 ! A22   A(17,7,18)            107.0126         estimate D2E/DX2                !
 ! A23   A(7,8,19)             111.3068         estimate D2E/DX2                !
 ! A24   A(7,8,20)             111.0036         estimate D2E/DX2                !
 ! A25   A(7,8,21)             111.3052         estimate D2E/DX2                !
 ! A26   A(19,8,20)            107.6586         estimate D2E/DX2                !
 ! A27   A(19,8,21)            107.7299         estimate D2E/DX2                !
 ! A28   A(20,8,21)            107.66           estimate D2E/DX2                !
 ! A29   A(1,9,10)             121.3257         estimate D2E/DX2                !
 ! A30   A(1,9,22)             119.5179         estimate D2E/DX2                !
 ! A31   A(10,9,22)            119.1545         estimate D2E/DX2                !
 ! A32   A(9,10,11)            119.8096         estimate D2E/DX2                !
 ! A33   A(9,10,25)            117.0712         estimate D2E/DX2                !
 ! A34   A(11,10,25)           123.0936         estimate D2E/DX2                !
 ! A35   A(10,11,12)           118.4303         estimate D2E/DX2                !
 ! A36   A(10,11,24)           123.5061         estimate D2E/DX2                !
 ! A37   A(12,11,24)           118.0395         estimate D2E/DX2                !
 ! A38   A(11,12,13)           122.1743         estimate D2E/DX2                !
 ! A39   A(11,12,26)           119.1536         estimate D2E/DX2                !
 ! A40   A(13,12,26)           118.6706         estimate D2E/DX2                !
 ! A41   A(1,13,12)            119.1988         estimate D2E/DX2                !
 ! A42   A(1,13,23)            120.446          estimate D2E/DX2                !
 ! A43   A(12,13,23)           120.3552         estimate D2E/DX2                !
 ! A44   A(11,24,27)           112.4716         estimate D2E/DX2                !
 ! A45   A(11,24,28)           112.1088         estimate D2E/DX2                !
 ! A46   A(11,24,29)           111.0268         estimate D2E/DX2                !
 ! A47   A(27,24,28)           107.5004         estimate D2E/DX2                !
 ! A48   A(27,24,29)           106.8525         estimate D2E/DX2                !
 ! A49   A(28,24,29)           106.5423         estimate D2E/DX2                !
 ! A50   A(10,25,30)           111.1383         estimate D2E/DX2                !
 ! A51   A(10,25,31)           112.3285         estimate D2E/DX2                !
 ! A52   A(10,25,32)           111.7729         estimate D2E/DX2                !
 ! A53   A(30,25,31)           106.8446         estimate D2E/DX2                !
 ! A54   A(30,25,32)           106.5628         estimate D2E/DX2                !
 ! A55   A(31,25,32)           107.8846         estimate D2E/DX2                !
 ! D1    D(9,1,2,3)            179.3746         estimate D2E/DX2                !
 ! D2    D(9,1,2,14)            -0.0788         estimate D2E/DX2                !
 ! D3    D(13,1,2,3)            -0.4994         estimate D2E/DX2                !
 ! D4    D(13,1,2,14)         -179.9528         estimate D2E/DX2                !
 ! D5    D(2,1,9,10)          -179.8032         estimate D2E/DX2                !
 ! D6    D(2,1,9,22)            -0.3096         estimate D2E/DX2                !
 ! D7    D(13,1,9,10)            0.0771         estimate D2E/DX2                !
 ! D8    D(13,1,9,22)          179.5708         estimate D2E/DX2                !
 ! D9    D(2,1,13,12)         -179.9873         estimate D2E/DX2                !
 ! D10   D(2,1,13,23)           -0.0314         estimate D2E/DX2                !
 ! D11   D(9,1,13,12)            0.141          estimate D2E/DX2                !
 ! D12   D(9,1,13,23)         -179.9031         estimate D2E/DX2                !
 ! D13   D(1,2,3,4)              0.4118         estimate D2E/DX2                !
 ! D14   D(1,2,3,5)           -179.5943         estimate D2E/DX2                !
 ! D15   D(14,2,3,4)           179.8759         estimate D2E/DX2                !
 ! D16   D(14,2,3,5)            -0.1302         estimate D2E/DX2                !
 ! D17   D(2,3,5,6)           -179.9923         estimate D2E/DX2                !
 ! D18   D(4,3,5,6)              0.0017         estimate D2E/DX2                !
 ! D19   D(3,5,6,7)           -179.6702         estimate D2E/DX2                !
 ! D20   D(3,5,6,15)            58.9754         estimate D2E/DX2                !
 ! D21   D(3,5,6,16)           -58.3114         estimate D2E/DX2                !
 ! D22   D(5,6,7,8)           -179.9588         estimate D2E/DX2                !
 ! D23   D(5,6,7,17)            58.286          estimate D2E/DX2                !
 ! D24   D(5,6,7,18)           -58.1979         estimate D2E/DX2                !
 ! D25   D(15,6,7,8)           -60.546          estimate D2E/DX2                !
 ! D26   D(15,6,7,17)          177.6988         estimate D2E/DX2                !
 ! D27   D(15,6,7,18)           61.2149         estimate D2E/DX2                !
 ! D28   D(16,6,7,8)            60.6178         estimate D2E/DX2                !
 ! D29   D(16,6,7,17)          -61.1374         estimate D2E/DX2                !
 ! D30   D(16,6,7,18)         -177.6213         estimate D2E/DX2                !
 ! D31   D(6,7,8,19)           -60.0726         estimate D2E/DX2                !
 ! D32   D(6,7,8,20)          -179.9745         estimate D2E/DX2                !
 ! D33   D(6,7,8,21)            60.123          estimate D2E/DX2                !
 ! D34   D(17,7,8,19)           60.8529         estimate D2E/DX2                !
 ! D35   D(17,7,8,20)          -59.0489         estimate D2E/DX2                !
 ! D36   D(17,7,8,21)         -178.9515         estimate D2E/DX2                !
 ! D37   D(18,7,8,19)          178.9925         estimate D2E/DX2                !
 ! D38   D(18,7,8,20)           59.0907         estimate D2E/DX2                !
 ! D39   D(18,7,8,21)          -60.8118         estimate D2E/DX2                !
 ! D40   D(1,9,10,11)           -0.5492         estimate D2E/DX2                !
 ! D41   D(1,9,10,25)         -178.768          estimate D2E/DX2                !
 ! D42   D(22,9,10,11)         179.9553         estimate D2E/DX2                !
 ! D43   D(22,9,10,25)           1.7365         estimate D2E/DX2                !
 ! D44   D(9,10,11,12)           0.7865         estimate D2E/DX2                !
 ! D45   D(9,10,11,24)         178.9602         estimate D2E/DX2                !
 ! D46   D(25,10,11,12)        178.8933         estimate D2E/DX2                !
 ! D47   D(25,10,11,24)         -2.933          estimate D2E/DX2                !
 ! D48   D(9,10,25,30)         -18.3184         estimate D2E/DX2                !
 ! D49   D(9,10,25,31)        -137.9657         estimate D2E/DX2                !
 ! D50   D(9,10,25,32)         100.5985         estimate D2E/DX2                !
 ! D51   D(11,10,25,30)        163.5264         estimate D2E/DX2                !
 ! D52   D(11,10,25,31)         43.8791         estimate D2E/DX2                !
 ! D53   D(11,10,25,32)        -77.5567         estimate D2E/DX2                !
 ! D54   D(10,11,12,13)         -0.5819         estimate D2E/DX2                !
 ! D55   D(10,11,12,26)        179.8691         estimate D2E/DX2                !
 ! D56   D(24,11,12,13)       -178.8566         estimate D2E/DX2                !
 ! D57   D(24,11,12,26)          1.5944         estimate D2E/DX2                !
 ! D58   D(10,11,24,27)         43.5728         estimate D2E/DX2                !
 ! D59   D(10,11,24,28)        -77.7113         estimate D2E/DX2                !
 ! D60   D(10,11,24,29)        163.25           estimate D2E/DX2                !
 ! D61   D(12,11,24,27)       -138.2468         estimate D2E/DX2                !
 ! D62   D(12,11,24,28)        100.4691         estimate D2E/DX2                !
 ! D63   D(12,11,24,29)        -18.5697         estimate D2E/DX2                !
 ! D64   D(11,12,13,1)           0.1185         estimate D2E/DX2                !
 ! D65   D(11,12,13,23)       -179.8374         estimate D2E/DX2                !
 ! D66   D(26,12,13,1)         179.6695         estimate D2E/DX2                !
 ! D67   D(26,12,13,23)         -0.2864         estimate D2E/DX2                !
 --------------------------------------------------------------------------------
 Trust Radius=3.00D-01 FncErr=1.00D-07 GrdErr=1.00D-06
 Number of steps in this run=    164 maximum allowed number of steps=    192.
 GradGradGradGradGradGradGradGradGradGradGradGradGradGradGradGradGradGrad

                          Input orientation:                          
 ---------------------------------------------------------------------
 Center     Atomic      Atomic             Coordinates (Angstroms)
 Number     Number       Type             X           Y           Z
 ---------------------------------------------------------------------
      1          6           0       -5.816510    1.502476    0.221260
      2          7           0       -4.579106    0.858914    0.164256
      3          6           0       -3.337808    1.444480    0.080809
      4          8           0       -3.107425    2.624687    0.049442
      5          8           0       -2.406493    0.480166    0.039136
      6          6           0       -1.047136    0.938034   -0.049338
      7          6           0       -0.153274   -0.282158   -0.093282
      8          6           0        1.315486    0.122241   -0.187005
      9          6           0       -6.954149    0.689956    0.289992
     10          6           0       -8.225079    1.234724    0.345827
     11          6           0       -8.387075    2.627334    0.345535
     12          6           0       -7.252251    3.425156    0.271701
     13          6           0       -5.973445    2.887873    0.210785
     14          1           0       -4.577971   -0.150529    0.177164
     15          1           0       -0.831776    1.568493    0.816744
     16          1           0       -0.940866    1.552059   -0.946863
     17          1           0       -0.434521   -0.898790   -0.951205
     18          1           0       -0.326858   -0.883263    0.803329
     19          1           0        1.508947    0.709277   -1.088056
     20          1           0        1.961405   -0.755877   -0.219247
     21          1           0        1.617198    0.724253    0.673499
     22          1           0       -6.841204   -0.387811    0.291533
     23          1           0       -5.111963    3.535327    0.156734
     24          6           0       -9.732821    3.309536    0.381205
     25          6           0       -9.385393    0.267595    0.446949
     26          1           0       -7.363890    4.501800    0.268496
     27          9           0      -10.568858    2.745049    1.258809
     28          9           0      -10.336222    3.297569   -0.815276
     29          9           0       -9.610124    4.598114    0.734299
     30          9           0       -9.018959   -0.969256    0.073208
     31          9           0      -10.408677    0.620130   -0.333513
     32          9           0       -9.840521    0.167921    1.701141
 ---------------------------------------------------------------------
                    Distance matrix (angstroms):
                    1          2          3          4          5
     1  C    0.000000
     2  N    1.395919   0.000000
     3  C    2.483356   1.375018   0.000000
     4  O    2.937350   2.301518   1.202892   0.000000
     5  O    3.564618   2.208926   1.341262   2.256188   0.000000
     6  C    4.810275   3.539307   2.349596   2.664460   1.437123
     7  C    5.946100   4.577812   3.626685   4.146942   2.382367
     8  C    7.275789   5.950823   4.844913   5.087267   3.745982
     9  C    1.399691   2.384362   3.700134   4.312579   4.559398
    10  C    2.426605   3.669784   4.898944   5.311330   5.875317
    11  C    2.808657   4.202475   5.192718   5.287947   6.361727
    12  C    2.400124   3.707134   4.391171   4.227260   5.675246
    13  C    1.394297   2.462320   3.007800   2.882598   4.306932
    14  H    2.065998   1.009526   2.022707   3.143349   2.265424
    15  H    5.020611   3.869332   2.614799   2.623524   2.066123
    16  H    5.013868   3.866759   2.610174   2.614791   2.066207
    17  H    6.008873   4.638035   3.871051   4.534380   2.602109
    18  H    6.013887   4.639527   3.873789   4.539341   2.601502
    19  H    7.483702   6.217321   5.039623   5.125777   4.080898
    20  H    8.111114   6.747808   5.745716   6.098643   4.546768
    21  H    7.488001   6.218653   5.042032   5.130610   4.080697
    22  H    2.151307   2.586041   3.959227   4.803630   4.525897
    23  H    2.152449   2.728953   2.743180   2.204303   4.082573
    24  C    4.316079   5.710813   6.668198   6.668955   7.861133
    25  C    3.783224   4.850769   6.171904   6.717646   6.994036
    26  H    3.375286   4.586557   5.058831   4.657148   6.387638
    27  F    5.020489   6.374377   7.440918   7.559765   8.558125
    28  F    4.972380   6.328579   7.294842   7.311362   8.458628
    29  F    4.923179   6.294260   7.050845   6.829974   8.326647
    30  F    4.048093   4.802373   6.172654   6.918326   6.769541
    31  F    4.708960   5.855654   7.130807   7.581107   8.012078
    32  F    4.490407   5.524670   6.822050   7.355162   7.623945
                    6          7          8          9         10
     6  C    0.000000
     7  C    1.513205   0.000000
     8  C    2.503289   1.526296   0.000000
     9  C    5.921950   6.880684   8.302812   0.000000
    10  C    7.194932   8.224827   9.619974   1.383890   0.000000
    11  C    7.542172   8.743751  10.034878   2.410352   1.402001
    12  C    6.692704   8.017036   9.193790   2.751458   2.397891
    13  C    5.304532   6.634452   7.806118   2.408089   2.796603
    14  H    3.701765   4.434908   5.910995   2.522968   3.904967
    15  H    1.092683   2.171042   2.776669   6.207475   7.415800
    16  H    1.092644   2.171003   2.777209   6.199403   7.404829
    17  H    2.136021   1.093328   2.165417   6.824239   8.180890
    18  H    2.136109   1.093330   2.165431   6.830778   8.190059
    19  H    2.768543   2.176120   1.092672   8.574578   9.853090
    20  H    3.456808   2.170747   1.090570   9.046373  10.394530
    21  H    2.768912   2.176095   1.092665   8.579991   9.860951
    22  H    5.953594   6.699825   8.186620   1.083670   2.133232
    23  H    4.828169   6.262931   7.285562   3.392278   3.875567
    24  C    9.013906  10.241734  11.512897   3.819887   2.565030
    25  C    8.379875   9.264237  10.720626   2.472644   1.513900
    26  H    7.259671   8.660838   9.732399   3.833863   3.379557
    27  F    9.779557  10.930532  12.255902   4.269442   2.933926
    28  F    9.614634  10.817955  12.092962   4.411313   3.171816
    29  F    9.345322  10.673985  11.842770   4.746084   3.658094
    30  F    8.197727   8.893829  10.395183   2.657710   2.358410
    31  F    9.371247  10.297821  11.735645   3.511039   2.367980
    32  F    8.998937   9.862317  11.314755   3.254997   2.363176
                   11         12         13         14         15
    11  C    0.000000
    12  C    1.389171   0.000000
    13  C    2.431387   1.388426   0.000000
    14  H    4.717430   4.466120   3.343705   0.000000
    15  H    7.643672   6.705726   5.342725   4.171100   0.000000
    16  H    7.633644   6.695294   5.333985   4.170224   1.767054
    17  H    8.795351   8.165381   6.809458   4.359047   3.061200
    18  H    8.803463   8.173504   6.815902   4.359008   2.503244
    19  H   10.181620   9.272730   7.900599   6.276195   3.137754
    20  H   10.902116  10.129833   8.742064   6.579288   3.778602
    21  H   10.188952   9.280271   7.906530   6.276282   2.594366
    22  H    3.388766   3.835111   3.389636   2.278510   6.341624
    23  H    3.403888   2.146203   1.079014   3.724393   4.756475
    24  C    1.509206   2.485677   3.786786   6.211776   9.080172
    25  C    2.564233   3.814603   4.308481   4.833106   8.659875
    26  H    2.136928   1.082421   2.131062   5.423453   7.181460
    27  F    2.368144   3.526587   4.715567   6.741295   9.817865
    28  F    2.365560   3.272412   4.500497   6.784672   9.797331
    29  F    2.351799   2.673835   4.052706   6.941367   9.286808
    30  F    3.661817   4.740413   4.916455   4.517023   8.603661
    31  F    2.928626   4.265851   5.011007   5.903544   9.692240
    32  F    3.162102   4.399094   4.957174   5.488019   9.159763
                   16         17         18         19         20
    16  H    0.000000
    17  H    2.502611   0.000000
    18  H    3.061204   1.757903   0.000000
    19  H    2.594572   2.526198   3.079562   0.000000
    20  H    3.778779   2.509312   2.509589   1.762448   0.000000
    21  H    3.139192   3.079527   2.525929   1.764942   1.762459
    22  H    6.333301   6.546074   6.553176   8.534161   8.825094
    23  H    4.748613   6.539678   6.545170   7.305650   8.281807
    24  C    9.063716  10.292896  10.306789  11.631742  12.395283
    25  C    8.654628   9.134188   9.138300  11.010811  11.412323
    26  H    7.171701   8.869622   8.877205   9.744265  10.716444
    27  F    9.949193  10.993931  10.875232  12.470988  13.093839
    28  F    9.557031  10.755073  10.967526  12.127725  12.962149
    29  F    9.341348  10.828138  10.780969  11.919639  12.785725
    30  F    8.523682   8.645633   8.723136  10.723937  10.986330
    31  F    9.533317  10.108039  10.256494  11.941819  12.446902
    32  F    9.387844   9.830852   9.613576  11.699706  11.992779
                   21         22         23         24         25
    21  H    0.000000
    22  H    8.539739   0.000000
    23  H    7.311005   4.289459   0.000000
    24  C   11.644400   4.694663   4.631814   0.000000
    25  C   11.014393   2.631845   5.387439   3.062423   0.000000
    26  H    9.751606   4.917522   2.453107   2.654436   4.695403
    27  F   12.366332   4.964458   5.622883   1.337084   2.863125
    28  F   12.317575   5.198289   5.319231   1.340077   3.417313
    29  F   11.877005   5.720350   4.657956   1.341701   4.345856
    30  F   10.786851   2.264589   5.963461   4.348853   1.343040
    31  F   12.068412   3.759453   6.065797   2.863653   1.334358
    32  F   11.517156   3.360318   6.006987   3.409337   1.337937
                   26         27         28         29         30
    26  H    0.000000
    27  F    3.786649   0.000000
    28  F    3.385188   2.158988   0.000000
    29  F    2.296044   2.151309   2.149377   0.000000
    30  F    5.719252   4.195700   4.553063   5.637564   0.000000
    31  F    4.969960   2.660156   2.721401   4.195505   2.150090
    32  F    5.193138   2.714355   4.046329   4.540317   2.149024
                   31         32
    31  F    0.000000
    32  F    2.160350   0.000000
 Stoichiometry    C12H11F6NO2
 Framework group  C1[X(C12H11F6NO2)]
 Deg. of freedom    90
 Full point group                 C1      NOp   1
 Largest Abelian subgroup         C1      NOp   1
 Largest concise Abelian subgroup C1      NOp   1
                         Standard orientation:                         
 ---------------------------------------------------------------------
 Center     Atomic      Atomic             Coordinates (Angstroms)
 Number     Number       Type             X           Y           Z
 ---------------------------------------------------------------------
      1          6           0        0.587052   -0.076126   -0.011015
      2          7           0        1.913396    0.359076   -0.010192
      3          6           0        3.046504   -0.419858   -0.011510
      4          8           0        3.084623   -1.622112   -0.020585
      5          8           0        4.122192    0.381248   -0.001066
      6          6           0        5.392527   -0.290741   -0.001189
      7          6           0        6.472745    0.768735    0.019563
      8          6           0        7.859804    0.131831    0.019641
      9          6           0       -0.406478    0.909672    0.004278
     10          6           0       -1.749847    0.577266    0.008819
     11          6           0       -2.134341   -0.770793   -0.013683
     12          6           0       -1.140942   -1.741803   -0.023384
     13          6           0        0.209247   -1.418204   -0.023477
     14          1           0        2.076831    1.355231    0.000109
     15          1           0        5.457188   -0.919534   -0.892478
     16          1           0        5.445531   -0.942216    0.874392
     17          1           0        6.340491    1.394684    0.906164
     18          1           0        6.351368    1.418199   -0.851548
     19          1           0        8.003276   -0.507075    0.894368
     20          1           0        8.639828    0.893846    0.035039
     21          1           0        8.014449   -0.482885   -0.870373
     22          1           0       -0.121226    1.954989    0.021093
     23          1           0        0.956515   -2.196507   -0.033799
     24          6           0       -3.572564   -1.227470    0.012105
     25          6           0       -2.742469    1.720264   -0.003356
     26          1           0       -1.424638   -2.786274   -0.038587
     27          9           0       -4.351672   -0.508781   -0.802923
     28          9           0       -4.102036   -1.157376    1.241151
     29          9           0       -3.678381   -2.507136   -0.377023
     30          9           0       -2.161895    2.870000    0.377165
     31          9           0       -3.766559    1.511188    0.826125
     32          9           0       -3.241161    1.931471   -1.226783
 ---------------------------------------------------------------------
 Rotational constants (GHZ):      0.6913408      0.1132756      0.1009532
 Standard basis: 6-311+G(d) (5D, 7F)
 There are   516 symmetry adapted cartesian basis functions of A   symmetry.
 There are   495 symmetry adapted basis functions of A   symmetry.
   495 basis functions,   811 primitive gaussians,   516 cartesian basis functions
    80 alpha electrons       80 beta electrons
       nuclear repulsion energy      1771.8738722444 Hartrees.
 NAtoms=   32 NActive=   32 NUniq=   32 SFac= 1.00D+00 NAtFMM=   60 NAOKFM=F Big=F
 Integral buffers will be    131072 words long.
 Raffenetti 2 integral format.
 Two-electron integral symmetry is turned on.
 Nuclear repulsion after empirical dispersion term =     1771.8723772086 Hartrees.
 One-electron integrals computed using PRISM.
 NBasis=   495 RedAO= T EigKep=  1.28D-06  NBF=   495
 NBsUse=   493 1.00D-06 EigRej=  4.87D-07 NBFU=   493
 ExpMin= 4.38D-02 ExpMax= 1.14D+04 ExpMxC= 1.72D+03 IAcc=3 IRadAn=         5 AccDes= 0.00D+00
 Harris functional with IExCor= 1009 and IRadAn=       5 diagonalized for initial guess.
 HarFok:  IExCor= 1009 AccDes= 0.00D+00 IRadAn=         5 IDoV= 1 UseB2=F ITyADJ=14
 ICtDFT=  3500011 ScaDFX=  1.000000  1.000000  1.000000  1.000000
 FoFCou: FMM=F IPFlag=           0 FMFlag=      100000 FMFlg1=           0
         NFxFlg=           0 DoJE=T BraDBF=F KetDBF=T FulRan=T
         wScrn=  0.000000 ICntrl=     500 IOpCl=  0 I1Cent=   200000004 NGrid=           0
         NMat0=    1 NMatS0=      1 NMatT0=    0 NMatD0=    1 NMtDS0=    0 NMtDT0=    0
 Petite list used in FoFCou.
 Requested convergence on RMS density matrix=1.00D-08 within 128 cycles.
 Requested convergence on MAX density matrix=1.00D-06.
 Requested convergence on             energy=1.00D-06.
 No special actions if energy rises.
 SCF Done:  E(RM062X) =  -1268.12135168     A.U. after   16 cycles
            NFock= 16  Conv=0.42D-08     -V/T= 2.0029

 **********************************************************************

            Population analysis using the SCF density.

 **********************************************************************

 Orbital symmetries:
       Occupied  (A) (A) (A) (A) (A) (A) (A) (A) (A) (A) (A) (A)
                 (A) (A) (A) (A) (A) (A) (A) (A) (A) (A) (A) (A)
                 (A) (A) (A) (A) (A) (A) (A) (A) (A) (A) (A) (A)
                 (A) (A) (A) (A) (A) (A) (A) (A) (A) (A) (A) (A)
                 (A) (A) (A) (A) (A) (A) (A) (A) (A) (A) (A) (A)
                 (A) (A) (A) (A) (A) (A) (A) (A) (A) (A) (A) (A)
                 (A) (A) (A) (A) (A) (A) (A) (A)
       Virtual   (A) (A) (A) (A) (A) (A) (A) (A) (A) (A) (A) (A)
                 (A) (A) (A) (A) (A) (A) (A) (A) (A) (A) (A) (A)
                 (A) (A) (A) (A) (A) (A) (A) (A) (A) (A) (A) (A)
                 (A) (A) (A) (A) (A) (A) (A) (A) (A) (A) (A) (A)
                 (A) (A) (A) (A) (A) (A) (A) (A) (A) (A) (A) (A)
                 (A) (A) (A) (A) (A) (A) (A) (A) (A) (A) (A) (A)
                 (A) (A) (A) (A) (A) (A) (A) (A) (A) (A) (A) (A)
                 (A) (A) (A) (A) (A) (A) (A) (A) (A) (A) (A) (A)
                 (A) (A) (A) (A) (A) (A) (A) (A) (A) (A) (A) (A)
                 (A) (A) (A) (A) (A) (A) (A) (A) (A) (A) (A) (A)
                 (A) (A) (A) (A) (A) (A) (A) (A) (A) (A) (A) (A)
                 (A) (A) (A) (A) (A) (A) (A) (A) (A) (A) (A) (A)
                 (A) (A) (A) (A) (A) (A) (A) (A) (A) (A) (A) (A)
                 (A) (A) (A) (A) (A) (A) (A) (A) (A) (A) (A) (A)
                 (A) (A) (A) (A) (A) (A) (A) (A) (A) (A) (A) (A)
                 (A) (A) (A) (A) (A) (A) (A) (A) (A) (A) (A) (A)
                 (A) (A) (A) (A) (A) (A) (A) (A) (A) (A) (A) (A)
                 (A) (A) (A) (A) (A) (A) (A) (A) (A) (A) (A) (A)
                 (A) (A) (A) (A) (A) (A) (A) (A) (A) (A) (A) (A)
                 (A) (A) (A) (A) (A) (A) (A) (A) (A) (A) (A) (A)
                 (A) (A) (A) (A) (A) (A) (A) (A) (A) (A) (A) (A)
                 (A) (A) (A) (A) (A) (A) (A) (A) (A) (A) (A) (A)
                 (A) (A) (A) (A) (A) (A) (A) (A) (A) (A) (A) (A)
                 (A) (A) (A) (A) (A) (A) (A) (A) (A) (A) (A) (A)
                 (A) (A) (A) (A) (A) (A) (A) (A) (A) (A) (A) (A)
                 (A) (A) (A) (A) (A) (A) (A) (A) (A) (A) (A) (A)
                 (A) (A) (A) (A) (A) (A) (A) (A) (A) (A) (A) (A)
                 (A) (A) (A) (A) (A) (A) (A) (A) (A) (A) (A) (A)
                 (A) (A) (A) (A) (A) (A) (A) (A) (A) (A) (A) (A)
                 (A) (A) (A) (A) (A) (A) (A) (A) (A) (A) (A) (A)
                 (A) (A) (A) (A) (A) (A) (A) (A) (A) (A) (A) (A)
                 (A) (A) (A) (A) (A) (A) (A) (A) (A) (A) (A) (A)
                 (A) (A) (A) (A) (A) (A) (A) (A) (A) (A) (A) (A)
                 (A) (A) (A) (A) (A) (A) (A) (A) (A) (A) (A) (A)
                 (A) (A) (A) (A) (A)
 The electronic state is 1-A.
 Alpha  occ. eigenvalues --  -25.28786 -25.28463 -25.28227 -25.28197 -25.27987
 Alpha  occ. eigenvalues --  -25.27658 -19.68936 -19.62950 -14.81955 -10.81649
 Alpha  occ. eigenvalues --  -10.81125 -10.72553 -10.63489 -10.61163 -10.60745
 Alpha  occ. eigenvalues --  -10.59712 -10.58789 -10.58380 -10.57400 -10.55454
 Alpha  occ. eigenvalues --  -10.54370  -1.48220  -1.47508  -1.38768  -1.38412
 Alpha  occ. eigenvalues --   -1.38098  -1.37780  -1.27063  -1.17156  -1.09548
 Alpha  occ. eigenvalues --   -1.01156  -0.92567  -0.91252  -0.90333  -0.84277
 Alpha  occ. eigenvalues --   -0.82371  -0.80389  -0.76135  -0.75240  -0.72052
 Alpha  occ. eigenvalues --   -0.70709  -0.70492  -0.70160  -0.69782  -0.69641
 Alpha  occ. eigenvalues --   -0.68821  -0.66221  -0.65492  -0.60936  -0.60919
 Alpha  occ. eigenvalues --   -0.58836  -0.58753  -0.58115  -0.57950  -0.57710
 Alpha  occ. eigenvalues --   -0.56271  -0.55760  -0.55458  -0.54527  -0.53746
 Alpha  occ. eigenvalues --   -0.53310  -0.52879  -0.52521  -0.52024  -0.51552
 Alpha  occ. eigenvalues --   -0.51212  -0.50519  -0.50098  -0.47791  -0.47418
 Alpha  occ. eigenvalues --   -0.45918  -0.45067  -0.44842  -0.42616  -0.42369
 Alpha  occ. eigenvalues --   -0.41440  -0.39698  -0.38631  -0.35158  -0.31164
 Alpha virt. eigenvalues --   -0.02862  -0.01837  -0.00592   0.01049   0.01674
 Alpha virt. eigenvalues --    0.02525   0.02734   0.02972   0.04090   0.04204
 Alpha virt. eigenvalues --    0.04706   0.04846   0.05885   0.06113   0.06422
 Alpha virt. eigenvalues --    0.06526   0.06816   0.06909   0.07510   0.08248
 Alpha virt. eigenvalues --    0.08479   0.08780   0.09370   0.10792   0.10928
 Alpha virt. eigenvalues --    0.11029   0.11887   0.11989   0.12433   0.12782
 Alpha virt. eigenvalues --    0.13681   0.13946   0.14113   0.14735   0.15335
 Alpha virt. eigenvalues --    0.15992   0.16902   0.17231   0.17565   0.17664
 Alpha virt. eigenvalues --    0.17698   0.18302   0.18646   0.19178   0.19341
 Alpha virt. eigenvalues --    0.19654   0.20108   0.20176   0.20932   0.21354
 Alpha virt. eigenvalues --    0.21890   0.22219   0.22810   0.23259   0.23336
 Alpha virt. eigenvalues --    0.23490   0.23673   0.24572   0.24735   0.24930
 Alpha virt. eigenvalues --    0.25540   0.25626   0.26355   0.26725   0.26925
 Alpha virt. eigenvalues --    0.27278   0.27471   0.27817   0.28058   0.28744
 Alpha virt. eigenvalues --    0.28939   0.29311   0.29565   0.30243   0.30512
 Alpha virt. eigenvalues --    0.31372   0.31529   0.31688   0.31965   0.33113
 Alpha virt. eigenvalues --    0.33218   0.33715   0.35192   0.35564   0.35997
 Alpha virt. eigenvalues --    0.36354   0.37234   0.37481   0.37827   0.38159
 Alpha virt. eigenvalues --    0.38419   0.39179   0.39632   0.39863   0.40102
 Alpha virt. eigenvalues --    0.40778   0.41356   0.42112   0.42285   0.42757
 Alpha virt. eigenvalues --    0.43604   0.44039   0.44627   0.45081   0.45202
 Alpha virt. eigenvalues --    0.45712   0.46668   0.47526   0.47987   0.48328
 Alpha virt. eigenvalues --    0.49039   0.50152   0.50406   0.52076   0.52784
 Alpha virt. eigenvalues --    0.53202   0.53876   0.54857   0.54981   0.55510
 Alpha virt. eigenvalues --    0.55854   0.57311   0.58129   0.58606   0.59360
 Alpha virt. eigenvalues --    0.60436   0.60911   0.61469   0.62417   0.63432
 Alpha virt. eigenvalues --    0.63635   0.65482   0.66070   0.66524   0.66947
 Alpha virt. eigenvalues --    0.67412   0.68888   0.69756   0.70551   0.70750
 Alpha virt. eigenvalues --    0.71686   0.71786   0.72673   0.73037   0.73147
 Alpha virt. eigenvalues --    0.73560   0.75795   0.76258   0.76433   0.76848
 Alpha virt. eigenvalues --    0.77684   0.78095   0.79545   0.80091   0.81133
 Alpha virt. eigenvalues --    0.81777   0.82350   0.83779   0.86735   0.88356
 Alpha virt. eigenvalues --    0.90889   0.91067   0.92239   0.93569   0.94764
 Alpha virt. eigenvalues --    0.95682   0.96727   0.99233   0.99537   1.02315
 Alpha virt. eigenvalues --    1.03084   1.04066   1.04476   1.06064   1.07520
 Alpha virt. eigenvalues --    1.09041   1.09884   1.10617   1.11160   1.13536
 Alpha virt. eigenvalues --    1.14549   1.14633   1.16271   1.17823   1.18705
 Alpha virt. eigenvalues --    1.20964   1.22363   1.22918   1.24466   1.24506
 Alpha virt. eigenvalues --    1.30250   1.30995   1.35157   1.37459   1.38011
 Alpha virt. eigenvalues --    1.39406   1.39814   1.41315   1.42453   1.43476
 Alpha virt. eigenvalues --    1.44319   1.46292   1.47820   1.48442   1.48643
 Alpha virt. eigenvalues --    1.49018   1.49356   1.49790   1.50064   1.52052
 Alpha virt. eigenvalues --    1.52937   1.54166   1.54771   1.55055   1.56429
 Alpha virt. eigenvalues --    1.56961   1.57770   1.58130   1.58692   1.58835
 Alpha virt. eigenvalues --    1.59644   1.59862   1.60353   1.61366   1.61674
 Alpha virt. eigenvalues --    1.61881   1.62581   1.63673   1.65838   1.66887
 Alpha virt. eigenvalues --    1.70688   1.72366   1.75875   1.76566   1.77184
 Alpha virt. eigenvalues --    1.77326   1.78440   1.79457   1.81532   1.82822
 Alpha virt. eigenvalues --    1.83365   1.83875   1.85031   1.86952   1.87453
 Alpha virt. eigenvalues --    1.88207   1.89354   1.91992   1.93640   1.95895
 Alpha virt. eigenvalues --    1.98142   1.98681   2.00612   2.02361   2.04041
 Alpha virt. eigenvalues --    2.04616   2.07715   2.09937   2.10860   2.11893
 Alpha virt. eigenvalues --    2.14261   2.16296   2.16689   2.17874   2.21964
 Alpha virt. eigenvalues --    2.23025   2.24755   2.33791   2.35777   2.38540
 Alpha virt. eigenvalues --    2.40612   2.41641   2.42015   2.43201   2.49296
 Alpha virt. eigenvalues --    2.50749   2.53534   2.54976   2.56532   2.58679
 Alpha virt. eigenvalues --    2.60105   2.60618   2.63979   2.68248   2.70483
 Alpha virt. eigenvalues --    2.72325   2.72715   2.79127   2.81115   2.84101
 Alpha virt. eigenvalues --    2.85946   2.91453   2.91974   2.92666   2.96324
 Alpha virt. eigenvalues --    2.99318   2.99764   3.00408   3.01165   3.03235
 Alpha virt. eigenvalues --    3.05185   3.05597   3.05877   3.09758   3.11045
 Alpha virt. eigenvalues --    3.12112   3.13855   3.16967   3.17602   3.20018
 Alpha virt. eigenvalues --    3.24232   3.27518   3.28337   3.28659   3.33113
 Alpha virt. eigenvalues --    3.36672   3.37842   3.40571   3.43444   3.43696
 Alpha virt. eigenvalues --    3.49812   3.54381   3.55579   3.69699   3.70463
 Alpha virt. eigenvalues --    3.72983   3.78612   3.80329   3.80925   3.82304
 Alpha virt. eigenvalues --    3.84005   3.84528   3.85275   3.85736   3.86047
 Alpha virt. eigenvalues --    3.86594   3.87478   3.88581   3.88954   3.90086
 Alpha virt. eigenvalues --    3.90842   3.94079   3.96189   3.98062   4.00811
 Alpha virt. eigenvalues --    4.01252   4.01902   4.02118   4.05795   4.09408
 Alpha virt. eigenvalues --    4.11453   4.12628   4.17797   4.21771   4.23471
 Alpha virt. eigenvalues --    4.28120   4.28925   4.31676   4.33084   4.54956
 Alpha virt. eigenvalues --    4.72408   4.79692   4.80897   4.99567   5.00079
 Alpha virt. eigenvalues --    5.02337   5.03511   5.08036   5.08995   5.15090
 Alpha virt. eigenvalues --    5.36174   5.49520   5.79582   5.95117   6.46324
 Alpha virt. eigenvalues --    6.48209   6.49866   6.50620   6.51489   6.53354
 Alpha virt. eigenvalues --    6.53796   6.55057   6.55416   6.56243   6.58874
 Alpha virt. eigenvalues --    6.62435   6.63446   6.63718   6.88814   6.89937
 Alpha virt. eigenvalues --    6.90689   6.91886  23.45526  23.56041  23.64351
 Alpha virt. eigenvalues --   23.65219  23.70843  23.80272  23.91793  23.92683
 Alpha virt. eigenvalues --   23.96378  24.08211  24.11961  24.19536  35.64610
 Alpha virt. eigenvalues --   50.00872  50.12891  66.89729  66.90138  66.90647
 Alpha virt. eigenvalues --   66.91301  66.96217  66.98428
          Condensed to atoms (all electrons):
               1          2          3          4          5          6
     1  C   31.942315  -0.509674  -1.615082  -0.367486  -0.398996  -0.889474
     2  N   -0.509674   7.652238   0.202271   0.008096  -0.224803  -0.287221
     3  C   -1.615082   0.202271   8.907481   0.480106   0.306340  -0.594646
     4  O   -0.367486   0.008096   0.480106   8.038518  -0.198245  -0.179933
     5  O   -0.398996  -0.224803   0.306340  -0.198245   8.334170   0.389296
     6  C   -0.889474  -0.287221  -0.594646  -0.179933   0.389296   8.276542
     7  C   -0.027387   0.031887   0.122685   0.031660  -0.162154  -0.928926
     8  C   -0.016653  -0.004746  -0.255921   0.000860   0.032122   0.323170
     9  C    1.675065   0.052454   0.176330  -0.129652  -0.024010   0.109498
    10  C   -6.792200   0.219878  -1.692227  -0.059636  -0.012033  -0.125923
    11  C   -6.765326   0.154535  -0.124581   0.038601   0.023981  -0.015766
    12  C   -3.509869   0.100813   0.115643   0.194700   0.013805  -0.060891
    13  C   -2.398344  -0.163323  -0.092726   0.423057   0.034078  -0.245200
    14  H   -0.092718   0.263035   0.008173   0.000323   0.025418  -0.003712
    15  H    0.010485   0.004660   0.044024  -0.002344  -0.044219   0.353040
    16  H    0.015039   0.005250   0.047757  -0.002952  -0.044107   0.345174
    17  H   -0.000273  -0.000843   0.007005  -0.000296   0.000700  -0.062333
    18  H    0.000435  -0.000856   0.007806  -0.000333   0.000782  -0.064182
    19  H   -0.000115  -0.000045  -0.001061  -0.000078  -0.000426  -0.047907
    20  H    0.000126   0.000036   0.008426   0.000033  -0.000680   0.090592
    21  H   -0.000173  -0.000041  -0.001186  -0.000067  -0.000427  -0.046811
    22  H    0.153854  -0.020984  -0.017195   0.000143  -0.001010  -0.001566
    23  H    0.015912  -0.025780   0.103243   0.005141   0.002287   0.012984
    24  C    0.838260   0.038771   0.055708   0.000485   0.002813   0.002258
    25  C   -4.747640  -0.005525  -0.195857  -0.003870  -0.002168  -0.007043
    26  H    0.004886  -0.001734   0.002510   0.000148   0.000008   0.000037
    27  F   -0.026784   0.000019  -0.001184   0.000002   0.000000  -0.000009
    28  F   -0.014297  -0.000074  -0.000721  -0.000001   0.000000  -0.000003
    29  F    0.001756   0.000098  -0.000123   0.000000   0.000001   0.000003
    30  F    0.187220   0.000613  -0.002582  -0.000001   0.000007  -0.000029
    31  F    0.037840   0.000791  -0.001320   0.000002   0.000002  -0.000016
    32  F   -0.037599   0.000975  -0.000898  -0.000000  -0.000000  -0.000001
               7          8          9         10         11         12
     1  C   -0.027387  -0.016653   1.675065  -6.792200  -6.765326  -3.509869
     2  N    0.031887  -0.004746   0.052454   0.219878   0.154535   0.100813
     3  C    0.122685  -0.255921   0.176330  -1.692227  -0.124581   0.115643
     4  O    0.031660   0.000860  -0.129652  -0.059636   0.038601   0.194700
     5  O   -0.162154   0.032122  -0.024010  -0.012033   0.023981   0.013805
     6  C   -0.928926   0.323170   0.109498  -0.125923  -0.015766  -0.060891
     7  C    6.493880  -0.134842   0.006653  -0.003383  -0.003433  -0.005052
     8  C   -0.134842   6.069171   0.004231  -0.000387  -0.000455  -0.002885
     9  C    0.006653   0.004231  15.970316   2.011834  -6.217321  -4.556008
    10  C   -0.003383  -0.000387   2.011834  54.641742 -21.984408  -6.422809
    11  C   -0.003433  -0.000455  -6.217321 -21.984408  53.846515   3.404300
    12  C   -0.005052  -0.002885  -4.556008  -6.422809   3.404300  23.202139
    13  C   -0.008192  -0.015107  -1.438320  -7.340432  -9.319817  -5.679263
    14  H   -0.001790  -0.000554  -0.016422  -0.003593   0.003021   0.021684
    15  H   -0.025909  -0.014359   0.000979   0.000317  -0.000187  -0.000596
    16  H   -0.024548  -0.014233   0.002276   0.000821  -0.000414  -0.001549
    17  H    0.441462  -0.045606   0.000046   0.000004   0.000001   0.000048
    18  H    0.441568  -0.045200   0.000251   0.000075  -0.000005  -0.000000
    19  H    0.014121   0.379555   0.000013   0.000000  -0.000000  -0.000001
    20  H   -0.135845   0.389894  -0.000030  -0.000001   0.000000   0.000004
    21  H    0.013495   0.379285   0.000001  -0.000001  -0.000000   0.000003
    22  H    0.000012  -0.000004   0.345776  -0.093893  -0.074054  -0.001831
    23  H   -0.000449   0.000065  -0.024889  -0.036987   0.056535   0.004296
    24  C   -0.000456   0.000000  -1.603537  -0.885106  -2.637857  -0.642850
    25  C   -0.000218  -0.000010  -0.085567  -4.385479  -3.332234  -0.750959
    26  H    0.000003   0.000000   0.000648  -0.019588  -0.141199   0.296367
    27  F   -0.000000  -0.000000   0.025061  -0.347716   0.093065   0.141812
    28  F   -0.000000   0.000000  -0.000032  -0.078902   0.272835  -0.094291
    29  F   -0.000000   0.000000  -0.010936  -0.086610  -0.257821   0.146674
    30  F    0.000001  -0.000000   0.216875  -0.318847  -0.108320  -0.003409
    31  F    0.000000  -0.000000   0.093905   0.077852  -0.279266   0.025348
    32  F    0.000000   0.000000  -0.105866   0.418330  -0.095481  -0.010192
              13         14         15         16         17         18
     1  C   -2.398344  -0.092718   0.010485   0.015039  -0.000273   0.000435
     2  N   -0.163323   0.263035   0.004660   0.005250  -0.000843  -0.000856
     3  C   -0.092726   0.008173   0.044024   0.047757   0.007005   0.007806
     4  O    0.423057   0.000323  -0.002344  -0.002952  -0.000296  -0.000333
     5  O    0.034078   0.025418  -0.044219  -0.044107   0.000700   0.000782
     6  C   -0.245200  -0.003712   0.353040   0.345174  -0.062333  -0.064182
     7  C   -0.008192  -0.001790  -0.025909  -0.024548   0.441462   0.441568
     8  C   -0.015107  -0.000554  -0.014359  -0.014233  -0.045606  -0.045200
     9  C   -1.438320  -0.016422   0.000979   0.002276   0.000046   0.000251
    10  C   -7.340432  -0.003593   0.000317   0.000821   0.000004   0.000075
    11  C   -9.319817   0.003021  -0.000187  -0.000414   0.000001  -0.000005
    12  C   -5.679263   0.021684  -0.000596  -0.001549   0.000048  -0.000000
    13  C   32.117196   0.057846  -0.003896  -0.006417   0.000206  -0.000048
    14  H    0.057846   0.319299  -0.000002  -0.000020   0.000004   0.000005
    15  H   -0.003896  -0.000002   0.448631  -0.040229   0.005428  -0.007805
    16  H   -0.006417  -0.000020  -0.040229   0.448838  -0.007858   0.005411
    17  H    0.000206   0.000004   0.005428  -0.007858   0.444321  -0.036747
    18  H   -0.000048   0.000005  -0.007805   0.005411  -0.036747   0.444238
    19  H   -0.000015  -0.000000  -0.000549   0.003741  -0.008089   0.006123
    20  H    0.000074   0.000000  -0.000200  -0.000204  -0.003214  -0.003195
    21  H    0.000021   0.000000   0.003755  -0.000553   0.006131  -0.008108
    22  H   -0.012722   0.006678  -0.000000  -0.000000  -0.000000  -0.000000
    23  H    0.204843  -0.000090  -0.000032  -0.000043  -0.000000  -0.000000
    24  C   -3.352749   0.002195  -0.000006  -0.000013   0.000000  -0.000000
    25  C    2.700450   0.004510   0.000007   0.000027  -0.000000   0.000003
    26  H    0.184133  -0.000004   0.000000   0.000000  -0.000000   0.000000
    27  F    0.089836   0.000000  -0.000000   0.000000  -0.000000   0.000000
    28  F   -0.025400   0.000001   0.000000  -0.000000   0.000000  -0.000000
    29  F    0.303252   0.000001  -0.000000  -0.000000  -0.000000  -0.000000
    30  F   -0.017586   0.000058   0.000000   0.000000   0.000000  -0.000000
    31  F   -0.000988  -0.000008  -0.000000   0.000000  -0.000000   0.000000
    32  F   -0.013403  -0.000020  -0.000000   0.000000   0.000000   0.000000
              19         20         21         22         23         24
     1  C   -0.000115   0.000126  -0.000173   0.153854   0.015912   0.838260
     2  N   -0.000045   0.000036  -0.000041  -0.020984  -0.025780   0.038771
     3  C   -0.001061   0.008426  -0.001186  -0.017195   0.103243   0.055708
     4  O   -0.000078   0.000033  -0.000067   0.000143   0.005141   0.000485
     5  O   -0.000426  -0.000680  -0.000427  -0.001010   0.002287   0.002813
     6  C   -0.047907   0.090592  -0.046811  -0.001566   0.012984   0.002258
     7  C    0.014121  -0.135845   0.013495   0.000012  -0.000449  -0.000456
     8  C    0.379555   0.389894   0.379285  -0.000004   0.000065   0.000000
     9  C    0.000013  -0.000030   0.000001   0.345776  -0.024889  -1.603537
    10  C    0.000000  -0.000001  -0.000001  -0.093893  -0.036987  -0.885106
    11  C   -0.000000   0.000000  -0.000000  -0.074054   0.056535  -2.637857
    12  C   -0.000001   0.000004   0.000003  -0.001831   0.004296  -0.642850
    13  C   -0.000015   0.000074   0.000021  -0.012722   0.204843  -3.352749
    14  H   -0.000000   0.000000   0.000000   0.006678  -0.000090   0.002195
    15  H   -0.000549  -0.000200   0.003755  -0.000000  -0.000032  -0.000006
    16  H    0.003741  -0.000204  -0.000553  -0.000000  -0.000043  -0.000013
    17  H   -0.008089  -0.003214   0.006131  -0.000000  -0.000000   0.000000
    18  H    0.006123  -0.003195  -0.008108  -0.000000  -0.000000  -0.000000
    19  H    0.457143  -0.024779  -0.037761  -0.000000  -0.000000  -0.000000
    20  H   -0.024779   0.428432  -0.024815   0.000000   0.000000   0.000000
    21  H   -0.037761  -0.024815   0.457138  -0.000000  -0.000000  -0.000000
    22  H   -0.000000   0.000000  -0.000000   0.399215  -0.000075   0.013758
    23  H   -0.000000   0.000000  -0.000000  -0.000075   0.363611   0.015515
    24  C   -0.000000   0.000000  -0.000000   0.013758   0.015515  20.557739
    25  C   -0.000000  -0.000000  -0.000000   0.023627  -0.004517  -7.444761
    26  H    0.000000  -0.000000  -0.000000   0.000037  -0.002783  -0.026288
    27  F   -0.000000   0.000000  -0.000000   0.000040   0.000009  -0.113730
    28  F   -0.000000  -0.000000   0.000000   0.000018   0.000036   0.124178
    29  F   -0.000000   0.000000  -0.000000   0.000011  -0.000031   0.008433
    30  F    0.000000  -0.000000   0.000000   0.011155  -0.000003   0.026471
    31  F   -0.000000  -0.000000  -0.000000   0.000821  -0.000005   0.257368
    32  F   -0.000000  -0.000000   0.000000  -0.001234  -0.000004  -0.004146
              25         26         27         28         29         30
     1  C   -4.747640   0.004886  -0.026784  -0.014297   0.001756   0.187220
     2  N   -0.005525  -0.001734   0.000019  -0.000074   0.000098   0.000613
     3  C   -0.195857   0.002510  -0.001184  -0.000721  -0.000123  -0.002582
     4  O   -0.003870   0.000148   0.000002  -0.000001   0.000000  -0.000001
     5  O   -0.002168   0.000008   0.000000   0.000000   0.000001   0.000007
     6  C   -0.007043   0.000037  -0.000009  -0.000003   0.000003  -0.000029
     7  C   -0.000218   0.000003  -0.000000  -0.000000  -0.000000   0.000001
     8  C   -0.000010   0.000000  -0.000000   0.000000   0.000000  -0.000000
     9  C   -0.085567   0.000648   0.025061  -0.000032  -0.010936   0.216875
    10  C   -4.385479  -0.019588  -0.347716  -0.078902  -0.086610  -0.318847
    11  C   -3.332234  -0.141199   0.093065   0.272835  -0.257821  -0.108320
    12  C   -0.750959   0.296367   0.141812  -0.094291   0.146674  -0.003409
    13  C    2.700450   0.184133   0.089836  -0.025400   0.303252  -0.017586
    14  H    0.004510  -0.000004   0.000000   0.000001   0.000001   0.000058
    15  H    0.000007   0.000000  -0.000000   0.000000  -0.000000   0.000000
    16  H    0.000027   0.000000   0.000000  -0.000000  -0.000000   0.000000
    17  H   -0.000000  -0.000000  -0.000000   0.000000  -0.000000   0.000000
    18  H    0.000003   0.000000   0.000000  -0.000000  -0.000000  -0.000000
    19  H   -0.000000   0.000000  -0.000000  -0.000000  -0.000000   0.000000
    20  H   -0.000000  -0.000000   0.000000  -0.000000   0.000000  -0.000000
    21  H   -0.000000  -0.000000  -0.000000   0.000000  -0.000000   0.000000
    22  H    0.023627   0.000037   0.000040   0.000018   0.000011   0.011155
    23  H   -0.004517  -0.002783   0.000009   0.000036  -0.000031  -0.000003
    24  C   -7.444761  -0.026288  -0.113730   0.124178   0.008433   0.026471
    25  C   22.685219   0.017974   0.294565  -0.014275   0.032178   0.152338
    26  H    0.017974   0.386964   0.000925  -0.000637   0.010724   0.000011
    27  F    0.294565   0.000925   8.973280  -0.040443  -0.026102   0.001771
    28  F   -0.014275  -0.000637  -0.040443   8.943601  -0.042273   0.000085
    29  F    0.032178   0.010724  -0.026102  -0.042273   9.031445   0.000059
    30  F    0.152338   0.000011   0.001771   0.000085   0.000059   9.038548
    31  F   -0.057078   0.000055  -0.005737   0.003010   0.001712  -0.027283
    32  F    0.030511   0.000010   0.003656  -0.000989   0.000052  -0.042931
              31         32
     1  C    0.037840  -0.037599
     2  N    0.000791   0.000975
     3  C   -0.001320  -0.000898
     4  O    0.000002  -0.000000
     5  O    0.000002  -0.000000
     6  C   -0.000016  -0.000001
     7  C    0.000000   0.000000
     8  C   -0.000000   0.000000
     9  C    0.093905  -0.105866
    10  C    0.077852   0.418330
    11  C   -0.279266  -0.095481
    12  C    0.025348  -0.010192
    13  C   -0.000988  -0.013403
    14  H   -0.000008  -0.000020
    15  H   -0.000000  -0.000000
    16  H    0.000000   0.000000
    17  H   -0.000000   0.000000
    18  H    0.000000   0.000000
    19  H   -0.000000  -0.000000
    20  H   -0.000000  -0.000000
    21  H   -0.000000   0.000000
    22  H    0.000821  -0.001234
    23  H   -0.000005  -0.000004
    24  C    0.257368  -0.004146
    25  C   -0.057078   0.030511
    26  H    0.000055   0.000010
    27  F   -0.005737   0.003656
    28  F    0.003010  -0.000989
    29  F    0.001712   0.000052
    30  F   -0.027283  -0.042931
    31  F    8.964405  -0.041526
    32  F   -0.041526   8.924133
 Mulliken charges:
               1
     1  C   -0.673105
     2  N   -0.490770
     3  C    0.001803
     4  O   -0.276980
     5  O   -0.052530
     6  C   -0.341005
     7  C   -0.134841
     8  C   -1.027393
     9  C   -0.479622
    10  C   -0.680689
    11  C   -0.535443
    12  C    0.074820
    13  C    0.018954
    14  H    0.406683
    15  H    0.269007
    16  H    0.268807
    17  H    0.259903
    18  H    0.259784
    19  H    0.260131
    20  H    0.275346
    21  H    0.260115
    22  H    0.269425
    23  H    0.311212
    24  C    0.767548
    25  C    1.095793
    26  H    0.286791
    27  F   -0.062335
    28  F   -0.031426
    29  F   -0.112503
    30  F   -0.114220
    31  F   -0.049884
    32  F   -0.023379
 Sum of Mulliken charges =  -0.00000
 Mulliken charges with hydrogens summed into heavy atoms:
               1
     1  C   -0.673105
     2  N   -0.084087
     3  C    0.001803
     4  O   -0.276980
     5  O   -0.052530
     6  C    0.196810
     7  C    0.384846
     8  C   -0.231801
     9  C   -0.210197
    10  C   -0.680689
    11  C   -0.535443
    12  C    0.361611
    13  C    0.330166
    24  C    0.767548
    25  C    1.095793
    27  F   -0.062335
    28  F   -0.031426
    29  F   -0.112503
    30  F   -0.114220
    31  F   -0.049884
    32  F   -0.023379
 Electronic spatial extent (au):  <R**2>=           9886.0564
 Charge=              0.0000 electrons
 Dipole moment (field-independent basis, Debye):
    X=              6.4756    Y=              1.0838    Z=              0.0042  Tot=              6.5657
 Quadrupole moment (field-independent basis, Debye-Ang):
   XX=           -116.2721   YY=           -121.2107   ZZ=           -121.8993
   XY=              7.1519   XZ=              0.1571   YZ=              0.0848
 Traceless Quadrupole moment (field-independent basis, Debye-Ang):
   XX=              3.5219   YY=             -1.4167   ZZ=             -2.1052
   XY=              7.1519   XZ=              0.1571   YZ=              0.0848
 Octapole moment (field-independent basis, Debye-Ang**2):
  XXX=            121.3877  YYY=             10.2645  ZZZ=              0.1806  XYY=            -28.6014
  XXY=             21.4889  XXZ=             -0.2352  XZZ=            -20.4858  YZZ=              3.6945
  YYZ=              0.4637  XYZ=             -1.1197
 Hexadecapole moment (field-independent basis, Debye-Ang**3):
 XXXX=          -9660.1505 YYYY=          -1383.0706 ZZZZ=           -272.4448 XXXY=             24.7176
 XXXZ=              5.3340 YYYX=             26.9760 YYYZ=             -6.6712 ZZZX=             -0.1084
 ZZZY=              2.7649 XXYY=          -2047.0481 XXZZ=          -1787.7575 YYZZ=           -281.8029
 XXYZ=              3.9214 YYXZ=             -2.9996 ZZXY=            -11.9836
 N-N= 1.771872377209D+03 E-N=-6.531303539416D+03  KE= 1.264392165484D+03
 Calling FoFJK, ICntrl=      2127 FMM=F ISym2X=0 I1Cent= 0 IOpClX= 0 NMat=1 NMatS=1 NMatT=0.
 ***** Axes restored to original set *****
 -------------------------------------------------------------------
 Center     Atomic                   Forces (Hartrees/Bohr)
 Number     Number              X              Y              Z
 -------------------------------------------------------------------
      1        6           0.000001254    0.000003298   -0.000002387
      2        7           0.000009451   -0.000005353    0.000002448
      3        6           0.000001258    0.000008307    0.000001796
      4        8          -0.000003390    0.000001370   -0.000002957
      5        8          -0.000011363   -0.000002532   -0.000000813
      6        6           0.000003075   -0.000003077    0.000002496
      7        6           0.000001464   -0.000001774    0.000002053
      8        6           0.000000155   -0.000000644    0.000000284
      9        6          -0.000002268    0.000000160    0.000003172
     10        6           0.000002814   -0.000001184    0.000000665
     11        6           0.000000750    0.000004155   -0.000006307
     12        6          -0.000002439   -0.000001898   -0.000003371
     13        6           0.000002150    0.000002024   -0.000002368
     14        1           0.000000913   -0.000000641   -0.000000142
     15        1          -0.000000686    0.000000609   -0.000001589
     16        1          -0.000001701   -0.000001961    0.000000406
     17        1          -0.000000061   -0.000001732    0.000003379
     18        1          -0.000000641    0.000001341    0.000001238
     19        1           0.000000311   -0.000002514    0.000001431
     20        1          -0.000000375   -0.000000091    0.000002239
     21        1          -0.000000277   -0.000000080   -0.000000241
     22        1           0.000000276    0.000000126    0.000002952
     23        1           0.000000634   -0.000000963   -0.000001506
     24        6          -0.000000042   -0.000007048   -0.000004044
     25        6          -0.000000781    0.000001305   -0.000003182
     26        1          -0.000000249    0.000000632   -0.000004384
     27        9          -0.000004053    0.000003247    0.000001548
     28        9           0.000002298   -0.000003270    0.000000665
     29        9           0.000002632    0.000005726   -0.000000874
     30        9          -0.000001550   -0.000000375    0.000002419
     31        9           0.000002105   -0.000002047    0.000000964
     32        9          -0.000001664    0.000004885    0.000004012
 -------------------------------------------------------------------
 Cartesian Forces:  Max     0.000011363 RMS     0.000002937

 GradGradGradGradGradGradGradGradGradGradGradGradGradGradGradGradGradGrad
 Berny optimization.
 FormGI is forming the generalized inverse of G from B-inverse, IUseBI=4.
 Internal  Forces:  Max     0.000017551 RMS     0.000002495
 Search for a local minimum.
 Step number   1 out of a maximum of  164
 All quantities printed in internal units (Hartrees-Bohrs-Radians)
 Mixed Optimization -- En-DIIS/RFO-DIIS
 Second derivative matrix not updated -- first step.
 ITU=  0
     Eigenvalues ---    0.00418   0.00582   0.00591   0.00644   0.01201
     Eigenvalues ---    0.01515   0.01558   0.01746   0.01881   0.02019
     Eigenvalues ---    0.02022   0.02122   0.02165   0.02167   0.02198
     Eigenvalues ---    0.02210   0.02237   0.02238   0.02469   0.03815
     Eigenvalues ---    0.04969   0.05390   0.05502   0.05540   0.05712
     Eigenvalues ---    0.08118   0.10542   0.10557   0.10873   0.10882
     Eigenvalues ---    0.11294   0.12017   0.13615   0.15999   0.16000
     Eigenvalues ---    0.16000   0.16000   0.16000   0.16000   0.16000
     Eigenvalues ---    0.21882   0.21942   0.22000   0.22373   0.23481
     Eigenvalues ---    0.24595   0.24983   0.24990   0.25000   0.25000
     Eigenvalues ---    0.25000   0.25000   0.25000   0.25000   0.25000
     Eigenvalues ---    0.25000   0.25000   0.25000   0.29768   0.30962
     Eigenvalues ---    0.31031   0.31430   0.34431   0.34431   0.34504
     Eigenvalues ---    0.34506   0.34506   0.34509   0.34747   0.35555
     Eigenvalues ---    0.35703   0.36114   0.39983   0.42273   0.42723
     Eigenvalues ---    0.45892   0.46052   0.46304   0.46406   0.47317
     Eigenvalues ---    0.48093   0.50024   0.56529   0.56825   0.56923
     Eigenvalues ---    0.57188   0.57670   0.57863   0.58488   1.03383
 RFO step:  Lambda= 0.00000000D+00 EMin= 4.18104854D-03
 Linear search not attempted -- first point.
 Iteration  1 RMS(Cart)=  0.00013512 RMS(Int)=  0.00000001
 Iteration  2 RMS(Cart)=  0.00000001 RMS(Int)=  0.00000000
 Variable       Old X    -DE/DX   Delta X   Delta X   Delta X     New X
                                 (Linear)    (Quad)   (Total)
    R1        2.63790  -0.00000   0.00000  -0.00000  -0.00000   2.63790
    R2        2.64503   0.00000   0.00000   0.00001   0.00001   2.64504
    R3        2.63484  -0.00000   0.00000   0.00000   0.00000   2.63484
    R4        2.59841  -0.00001   0.00000  -0.00002  -0.00002   2.59839
    R5        1.90773   0.00000   0.00000   0.00000   0.00000   1.90773
    R6        2.27314   0.00000   0.00000   0.00000   0.00000   2.27314
    R7        2.53462  -0.00000   0.00000  -0.00000  -0.00000   2.53461
    R8        2.71577   0.00000   0.00000   0.00000   0.00000   2.71577
    R9        2.85954   0.00000   0.00000   0.00000   0.00000   2.85955
   R10        2.06487  -0.00000   0.00000  -0.00000  -0.00000   2.06487
   R11        2.06480  -0.00000   0.00000  -0.00000  -0.00000   2.06479
   R12        2.88428   0.00000   0.00000   0.00000   0.00000   2.88428
   R13        2.06609  -0.00000   0.00000  -0.00000  -0.00000   2.06609
   R14        2.06609  -0.00000   0.00000  -0.00000  -0.00000   2.06609
   R15        2.06485  -0.00000   0.00000  -0.00000  -0.00000   2.06485
   R16        2.06088  -0.00000   0.00000  -0.00000  -0.00000   2.06088
   R17        2.06484  -0.00000   0.00000  -0.00000  -0.00000   2.06484
   R18        2.61517  -0.00000   0.00000  -0.00000  -0.00000   2.61517
   R19        2.04784   0.00000   0.00000   0.00000   0.00000   2.04784
   R20        2.64940  -0.00000   0.00000  -0.00000  -0.00000   2.64939
   R21        2.86086   0.00000   0.00000   0.00000   0.00000   2.86086
   R22        2.62515  -0.00000   0.00000  -0.00000  -0.00000   2.62515
   R23        2.85199  -0.00000   0.00000  -0.00001  -0.00001   2.85198
   R24        2.62375   0.00000   0.00000   0.00000   0.00000   2.62375
   R25        2.04548   0.00000   0.00000   0.00000   0.00000   2.04548
   R26        2.03904  -0.00000   0.00000  -0.00000  -0.00000   2.03904
   R27        2.52672   0.00000   0.00000   0.00001   0.00001   2.52673
   R28        2.53238  -0.00000   0.00000  -0.00001  -0.00001   2.53237
   R29        2.53545   0.00001   0.00000   0.00001   0.00001   2.53546
   R30        2.53798   0.00000   0.00000   0.00000   0.00000   2.53798
   R31        2.52157  -0.00000   0.00000  -0.00000  -0.00000   2.52157
   R32        2.52833   0.00000   0.00000   0.00000   0.00000   2.52834
    A1        2.04301  -0.00000   0.00000  -0.00000  -0.00000   2.04301
    A2        2.16223  -0.00000   0.00000  -0.00000  -0.00000   2.16223
    A3        2.07794   0.00000   0.00000   0.00000   0.00000   2.07794
    A4        2.22230  -0.00000   0.00000  -0.00001  -0.00001   2.22229
    A5        2.05045   0.00000   0.00000   0.00001   0.00001   2.05046
    A6        2.01041  -0.00000   0.00000  -0.00000  -0.00000   2.01040
    A7        2.20472   0.00000   0.00000   0.00002   0.00002   2.20474
    A8        1.89921  -0.00002   0.00000  -0.00007  -0.00007   1.89914
    A9        2.17926   0.00001   0.00000   0.00005   0.00005   2.17931
   A10        2.01489   0.00000   0.00000   0.00002   0.00002   2.01490
   A11        1.87929   0.00000   0.00000   0.00001   0.00001   1.87930
   A12        1.89807  -0.00000   0.00000  -0.00000  -0.00000   1.89806
   A13        1.89822  -0.00000   0.00000  -0.00002  -0.00002   1.89821
   A14        1.95180  -0.00000   0.00000   0.00001   0.00001   1.95180
   A15        1.95179   0.00000   0.00000   0.00001   0.00001   1.95179
   A16        1.88353  -0.00000   0.00000  -0.00000  -0.00000   1.88353
   A17        1.93539  -0.00000   0.00000   0.00000   0.00000   1.93540
   A18        1.90246   0.00000   0.00000   0.00000   0.00000   1.90247
   A19        1.90258  -0.00000   0.00000  -0.00001  -0.00001   1.90258
   A20        1.92708  -0.00000   0.00000   0.00000   0.00000   1.92708
   A21        1.92710   0.00000   0.00000   0.00000   0.00000   1.92710
   A22        1.86772  -0.00000   0.00000  -0.00000  -0.00000   1.86772
   A23        1.94267   0.00000   0.00000   0.00001   0.00001   1.94268
   A24        1.93738   0.00000   0.00000   0.00000   0.00000   1.93738
   A25        1.94264  -0.00000   0.00000  -0.00000  -0.00000   1.94264
   A26        1.87900  -0.00000   0.00000  -0.00000  -0.00000   1.87899
   A27        1.88024  -0.00000   0.00000  -0.00000  -0.00000   1.88024
   A28        1.87902  -0.00000   0.00000  -0.00000  -0.00000   1.87902
   A29        2.11753  -0.00000   0.00000  -0.00000  -0.00000   2.11753
   A30        2.08598   0.00000   0.00000  -0.00000  -0.00000   2.08598
   A31        2.07964   0.00000   0.00000   0.00000   0.00000   2.07964
   A32        2.09107  -0.00000   0.00000  -0.00000  -0.00000   2.09107
   A33        2.04328   0.00000   0.00000   0.00002   0.00002   2.04330
   A34        2.14839  -0.00000   0.00000  -0.00002  -0.00002   2.14837
   A35        2.06700   0.00000   0.00000   0.00000   0.00000   2.06700
   A36        2.15559  -0.00000   0.00000  -0.00000  -0.00000   2.15559
   A37        2.06018  -0.00000   0.00000   0.00000   0.00000   2.06018
   A38        2.13234   0.00000   0.00000   0.00000   0.00000   2.13235
   A39        2.07962  -0.00000   0.00000  -0.00000  -0.00000   2.07962
   A40        2.07119   0.00000   0.00000   0.00000   0.00000   2.07119
   A41        2.08041  -0.00000   0.00000  -0.00001  -0.00001   2.08041
   A42        2.10218  -0.00000   0.00000  -0.00000  -0.00000   2.10218
   A43        2.10059   0.00000   0.00000   0.00001   0.00001   2.10060
   A44        1.96300   0.00001   0.00000   0.00003   0.00003   1.96303
   A45        1.95667  -0.00000   0.00000  -0.00001  -0.00001   1.95666
   A46        1.93778  -0.00000   0.00000  -0.00002  -0.00002   1.93776
   A47        1.87624  -0.00000   0.00000   0.00000   0.00000   1.87624
   A48        1.86493  -0.00000   0.00000  -0.00001  -0.00001   1.86492
   A49        1.85951   0.00000   0.00000   0.00001   0.00001   1.85953
   A50        1.93973   0.00000   0.00000   0.00001   0.00001   1.93974
   A51        1.96050  -0.00000   0.00000  -0.00001  -0.00001   1.96050
   A52        1.95081  -0.00000   0.00000  -0.00001  -0.00001   1.95080
   A53        1.86479  -0.00000   0.00000  -0.00001  -0.00001   1.86478
   A54        1.85987   0.00000   0.00000   0.00001   0.00001   1.85988
   A55        1.88294   0.00000   0.00000  -0.00000  -0.00000   1.88294
    D1        3.13068   0.00000   0.00000   0.00002   0.00002   3.13069
    D2       -0.00137   0.00000   0.00000   0.00006   0.00006  -0.00132
    D3       -0.00872  -0.00000   0.00000   0.00000   0.00000  -0.00871
    D4       -3.14077   0.00000   0.00000   0.00005   0.00005  -3.14072
    D5       -3.13816   0.00000   0.00000   0.00001   0.00001  -3.13815
    D6       -0.00540  -0.00000   0.00000  -0.00001  -0.00001  -0.00542
    D7        0.00135   0.00000   0.00000   0.00002   0.00002   0.00137
    D8        3.13410  -0.00000   0.00000  -0.00000  -0.00000   3.13410
    D9       -3.14137   0.00000   0.00000   0.00001   0.00001  -3.14136
   D10       -0.00055  -0.00000   0.00000  -0.00002  -0.00002  -0.00057
   D11        0.00246   0.00000   0.00000   0.00000   0.00000   0.00246
   D12       -3.13990  -0.00000   0.00000  -0.00004  -0.00004  -3.13994
   D13        0.00719  -0.00000   0.00000  -0.00001  -0.00001   0.00718
   D14       -3.13451   0.00000   0.00000   0.00002   0.00002  -3.13449
   D15        3.13943  -0.00000   0.00000  -0.00005  -0.00005   3.13937
   D16       -0.00227  -0.00000   0.00000  -0.00002  -0.00002  -0.00229
   D17       -3.14146   0.00000   0.00000   0.00002   0.00002  -3.14144
   D18        0.00003   0.00000   0.00000   0.00005   0.00005   0.00008
   D19       -3.13584  -0.00000   0.00000  -0.00001  -0.00001  -3.13585
   D20        1.02931  -0.00000   0.00000  -0.00002  -0.00002   1.02929
   D21       -1.01773   0.00000   0.00000  -0.00001  -0.00001  -1.01773
   D22       -3.14087  -0.00000   0.00000  -0.00000  -0.00000  -3.14088
   D23        1.01728  -0.00000   0.00000  -0.00001  -0.00001   1.01727
   D24       -1.01574  -0.00000   0.00000  -0.00000  -0.00000  -1.01575
   D25       -1.05673   0.00000   0.00000   0.00000   0.00000  -1.05672
   D26        3.10143  -0.00000   0.00000  -0.00000  -0.00000   3.10143
   D27        1.06840   0.00000   0.00000   0.00000   0.00000   1.06841
   D28        1.05798   0.00000   0.00000   0.00001   0.00001   1.05798
   D29       -1.06705   0.00000   0.00000   0.00000   0.00000  -1.06705
   D30       -3.10008   0.00000   0.00000   0.00001   0.00001  -3.10007
   D31       -1.04847  -0.00000   0.00000  -0.00001  -0.00001  -1.04848
   D32       -3.14115  -0.00000   0.00000  -0.00001  -0.00001  -3.14116
   D33        1.04934  -0.00000   0.00000  -0.00001  -0.00001   1.04933
   D34        1.06208   0.00000   0.00000  -0.00000  -0.00000   1.06208
   D35       -1.03060  -0.00000   0.00000  -0.00001  -0.00001  -1.03060
   D36       -3.12329   0.00000   0.00000  -0.00000  -0.00000  -3.12330
   D37        3.12401   0.00000   0.00000  -0.00000  -0.00000   3.12400
   D38        1.03133   0.00000   0.00000  -0.00001  -0.00001   1.03132
   D39       -1.06137   0.00000   0.00000  -0.00001  -0.00001  -1.06137
   D40       -0.00959  -0.00000   0.00000  -0.00005  -0.00005  -0.00964
   D41       -3.12009  -0.00000   0.00000  -0.00006  -0.00006  -3.12015
   D42        3.14081  -0.00000   0.00000  -0.00003  -0.00003   3.14078
   D43        0.03031  -0.00000   0.00000  -0.00004  -0.00004   0.03027
   D44        0.01373   0.00000   0.00000   0.00006   0.00006   0.01379
   D45        3.12344   0.00000   0.00000   0.00016   0.00016   3.12360
   D46        3.12228   0.00000   0.00000   0.00007   0.00007   3.12234
   D47       -0.05119   0.00000   0.00000   0.00017   0.00017  -0.05102
   D48       -0.31972   0.00000   0.00000   0.00024   0.00024  -0.31947
   D49       -2.40796   0.00000   0.00000   0.00025   0.00025  -2.40771
   D50        1.75577   0.00000   0.00000   0.00026   0.00026   1.75604
   D51        2.85407   0.00000   0.00000   0.00023   0.00023   2.85431
   D52        0.76583   0.00000   0.00000   0.00024   0.00024   0.76608
   D53       -1.35362   0.00000   0.00000   0.00026   0.00026  -1.35336
   D54       -0.01016  -0.00000   0.00000  -0.00004  -0.00004  -0.01019
   D55        3.13931  -0.00000   0.00000   0.00001   0.00001   3.13932
   D56       -3.12164  -0.00000   0.00000  -0.00013  -0.00013  -3.12177
   D57        0.02783  -0.00000   0.00000  -0.00009  -0.00009   0.02774
   D58        0.76049   0.00000   0.00000   0.00008   0.00008   0.76057
   D59       -1.35632  -0.00000   0.00000   0.00007   0.00007  -1.35625
   D60        2.84925  -0.00000   0.00000   0.00007   0.00007   2.84932
   D61       -2.41286   0.00000   0.00000   0.00018   0.00018  -2.41268
   D62        1.75352   0.00000   0.00000   0.00017   0.00017   1.75368
   D63       -0.32410   0.00000   0.00000   0.00017   0.00017  -0.32393
   D64        0.00207   0.00000   0.00000   0.00001   0.00001   0.00208
   D65       -3.13876   0.00000   0.00000   0.00004   0.00004  -3.13871
   D66        3.13582  -0.00000   0.00000  -0.00004  -0.00004   3.13579
   D67       -0.00500   0.00000   0.00000   0.00000   0.00000  -0.00500
         Item               Value     Threshold  Converged?
 Maximum Force            0.000018     0.000450     YES
 RMS     Force            0.000002     0.000300     YES
 Maximum Displacement     0.000657     0.001800     YES
 RMS     Displacement     0.000135     0.001200     YES
 Predicted change in Energy=-4.314068D-09
 Optimization completed.
    -- Stationary point found.
                           ----------------------------
                           !   Optimized Parameters   !
                           ! (Angstroms and Degrees)  !
 --------------------------                            --------------------------
 ! Name  Definition              Value          Derivative Info.                !
 --------------------------------------------------------------------------------
 ! R1    R(1,2)                  1.3959         -DE/DX =    0.0                 !
 ! R2    R(1,9)                  1.3997         -DE/DX =    0.0                 !
 ! R3    R(1,13)                 1.3943         -DE/DX =    0.0                 !
 ! R4    R(2,3)                  1.375          -DE/DX =    0.0                 !
 ! R5    R(2,14)                 1.0095         -DE/DX =    0.0                 !
 ! R6    R(3,4)                  1.2029         -DE/DX =    0.0                 !
 ! R7    R(3,5)                  1.3413         -DE/DX =    0.0                 !
 ! R8    R(5,6)                  1.4371         -DE/DX =    0.0                 !
 ! R9    R(6,7)                  1.5132         -DE/DX =    0.0                 !
 ! R10   R(6,15)                 1.0927         -DE/DX =    0.0                 !
[...]
 4099,-0.00009280,0.00000503,0.00000193,0.00008203,-0.00000008,-0.00236
 503,0.00004217,-0.00082065,0.00212544,-0.00288303,-0.00073438,-0.03296
 946,-0.01958031,0.03215517,-0.00224767,0.00652887,0.00207827,-0.001864
 74,-0.00015621,-0.00169037,-0.00006262,-0.00022407,0.00003697,-0.00007
 331,-0.00003005,0.00000702,-0.00006577,-0.00003059,0.00000156,0.000008
 69,0.00000670,-0.00000013,0.00000777,0.00001036,-0.00000357,0.00000727
 ,-0.00001717,0.00000211,-0.00005176,0.00001845,0.00000375,0.00000555,-
 0.00001957,-0.00000446,-0.00027557,0.00010703,0.00000749,-0.00037659,0
 .00036200,-0.00019325,-0.18391972,-0.04658889,0.09473269,-0.00887912,0
 .00080222,0.00308696,0.00062239,-0.00011392,0.00067802,0.20607602,0.00
 028547,0.00060181,-0.00012066,-0.00000467,0.00015666,0.00000474,-0.000
 09374,-0.00015400,0.00005267,0.00004303,0.00010363,-0.00002040,0.00004
 661,0.00003477,-0.00000705,-0.00003096,-0.00001962,0.00000397,0.000003
 57,-0.00000139,0.00000193,-0.00000251,-0.00000109,0.00000037,-0.000965
 15,0.00079595,-0.00034400,-0.00071365,-0.00039118,0.00034132,0.0048397
 4,0.01148124,-0.00182952,0.00036890,-0.00152826,-0.00050172,0.00083387
 ,0.00054617,0.00011335,-0.00004098,-0.00002008,0.00001102,0.00000258,-
 0.00000044,0.00000335,0.00000350,0.00000156,-0.00000524,-0.00000122,0.
 00000032,0.00000362,-0.00000195,0.00000219,-0.00000499,0.00000160,0.00
 000120,-0.00000363,0.00000005,0.00000066,0.00000043,0.00000111,-0.0000
 0010,0.00000245,-0.00018017,0.00001516,0.00003283,0.00009304,-0.000091
 12,0.00006639,-0.04838219,-0.10060597,0.04764695,-0.00603915,0.0023767
 6,0.00307236,0.00073378,0.00029741,-0.00005152,0.09345761,0.15452207,-
 0.00105451,-0.00003869,-0.00005279,0.00108034,-0.00024536,-0.00000524,
 -0.00099660,-0.00004135,0.00000017,0.00033779,0.00006361,0.00002856,0.
 00055898,-0.00026191,-0.00000271,-0.00023263,-0.00003695,-0.00000704,0
 .00001199,0.00003157,-0.00000719,0.00000007,-0.00002789,-0.00000157,0.
 00104994,-0.00039480,0.00011863,-0.00118820,0.00145589,0.00084869,0.01
 384330,0.00965181,-0.00276344,0.00247303,-0.00303390,-0.00046908,0.000
 43544,0.00094432,0.00013252,0.00002116,0.00006689,-0.00005689,0.000024
 21,0.00001362,-0.00000052,0.00001820,0.00000812,0.00000469,-0.00000281
 ,0.00000102,0.00000132,-0.00000123,-0.00000786,0.00000493,-0.00000434,
 0.00000371,0.00000216,0.00001758,-0.00000673,-0.00000256,-0.00000080,0
 .00000896,0.00000238,0.00014676,-0.00005097,-0.00008926,0.00018008,-0.
 00019992,0.00000700,0.09599181,0.04378287,-0.15589941,0.00275593,-0.00
 032915,-0.00707533,-0.00031889,-0.00007977,-0.00016175,-0.13829931,-0.
 09515776,0.22898499,0.00356528,-0.00037612,-0.00034406,-0.00466761,0.0
 0067341,0.00004965,0.00370774,0.00115668,-0.00036314,-0.00090145,-0.00
 089047,0.00008477,-0.00179983,0.00066978,0.00014057,0.00074075,0.00013
 747,-0.00003808,-0.00004589,-0.00009668,0.00000034,0.00000367,0.000083
 57,-0.00000406,-0.00347152,0.00003572,0.00180451,0.00057790,-0.0034023
 5,-0.00084180,-0.02274597,0.00619112,-0.03718677,0.00078601,0.00312221
 ,-0.00103465,-0.00064733,0.00103093,0.00205262,-0.00003209,-0.00024672
 ,-0.00001490,-0.00007412,-0.00002984,0.00000496,-0.00008028,-0.0000299
 5,0.00000597,0.00000933,0.00001015,0.00000026,0.00001019,0.00000531,0.
 00000136,0.00000529,-0.00002012,0.00000596,-0.00005271,0.00001765,0.00
 000211,0.00000646,-0.00001733,-0.00000395,-0.00034405,0.00012574,0.000
 19986,-0.00015339,0.00011890,0.00006233,-0.13561314,0.00764330,-0.0939
 3534,-0.00716027,-0.00061569,-0.00301797,0.00007527,-0.00020778,-0.001
 06644,0.02041692,-0.00304271,0.02044070,0.13843335,-0.00079759,0.00100
 069,0.00008003,0.00155407,-0.00017721,-0.00000286,-0.00127992,-0.00050
 446,0.00008906,0.00031438,0.00037673,-0.00001534,0.00060902,-0.0001918
 6,-0.00005383,-0.00025656,-0.00005854,0.00001476,0.00001702,0.00002981
 ,-0.00000187,-0.00000270,-0.00002784,0.00000103,0.00025134,0.00074704,
 -0.00040048,-0.00131884,0.00018641,-0.00078492,0.01217885,0.01012935,0
 .01358494,-0.00004662,-0.00258310,0.00115760,0.00122418,-0.00025921,-0
 .00080529,-0.00000186,0.00006848,0.00000308,0.00002650,0.00001055,0.00
 000202,0.00002829,0.00000866,-0.00000465,-0.00000365,-0.00000173,0.000
 00334,-0.00000460,-0.00000130,-0.00000289,-0.00000099,0.00000619,-0.00
 000388,0.00001658,-0.00000493,-0.00000094,-0.00000062,0.00000610,0.000
 00364,-0.00006498,-0.00002621,0.00003653,0.00013725,-0.00013815,-0.000
 12950,0.00845511,-0.07475508,0.00669339,-0.00196826,0.00135017,-0.0014
 8553,0.00055523,0.00018164,0.00030639,0.00120243,0.00590305,0.02732236
 ,0.00685786,0.08542799,0.00172671,-0.00049204,-0.00029963,-0.00230789,
 0.00038033,0.00012186,0.00189979,0.00050480,-0.00019205,-0.00050521,-0
 .00039337,0.00011643,-0.00095233,0.00036659,0.00009794,0.00038637,0.00
 007469,-0.00006666,-0.00002535,-0.00005153,-0.00000791,0.00000135,0.00
 004551,-0.00000295,-0.00159541,0.00036845,0.00073074,-0.00007175,-0.00
 144491,0.00034057,-0.01597675,0.00123568,-0.01138632,-0.00062545,0.002
 34889,-0.00031140,-0.00096705,0.00043100,0.00092097,-0.00001894,-0.000
 11804,-0.00007436,-0.00003481,-0.00001341,0.00000790,-0.00004500,-0.00
 002085,0.00000715,0.00000426,0.00001161,0.00000350,0.00000588,-0.00000
 198,0.00000455,0.00000054,-0.00001393,0.00000575,-0.00002783,0.0000091
 0,-0.00000047,0.00000537,-0.00000602,0.00000075,-0.00024095,0.00010389
 ,-0.00000956,-0.00015246,0.00013862,0.00001412,-0.09154440,0.00790709,
 -0.21903556,-0.00332848,-0.00069133,-0.00589046,0.00027891,-0.00002904
 ,-0.00092952,0.00300500,0.02190682,-0.07846613,0.13262072,0.00663186,0
 .34766220,0.00111442,0.00022670,0.00005107,-0.00164592,0.00028195,0.00
 006777,0.00167439,0.00027005,-0.00009845,-0.00049914,-0.00026111,0.000
 04572,-0.00091278,0.00035209,0.00005034,0.00038743,0.00007619,-0.00002
 453,-0.00002290,-0.00004837,0.00000194,0.00000230,0.00004356,-0.000000
 70,-0.00094197,0.00175865,-0.00042157,-0.00392042,-0.00074782,0.001216
 09,0.00312003,0.03272051,0.00684562,-0.00525674,0.00044606,0.00172364,
 0.00100987,0.00146260,-0.00020439,-0.00000228,-0.00009471,-0.00000948,
 -0.00003606,-0.00001732,0.00000273,-0.00003580,-0.00001768,0.00000234,
 0.00000481,0.00000447,-0.00000074,0.00000525,0.00000397,0.00000040,0.0
 0000330,-0.00001055,0.00000261,-0.00002808,0.00001023,0.00000157,0.000
 00317,-0.00001033,-0.00000263,-0.00050296,0.00013837,-0.00012674,0.000
 11871,-0.00005891,0.00003010,-0.08131230,0.00381718,0.00138975,-0.0043
 8604,-0.00029236,0.00057278,-0.00358726,0.00389545,0.00070272,-0.00444
 394,-0.04810735,0.00524937,0.00282556,-0.02920891,-0.02451538,0.093548
 71,-0.00258279,0.00051206,-0.00009706,0.00334051,0.00005860,-0.0001985
 3,-0.00274995,-0.00134560,0.00011732,0.00065634,0.00099242,-0.00002291
 ,0.00127070,-0.00031129,-0.00005823,-0.00053536,-0.00013324,0.00003071
 ,0.00003915,0.00005940,-0.00000479,-0.00000735,-0.00005656,-0.00000046
 ,0.00088394,-0.00141144,0.00056473,0.00639027,0.00215961,-0.00187490,0
 .00245554,-0.04135823,-0.01126475,-0.00394024,-0.00384889,0.00075337,0
 .00102198,0.00058323,0.00051254,-0.00013748,0.00014017,0.00000220,0.00
 006168,0.00001943,0.00000815,0.00005645,0.00001808,-0.00001278,-0.0000
 0940,0.00000046,0.00001109,-0.00001027,-0.00000308,-0.00000789,-0.0000
 0153,0.00001150,-0.00000925,0.00003336,-0.00000882,-0.00000241,0.00000
 106,0.00001339,0.00001078,0.00071412,-0.00023290,0.00021116,0.00016963
 ,-0.00012780,-0.00008368,0.01056985,-0.26304328,-0.04984724,-0.0015143
 8,0.00385611,-0.00025860,0.00227542,0.00126901,-0.00069587,-0.03475560
 ,-0.05959953,0.01905680,-0.01877704,-0.01829612,-0.04053252,0.03385660
 ,0.38334095,-0.00000408,0.00045224,-0.00006184,0.00030443,0.00000520,0
 .00000590,-0.00032686,-0.00013211,0.00002237,0.00009834,0.00009848,0.0
 0002309,0.00017043,-0.00004302,0.00000543,-0.00007473,-0.00002070,-0.0
 0001728,0.00000600,0.00000728,-0.00000467,-0.00000103,-0.00000776,-0.0
 0000105,-0.00061770,-0.00049872,-0.00033375,0.00193994,-0.00014208,0.0
 0141895,-0.00029687,-0.00799927,0.00642065,-0.00047357,-0.00057140,0.0
 0043063,0.00033137,-0.00029606,0.00021929,-0.00001719,0.00000817,-0.00
 004745,0.00001025,0.00000470,0.00000417,0.00000534,0.00000083,0.000000
 18,-0.00000150,0.00000320,0.00000342,-0.00000060,-0.00000290,0.0000006
 5,-0.00000120,0.00000009,0.00000010,0.00000442,-0.00000122,-0.00000111
 ,0.00000140,0.00000348,0.00000297,0.00013778,-0.00005355,-0.00022268,0
 .00002365,-0.00003195,-0.00000589,0.00330994,-0.04903683,-0.08616570,-
 0.00028717,0.00054105,-0.00176267,0.00083220,-0.00039236,-0.00057466,0
 .00828359,0.03077078,0.01159314,-0.02157162,-0.05564410,-0.03852058,0.
 00787867,0.08357990,0.10576182,0.00231437,-0.00133885,-0.00012648,-0.0
 0094537,-0.00010824,0.00001849,0.00134791,0.00036599,-0.00007012,-0.00
 039888,-0.00033940,0.00002786,-0.00071700,0.00019887,0.00003383,0.0003
 2430,0.00006743,-0.00002253,-0.00001973,-0.00003375,0.00000284,0.00000
 412,0.00003342,-0.00000036,-0.00647579,-0.00161865,-0.00123618,0.00779
 969,-0.02138029,-0.00389846,-0.00280198,-0.00065668,-0.00026141,0.0000
 5509,-0.00147205,0.00027714,-0.00029510,-0.00059254,-0.00001170,0.0002
 7342,-0.00000082,0.00001723,-0.00003177,-0.00001566,-0.00000095,-0.000
 03063,-0.00001441,0.00000392,0.00000688,0.00000153,-0.00000582,0.00000
 670,0.00000289,0.00000385,0.00000172,-0.00000897,0.00000338,-0.0000224
 5,0.00000882,0.00000155,0.00000064,-0.00000966,-0.00000377,-0.00264905
 ,-0.00490274,-0.00032992,0.00010790,-0.00019256,-0.00000216,-0.0044729
 9,-0.00154045,-0.00021099,-0.08494760,0.02983491,0.00875124,-0.0002944
 8,-0.00014141,0.00006407,0.00151453,0.00116505,-0.00049135,0.00126563,
 0.00051989,0.00062552,0.00079916,0.00030484,0.00007642,0.11738932,0.00
 174035,-0.00015489,0.00047250,-0.00228534,0.00033857,0.00016244,0.0018
 9490,-0.00031535,-0.00018167,-0.00060411,0.00016921,0.00005532,-0.0011
 7856,0.00069789,0.00008460,0.00041243,0.00005341,-0.00003206,-0.000026
 38,-0.00008716,-0.00000591,-0.00001016,0.00006129,0.00000111,0.0015905
 7,-0.00333361,0.00004866,0.00938760,-0.04644135,-0.01276678,-0.0084635
 4,0.00070389,-0.00082490,0.00076122,-0.00227486,0.00065726,-0.00018025
 ,-0.00001811,-0.00020413,-0.00020696,-0.00036240,-0.00005423,-0.000033
 67,-0.00001466,0.00001797,-0.00003806,-0.00001999,-0.00001025,-0.00000
 327,0.00001189,0.00002695,-0.00000413,0.00000682,-0.00002168,0.0000094
 4,-0.00000940,-0.00000738,-0.00003842,0.00000997,0.00000096,0.00001266
 ,-0.00000580,0.00000820,-0.00341116,-0.00039811,-0.00056964,0.00008368
 ,0.00015195,-0.00007606,-0.00022277,0.00382660,-0.00038499,0.02267448,
 -0.25673381,-0.04823943,-0.00071426,-0.00036467,0.00025743,-0.00009502
 ,-0.00090908,0.00004834,0.00015729,-0.00079752,0.00042200,0.00016723,-
 0.00141914,-0.00025434,-0.08343145,0.35490323,-0.00011375,-0.00034816,
 0.00011661,-0.00020600,0.00006475,0.00014006,0.00012719,-0.00007444,-0
 .00003344,-0.00003512,0.00005024,0.00002562,-0.00008798,0.00007895,0.0
 0003776,0.00001717,-0.00000094,-0.00002443,-0.00000222,-0.00000880,-0.
 00001334,-0.00000198,0.00000496,0.00000180,0.00099572,-0.00019828,0.00
 083599,0.00196691,-0.00491375,0.00660924,-0.00133562,-0.00027903,0.001
 49792,0.00073332,-0.00023291,-0.00043122,-0.00030414,0.00038443,0.0000
 5253,-0.00004519,-0.00005285,-0.00014153,0.00000079,0.00000375,0.00000
 560,-0.00000371,-0.00000531,0.00000113,-0.00000251,0.00000555,0.000008
 51,0.00000011,-0.00000318,-0.00000003,-0.00000056,-0.00000276,0.000000
 23,-0.00000290,0.00000014,-0.00000187,0.00000367,0.00000320,0.00000338
 ,-0.00060598,-0.00009959,-0.00053855,-0.00001035,0.00002978,-0.0000302
 1,0.00043623,0.00068663,-0.00177037,0.00715595,-0.04876981,-0.08612404
 ,-0.00010285,-0.00005268,-0.00019177,-0.00051339,-0.00058754,0.0009346
 2,0.00024035,0.00003874,0.00071900,-0.00008040,-0.00026934,0.00016714,
 -0.02534221,0.08477284,0.10863554,0.00010622,0.00017263,0.00168323,-0.
 00208586,-0.00078518,0.00033205,0.00229329,0.00045407,-0.00014832,-0.0
 0075763,-0.00036976,0.00008544,-0.00145298,0.00044723,0.00008296,0.000
 61302,0.00014489,-0.00006598,-0.00004350,-0.00007377,-0.00000267,0.000
 00466,0.00006995,-0.00000054,-0.00177209,-0.00693886,-0.00105528,-0.03
 791356,0.01116175,-0.02793801,0.00062142,0.00153726,0.00088369,-0.0006
 5808,-0.00049327,0.00101833,-0.00047508,-0.00043862,-0.00014223,0.0002
 4347,-0.00008497,-0.00007421,-0.00005452,-0.00002718,0.00000332,-0.000
 05552,-0.00003182,0.00000782,0.00000952,0.00000841,-0.00000298,0.00001
 112,0.00000312,0.00000612,0.00000317,-0.00001911,0.00000686,-0.0000448
 3,0.00001666,0.00000143,0.00000458,-0.00001528,-0.00000430,0.00065314,
 0.00030725,-0.00085911,0.00022520,-0.00009998,-0.00018016,-0.01019758,
 -0.00341428,-0.00342486,-0.22591874,0.02502435,-0.09908156,-0.00026684
 ,-0.00016619,-0.00004101,0.00386941,0.00228854,0.00043063,0.00366801,0
 .00107379,0.00236470,0.00172337,0.00061942,0.00055647,-0.02737839,0.04
 423458,-0.01171637,0.27983359,-0.00031574,0.00000345,0.00050056,-0.001
 01389,-0.00002096,0.00012465,0.00069901,0.00000876,0.00001197,-0.00019
 780,0.00000940,0.00000372,-0.00045421,0.00023369,0.00001578,0.00015140
 ,0.00002433,-0.00001527,-0.00001168,-0.00003285,0.00000123,-0.00000373
 ,0.00002324,0.00000075,-0.00091113,-0.00295106,-0.00063122,-0.01575924
 ,0.01191674,-0.00737742,0.00088236,0.00054656,0.00027792,0.00057666,0.
 00085137,-0.00027489,-0.00052828,0.00055160,-0.00006467,-0.00006502,-0
 .00012746,-0.00000344,-0.00001489,-0.00000701,0.00000524,-0.00001353,-
 0.00000663,-0.00000408,-0.00000055,0.00000298,0.00000793,-0.00000138,0
 .00000370,-0.00000831,0.00000376,-0.00000271,-0.00000311,-0.00001405,0
 .00000365,0.00000098,0.00000371,-0.00000313,0.00000229,-0.00068249,0.0
 0015653,-0.00018117,0.00001340,0.00005588,0.00002506,0.00339382,0.0026
 4494,0.00171110,0.02823167,-0.08396078,0.02281167,0.00011530,0.0000358
 8,0.00001951,-0.00036775,-0.00635493,-0.00461012,-0.00087814,-0.007330
 76,0.00018772,-0.00059956,-0.00098111,-0.00035606,0.05879727,-0.038869
 66,0.02316075,-0.07858424,0.11589493,-0.00000564,0.00088825,-0.0001280
 5,-0.00071730,-0.00038236,0.00015078,0.00066621,0.00027733,-0.00010889
 ,-0.00020769,-0.00018715,0.00005834,-0.00041108,0.00008678,0.00005331,
 0.00017254,0.00004667,-0.00003159,-0.00001417,-0.00002030,-0.00000995,
 0.00000199,0.00001939,-0.00000069,-0.00168363,-0.00284999,0.00006920,-
 0.01189526,0.00554154,0.00130717,0.00067326,0.00094597,0.00078938,-0.0
 0041720,-0.00046059,0.00006177,0.00017694,-0.00035561,0.00000635,0.000
 10024,-0.00001371,-0.00009773,-0.00001377,-0.00000455,0.00000262,-0.00
 001880,-0.00001267,0.00000667,0.00000238,0.00000621,0.00000071,0.00000
 518,-0.00000345,0.00000689,-0.00000138,-0.00000831,0.00000480,-0.00001
 226,0.00000452,-0.00000146,0.00000255,-0.00000187,-0.00000029,0.000251
 97,-0.00000977,-0.00012936,0.00005111,-0.00005642,-0.00003025,-0.00237
 220,-0.00066218,-0.00645323,-0.09960535,0.01895086,-0.13765814,-0.0000
 9824,-0.00005945,-0.00007417,0.00019668,-0.00469011,-0.00085858,0.0018
 8931,0.00263078,0.00277685,0.00038858,0.00009201,0.00082465,-0.0063711
 9,0.01378057,0.01311355,0.15520258,-0.05365985,0.20048814,0.00106820,-
 0.00034158,-0.00208974,-0.00138580,-0.00027336,0.00004142,0.00177404,0
 .00006055,0.00001093,-0.00062411,-0.00014338,0.00001078,-0.00109941,0.
 00041533,0.00004684,0.00047515,0.00009470,-0.00003276,-0.00002866,-0.0
 0006021,0.00000670,0.00000340,0.00005379,0.00000028,0.00050422,-0.0023
 1393,0.00043631,-0.01112033,-0.00944957,0.03406532,-0.00100224,0.00160
 353,0.00053201,-0.00159643,-0.00068814,-0.00142320,-0.00005645,-0.0009
 8982,0.00035819,0.00013740,-0.00008450,0.00002350,-0.00004297,-0.00002
 393,0.00000291,-0.00003993,-0.00002086,-0.00000011,0.00000699,0.000003
 30,-0.00000262,0.00000567,0.00000723,-0.00000176,0.00000530,-0.0000117
 3,0.00000164,-0.00003534,0.00001302,0.00000298,0.00000312,-0.00001437,
 -0.00000372,0.00017973,0.00025492,0.00095421,0.00021378,-0.00002221,0.
 00019170,-0.00665081,-0.00126445,0.00338584,-0.11283359,-0.01639655,0.
 08059917,-0.00028469,-0.00016397,-0.00009853,0.00259709,0.00343836,-0.
 00247665,0.00169228,-0.00006569,0.00001030,0.00119408,0.00030054,-0.00
 029654,-0.00173017,0.01782107,0.02883582,0.01519200,0.00754895,-0.0359
 3637,0.11347850,-0.00019717,-0.00070281,-0.00116922,-0.00117257,-0.000
 09104,-0.00005775,0.00115125,-0.00007760,-0.00004704,-0.00038404,0.000
 02118,0.00000691,-0.00075693,0.00035828,0.00004123,0.00029087,0.000054
 42,-0.00001411,-0.00001994,-0.00004870,0.00000511,-0.00000240,0.000037
 67,-0.00000013,0.00013561,-0.00304332,0.00086584,-0.01489027,0.0054603
 6,0.02329793,0.00060993,0.00049938,-0.00077533,-0.00010739,0.00058685,
 -0.00072808,-0.00066379,0.00025323,0.00015553,-0.00000824,-0.00013116,
 0.00003750,-0.00002537,-0.00001425,0.00000582,-0.00002567,-0.00001222,
 -0.00000411,0.00000174,0.00000410,0.00000651,0.00000039,0.00000558,-0.
 00000865,0.00000513,-0.00000607,-0.00000253,-0.00002413,0.00000740,0.0
 0000180,0.00000456,-0.00000744,0.00000115,-0.00057860,0.00011365,0.000
 66955,0.00011140,0.00004348,0.00010313,-0.00001331,0.00150947,-0.00090
 872,-0.01691589,-0.08052258,0.02724314,0.00001353,-0.00003410,0.000022
 76,0.00173507,-0.00716382,0.00206323,0.00059384,-0.00027882,0.00073432
 ,-0.00005688,-0.00085739,0.00000904,0.02649768,-0.00840514,-0.05338534
 ,0.00397863,0.00768143,0.02016747,0.00071296,0.08476000,-0.00015378,0.
 00042869,0.00098670,0.00135516,0.00033278,0.00017995,-0.00146043,-0.00
 019592,-0.00001145,0.00049327,0.00018121,0.00004843,0.00091680,-0.0003
 2266,0.00000249,-0.00037494,-0.00008397,-0.00002394,0.00002489,0.00004
 986,-0.00002435,-0.00000150,-0.00004437,0.00000170,0.00058486,0.002897
 97,0.00003276,0.01497275,0.00442878,-0.01826113,0.00091415,-0.00079579
 ,0.00066370,0.00075578,0.00071900,0.00079261,0.00019942,0.00032340,-0.
 00016869,-0.00014515,0.00004799,-0.00020108,0.00003953,0.00002743,0.00
 000247,0.00002925,0.00001157,0.00000573,-0.00000703,0.00000364,0.00000
 901,-0.00000212,-0.00001379,0.00000699,-0.00000645,0.00000427,0.000002
 49,0.00002742,-0.00000952,-0.00000550,0.00000145,0.00001613,0.00000558
 ,-0.00036196,-0.00019451,-0.00112525,-0.00013812,0.00003681,-0.0001630
 1,0.00351610,0.00015106,-0.00663627,0.07841126,0.02872434,-0.24252291,
 0.00022840,0.00015972,-0.00005397,-0.00229195,-0.00071120,0.00325571,-
 0.00018357,0.00073653,0.00166329,-0.00073880,0.00029048,0.00081477,0.0
 2847823,-0.03718367,-0.04360540,-0.01792802,0.01832074,-0.07413881,-0.
 10715488,-0.01833697,0.37846736\\-0.00000125,-0.00000328,0.00000239,-0
 .00000945,0.00000535,-0.00000245,-0.00000126,-0.00000831,-0.00000180,0
 .00000339,-0.00000137,0.00000296,0.00001136,0.00000253,0.00000081,-0.0
 0000307,0.00000308,-0.00000250,-0.00000147,0.00000178,-0.00000205,-0.0
 0000016,0.00000065,-0.00000028,0.00000226,-0.00000016,-0.00000317,-0.0
 0000281,0.00000118,-0.00000066,-0.00000075,-0.00000415,0.00000631,0.00
 000243,0.00000190,0.00000337,-0.00000214,-0.00000204,0.00000237,-0.000
 00091,0.00000064,0.00000014,0.00000069,-0.00000061,0.00000159,0.000001
 70,0.00000196,-0.00000041,0.00000006,0.00000173,-0.00000338,0.00000064
 ,-0.00000134,-0.00000124,-0.00000031,0.00000251,-0.00000143,0.00000037
 ,0.00000009,-0.00000224,0.00000028,0.00000008,0.00000024,-0.00000028,-
 0.00000013,-0.00000295,-0.00000063,0.00000096,0.00000151,0.00000004,0.
 00000705,0.00000405,0.00000078,-0.00000131,0.00000318,0.00000025,-0.00
 000063,0.00000438,0.00000405,-0.00000325,-0.00000155,-0.00000230,0.000
 00327,-0.00000067,-0.00000263,-0.00000573,0.00000087,0.00000155,0.0000
 0037,-0.00000242,-0.00000211,0.00000205,-0.00000096,0.00000166,-0.0000
 0489,-0.00000401\\\@


 A SOLDIER'S LIFE IS A LIFE OF HONOR, BUT A DOG WOULD NOT LEAD IT.
 -- PRINCE RUPERT, FOUNDER OF THE HUDSON'S BAY COMPANY
 Job cpu time:       0 days  6 hours 11 minutes  1.3 seconds.
 File lengths (MBytes):  RWF=    808 Int=      0 D2E=      0 Chk=     18 Scr=      1
 Normal termination of Gaussian 09 at Thu Nov 14 17:41:28 2019.
pbs_rusage has been removed.
Please contact help@nci.org.au if you require this functionality.
