 Entering Gaussian System, Link 0=/apps/gaussian/g09e01/g09/g09
 Initial command:
 /apps/gaussian/g09e01/g09/l1.exe "/jobfs/local/3588751.r-man2/Gau-41598.inp" -scrdir="/jobfs/local/3588751.r-man2/"
 Entering Link 1 = /apps/gaussian/g09e01/g09/l1.exe PID=     41599.
  
 Copyright (c) 1988,1990,1992,1993,1995,1998,2003,2009,2015,
            Gaussian, Inc.  All Rights Reserved.
  
 This is part of the Gaussian(R) 09 program.  It is based on
 the Gaussian(R) 03 system (copyright 2003, Gaussian, Inc.),
 the Gaussian(R) 98 system (copyright 1998, Gaussian, Inc.),
 the Gaussian(R) 94 system (copyright 1995, Gaussian, Inc.),
 the Gaussian 92(TM) system (copyright 1992, Gaussian, Inc.),
 the Gaussian 90(TM) system (copyright 1990, Gaussian, Inc.),
 the Gaussian 88(TM) system (copyright 1988, Gaussian, Inc.),
 the Gaussian 86(TM) system (copyright 1986, Carnegie Mellon
 University), and the Gaussian 82(TM) system (copyright 1983,
 Carnegie Mellon University). Gaussian is a federally registered
 trademark of Gaussian, Inc.
  
 This software contains proprietary and confidential information,
 including trade secrets, belonging to Gaussian, Inc.
  
 This software is provided under written license and may be
 used, copied, transmitted, or stored only in accord with that
 written license.
  
 The following legend is applicable only to US Government
 contracts under FAR:
  
                    RESTRICTED RIGHTS LEGEND
  
 Use, reproduction and disclosure by the US Government is
 subject to restrictions as set forth in subparagraphs (a)
 and (c) of the Commercial Computer Software - Restricted
 Rights clause in FAR 52.227-19.
  
 Gaussian, Inc.
 340 Quinnipiac St., Bldg. 40, Wallingford CT 06492
  
  
 ---------------------------------------------------------------
 Warning -- This program may not be used in any manner that
 competes with the business of Gaussian, Inc. or will provide
 assistance to any competitor of Gaussian, Inc.  The licensee
 of this program is prohibited from giving any competitor of
 Gaussian, Inc. access to this program.  By using this program,
 the user acknowledges that Gaussian, Inc. is engaged in the
 business of creating and licensing software in the field of
 computational chemistry and represents and warrants to the
 licensee that it is not a competitor of Gaussian, Inc. and that
 it will not use this program in any manner prohibited above.
 ---------------------------------------------------------------
  

 Cite this work as:
 Gaussian 09, Revision E.01,
 M. J. Frisch, G. W. Trucks, H. B. Schlegel, G. E. Scuseria, 
 M. A. Robb, J. R. Cheeseman, G. Scalmani, V. Barone, B. Mennucci, 
 G. A. Petersson, H. Nakatsuji, M. Caricato, X. Li, H. P. Hratchian, 
 A. F. Izmaylov, J. Bloino, G. Zheng, J. L. Sonnenberg, M. Hada, 
 M. Ehara, K. Toyota, R. Fukuda, J. Hasegawa, M. Ishida, T. Nakajima, 
 Y. Honda, O. Kitao, H. Nakai, T. Vreven, J. A. Montgomery, Jr., 
 J. E. Peralta, F. Ogliaro, M. Bearpark, J. J. Heyd, E. Brothers, 
 K. N. Kudin, V. N. Staroverov, T. Keith, R. Kobayashi, J. Normand, 
 K. Raghavachari, A. Rendell, J. C. Burant, S. S. Iyengar, J. Tomasi, 
 M. Cossi, N. Rega, J. M. Millam, M. Klene, J. E. Knox, J. B. Cross, 
 V. Bakken, C. Adamo, J. Jaramillo, R. Gomperts, R. E. Stratmann, 
 O. Yazyev, A. J. Austin, R. Cammi, C. Pomelli, J. W. Ochterski, 
 R. L. Martin, K. Morokuma, V. G. Zakrzewski, G. A. Voth, 
 P. Salvador, J. J. Dannenberg, S. Dapprich, A. D. Daniels, 
 O. Farkas, J. B. Foresman, J. V. Ortiz, J. Cioslowski, 
 and D. J. Fox, Gaussian, Inc., Wallingford CT, 2013.
 
 ******************************************
 Gaussian 09:  ES64L-G09RevE.01 30-Nov-2015
                14-Nov-2019 
 ******************************************
 %chk=NM2CA.M062X_6-311pGd_opt_Pentadecane_GD3.chk
 %mem=196608000
 %nproc=8
 Will use up to    8 processors via shared memory.
 ----------------------------------------------------------------------
 # M062X/6-311+G* SCF=Tight INT(grid=ultrafine) OPT IOP(2/17=4) Empiric
 alDispersion=GD3 SCRF=(SMD,Solvent=n-Pentadecane) maxdisk=2684354560
 ----------------------------------------------------------------------
 1/14=-1,18=20,19=15,26=4,38=1/1,3;
 2/9=110,12=2,17=4,18=5,40=1/2;
 3/5=4,6=6,7=11,11=2,16=1,25=1,30=1,70=32201,71=1,72=151,74=-55,75=-5,124=31/1,2,3;
 4//1;
 5/5=2,32=2,38=5,53=151/2;
 6/7=2,8=2,9=2,10=2,28=1/1;
 7//1,2,3,16;
 1/14=-1,18=20,19=15,26=4/3(2);
 2/9=110,17=4/2;
 99//99;
 2/9=110,17=4/2;
 3/5=4,6=6,7=11,11=2,16=1,25=1,30=1,70=32205,71=1,72=151,74=-55,75=-5,124=31/1,2,3;
 4/5=5,16=3,69=1/1;
 5/5=2,32=2,38=5,53=151/2;
 7//1,2,3,16;
 1/14=-1,18=20,19=15,26=4/3(-5);
 2/9=110,17=4/2;
 6/7=2,8=2,9=2,10=2,19=2,28=1/1;
 99/9=1/99;
 ----------------------------------------
 NM2CA.M062X_6-311pGd_opt_Pentadecane_GD3
 ----------------------------------------
 Symbolic Z-matrix:
 Charge =  0 Multiplicity = 1
 C                    -5.85657   1.21477   0.15923 
 N                    -4.57818   0.66563   0.07458 
 C                    -3.37587   1.33116   0.07247 
 O                    -3.22315   2.52309   0.15455 
 O                    -2.38481   0.43815  -0.03658 
 C                    -1.05306   0.98499  -0.05155 
 C                    -0.0819   -0.16841  -0.17115 
 C                     1.35682   0.33795  -0.19296 
 C                    -6.09816   2.5836    0.32046 
 C                    -7.40129   3.05583   0.39865 
 C                    -8.49064   2.18      0.30604 
 C                    -8.23655   0.82002   0.15783 
 C                    -6.94169   0.33987   0.08514 
 H                    -4.5169   -0.33924  -0.01295 
 H                    -0.89617   1.55148   0.86938 
 H                    -0.96703   1.67504  -0.89423 
 H                    -0.30178  -0.72811  -1.08446 
 H                    -0.23192  -0.8509    0.66994 
 H                     1.52972   1.0083   -1.03877 
 H                     2.0612   -0.49096  -0.27857 
 H                     1.59951   0.88581   0.72116 
 H                    -5.26971   3.27122   0.38887 
 H                    -6.77091  -0.7247   -0.03497 
 C                    -9.93033   2.61959   0.39395 
 C                    -7.5712    4.55265   0.54945 
 H                    -9.06275   0.12405   0.09085 
 F                    -10.1747   3.73332  -0.30651 
 F                    -10.31898   2.85008   1.65768 
 F                    -10.75515   1.67512  -0.08674 
 F                    -6.44828   5.13497   0.98789 
 F                    -8.53462   4.86821   1.42309 
 F                    -7.87731   5.13991  -0.61627 
 

 GradGradGradGradGradGradGradGradGradGradGradGradGradGradGradGradGradGrad
 Berny optimization.
 Initialization pass.
                           ----------------------------
                           !    Initial Parameters    !
                           ! (Angstroms and Degrees)  !
 --------------------------                            --------------------------
 ! Name  Definition              Value          Derivative Info.                !
 --------------------------------------------------------------------------------
 ! R1    R(1,2)                  1.3939         estimate D2E/DX2                !
 ! R2    R(1,9)                  1.3993         estimate D2E/DX2                !
 ! R3    R(1,13)                 1.3959         estimate D2E/DX2                !
 ! R4    R(2,3)                  1.3742         estimate D2E/DX2                !
 ! R5    R(2,14)                 1.0105         estimate D2E/DX2                !
 ! R6    R(3,4)                  1.2045         estimate D2E/DX2                !
 ! R7    R(3,5)                  1.3385         estimate D2E/DX2                !
 ! R8    R(5,6)                  1.4397         estimate D2E/DX2                !
 ! R9    R(6,7)                  1.5125         estimate D2E/DX2                !
 ! R10   R(6,15)                 1.0925         estimate D2E/DX2                !
 ! R11   R(6,16)                 1.0926         estimate D2E/DX2                !
 ! R12   R(7,8)                  1.5254         estimate D2E/DX2                !
 ! R13   R(7,17)                 1.0935         estimate D2E/DX2                !
 ! R14   R(7,18)                 1.0935         estimate D2E/DX2                !
 ! R15   R(8,19)                 1.093          estimate D2E/DX2                !
 ! R16   R(8,20)                 1.0911         estimate D2E/DX2                !
 ! R17   R(8,21)                 1.093          estimate D2E/DX2                !
 ! R18   R(9,10)                 1.3883         estimate D2E/DX2                !
 ! R19   R(9,22)                 1.0788         estimate D2E/DX2                !
 ! R20   R(10,11)                1.4008         estimate D2E/DX2                !
 ! R21   R(10,25)                1.514          estimate D2E/DX2                !
 ! R22   R(11,12)                1.3914         estimate D2E/DX2                !
 ! R23   R(11,24)                1.5079         estimate D2E/DX2                !
 ! R24   R(12,13)                1.3829         estimate D2E/DX2                !
 ! R25   R(12,26)                1.0824         estimate D2E/DX2                !
 ! R26   R(13,23)                1.0848         estimate D2E/DX2                !
 ! R27   R(24,27)                1.3382         estimate D2E/DX2                !
 ! R28   R(24,28)                1.3421         estimate D2E/DX2                !
 ! R29   R(24,29)                1.3429         estimate D2E/DX2                !
 ! R30   R(25,30)                1.3388         estimate D2E/DX2                !
 ! R31   R(25,31)                1.3383         estimate D2E/DX2                !
 ! R32   R(25,32)                1.3407         estimate D2E/DX2                !
 ! A1    A(2,1,9)              123.416          estimate D2E/DX2                !
 ! A2    A(2,1,13)             117.5685         estimate D2E/DX2                !
 ! A3    A(9,1,13)             119.0145         estimate D2E/DX2                !
 ! A4    A(1,2,3)              127.7122         estimate D2E/DX2                !
 ! A5    A(1,2,14)             116.9118         estimate D2E/DX2                !
 ! A6    A(3,2,14)             115.3657         estimate D2E/DX2                !
 ! A7    A(2,3,4)              126.1631         estimate D2E/DX2                !
 ! A8    A(2,3,5)              108.9548         estimate D2E/DX2                !
 ! A9    A(4,3,5)              124.8821         estimate D2E/DX2                !
 ! A10   A(3,5,6)              115.616          estimate D2E/DX2                !
 ! A11   A(5,6,7)              107.7639         estimate D2E/DX2                !
 ! A12   A(5,6,15)             108.7238         estimate D2E/DX2                !
 ! A13   A(5,6,16)             108.7083         estimate D2E/DX2                !
 ! A14   A(7,6,15)             111.7059         estimate D2E/DX2                !
 ! A15   A(7,6,16)             111.7207         estimate D2E/DX2                !
 ! A16   A(15,6,16)            108.1407         estimate D2E/DX2                !
 ! A17   A(6,7,8)              110.7067         estimate D2E/DX2                !
 ! A18   A(6,7,17)             109.1017         estimate D2E/DX2                !
 ! A19   A(6,7,18)             109.0893         estimate D2E/DX2                !
 ! A20   A(8,7,17)             110.3418         estimate D2E/DX2                !
 ! A21   A(8,7,18)             110.3393         estimate D2E/DX2                !
 ! A22   A(17,7,18)            107.1803         estimate D2E/DX2                !
 ! A23   A(7,8,19)             111.3374         estimate D2E/DX2                !
 ! A24   A(7,8,20)             110.9661         estimate D2E/DX2                !
 ! A25   A(7,8,21)             111.337          estimate D2E/DX2                !
 ! A26   A(19,8,20)            107.6427         estimate D2E/DX2                !
 ! A27   A(19,8,21)            107.7372         estimate D2E/DX2                !
 ! A28   A(20,8,21)            107.6418         estimate D2E/DX2                !
 ! A29   A(1,9,10)             120.0863         estimate D2E/DX2                !
 ! A30   A(1,9,22)             119.8826         estimate D2E/DX2                !
 ! A31   A(10,9,22)            120.0305         estimate D2E/DX2                !
 ! A32   A(9,10,11)            120.9014         estimate D2E/DX2                !
 ! A33   A(9,10,25)            116.5682         estimate D2E/DX2                !
 ! A34   A(11,10,25)           122.5104         estimate D2E/DX2                !
 ! A35   A(10,11,12)           118.4326         estimate D2E/DX2                !
 ! A36   A(10,11,24)           123.804          estimate D2E/DX2                !
 ! A37   A(12,11,24)           117.7432         estimate D2E/DX2                !
 ! A38   A(11,12,13)           121.0601         estimate D2E/DX2                !
 ! A39   A(11,12,26)           119.715          estimate D2E/DX2                !
 ! A40   A(13,12,26)           119.2234         estimate D2E/DX2                !
 ! A41   A(1,13,12)            120.4952         estimate D2E/DX2                !
 ! A42   A(1,13,23)            119.9049         estimate D2E/DX2                !
 ! A43   A(12,13,23)           119.5993         estimate D2E/DX2                !
 ! A44   A(11,24,27)           112.7349         estimate D2E/DX2                !
 ! A45   A(11,24,28)           112.424          estimate D2E/DX2                !
 ! A46   A(11,24,29)           111.1322         estimate D2E/DX2                !
 ! A47   A(27,24,28)           107.2816         estimate D2E/DX2                !
 ! A48   A(27,24,29)           106.607          estimate D2E/DX2                !
 ! A49   A(28,24,29)           106.2588         estimate D2E/DX2                !
 ! A50   A(10,25,30)           111.6251         estimate D2E/DX2                !
 ! A51   A(10,25,31)           112.2682         estimate D2E/DX2                !
 ! A52   A(10,25,32)           111.8445         estimate D2E/DX2                !
 ! A53   A(30,25,31)           106.7064         estimate D2E/DX2                !
 ! A54   A(30,25,32)           106.6029         estimate D2E/DX2                !
 ! A55   A(31,25,32)           107.4547         estimate D2E/DX2                !
 ! D1    D(9,1,2,3)             -3.048          estimate D2E/DX2                !
 ! D2    D(9,1,2,14)           178.1759         estimate D2E/DX2                !
 ! D3    D(13,1,2,3)           177.3205         estimate D2E/DX2                !
 ! D4    D(13,1,2,14)           -1.4556         estimate D2E/DX2                !
 ! D5    D(2,1,9,10)          -179.9078         estimate D2E/DX2                !
 ! D6    D(2,1,9,22)            -0.211          estimate D2E/DX2                !
 ! D7    D(13,1,9,10)           -0.2814         estimate D2E/DX2                !
 ! D8    D(13,1,9,22)          179.4154         estimate D2E/DX2                !
 ! D9    D(2,1,13,12)         -179.772          estimate D2E/DX2                !
 ! D10   D(2,1,13,23)           -0.056          estimate D2E/DX2                !
 ! D11   D(9,1,13,12)            0.5798         estimate D2E/DX2                !
 ! D12   D(9,1,13,23)         -179.7042         estimate D2E/DX2                !
 ! D13   D(1,2,3,4)              0.5724         estimate D2E/DX2                !
 ! D14   D(1,2,3,5)           -179.4235         estimate D2E/DX2                !
 ! D15   D(14,2,3,4)           179.3646         estimate D2E/DX2                !
 ! D16   D(14,2,3,5)            -0.6313         estimate D2E/DX2                !
 ! D17   D(2,3,5,6)           -179.9327         estimate D2E/DX2                !
 ! D18   D(4,3,5,6)              0.0713         estimate D2E/DX2                !
 ! D19   D(3,5,6,7)            179.6744         estimate D2E/DX2                !
 ! D20   D(3,5,6,15)            58.4328         estimate D2E/DX2                !
 ! D21   D(3,5,6,16)           -59.0751         estimate D2E/DX2                !
 ! D22   D(5,6,7,8)           -179.989          estimate D2E/DX2                !
 ! D23   D(5,6,7,17)            58.3974         estimate D2E/DX2                !
 ! D24   D(5,6,7,18)           -58.3867         estimate D2E/DX2                !
 ! D25   D(15,6,7,8)           -60.6266         estimate D2E/DX2                !
 ! D26   D(15,6,7,17)          177.7598         estimate D2E/DX2                !
 ! D27   D(15,6,7,18)           60.9758         estimate D2E/DX2                !
 ! D28   D(16,6,7,8)            60.6589         estimate D2E/DX2                !
 ! D29   D(16,6,7,17)          -60.9547         estimate D2E/DX2                !
 ! D30   D(16,6,7,18)         -177.7387         estimate D2E/DX2                !
 ! D31   D(6,7,8,19)           -60.1562         estimate D2E/DX2                !
 ! D32   D(6,7,8,20)           179.9667         estimate D2E/DX2                !
 ! D33   D(6,7,8,21)            60.0911         estimate D2E/DX2                !
 ! D34   D(17,7,8,19)           60.7247         estimate D2E/DX2                !
 ! D35   D(17,7,8,20)          -59.1525         estimate D2E/DX2                !
 ! D36   D(17,7,8,21)         -179.0281         estimate D2E/DX2                !
 ! D37   D(18,7,8,19)          178.9801         estimate D2E/DX2                !
 ! D38   D(18,7,8,20)           59.103          estimate D2E/DX2                !
 ! D39   D(18,7,8,21)          -60.7726         estimate D2E/DX2                !
 ! D40   D(1,9,10,11)           -0.5897         estimate D2E/DX2                !
 ! D41   D(1,9,10,25)         -179.0009         estimate D2E/DX2                !
 ! D42   D(22,9,10,11)         179.714          estimate D2E/DX2                !
 ! D43   D(22,9,10,25)           1.3028         estimate D2E/DX2                !
 ! D44   D(9,10,11,12)           1.1462         estimate D2E/DX2                !
 ! D45   D(9,10,11,24)         179.4674         estimate D2E/DX2                !
 ! D46   D(25,10,11,12)        179.4611         estimate D2E/DX2                !
 ! D47   D(25,10,11,24)         -2.2177         estimate D2E/DX2                !
 ! D48   D(9,10,25,30)         -19.0809         estimate D2E/DX2                !
 ! D49   D(9,10,25,31)        -138.8487         estimate D2E/DX2                !
 ! D50   D(9,10,25,32)         100.2642         estimate D2E/DX2                !
 ! D51   D(11,10,25,30)        162.5357         estimate D2E/DX2                !
 ! D52   D(11,10,25,31)         42.7679         estimate D2E/DX2                !
 ! D53   D(11,10,25,32)        -78.1192         estimate D2E/DX2                !
 ! D54   D(10,11,12,13)         -0.8479         estimate D2E/DX2                !
 ! D55   D(10,11,12,26)        179.5946         estimate D2E/DX2                !
 ! D56   D(24,11,12,13)       -179.2717         estimate D2E/DX2                !
 ! D57   D(24,11,12,26)          1.1708         estimate D2E/DX2                !
 ! D58   D(10,11,24,27)         43.191          estimate D2E/DX2                !
 ! D59   D(10,11,24,28)        -78.2321         estimate D2E/DX2                !
 ! D60   D(10,11,24,29)        162.807          estimate D2E/DX2                !
 ! D61   D(12,11,24,27)       -138.477          estimate D2E/DX2                !
 ! D62   D(12,11,24,28)        100.0998         estimate D2E/DX2                !
 ! D63   D(12,11,24,29)        -18.8611         estimate D2E/DX2                !
 ! D64   D(11,12,13,1)          -0.0074         estimate D2E/DX2                !
 ! D65   D(11,12,13,23)       -179.7243         estimate D2E/DX2                !
 ! D66   D(26,12,13,1)         179.5522         estimate D2E/DX2                !
 ! D67   D(26,12,13,23)         -0.1646         estimate D2E/DX2                !
 --------------------------------------------------------------------------------
 Trust Radius=3.00D-01 FncErr=1.00D-07 GrdErr=1.00D-06
 Number of steps in this run=    164 maximum allowed number of steps=    192.
 GradGradGradGradGradGradGradGradGradGradGradGradGradGradGradGradGradGrad

                          Input orientation:                          
 ---------------------------------------------------------------------
 Center     Atomic      Atomic             Coordinates (Angstroms)
 Number     Number       Type             X           Y           Z
 ---------------------------------------------------------------------
      1          6           0       -5.856569    1.214769    0.159229
      2          7           0       -4.578182    0.665634    0.074576
      3          6           0       -3.375874    1.331162    0.072466
      4          8           0       -3.223145    2.523086    0.154553
      5          8           0       -2.384805    0.438149   -0.036577
      6          6           0       -1.053055    0.984994   -0.051551
      7          6           0       -0.081903   -0.168406   -0.171148
      8          6           0        1.356821    0.337955   -0.192960
      9          6           0       -6.098162    2.583602    0.320462
     10          6           0       -7.401289    3.055827    0.398650
     11          6           0       -8.490638    2.179996    0.306044
     12          6           0       -8.236547    0.820022    0.157834
     13          6           0       -6.941691    0.339866    0.085140
     14          1           0       -4.516903   -0.339237   -0.012948
     15          1           0       -0.896166    1.551485    0.869378
     16          1           0       -0.967028    1.675041   -0.894231
     17          1           0       -0.301782   -0.728108   -1.084458
     18          1           0       -0.231917   -0.850901    0.669941
     19          1           0        1.529724    1.008304   -1.038769
     20          1           0        2.061205   -0.490958   -0.278573
     21          1           0        1.599509    0.885812    0.721161
     22          1           0       -5.269706    3.271222    0.388870
     23          1           0       -6.770909   -0.724699   -0.034967
     24          6           0       -9.930334    2.619593    0.393955
     25          6           0       -7.571199    4.552647    0.549447
     26          1           0       -9.062751    0.124046    0.090846
     27          9           0      -10.174701    3.733319   -0.306511
     28          9           0      -10.318980    2.850083    1.657676
     29          9           0      -10.755149    1.675121   -0.086742
     30          9           0       -6.448277    5.134971    0.987892
     31          9           0       -8.534619    4.868211    1.423088
     32          9           0       -7.877311    5.139914   -0.616275
 ---------------------------------------------------------------------
                    Distance matrix (angstroms):
                    1          2          3          4          5
     1  C    0.000000
     2  N    1.393912   0.000000
     3  C    2.484939   1.374218   0.000000
     4  O    2.940516   2.300576   1.204470   0.000000
     5  O    3.562951   2.207941   1.338499   2.255284   0.000000
     6  C    4.813623   3.541809   2.351744   2.667864   1.439730
     7  C    5.947192   4.579577   3.627437   4.149412   2.385242
     8  C    7.275014   5.950059   4.843068   5.086419   3.746233
     9  C    1.399309   2.459554   3.006820   2.880436   4.303425
    10  C    2.415155   3.713217   4.391450   4.219038   5.675100
    11  C    2.809188   4.201688   5.189980   5.280827   6.358664
    12  C    2.412494   3.662568   4.888220   5.294775   5.867410
    13  C    1.395864   2.385877   3.701064   4.312638   4.559570
    14  H    2.058952   1.010534   2.024716   3.145594   2.269522
    15  H    5.022279   3.869584   2.613917   2.621034   2.067926
    16  H    5.022871   3.872715   2.618262   2.628535   2.067744
    17  H    6.014747   4.644725   3.876739   4.543102   2.607143
    18  H    6.013695   4.641590   3.873350   4.538377   2.606866
    19  H    7.485662   6.217995   5.040235   5.129166   4.080809
    20  H    8.111246   6.748620   5.745013   6.098886   4.548495
    21  H    7.484455   6.215336   5.037219   5.124422   4.080359
    22  H    2.150847   2.714052   2.729569   2.191580   4.065705
    23  H    2.152968   2.598669   3.970437   4.813591   4.537634
    24  C    4.315576   5.706619   6.687628   6.712154   7.866324
    25  C    3.772751   4.928745   5.310954   4.814626   6.646141
    26  H    3.387323   4.517183   5.813608   6.313513   6.686543
    27  F    5.020584   6.393508   7.220667   7.071164   8.462475
    28  F    4.983243   6.343090   7.281946   7.260659   8.463985
    29  F    4.926308   6.260991   7.389002   7.583426   8.461399
    30  F    4.050281   4.930150   4.974599   4.232951   6.294559
    31  F    4.702864   5.927355   6.399027   5.943109   7.718567
    32  F    4.482361   5.601849   5.936657   5.394740   7.253293
                    6          7          8          9         10
     6  C    0.000000
     7  C    1.512539   0.000000
     8  C    2.499232   1.525386   0.000000
     9  C    5.305379   6.634050   7.802776   0.000000
    10  C    6.692615   8.018339   9.189196   1.388253   0.000000
    11  C    7.541455   8.743542  10.030681   2.426323   1.400834
    12  C    7.188436   8.220915   9.611876   2.776572   2.398848
    13  C    5.925445   6.883365   8.303171   2.408582   2.772357
    14  H    3.708547   4.441108   5.915372   3.339840   4.473874
    15  H    1.092536   2.168811   2.770770   5.331730   6.693374
    16  H    1.092554   2.169008   2.771255   5.350655   6.706551
    17  H    2.136826   1.093502   2.163844   6.821968   8.180511
    18  H    2.136664   1.093496   2.163808   6.806672   8.169211
    19  H    2.765120   2.175948   1.093003   7.906562   9.274778
    20  H    3.453779   2.169905   1.091138   8.739968  10.128035
    21  H    2.764601   2.175945   1.093006   7.892857   9.264304
    22  H    4.816736   6.249637   7.270037   1.078815   2.142461
    23  H    5.968013   6.713480   8.198426   3.394669   3.857172
    24  C    9.037503  10.251043  11.530404   3.833045   2.566397
    25  C    7.454900   8.882407   9.900724   2.469698   1.513962
    26  H    8.057092   8.989427  10.425631   3.858876   3.383864
    27  F    9.530095  10.821569  12.021538   4.281718   2.940758
    28  F    9.605070  10.828371  12.085527   4.435589   3.184399
    29  F    9.726671  10.831616  12.186021   4.762213   3.659280
    30  F    6.885577   8.366595   9.237171   2.660362   2.361838
    31  F    8.557320   9.967824  10.998882   3.517320   2.370369
    32  F    8.009540   9.441652  10.416679   3.252319   2.366451
                   11         12         13         14         15
    11  C    0.000000
    12  C    1.391423   0.000000
    13  C    2.415391   1.382927   0.000000
    14  H    4.715809   3.899846   2.519999   0.000000
    15  H    7.641229   7.410974   6.215418   4.178883   0.000000
    16  H    7.635467   7.394850   6.199875   4.175594   1.769351
    17  H    8.800450   8.179273   6.826193   4.366532   3.060606
    18  H    8.804842   8.193189   6.839663   4.369125   2.500492
    19  H   10.177870   9.841105   8.571746   6.279321   3.133849
    20  H   10.900328  10.390034   9.048463   6.585217   3.772983
    21  H   10.181272   9.852394   8.582230   6.280936   2.587176
    22  H    3.401770   3.855374   3.388309   3.709931   4.724006
    23  H    3.392788   2.138091   1.084846   2.286834   6.364861
    24  C    1.507879   2.482564   3.771540   6.182676   9.109505
    25  C    2.556185   3.811632   4.284785   5.794440   7.325667
    26  H    2.144890   1.082350   2.132019   4.570573   8.326872
    27  F    2.371519   3.529781   4.703325   6.977289   9.603870
    28  F    2.370392   3.272186   4.492232   6.828385   9.544485
    29  F    2.353124   2.671023   4.044121   6.555821   9.906008
    30  F    3.656231   4.744016   4.904228   5.890572   6.609188
    31  F    2.911395   4.251770   4.983315   6.732143   8.345851
    32  F    3.160373   4.403381   4.940428   6.455806   7.988765
                   16         17         18         19         20
    16  H    0.000000
    17  H    2.500772   0.000000
    18  H    3.060622   1.760078   0.000000
    19  H    2.588281   2.524208   3.078914   0.000000
    20  H    3.773696   2.507867   2.507517   1.762996   0.000000
    21  H    3.133606   3.078945   2.524463   1.765567   1.762988
    22  H    4.765205   6.545655   6.515383   7.306927   8.266905
    23  H    6.338937   6.553705   6.578088   8.538818   8.838564
    24  C    9.104530  10.300574  10.304358  11.661127  12.406644
    25  C    7.347101   9.132384   9.114708   9.895028  10.904438
    26  H    8.301608   8.880433   8.903342  10.689175  11.147066
    27  F    9.453209  10.862047  10.992156  12.039745  12.944600
    28  F    9.764833  10.984853  10.789891  12.290433  12.968446
    29  F    9.821372  10.772364  10.848584  12.339736  12.999524
    30  F    6.749637   8.743554   8.635676   9.207890  10.279411
    31  F    8.534327  10.265777  10.109913  11.056700  11.995325
    32  F    7.735284   9.593827   9.797769  10.283044  11.427810
                   21         22         23         24         25
    21  H    0.000000
    22  H    7.279197   0.000000
    23  H    8.557416   4.289597   0.000000
    24  C   11.664062   4.705965   4.620631   0.000000
    25  C    9.878109   2.639073   5.369580   3.053914   0.000000
    26  H   10.708005   4.937685   2.447190   2.659386   4.695481
    27  F   12.157155   4.975547   5.615466   1.338190   2.860452
    28  F   12.115518   5.223255   5.313466   1.342074   3.417191
    29  F   12.406179   5.732699   4.651450   1.342914   4.338483
    30  F    9.104579   2.285042   5.957018   4.336427   1.338764
    31  F   10.911129   3.778841   6.042950   2.839616   1.338286
    32  F   10.473597   3.361834   5.996310   3.404039   1.340707
                   26         27         28         29         30
    26  H    0.000000
    27  F    3.797522   0.000000
    28  F    3.385904   2.158460   0.000000
    29  F    2.302516   2.149744   2.147970   0.000000
    30  F    5.722720   4.186447   4.544409   5.628014   0.000000
    31  F    4.955894   2.639955   2.704036   4.172070   2.147877
    32  F    5.202328   2.711543   4.046717   4.535102   2.148374
                   31         32
    31  F    0.000000
    32  F    2.159833   0.000000
 Stoichiometry    C12H11F6NO2
 Framework group  C1[X(C12H11F6NO2)]
 Deg. of freedom    90
 Full point group                 C1      NOp   1
 Largest Abelian subgroup         C1      NOp   1
 Largest concise Abelian subgroup C1      NOp   1
                         Standard orientation:                         
 ---------------------------------------------------------------------
 Center     Atomic      Atomic             Coordinates (Angstroms)
 Number     Number       Type             X           Y           Z
 ---------------------------------------------------------------------
      1          6           0       -0.514241   -0.948795   -0.022965
      2          7           0       -1.901523   -1.084072   -0.034650
      3          6           0       -2.843914   -0.084525    0.001158
      4          8           0       -2.623571    1.098987    0.039865
      5          8           0       -4.063425   -0.636023   -0.013703
      6          6           0       -5.165630    0.289678    0.018579
      7          6           0       -6.445623   -0.515571   -0.012475
      8          6           0       -7.662245    0.404012    0.019158
      9          6           0        0.139502    0.288376   -0.032585
     10          6           0        1.526654    0.342608   -0.021791
     11          6           0        2.292230   -0.830058    0.011135
     12          6           0        1.630069   -2.053820    0.008362
     13          6           0        0.248716   -2.117608   -0.008475
     14          1           0       -2.269160   -2.025145   -0.054765
     15          1           0       -5.087687    0.957958   -0.842213
     16          1           0       -5.089700    0.893471    0.925962
     17          1           0       -6.461135   -1.196074    0.843342
     18          1           0       -6.458501   -1.132006   -0.915568
     19          1           0       -7.675100    1.015542    0.924984
     20          1           0       -8.588248   -0.172685   -0.003689
     21          1           0       -7.671964    1.080373   -0.839390
     22          1           0       -0.436326    1.200425   -0.053361
     23          1           0       -0.243116   -3.084554   -0.005737
     24          6           0        3.800004   -0.847799    0.012937
     25          6           0        2.150305    1.722098   -0.009774
     26          1           0        2.201312   -2.972964    0.026784
     27          9           0        4.327011    0.068780    0.833240
     28          9           0        4.315953   -0.634318   -1.207466
     29          9           0        4.269683   -2.039409    0.416527
     30          9           0        1.284931    2.658353   -0.418238
     31          9           0        3.215098    1.804311   -0.816288
     32          9           0        2.548577    2.078825    1.219706
 ---------------------------------------------------------------------
 Rotational constants (GHZ):      0.7145388      0.1195710      0.1064537
 Standard basis: 6-311+G(d) (5D, 7F)
 There are   516 symmetry adapted cartesian basis functions of A   symmetry.
 There are   495 symmetry adapted basis functions of A   symmetry.
   495 basis functions,   811 primitive gaussians,   516 cartesian basis functions
    80 alpha electrons       80 beta electrons
       nuclear repulsion energy      1786.8197808684 Hartrees.
 NAtoms=   32 NActive=   32 NUniq=   32 SFac= 1.00D+00 NAtFMM=   60 NAOKFM=F Big=F
 Integral buffers will be    131072 words long.
 Raffenetti 2 integral format.
 Two-electron integral symmetry is turned on.
 Nuclear repulsion after empirical dispersion term =     1786.8182538250 Hartrees.
 ------------------------------------------------------------------------------
 Polarizable Continuum Model (PCM)
 =================================
 Model                : PCM (using non-symmetric T matrix).
 Atomic radii         : SMD-Coulomb.
 Polarization charges : Total charges.
 Charge compensation  : None.
 Solution method      : On-the-fly selection.
 Cavity type          : VdW (van der Waals Surface) (Alpha=1.000).
 Cavity algorithm     : GePol (No added spheres)
                        Default sphere list used, NSphG=   32.
                        Lebedev-Laikov grids with approx.  5.0 points / Ang**2.
                        Smoothing algorithm: York/Karplus (Gamma=1.0000).
                        Polarization charges: spherical gaussians, with
                                              point-specific exponents (IZeta= 3).
                        Self-potential: point-specific (ISelfS= 7).
                        Self-field    : sphere-specific E.n sum rule (ISelfD= 2).
 1st derivatives      : Analytical E(r).r(x)/FMM algorithm (CHGder, D1EAlg=3).
                        Cavity 1st derivative terms included.
 Solvent              : n-Pentadecane, Eps=   2.033300 Eps(inf)=   2.049192
 ------------------------------------------------------------------------------
 ------------------------------------------------------------------------------
 Atomic radii for non-electrostatic terms: SMD-CDS.
 ------------------------------------------------------------------------------
 Nuclear repulsion after PCM non-electrostatic terms =     1786.8149978602 Hartrees.
 One-electron integrals computed using PRISM.
 NBasis=   495 RedAO= T EigKep=  1.39D-06  NBF=   495
 NBsUse=   493 1.00D-06 EigRej=  7.01D-07 NBFU=   493
 ExpMin= 4.38D-02 ExpMax= 1.14D+04 ExpMxC= 1.72D+03 IAcc=3 IRadAn=         5 AccDes= 0.00D+00
 Harris functional with IExCor= 1009 and IRadAn=       5 diagonalized for initial guess.
 HarFok:  IExCor= 1009 AccDes= 0.00D+00 IRadAn=         5 IDoV= 1 UseB2=F ITyADJ=14
 ICtDFT=  3500011 ScaDFX=  1.000000  1.000000  1.000000  1.000000
 FoFCou: FMM=F IPFlag=           0 FMFlag=      100000 FMFlg1=           0
         NFxFlg=           0 DoJE=T BraDBF=F KetDBF=T FulRan=T
         wScrn=  0.000000 ICntrl=     500 IOpCl=  0 I1Cent=   200000004 NGrid=           0
         NMat0=    1 NMatS0=      1 NMatT0=    0 NMatD0=    1 NMtDS0=    0 NMtDT0=    0
 Petite list used in FoFCou.
 Requested convergence on RMS density matrix=1.00D-08 within 128 cycles.
 Requested convergence on MAX density matrix=1.00D-06.
 Requested convergence on             energy=1.00D-06.
 No special actions if energy rises.
 Inv3:  Mode=1 IEnd=    17963427.
 Iteration    1 A*A^-1 deviation from unit magnitude is 4.66D-15 for   2424.
 Iteration    1 A*A^-1 deviation from orthogonality  is 2.55D-15 for   2438   2333.
 Iteration    1 A^-1*A deviation from unit magnitude is 4.44D-15 for   2430.
 Iteration    1 A^-1*A deviation from orthogonality  is 2.34D-14 for   1806   1764.
 Error on total polarization charges =  0.01842
 SCF Done:  E(RM062X) =  -1268.13125732     A.U. after   16 cycles
            NFock= 16  Conv=0.31D-08     -V/T= 2.0030
 SMD-CDS (non-electrostatic) energy       (kcal/mol) =      -2.04
 (included in total energy above)

 **********************************************************************

            Population analysis using the SCF density.

 **********************************************************************

 Orbital symmetries:
       Occupied  (A) (A) (A) (A) (A) (A) (A) (A) (A) (A) (A) (A)
                 (A) (A) (A) (A) (A) (A) (A) (A) (A) (A) (A) (A)
                 (A) (A) (A) (A) (A) (A) (A) (A) (A) (A) (A) (A)
                 (A) (A) (A) (A) (A) (A) (A) (A) (A) (A) (A) (A)
                 (A) (A) (A) (A) (A) (A) (A) (A) (A) (A) (A) (A)
                 (A) (A) (A) (A) (A) (A) (A) (A) (A) (A) (A) (A)
                 (A) (A) (A) (A) (A) (A) (A) (A)
       Virtual   (A) (A) (A) (A) (A) (A) (A) (A) (A) (A) (A) (A)
                 (A) (A) (A) (A) (A) (A) (A) (A) (A) (A) (A) (A)
                 (A) (A) (A) (A) (A) (A) (A) (A) (A) (A) (A) (A)
                 (A) (A) (A) (A) (A) (A) (A) (A) (A) (A) (A) (A)
                 (A) (A) (A) (A) (A) (A) (A) (A) (A) (A) (A) (A)
                 (A) (A) (A) (A) (A) (A) (A) (A) (A) (A) (A) (A)
                 (A) (A) (A) (A) (A) (A) (A) (A) (A) (A) (A) (A)
                 (A) (A) (A) (A) (A) (A) (A) (A) (A) (A) (A) (A)
                 (A) (A) (A) (A) (A) (A) (A) (A) (A) (A) (A) (A)
                 (A) (A) (A) (A) (A) (A) (A) (A) (A) (A) (A) (A)
                 (A) (A) (A) (A) (A) (A) (A) (A) (A) (A) (A) (A)
                 (A) (A) (A) (A) (A) (A) (A) (A) (A) (A) (A) (A)
                 (A) (A) (A) (A) (A) (A) (A) (A) (A) (A) (A) (A)
                 (A) (A) (A) (A) (A) (A) (A) (A) (A) (A) (A) (A)
                 (A) (A) (A) (A) (A) (A) (A) (A) (A) (A) (A) (A)
                 (A) (A) (A) (A) (A) (A) (A) (A) (A) (A) (A) (A)
                 (A) (A) (A) (A) (A) (A) (A) (A) (A) (A) (A) (A)
                 (A) (A) (A) (A) (A) (A) (A) (A) (A) (A) (A) (A)
                 (A) (A) (A) (A) (A) (A) (A) (A) (A) (A) (A) (A)
                 (A) (A) (A) (A) (A) (A) (A) (A) (A) (A) (A) (A)
                 (A) (A) (A) (A) (A) (A) (A) (A) (A) (A) (A) (A)
                 (A) (A) (A) (A) (A) (A) (A) (A) (A) (A) (A) (A)
                 (A) (A) (A) (A) (A) (A) (A) (A) (A) (A) (A) (A)
                 (A) (A) (A) (A) (A) (A) (A) (A) (A) (A) (A) (A)
                 (A) (A) (A) (A) (A) (A) (A) (A) (A) (A) (A) (A)
                 (A) (A) (A) (A) (A) (A) (A) (A) (A) (A) (A) (A)
                 (A) (A) (A) (A) (A) (A) (A) (A) (A) (A) (A) (A)
                 (A) (A) (A) (A) (A) (A) (A) (A) (A) (A) (A) (A)
                 (A) (A) (A) (A) (A) (A) (A) (A) (A) (A) (A) (A)
                 (A) (A) (A) (A) (A) (A) (A) (A) (A) (A) (A) (A)
                 (A) (A) (A) (A) (A) (A) (A) (A) (A) (A) (A) (A)
                 (A) (A) (A) (A) (A) (A) (A) (A) (A) (A) (A) (A)
                 (A) (A) (A) (A) (A) (A) (A) (A) (A) (A) (A) (A)
                 (A) (A) (A) (A) (A) (A) (A) (A) (A) (A) (A) (A)
                 (A) (A) (A) (A) (A)
 The electronic state is 1-A.
 Alpha  occ. eigenvalues --  -25.28379 -25.28283 -25.28173 -25.28151 -25.27895
 Alpha  occ. eigenvalues --  -25.27843 -19.68121 -19.62238 -14.81089 -10.81213
 Alpha  occ. eigenvalues --  -10.81198 -10.71838 -10.62899 -10.60140 -10.60068
 Alpha  occ. eigenvalues --  -10.59372 -10.58069 -10.57577 -10.57368 -10.54287
 Alpha  occ. eigenvalues --  -10.53139  -1.47964  -1.47506  -1.38500  -1.38151
 Alpha  occ. eigenvalues --   -1.38019  -1.37849  -1.26286  -1.16359  -1.08764
 Alpha  occ. eigenvalues --   -1.00625  -0.91952  -0.90674  -0.89561  -0.83612
 Alpha  occ. eigenvalues --   -0.82201  -0.79777  -0.75606  -0.75006  -0.71227
 Alpha  occ. eigenvalues --   -0.70257  -0.70200  -0.69724  -0.69559  -0.69195
 Alpha  occ. eigenvalues --   -0.67923  -0.66638  -0.64119  -0.60630  -0.60023
 Alpha  occ. eigenvalues --   -0.58697  -0.58577  -0.58037  -0.57803  -0.57078
 Alpha  occ. eigenvalues --   -0.56121  -0.54743  -0.54558  -0.54254  -0.53314
 Alpha  occ. eigenvalues --   -0.53127  -0.53007  -0.51807  -0.51781  -0.51594
 Alpha  occ. eigenvalues --   -0.50925  -0.49697  -0.49640  -0.46967  -0.46555
 Alpha  occ. eigenvalues --   -0.45591  -0.44332  -0.43845  -0.41696  -0.41224
 Alpha  occ. eigenvalues --   -0.40643  -0.38791  -0.37968  -0.34660  -0.30549
 Alpha virt. eigenvalues --   -0.02637  -0.01100   0.00079   0.01726   0.02456
 Alpha virt. eigenvalues --    0.02630   0.03200   0.03733   0.04386   0.04617
 Alpha virt. eigenvalues --    0.05059   0.05155   0.06270   0.06626   0.06843
 Alpha virt. eigenvalues --    0.06935   0.07216   0.07557   0.08283   0.08632
 Alpha virt. eigenvalues --    0.08727   0.09090   0.09525   0.10930   0.11412
 Alpha virt. eigenvalues --    0.11554   0.11723   0.12351   0.12873   0.13120
 Alpha virt. eigenvalues --    0.13764   0.13998   0.14814   0.15541   0.15593
 Alpha virt. eigenvalues --    0.16689   0.17021   0.17315   0.17845   0.17995
 Alpha virt. eigenvalues --    0.18151   0.18907   0.19397   0.20164   0.20294
 Alpha virt. eigenvalues --    0.20499   0.20849   0.21011   0.21305   0.22030
 Alpha virt. eigenvalues --    0.22391   0.22465   0.22856   0.22907   0.23713
 Alpha virt. eigenvalues --    0.24133   0.24450   0.24970   0.25415   0.25850
 Alpha virt. eigenvalues --    0.26013   0.26300   0.26920   0.27086   0.27387
 Alpha virt. eigenvalues --    0.27582   0.28064   0.28351   0.28695   0.29079
 Alpha virt. eigenvalues --    0.29281   0.29962   0.30168   0.30427   0.31096
 Alpha virt. eigenvalues --    0.31618   0.32056   0.32353   0.32944   0.33421
 Alpha virt. eigenvalues --    0.33573   0.34095   0.35298   0.35465   0.36422
 Alpha virt. eigenvalues --    0.36878   0.37424   0.37734   0.38057   0.38376
 Alpha virt. eigenvalues --    0.38578   0.39245   0.39695   0.40373   0.40881
 Alpha virt. eigenvalues --    0.41205   0.41410   0.42104   0.43042   0.43260
 Alpha virt. eigenvalues --    0.43420   0.44193   0.44731   0.45139   0.46062
 Alpha virt. eigenvalues --    0.46805   0.46990   0.47411   0.48611   0.48932
 Alpha virt. eigenvalues --    0.49264   0.49920   0.51659   0.51957   0.52649
 Alpha virt. eigenvalues --    0.53115   0.54351   0.54920   0.55702   0.56027
 Alpha virt. eigenvalues --    0.57195   0.57482   0.58515   0.59261   0.60093
 Alpha virt. eigenvalues --    0.60865   0.61071   0.62807   0.63390   0.63915
 Alpha virt. eigenvalues --    0.64245   0.66226   0.66551   0.67487   0.67651
 Alpha virt. eigenvalues --    0.69040   0.69242   0.69829   0.70011   0.70920
 Alpha virt. eigenvalues --    0.71891   0.72361   0.72698   0.73638   0.73979
 Alpha virt. eigenvalues --    0.74197   0.76248   0.76889   0.77045   0.77766
 Alpha virt. eigenvalues --    0.78220   0.78710   0.80416   0.80931   0.81166
 Alpha virt. eigenvalues --    0.82975   0.83954   0.85449   0.87699   0.88107
 Alpha virt. eigenvalues --    0.89946   0.91626   0.93376   0.93986   0.95048
 Alpha virt. eigenvalues --    0.96210   0.97846   0.99297   1.00801   1.03329
 Alpha virt. eigenvalues --    1.03869   1.04479   1.04911   1.06129   1.08177
 Alpha virt. eigenvalues --    1.10217   1.10737   1.11754   1.12192   1.14523
 Alpha virt. eigenvalues --    1.14952   1.15241   1.17207   1.19215   1.20434
 Alpha virt. eigenvalues --    1.21738   1.22109   1.23985   1.24261   1.25034
 Alpha virt. eigenvalues --    1.31014   1.31222   1.35455   1.38585   1.39575
 Alpha virt. eigenvalues --    1.39666   1.40733   1.41317   1.43631   1.44211
 Alpha virt. eigenvalues --    1.44758   1.46978   1.48075   1.48404   1.49128
 Alpha virt. eigenvalues --    1.49548   1.50088   1.50830   1.51189   1.52657
 Alpha virt. eigenvalues --    1.53236   1.54049   1.54703   1.55439   1.56308
 Alpha virt. eigenvalues --    1.57010   1.57962   1.58439   1.58546   1.59592
 Alpha virt. eigenvalues --    1.60178   1.60897   1.61109   1.61226   1.62435
 Alpha virt. eigenvalues --    1.62758   1.63459   1.64642   1.66340   1.68242
 Alpha virt. eigenvalues --    1.71791   1.73290   1.76056   1.77269   1.78432
 Alpha virt. eigenvalues --    1.78789   1.79252   1.79803   1.80526   1.82862
 Alpha virt. eigenvalues --    1.83859   1.84088   1.86790   1.87223   1.87987
 Alpha virt. eigenvalues --    1.89518   1.90720   1.91486   1.94919   1.96703
 Alpha virt. eigenvalues --    1.98648   1.99547   2.01467   2.03475   2.04177
 Alpha virt. eigenvalues --    2.04704   2.08136   2.08930   2.11585   2.12253
 Alpha virt. eigenvalues --    2.14440   2.16013   2.17738   2.20196   2.21718
 Alpha virt. eigenvalues --    2.23705   2.26371   2.35220   2.36696   2.37154
 Alpha virt. eigenvalues --    2.40278   2.41989   2.42755   2.44147   2.50441
 Alpha virt. eigenvalues --    2.51913   2.54804   2.56245   2.57972   2.59213
 Alpha virt. eigenvalues --    2.59825   2.61903   2.65266   2.68812   2.70936
 Alpha virt. eigenvalues --    2.73341   2.74989   2.80179   2.81912   2.84523
 Alpha virt. eigenvalues --    2.86069   2.91838   2.92550   2.94652   2.95902
 Alpha virt. eigenvalues --    2.99193   2.99593   3.01067   3.02024   3.04022
 Alpha virt. eigenvalues --    3.05356   3.05969   3.07131   3.10276   3.12037
 Alpha virt. eigenvalues --    3.12571   3.14328   3.18103   3.19010   3.21153
 Alpha virt. eigenvalues --    3.24521   3.28710   3.29301   3.29777   3.34314
 Alpha virt. eigenvalues --    3.37606   3.38981   3.41540   3.43922   3.44280
 Alpha virt. eigenvalues --    3.50706   3.52972   3.56055   3.70524   3.71551
 Alpha virt. eigenvalues --    3.73900   3.79417   3.80560   3.80849   3.82784
 Alpha virt. eigenvalues --    3.84343   3.84361   3.85395   3.86017   3.86197
 Alpha virt. eigenvalues --    3.87203   3.87886   3.88728   3.89131   3.90649
 Alpha virt. eigenvalues --    3.91128   3.94454   3.96952   3.99190   4.01132
 Alpha virt. eigenvalues --    4.01605   4.01768   4.01948   4.05898   4.10314
 Alpha virt. eigenvalues --    4.11406   4.13249   4.18554   4.21927   4.23338
 Alpha virt. eigenvalues --    4.27962   4.28900   4.31185   4.32860   4.55666
 Alpha virt. eigenvalues --    4.72543   4.79774   4.81187   4.99567   4.99828
 Alpha virt. eigenvalues --    5.02245   5.03739   5.09049   5.09980   5.15887
 Alpha virt. eigenvalues --    5.37378   5.50092   5.80394   5.96373   6.46446
 Alpha virt. eigenvalues --    6.48485   6.50186   6.50524   6.51495   6.53482
 Alpha virt. eigenvalues --    6.53980   6.55265   6.56061   6.56479   6.58895
 Alpha virt. eigenvalues --    6.62943   6.63644   6.64277   6.88653   6.89829
 Alpha virt. eigenvalues --    6.90298   6.92032  23.45822  23.57116  23.64914
 Alpha virt. eigenvalues --   23.65657  23.72044  23.81629  23.92563  23.93178
 Alpha virt. eigenvalues --   23.97258  24.08581  24.12489  24.20007  35.65718
 Alpha virt. eigenvalues --   50.01696  50.13513  66.89787  66.90176  66.90918
 Alpha virt. eigenvalues --   66.91581  66.96328  66.98628
          Condensed to atoms (all electrons):
               1          2          3          4          5          6
     1  C   26.553126  -0.379414  -0.438825  -0.195263  -0.343064  -0.568837
     2  N   -0.379414   7.655167   0.194208   0.002295  -0.215974  -0.347755
     3  C   -0.438825   0.194208   9.062447   0.499619   0.336569  -0.687510
     4  O   -0.195263   0.002295   0.499619   8.049511  -0.195944  -0.195599
     5  O   -0.343064  -0.215974   0.336569  -0.195944   8.323811   0.388433
     6  C   -0.568837  -0.347755  -0.687510  -0.195599   0.388433   8.551606
     7  C   -0.013642   0.036896   0.153370   0.029797  -0.167149  -1.001720
     8  C   -0.016549  -0.007228  -0.280049   0.000317   0.033125   0.345080
     9  C   -3.074318   0.193997  -0.124608   0.358541  -0.003915  -0.463470
    10  C   -4.468324   0.283292   0.648286   0.014401   0.013204  -0.062588
    11  C   -2.053078  -0.040929  -2.375004  -0.003198  -0.019990  -0.221788
    12  C    0.878518  -0.000343   0.287670  -0.004125   0.007752   0.071002
    13  C   -4.843814  -0.149017  -1.518834  -0.060898  -0.044742  -0.105529
    14  H   -0.038280   0.260525   0.003009  -0.000001   0.022483  -0.002445
    15  H    0.003997   0.005173   0.032513  -0.002135  -0.043668   0.361286
    16  H    0.008125   0.004813   0.047116  -0.002198  -0.043325   0.344789
    17  H   -0.000655  -0.000629   0.004780  -0.000333   0.001045  -0.064483
    18  H    0.000066  -0.000714   0.010257  -0.000324   0.000860  -0.066215
    19  H   -0.000096  -0.000043  -0.000525  -0.000082  -0.000397  -0.048207
    20  H    0.000134   0.000044   0.009069   0.000031  -0.000653   0.092343
    21  H   -0.000168  -0.000026  -0.001538  -0.000079  -0.000366  -0.049473
    22  H    0.075347  -0.025800   0.097371   0.008301   0.003080   0.011096
    23  H    0.051264  -0.019280  -0.018395   0.000156  -0.000800  -0.001185
    24  C   -1.286939   0.007084  -0.333690   0.000393   0.000875  -0.012327
    25  C   -3.042370   0.035211   0.321425  -0.004695   0.005185   0.025917
    26  H    0.001113  -0.002326   0.003853  -0.000012  -0.000013   0.000051
    27  F    0.005457   0.000081   0.000747  -0.000002   0.000000   0.000006
    28  F   -0.004594   0.000013  -0.000661  -0.000003   0.000000  -0.000004
    29  F   -0.000061  -0.000040  -0.000817   0.000002   0.000000  -0.000010
    30  F    0.245923  -0.001047   0.006747  -0.000067  -0.000007   0.000155
    31  F    0.019741   0.000272  -0.001733   0.000017  -0.000001  -0.000022
    32  F   -0.000179   0.000448  -0.004845   0.000116  -0.000002  -0.000151
               7          8          9         10         11         12
     1  C   -0.013642  -0.016549  -3.074318  -4.468324  -2.053078   0.878518
     2  N    0.036896  -0.007228   0.193997   0.283292  -0.040929  -0.000343
     3  C    0.153370  -0.280049  -0.124608   0.648286  -2.375004   0.287670
     4  O    0.029797   0.000317   0.358541   0.014401  -0.003198  -0.004125
     5  O   -0.167149   0.033125  -0.003915   0.013204  -0.019990   0.007752
     6  C   -1.001720   0.345080  -0.463470  -0.062588  -0.221788   0.071002
     7  C    6.522567  -0.143098  -0.008580  -0.004753   0.001478  -0.002934
     8  C   -0.143098   6.107165  -0.019313  -0.001363  -0.001488   0.000704
     9  C   -0.008580  -0.019313  18.040221   4.852319  -8.759091  -1.355841
    10  C   -0.004753  -0.001363   4.852319  42.648178 -16.960110  -1.689240
    11  C    0.001478  -0.001488  -8.759091 -16.960110  54.145711  -9.729224
    12  C   -0.002934   0.000704  -1.355841  -1.689240  -9.729224  16.970067
    13  C    0.014626   0.000799  -4.557671  -8.154809   1.194147  -0.602228
    14  H   -0.002379  -0.000475   0.044640   0.013679   0.007836   0.014482
    15  H   -0.022234  -0.013114  -0.001763   0.000704   0.000155  -0.000088
    16  H   -0.022997  -0.015508   0.000329   0.000327   0.000313  -0.000078
    17  H    0.445190  -0.044669   0.000335   0.000033   0.000009  -0.000005
    18  H    0.442082  -0.046325   0.000862   0.000031   0.000025  -0.000023
    19  H    0.012840   0.380486   0.000024   0.000000  -0.000000  -0.000000
    20  H   -0.135339   0.385852   0.000063   0.000001   0.000001  -0.000001
    21  H    0.015361   0.380224   0.000023  -0.000001  -0.000000   0.000000
    22  H   -0.000667   0.000051   0.371395  -0.104374  -0.117495   0.003965
    23  H   -0.000004  -0.000001  -0.045987  -0.000174   0.001538   0.050840
    24  C   -0.000302  -0.000041  -2.885068  -4.602688  -2.649780   0.902099
    25  C   -0.001419   0.000093   2.997722  -5.648671  -5.312656  -0.006825
    26  H    0.000001   0.000000   0.003685   0.031172   0.039766   0.273268
    27  F   -0.000000   0.000000   0.082415  -0.259832  -0.010774   0.072791
    28  F   -0.000000   0.000000   0.001354  -0.074078   0.217923  -0.087486
    29  F    0.000000  -0.000000   0.000498  -0.019583  -0.136379   0.057902
    30  F    0.000016  -0.000000   0.182067  -0.382088  -0.082538   0.021942
    31  F    0.000000  -0.000000   0.004459   0.054456  -0.183412   0.040343
    32  F    0.000000  -0.000000  -0.114209   0.326492  -0.095306   0.007332
              13         14         15         16         17         18
     1  C   -4.843814  -0.038280   0.003997   0.008125  -0.000655   0.000066
     2  N   -0.149017   0.260525   0.005173   0.004813  -0.000629  -0.000714
     3  C   -1.518834   0.003009   0.032513   0.047116   0.004780   0.010257
     4  O   -0.060898  -0.000001  -0.002135  -0.002198  -0.000333  -0.000324
     5  O   -0.044742   0.022483  -0.043668  -0.043325   0.001045   0.000860
     6  C   -0.105529  -0.002445   0.361286   0.344789  -0.064483  -0.066215
     7  C    0.014626  -0.002379  -0.022234  -0.022997   0.445190   0.442082
     8  C    0.000799  -0.000475  -0.013114  -0.015508  -0.044669  -0.046325
     9  C   -4.557671   0.044640  -0.001763   0.000329   0.000335   0.000862
    10  C   -8.154809   0.013679   0.000704   0.000327   0.000033   0.000031
    11  C    1.194147   0.007836   0.000155   0.000313   0.000009   0.000025
    12  C   -0.602228   0.014482  -0.000088  -0.000078  -0.000005  -0.000023
    13  C   22.841175  -0.058271   0.001051   0.000468   0.000090  -0.000212
    14  H   -0.058271   0.296005  -0.000010  -0.000029  -0.000001   0.000005
    15  H    0.001051  -0.000010   0.440057  -0.039115   0.005246  -0.007662
    16  H    0.000468  -0.000029  -0.039115   0.440334  -0.007636   0.005277
    17  H    0.000090  -0.000001   0.005246  -0.007636   0.440447  -0.036647
    18  H   -0.000212   0.000005  -0.007662   0.005277  -0.036647   0.440537
    19  H    0.000001  -0.000000  -0.000454   0.003544  -0.007896   0.005968
    20  H   -0.000016  -0.000000  -0.000184  -0.000184  -0.003160  -0.003196
    21  H    0.000005  -0.000000   0.003528  -0.000466   0.005974  -0.007923
    22  H   -0.051153   0.000171  -0.000043  -0.000045  -0.000000  -0.000000
    23  H    0.292114   0.005826  -0.000000  -0.000000  -0.000000  -0.000000
    24  C    0.459618   0.002336  -0.000003   0.000004  -0.000000   0.000000
    25  C    1.302074   0.000086   0.000019  -0.000067   0.000001  -0.000001
    26  H    0.002233   0.000002   0.000000   0.000000  -0.000000  -0.000000
    27  F    0.027516   0.000002   0.000000  -0.000000   0.000000  -0.000000
    28  F   -0.013151   0.000001  -0.000000   0.000000  -0.000000   0.000000
    29  F    0.155779   0.000000   0.000000   0.000000  -0.000000   0.000000
    30  F   -0.014170  -0.000004   0.000000   0.000001   0.000000   0.000000
    31  F   -0.003989   0.000001   0.000000  -0.000000   0.000000  -0.000000
    32  F   -0.011065   0.000000  -0.000000   0.000000   0.000000  -0.000000
              19         20         21         22         23         24
     1  C   -0.000096   0.000134  -0.000168   0.075347   0.051264  -1.286939
     2  N   -0.000043   0.000044  -0.000026  -0.025800  -0.019280   0.007084
     3  C   -0.000525   0.009069  -0.001538   0.097371  -0.018395  -0.333690
     4  O   -0.000082   0.000031  -0.000079   0.008301   0.000156   0.000393
     5  O   -0.000397  -0.000653  -0.000366   0.003080  -0.000800   0.000875
     6  C   -0.048207   0.092343  -0.049473   0.011096  -0.001185  -0.012327
     7  C    0.012840  -0.135339   0.015361  -0.000667  -0.000004  -0.000302
     8  C    0.380486   0.385852   0.380224   0.000051  -0.000001  -0.000041
     9  C    0.000024   0.000063   0.000023   0.371395  -0.045987  -2.885068
    10  C    0.000000   0.000001  -0.000001  -0.104374  -0.000174  -4.602688
    11  C   -0.000000   0.000001  -0.000000  -0.117495   0.001538  -2.649780
    12  C   -0.000000  -0.000001   0.000000   0.003965   0.050840   0.902099
    13  C    0.000001  -0.000016   0.000005  -0.051153   0.292114   0.459618
    14  H   -0.000000  -0.000000  -0.000000   0.000171   0.005826   0.002336
    15  H   -0.000454  -0.000184   0.003528  -0.000043  -0.000000  -0.000003
    16  H    0.003544  -0.000184  -0.000466  -0.000045  -0.000000   0.000004
    17  H   -0.007896  -0.003160   0.005974  -0.000000  -0.000000  -0.000000
    18  H    0.005968  -0.003196  -0.007923  -0.000000  -0.000000   0.000000
    19  H    0.451279  -0.024610  -0.037071  -0.000000  -0.000000  -0.000000
    20  H   -0.024610   0.425515  -0.024581   0.000000   0.000000   0.000000
    21  H   -0.037071  -0.024581   0.451394  -0.000000  -0.000000  -0.000000
    22  H   -0.000000   0.000000  -0.000000   0.332738  -0.000031  -0.001786
    23  H   -0.000000   0.000000  -0.000000  -0.000031   0.406021   0.016572
    24  C   -0.000000   0.000000  -0.000000  -0.001786   0.016572  21.791632
    25  C   -0.000000  -0.000000  -0.000000   0.042997  -0.000802  -6.657607
    26  H    0.000000  -0.000000   0.000000   0.000045  -0.003891  -0.051679
    27  F   -0.000000   0.000000  -0.000000   0.000013   0.000026  -0.030422
    28  F    0.000000  -0.000000  -0.000000   0.000014   0.000036   0.135779
    29  F   -0.000000   0.000000  -0.000000  -0.000006   0.000045   0.052710
    30  F    0.000000  -0.000000   0.000000   0.012636  -0.000004  -0.000622
    31  F   -0.000000  -0.000000  -0.000000   0.000642  -0.000001   0.266232
    32  F   -0.000000   0.000000  -0.000000  -0.001021  -0.000005  -0.004245
              25         26         27         28         29         30
     1  C   -3.042370   0.001113   0.005457  -0.004594  -0.000061   0.245923
     2  N    0.035211  -0.002326   0.000081   0.000013  -0.000040  -0.001047
     3  C    0.321425   0.003853   0.000747  -0.000661  -0.000817   0.006747
     4  O   -0.004695  -0.000012  -0.000002  -0.000003   0.000002  -0.000067
     5  O    0.005185  -0.000013   0.000000   0.000000   0.000000  -0.000007
     6  C    0.025917   0.000051   0.000006  -0.000004  -0.000010   0.000155
     7  C   -0.001419   0.000001  -0.000000  -0.000000   0.000000   0.000016
     8  C    0.000093   0.000000   0.000000   0.000000  -0.000000  -0.000000
     9  C    2.997722   0.003685   0.082415   0.001354   0.000498   0.182067
    10  C   -5.648671   0.031172  -0.259832  -0.074078  -0.019583  -0.382088
    11  C   -5.312656   0.039766  -0.010774   0.217923  -0.136379  -0.082538
    12  C   -0.006825   0.273268   0.072791  -0.087486   0.057902   0.021942
    13  C    1.302074   0.002233   0.027516  -0.013151   0.155779  -0.014170
    14  H    0.000086   0.000002   0.000002   0.000001   0.000000  -0.000004
    15  H    0.000019   0.000000   0.000000  -0.000000   0.000000   0.000000
    16  H   -0.000067   0.000000  -0.000000   0.000000   0.000000   0.000001
    17  H    0.000001  -0.000000   0.000000  -0.000000  -0.000000   0.000000
    18  H   -0.000001  -0.000000  -0.000000   0.000000   0.000000   0.000000
    19  H   -0.000000   0.000000  -0.000000   0.000000  -0.000000   0.000000
    20  H   -0.000000  -0.000000   0.000000  -0.000000   0.000000  -0.000000
    21  H   -0.000000   0.000000  -0.000000  -0.000000  -0.000000   0.000000
    22  H    0.042997   0.000045   0.000013   0.000014  -0.000006   0.012636
    23  H   -0.000802  -0.003891   0.000026   0.000036   0.000045  -0.000004
    24  C   -6.657607  -0.051679  -0.030422   0.135779   0.052710  -0.000622
    25  C   20.460537   0.015494   0.268312  -0.011006   0.029878   0.166615
    26  H    0.015494   0.377031   0.000683  -0.000602   0.007435   0.000007
    27  F    0.268312   0.000683   8.986146  -0.038481  -0.028451   0.001690
    28  F   -0.011006  -0.000602  -0.038481   8.956989  -0.041352   0.000088
    29  F    0.029878   0.007435  -0.028451  -0.041352   9.036334   0.000073
    30  F    0.166615   0.000007   0.001690   0.000088   0.000073   9.015786
    31  F   -0.040479   0.000040  -0.006542   0.002869   0.001735  -0.026890
    32  F    0.074707   0.000007   0.003807  -0.001066   0.000126  -0.041549
              31         32
     1  C    0.019741  -0.000179
     2  N    0.000272   0.000448
     3  C   -0.001733  -0.004845
     4  O    0.000017   0.000116
     5  O   -0.000001  -0.000002
     6  C   -0.000022  -0.000151
     7  C    0.000000   0.000000
     8  C   -0.000000  -0.000000
     9  C    0.004459  -0.114209
    10  C    0.054456   0.326492
    11  C   -0.183412  -0.095306
    12  C    0.040343   0.007332
    13  C   -0.003989  -0.011065
    14  H    0.000001   0.000000
    15  H    0.000000  -0.000000
    16  H   -0.000000   0.000000
    17  H    0.000000   0.000000
    18  H   -0.000000  -0.000000
    19  H   -0.000000  -0.000000
    20  H   -0.000000   0.000000
    21  H   -0.000000  -0.000000
    22  H    0.000642  -0.001021
    23  H   -0.000001  -0.000005
    24  C    0.266232  -0.004245
    25  C   -0.040479   0.074707
    26  H    0.000040   0.000007
    27  F   -0.006542   0.003807
    28  F    0.002869  -0.001066
    29  F    0.001735   0.000126
    30  F   -0.026890  -0.041549
    31  F    8.979095  -0.037267
    32  F   -0.037267   8.932314
 Mulliken charges:
               1
     1  C   -1.074340
     2  N   -0.488954
     3  C    0.067978
     4  O   -0.298539
     5  O   -0.056413
     6  C   -0.292451
     7  C   -0.147008
     8  C   -1.044678
     9  C    0.278886
    10  C   -0.453902
    11  C   -0.856660
    12  C   -0.182238
    13  C   -0.102126
    14  H    0.430805
    15  H    0.276742
    16  H    0.276208
    17  H    0.262966
    18  H    0.263270
    19  H    0.265240
    20  H    0.278872
    21  H    0.265182
    22  H    0.342559
    23  H    0.266123
    24  C    0.881865
    25  C    0.980325
    26  H    0.302638
    27  F   -0.075186
    28  F   -0.042581
    29  F   -0.115819
    30  F   -0.104758
    31  F   -0.069566
    32  F   -0.034440
 Sum of Mulliken charges =  -0.00000
 Mulliken charges with hydrogens summed into heavy atoms:
               1
     1  C   -1.074340
     2  N   -0.058149
     3  C    0.067978
     4  O   -0.298539
     5  O   -0.056413
     6  C    0.260500
     7  C    0.379228
     8  C   -0.235384
     9  C    0.621445
    10  C   -0.453902
    11  C   -0.856660
    12  C    0.120400
    13  C    0.163997
    24  C    0.881865
    25  C    0.980325
    27  F   -0.075186
    28  F   -0.042581
    29  F   -0.115819
    30  F   -0.104758
    31  F   -0.069566
    32  F   -0.034440
 Electronic spatial extent (au):  <R**2>=           9416.1472
 Charge=              0.0000 electrons
 Dipole moment (field-independent basis, Debye):
    X=             -7.1415    Y=             -5.0196    Z=             -0.0902  Tot=              8.7295
 Quadrupole moment (field-independent basis, Debye-Ang):
   XX=           -114.1782   YY=           -115.7632   ZZ=           -122.0813
   XY=              1.0351   XZ=              0.1473   YZ=             -0.1579
 Traceless Quadrupole moment (field-independent basis, Debye-Ang):
   XX=              3.1627   YY=              1.5777   ZZ=             -4.7404
   XY=              1.0351   XZ=              0.1473   YZ=             -0.1579
 Octapole moment (field-independent basis, Debye-Ang**2):
  XXX=           -139.1906  YYY=            -16.3684  ZZZ=              0.4656  XYY=             23.2945
  XXY=              4.1628  XXZ=              1.3508  XZZ=             17.1408  YZZ=             11.6906
  YYZ=             -1.3054  XYZ=             -0.2603
 Hexadecapole moment (field-independent basis, Debye-Ang**3):
 XXXX=          -9215.3603 YYYY=          -1305.2754 ZZZZ=           -273.1931 XXXY=             50.3896
 XXXZ=              7.3487 YYYX=             39.9092 YYYZ=              3.5604 ZZZX=              2.1374
 ZZZY=             -3.5024 XXYY=          -1916.1505 XXZZ=          -1703.0948 YYZZ=           -286.4397
 XXYZ=             -1.6676 YYXZ=             -3.7843 ZZXY=              2.2647
 N-N= 1.786814997860D+03 E-N=-6.561579226669D+03  KE= 1.264377019515D+03
 D1PCM: PCM CHGder 1st derivatives, ID1Alg=3 FixD1E=F DoIter=F DoCFld=F I1PDM=0.
 Calling FoFJK, ICntrl=      2127 FMM=F ISym2X=0 I1Cent= 0 IOpClX= 0 NMat=1 NMatS=1 NMatT=0.
 ***** Axes restored to original set *****
 -------------------------------------------------------------------
 Center     Atomic                   Forces (Hartrees/Bohr)
 Number     Number              X              Y              Z
 -------------------------------------------------------------------
      1        6           0.000001714    0.000001098    0.000000674
      2        7           0.000005708    0.000000590    0.000003122
      3        6           0.000000886   -0.000002507   -0.000002045
      4        8           0.000001005   -0.000000616   -0.000002559
      5        8          -0.000012097   -0.000001240    0.000000897
      6        6           0.000002295   -0.000002490   -0.000001772
      7        6          -0.000000365   -0.000002825   -0.000000464
      8        6          -0.000001182   -0.000004305   -0.000002561
      9        6           0.000000000    0.000002370    0.000000908
     10        6           0.000000592    0.000001627   -0.000001987
     11        6          -0.000000216    0.000002977   -0.000002747
     12        6          -0.000000729    0.000001254    0.000006467
     13        6          -0.000001177    0.000000600    0.000005252
     14        1          -0.000001089   -0.000000876    0.000002220
     15        1           0.000000724   -0.000000082   -0.000002573
     16        1          -0.000001045   -0.000004311   -0.000003699
     17        1          -0.000002348   -0.000005270    0.000000824
     18        1          -0.000000919   -0.000001767    0.000001555
     19        1          -0.000001384   -0.000005854   -0.000004442
     20        1          -0.000001404   -0.000004856   -0.000001685
     21        1           0.000000136   -0.000001999   -0.000003747
     22        1           0.000000968    0.000000477   -0.000003572
     23        1          -0.000001897    0.000000670    0.000007094
     24        6           0.000001317   -0.000000087    0.000006992
     25        6           0.000005585    0.000002067   -0.000002581
     26        1          -0.000001127    0.000002496    0.000006977
     27        9           0.000003508    0.000005518    0.000000144
     28        9           0.000001265    0.000007022    0.000005074
     29        9           0.000001270    0.000003607    0.000003789
     30        9           0.000000897    0.000001873   -0.000006626
     31        9          -0.000002541    0.000003428   -0.000003590
     32        9           0.000001649    0.000001412   -0.000005339
 -------------------------------------------------------------------
 Cartesian Forces:  Max     0.000012097 RMS     0.000003285

 GradGradGradGradGradGradGradGradGradGradGradGradGradGradGradGradGradGrad
 Berny optimization.
 FormGI is forming the generalized inverse of G from B-inverse, IUseBI=4.
 GSVD:  received Info=                   1 from GESDD.
 Internal  Forces:  Max     0.000008662 RMS     0.000002116
 Search for a local minimum.
 Step number   1 out of a maximum of  164
 All quantities printed in internal units (Hartrees-Bohrs-Radians)
 Mixed Optimization -- En-DIIS/RFO-DIIS
 Second derivative matrix not updated -- first step.
 ITU=  0
     Eigenvalues ---    0.00430   0.00581   0.00600   0.00662   0.01166
     Eigenvalues ---    0.01517   0.01560   0.01772   0.01902   0.02020
     Eigenvalues ---    0.02033   0.02122   0.02151   0.02179   0.02187
     Eigenvalues ---    0.02222   0.02241   0.02264   0.02505   0.03846
     Eigenvalues ---    0.04987   0.05394   0.05504   0.05551   0.05728
     Eigenvalues ---    0.08087   0.10459   0.10573   0.10754   0.10841
     Eigenvalues ---    0.11283   0.11993   0.13613   0.15998   0.16000
     Eigenvalues ---    0.16000   0.16000   0.16000   0.16000   0.16000
     Eigenvalues ---    0.21885   0.21954   0.22001   0.22368   0.23486
     Eigenvalues ---    0.24601   0.24986   0.24992   0.24999   0.25000
     Eigenvalues ---    0.25000   0.25000   0.25000   0.25000   0.25000
     Eigenvalues ---    0.25000   0.25000   0.25000   0.29854   0.30956
     Eigenvalues ---    0.31097   0.31565   0.34411   0.34412   0.34468
     Eigenvalues ---    0.34468   0.34519   0.34521   0.34681   0.35415
     Eigenvalues ---    0.35712   0.36138   0.39623   0.42251   0.42759
     Eigenvalues ---    0.45883   0.45883   0.46314   0.46645   0.47104
     Eigenvalues ---    0.48213   0.50174   0.56557   0.56743   0.57047
     Eigenvalues ---    0.57483   0.57543   0.57591   0.57613   1.02609
 RFO step:  Lambda= 0.00000000D+00 EMin= 4.30135229D-03
 Linear search not attempted -- first point.
 Iteration  1 RMS(Cart)=  0.00016593 RMS(Int)=  0.00000001
 Iteration  2 RMS(Cart)=  0.00000002 RMS(Int)=  0.00000000
 Variable       Old X    -DE/DX   Delta X   Delta X   Delta X     New X
                                 (Linear)    (Quad)   (Total)
    R1        2.63411   0.00000   0.00000   0.00000   0.00000   2.63411
    R2        2.64431   0.00000   0.00000   0.00001   0.00001   2.64432
    R3        2.63780   0.00000   0.00000   0.00001   0.00001   2.63781
    R4        2.59690  -0.00001   0.00000  -0.00001  -0.00001   2.59689
    R5        1.90963   0.00000   0.00000   0.00000   0.00000   1.90963
    R6        2.27612   0.00000   0.00000   0.00000   0.00000   2.27612
    R7        2.52940  -0.00001   0.00000  -0.00001  -0.00001   2.52939
    R8        2.72070   0.00000   0.00000   0.00001   0.00001   2.72070
    R9        2.85828   0.00000   0.00000   0.00000   0.00000   2.85829
   R10        2.06459   0.00000   0.00000   0.00000   0.00000   2.06460
   R11        2.06463   0.00000   0.00000   0.00000   0.00000   2.06463
   R12        2.88256   0.00000   0.00000   0.00000   0.00000   2.88256
   R13        2.06642   0.00000   0.00000   0.00000   0.00000   2.06642
   R14        2.06641   0.00000   0.00000   0.00000   0.00000   2.06641
   R15        2.06548   0.00000   0.00000   0.00000   0.00000   2.06548
   R16        2.06195   0.00000   0.00000   0.00000   0.00000   2.06195
   R17        2.06548   0.00000   0.00000   0.00000   0.00000   2.06548
   R18        2.62342   0.00000   0.00000   0.00000   0.00000   2.62342
   R19        2.03867  -0.00000   0.00000  -0.00000  -0.00000   2.03866
   R20        2.64719  -0.00000   0.00000  -0.00001  -0.00001   2.64718
   R21        2.86097  -0.00000   0.00000  -0.00000  -0.00000   2.86097
   R22        2.62941  -0.00000   0.00000  -0.00000  -0.00000   2.62941
   R23        2.84948  -0.00000   0.00000  -0.00001  -0.00001   2.84947
   R24        2.61335   0.00000   0.00000   0.00000   0.00000   2.61335
   R25        2.04535   0.00000   0.00000   0.00000   0.00000   2.04535
   R26        2.05006  -0.00000   0.00000  -0.00000  -0.00000   2.05006
   R27        2.52881   0.00000   0.00000   0.00000   0.00000   2.52882
   R28        2.53615   0.00000   0.00000   0.00001   0.00001   2.53616
   R29        2.53774  -0.00000   0.00000  -0.00000  -0.00000   2.53774
   R30        2.52990  -0.00000   0.00000  -0.00000  -0.00000   2.52989
   R31        2.52899   0.00000   0.00000   0.00001   0.00001   2.52900
   R32        2.53357   0.00000   0.00000   0.00000   0.00000   2.53357
    A1        2.15402   0.00000   0.00000   0.00001   0.00001   2.15403
    A2        2.05196  -0.00000   0.00000  -0.00001  -0.00001   2.05195
    A3        2.07719  -0.00000   0.00000  -0.00000  -0.00000   2.07719
    A4        2.22900   0.00000   0.00000   0.00002   0.00002   2.22902
    A5        2.04050  -0.00000   0.00000  -0.00001  -0.00001   2.04049
    A6        2.01351  -0.00000   0.00000  -0.00001  -0.00001   2.01350
    A7        2.20196   0.00000   0.00000   0.00002   0.00002   2.20198
    A8        1.90162  -0.00001   0.00000  -0.00003  -0.00003   1.90159
    A9        2.17960   0.00000   0.00000   0.00001   0.00001   2.17962
   A10        2.01788   0.00000   0.00000   0.00000   0.00000   2.01788
   A11        1.88084   0.00000   0.00000   0.00001   0.00001   1.88084
   A12        1.89759  -0.00000   0.00000   0.00000   0.00000   1.89759
   A13        1.89732  -0.00000   0.00000  -0.00001  -0.00001   1.89731
   A14        1.94964  -0.00000   0.00000  -0.00000  -0.00000   1.94963
   A15        1.94989  -0.00000   0.00000  -0.00000  -0.00000   1.94989
   A16        1.88741   0.00000   0.00000  -0.00000  -0.00000   1.88741
   A17        1.93220  -0.00000   0.00000  -0.00000  -0.00000   1.93220
   A18        1.90418   0.00000   0.00000   0.00000   0.00000   1.90419
   A19        1.90397   0.00000   0.00000  -0.00000  -0.00000   1.90397
   A20        1.92583  -0.00000   0.00000  -0.00000  -0.00000   1.92583
   A21        1.92578   0.00000   0.00000  -0.00000  -0.00000   1.92578
   A22        1.87065  -0.00000   0.00000  -0.00000  -0.00000   1.87065
   A23        1.94321  -0.00000   0.00000  -0.00000  -0.00000   1.94320
   A24        1.93672   0.00000   0.00000   0.00000   0.00000   1.93672
   A25        1.94320   0.00000   0.00000   0.00000   0.00000   1.94320
   A26        1.87872  -0.00000   0.00000  -0.00000  -0.00000   1.87872
   A27        1.88037  -0.00000   0.00000  -0.00000  -0.00000   1.88037
   A28        1.87870   0.00000   0.00000   0.00000   0.00000   1.87870
   A29        2.09590  -0.00000   0.00000  -0.00001  -0.00001   2.09589
   A30        2.09235   0.00000   0.00000   0.00000   0.00000   2.09235
   A31        2.09493   0.00000   0.00000   0.00001   0.00001   2.09493
   A32        2.11013   0.00000   0.00000   0.00001   0.00001   2.11013
   A33        2.03450   0.00001   0.00000   0.00003   0.00003   2.03453
   A34        2.13821  -0.00001   0.00000  -0.00003  -0.00003   2.13818
   A35        2.06704   0.00000   0.00000   0.00001   0.00001   2.06704
   A36        2.16079  -0.00001   0.00000  -0.00003  -0.00003   2.16076
   A37        2.05501   0.00001   0.00000   0.00002   0.00002   2.05503
   A38        2.11290  -0.00000   0.00000  -0.00001  -0.00001   2.11289
   A39        2.08942   0.00000   0.00000   0.00000   0.00000   2.08942
   A40        2.08084   0.00000   0.00000   0.00001   0.00001   2.08085
   A41        2.10304   0.00000   0.00000   0.00000   0.00000   2.10304
   A42        2.09274   0.00000   0.00000   0.00000   0.00000   2.09274
   A43        2.08740  -0.00000   0.00000  -0.00001  -0.00001   2.08740
   A44        1.96760  -0.00001   0.00000  -0.00003  -0.00003   1.96757
   A45        1.96217   0.00000   0.00000   0.00001   0.00001   1.96217
   A46        1.93962  -0.00000   0.00000   0.00000   0.00000   1.93962
   A47        1.87242   0.00000   0.00000  -0.00000  -0.00000   1.87241
   A48        1.86064   0.00000   0.00000   0.00001   0.00001   1.86065
   A49        1.85457   0.00000   0.00000   0.00001   0.00001   1.85458
   A50        1.94823   0.00000   0.00000   0.00001   0.00001   1.94824
   A51        1.95945  -0.00000   0.00000  -0.00002  -0.00002   1.95943
   A52        1.95205   0.00000   0.00000   0.00000   0.00000   1.95205
   A53        1.86238   0.00000   0.00000   0.00002   0.00002   1.86240
   A54        1.86057  -0.00000   0.00000  -0.00000  -0.00000   1.86057
   A55        1.87544  -0.00000   0.00000  -0.00001  -0.00001   1.87543
    D1       -0.05320   0.00000   0.00000   0.00002   0.00002  -0.05318
    D2        3.10976   0.00000   0.00000   0.00003   0.00003   3.10978
    D3        3.09483   0.00000   0.00000   0.00004   0.00004   3.09487
    D4       -0.02540   0.00000   0.00000   0.00005   0.00005  -0.02536
    D5       -3.13998  -0.00000   0.00000  -0.00000  -0.00000  -3.13999
    D6       -0.00368   0.00000   0.00000   0.00003   0.00003  -0.00365
    D7       -0.00491  -0.00000   0.00000  -0.00003  -0.00003  -0.00494
    D8        3.13139   0.00000   0.00000   0.00001   0.00001   3.13140
    D9       -3.13761  -0.00000   0.00000  -0.00002  -0.00002  -3.13763
   D10       -0.00098   0.00000   0.00000   0.00001   0.00001  -0.00097
   D11        0.01012   0.00000   0.00000   0.00001   0.00001   0.01013
   D12       -3.13643   0.00000   0.00000   0.00003   0.00003  -3.13640
   D13        0.00999   0.00000   0.00000   0.00001   0.00001   0.01000
   D14       -3.13153  -0.00000   0.00000  -0.00006  -0.00006  -3.13159
   D15        3.13050   0.00000   0.00000   0.00000   0.00000   3.13050
   D16       -0.01102  -0.00000   0.00000  -0.00007  -0.00007  -0.01109
   D17       -3.14042   0.00000   0.00000   0.00003   0.00003  -3.14039
   D18        0.00125  -0.00000   0.00000  -0.00004  -0.00004   0.00121
   D19        3.13591  -0.00000   0.00000  -0.00006  -0.00006   3.13585
   D20        1.01984  -0.00000   0.00000  -0.00006  -0.00006   1.01979
   D21       -1.03106  -0.00000   0.00000  -0.00005  -0.00005  -1.03111
   D22       -3.14140  -0.00000   0.00000  -0.00001  -0.00001  -3.14141
   D23        1.01923  -0.00000   0.00000  -0.00001  -0.00001   1.01921
   D24       -1.01904  -0.00000   0.00000  -0.00001  -0.00001  -1.01905
   D25       -1.05813   0.00000   0.00000  -0.00001  -0.00001  -1.05814
   D26        3.10249   0.00000   0.00000  -0.00001  -0.00001   3.10249
   D27        1.06423   0.00000   0.00000  -0.00001  -0.00001   1.06422
   D28        1.05870  -0.00000   0.00000  -0.00001  -0.00001   1.05869
   D29       -1.06386  -0.00000   0.00000  -0.00001  -0.00001  -1.06387
   D30       -3.10213  -0.00000   0.00000  -0.00001  -0.00001  -3.10214
   D31       -1.04992  -0.00000   0.00000  -0.00001  -0.00001  -1.04993
   D32        3.14101  -0.00000   0.00000  -0.00001  -0.00001   3.14100
   D33        1.04879  -0.00000   0.00000  -0.00001  -0.00001   1.04878
   D34        1.05985   0.00000   0.00000  -0.00001  -0.00001   1.05984
   D35       -1.03241   0.00000   0.00000  -0.00001  -0.00001  -1.03241
   D36       -3.12463  -0.00000   0.00000  -0.00001  -0.00001  -3.12464
   D37        3.12379  -0.00000   0.00000  -0.00001  -0.00001   3.12378
   D38        1.03154   0.00000   0.00000  -0.00001  -0.00001   1.03153
   D39       -1.06068  -0.00000   0.00000  -0.00001  -0.00001  -1.06069
   D40       -0.01029   0.00000   0.00000   0.00003   0.00003  -0.01026
   D41       -3.12416   0.00000   0.00000   0.00002   0.00002  -3.12414
   D42        3.13660  -0.00000   0.00000  -0.00000  -0.00000   3.13660
   D43        0.02274  -0.00000   0.00000  -0.00002  -0.00002   0.02272
   D44        0.02001  -0.00000   0.00000  -0.00001  -0.00001   0.01999
   D45        3.13230  -0.00000   0.00000  -0.00011  -0.00011   3.13219
   D46        3.13219  -0.00000   0.00000   0.00000   0.00000   3.13219
   D47       -0.03871  -0.00000   0.00000  -0.00009  -0.00009  -0.03880
   D48       -0.33302  -0.00000   0.00000  -0.00028  -0.00028  -0.33330
   D49       -2.42337  -0.00000   0.00000  -0.00030  -0.00030  -2.42366
   D50        1.74994  -0.00000   0.00000  -0.00027  -0.00027   1.74967
   D51        2.83678  -0.00000   0.00000  -0.00029  -0.00029   2.83649
   D52        0.74644  -0.00000   0.00000  -0.00031  -0.00031   0.74613
   D53       -1.36344  -0.00000   0.00000  -0.00029  -0.00029  -1.36372
   D54       -0.01480   0.00000   0.00000  -0.00000  -0.00000  -0.01480
   D55        3.13452  -0.00000   0.00000  -0.00003  -0.00003   3.13449
   D56       -3.12888   0.00000   0.00000   0.00009   0.00009  -3.12880
   D57        0.02043   0.00000   0.00000   0.00006   0.00006   0.02050
[...]
 30,0.00005151,0.00000340,-0.00055355,0.00105972,0.00054901,0.00305074,
 -0.00000393,0.00070301,-0.00505778,0.03839434,-0.01833451,-0.00548998,
 -0.00249360,-0.00219788,-0.00118894,0.00135501,0.00160320,0.00001006,-
 0.00017742,-0.00000888,-0.00004918,-0.00002123,-0.00000066,-0.00005268
 ,-0.00002243,0.00000265,0.00000582,0.00000712,0.00000042,0.00000683,0.
 00000560,0.00000101,0.00000151,-0.00001063,0.00000328,-0.00003169,0.00
 000575,0.00000124,0.00000252,-0.00000856,-0.00000425,0.00001688,0.0000
 5137,0.00001282,-0.00063670,0.00021172,0.00023791,-0.09713470,0.049284
 91,-0.02799710,-0.00033105,0.00205988,0.00002926,0.00022571,0.00022833
 ,-0.00047170,0.08964382,-0.00210440,0.00156232,0.00031580,0.00344364,-
 0.00011189,-0.00003608,-0.00252616,-0.00138356,0.00005838,0.00053224,0
 .00091254,0.00001121,0.00120028,-0.00025428,-0.00009615,-0.00045788,-0
 .00015367,0.00001944,0.00003555,0.00005972,0.00000520,0.00000139,-0.00
 004876,-0.00000156,0.00217489,-0.00115801,-0.00108723,-0.00271878,-0.0
 0120803,-0.00046452,0.01136069,-0.02267182,0.01722423,0.00387720,0.001
 67005,0.00136941,0.00088044,-0.00020030,-0.00119266,-0.00002727,0.0001
 5743,0.00004506,0.00005047,0.00001821,0.00000446,0.00005650,0.00002209
 ,-0.00001018,-0.00000661,-0.00000736,0.00000367,-0.00000866,-0.0000011
 2,-0.00000724,0.00000165,0.00001092,-0.00000830,0.00002784,-0.00000281
 ,-0.00000047,-0.00000060,0.00000608,0.00000674,0.00014647,-0.00019072,
 0.00000865,0.00045205,-0.00019102,-0.00013040,0.05325755,-0.21188527,0
 .08497662,0.00833201,-0.00531452,0.00345786,-0.00050895,0.00064968,0.0
 0052727,-0.03902399,0.31933424,0.00037918,-0.00059011,-0.00015557,-0.0
 0073313,-0.00002637,0.00009744,0.00062136,0.00030223,-0.00006692,-0.00
 015564,-0.00020577,0.00005036,-0.00032432,0.00006825,0.00003970,0.0001
 2582,0.00004622,-0.00002531,-0.00001016,-0.00001526,-0.00000552,-0.000
 00030,0.00001360,-0.00000094,-0.00070096,0.00024373,0.00001885,0.00140
 166,0.00004328,0.00074547,-0.00111954,0.01182910,0.00343523,-0.0030874
 6,-0.00018235,-0.00015963,0.00041184,0.00081315,0.00005118,0.00002283,
 -0.00002842,-0.00004716,-0.00001127,-0.00000300,0.00000181,-0.00001602
 ,-0.00000962,0.00000598,0.00000142,0.00000560,0.00000110,0.00000313,-0
 .00000353,0.00000451,-0.00000201,-0.00000539,0.00000415,-0.00000770,0.
 00000101,-0.00000085,0.00000170,0.00000023,-0.00000019,-0.00002730,0.0
 0006292,-0.00008068,-0.00028593,0.00008754,0.00000717,-0.03247475,0.08
 323779,-0.11889834,-0.00067675,0.00126611,-0.00519675,0.00005575,-0.00
 013827,-0.00006249,0.03119215,-0.14538880,0.17380021,0.00309296,-0.001
 79394,-0.00004575,-0.00466372,0.00046231,0.00035936,0.00341258,0.00148
 517,0.00009338,-0.00071411,-0.00097382,-0.00007287,-0.00167072,0.00048
 513,0.00006729,0.00062452,0.00017802,-0.00001337,-0.00004267,-0.000089
 39,-0.00000282,-0.00000672,0.00006943,0.00000632,-0.00182167,0.0024478
 7,-0.00115685,0.00302161,0.00112608,0.00007274,-0.01450739,0.01235836,
 0.03858419,-0.00202144,-0.00347910,0.00109601,-0.00205671,0.00033581,-
 0.00180669,-0.00004301,-0.00026071,-0.00003302,-0.00007254,-0.00002822
 ,-0.00000006,-0.00006862,-0.00002891,0.00000209,0.00000770,0.00000677,
 -0.00000010,0.00000837,0.00001067,-0.00000124,0.00000323,-0.00001186,0
 .00000241,-0.00004229,0.00000721,0.00000267,0.00000254,-0.00001273,-0.
 00000639,-0.00007167,0.00013850,-0.00009942,-0.00039325,0.00024137,-0.
 00010425,-0.10635987,0.01684027,0.06874347,-0.00091663,0.00313959,0.00
 126706,0.00008168,0.00019431,0.00095341,0.01415002,-0.00458806,0.00080
 500,0.09837603,-0.00088056,0.00156242,0.00003833,0.00183837,-0.0001733
 9,-0.00015421,-0.00134889,-0.00070307,-0.00001757,0.00026932,0.0004588
 5,0.00002507,0.00063818,-0.00015461,-0.00001864,-0.00024141,-0.0000761
 0,0.00000627,0.00001805,0.00003218,0.00000083,0.00000090,-0.00002564,-
 0.00000299,0.00172558,-0.00110939,0.00054409,-0.00113298,-0.00164123,-
 0.00123343,0.01051840,0.00726445,-0.01340618,-0.00050512,0.00044782,0.
 00037615,0.00012662,0.00062298,0.00071919,0.00001837,0.00008998,0.0000
 0698,0.00002994,0.00001007,0.00000237,0.00002709,0.00001129,-0.0000035
 5,-0.00000345,-0.00000197,0.00000276,-0.00000389,-0.00000307,-0.000002
 21,-0.00000029,0.00000433,-0.00000292,0.00001473,-0.00000158,-0.000000
 84,0.00000025,0.00000439,0.00000435,0.00012421,-0.00016855,0.00014412,
 -0.00001180,-0.00005824,-0.00004874,0.01622688,-0.07775518,-0.03657308
 ,0.00394813,-0.00259694,-0.00269186,-0.00027484,0.00027224,-0.00029474
 ,-0.00918786,0.00067508,0.04716301,-0.00938414,0.09235495,-0.00209912,
 0.00145559,-0.00009288,0.00316037,-0.00028108,-0.00012160,-0.00232476,
 -0.00100661,-0.00011642,0.00052339,0.00065346,0.00012020,0.00114988,-0
 .00032187,-0.00001385,-0.00042857,-0.00012394,-0.00002936,0.00002995,0
 .00006180,-0.00000836,0.00000384,-0.00004830,-0.00000575,0.00189356,-0
 .00131134,0.00068619,-0.00164804,-0.00158476,-0.00006248,0.01442413,-0
 .00760072,-0.01671961,0.00193764,0.00172972,-0.00030933,0.00140083,-0.
 00033142,0.00105877,0.00001159,0.00017468,-0.00004618,0.00005369,0.000
 02509,0.00000539,0.00004456,0.00001569,0.00000384,-0.00000604,0.000000
 97,0.00000605,-0.00000453,-0.00001413,0.00000332,-0.00000417,0.0000041
 2,0.00000074,0.00002829,-0.00000402,-0.00000358,0.00000178,0.00001224,
 0.00000797,0.00013157,-0.00016854,-0.00001051,0.00032801,-0.00018623,-
 0.00001214,0.06959087,-0.03406719,-0.22833015,0.00173611,-0.00242625,-
 0.00560165,-0.00026310,0.00033794,-0.00088565,0.00816575,0.03160053,-0
 .07022117,-0.08219662,0.05445742,0.37043027,0.00209482,-0.00201428,-0.
 00045368,-0.00337985,0.00047078,0.00009588,0.00279328,0.00067705,-0.00
 003278,-0.00082717,-0.00045354,-0.00000411,-0.00152647,0.00053617,0.00
 012351,0.00057929,0.00015995,-0.00002276,-0.00003615,-0.00008294,-0.00
 000511,-0.00000777,0.00006610,0.00000496,-0.00286266,-0.00092852,0.000
 64121,-0.00344290,0.00716162,-0.00098621,-0.03699833,-0.03615696,-0.01
 726261,-0.00231280,-0.00120585,-0.00073399,-0.00062675,-0.00075662,0.0
 0038347,-0.00006606,-0.00021487,-0.00004331,-0.00005574,-0.00002800,0.
 00000373,-0.00006084,-0.00002861,-0.00000195,0.00000532,0.00001015,0.0
 0000549,0.00000670,0.00000877,-0.00000284,0.00000352,-0.00001341,0.000
 00125,-0.00004152,0.00000857,0.00000167,0.00000510,-0.00001089,-0.0000
 0248,-0.00040961,0.00051726,0.00035776,-0.00018383,0.00019638,-0.00005
 576,-0.17515563,-0.07864690,-0.04410368,0.00083770,0.00388260,-0.00005
 481,-0.00346427,0.00160145,-0.00053992,0.01053562,-0.02078287,0.006554
 11,0.01476960,-0.00486667,-0.01397691,0.20018544,0.00113642,-0.0004838
 7,-0.00021793,-0.00084248,0.00045407,0.00004730,0.00061898,-0.00001708
 ,-0.00002525,-0.00015731,-0.00000184,0.00000894,-0.00030452,0.00018349
 ,0.00003854,0.00010747,0.00001197,-0.00000974,-0.00000290,-0.00001969,
 -0.00000268,-0.00000376,0.00001355,0.00000087,-0.00012435,0.00012478,0
 .00020627,-0.00019097,0.00192564,-0.00042077,-0.00712734,-0.00105041,-
 0.00443813,0.00329836,-0.00576289,0.00064451,-0.00013077,0.00172871,0.
 00052458,-0.00007956,-0.00007755,-0.00002306,-0.00000983,-0.00000464,0
 .00000621,-0.00001236,-0.00000536,-0.00000477,-0.00000054,0.00000359,0
 .00000690,-0.00000030,0.00000257,-0.00000489,0.00000220,-0.00000280,-0
 .00000284,-0.00000980,0.00000288,0.00000019,0.00000340,-0.00000169,0.0
 0000319,-0.00009006,0.00008988,0.00012683,-0.00017926,0.00004772,-0.00
 001113,-0.08732109,-0.15057769,-0.04137400,0.00397878,-0.00023975,0.00
 013319,0.00358757,0.00153777,0.00006972,-0.03412969,-0.08134261,0.0044
 0973,-0.01219034,-0.01718011,-0.04309260,0.13383415,0.25081908,0.00041
 360,0.00029145,0.00002984,-0.00025730,0.00006832,0.00005712,0.00022406
 ,-0.00002916,-0.00005028,-0.00009471,0.00001402,0.00005431,-0.00013471
 ,0.00007062,0.00002200,0.00004766,0.00000938,-0.00002723,-0.00000274,-
 0.00000777,-0.00000583,-0.00000145,0.00000672,0.00000074,0.00008816,-0
 .00074434,-0.00046835,-0.00130039,0.00115538,0.00161229,-0.00489494,-0
 .00600754,0.00537603,0.00063170,-0.00175699,0.00066198,-0.00042982,0.0
 0028245,0.00026176,-0.00001454,-0.00001711,-0.00003587,-0.00000266,0.0
 0000025,0.00000503,-0.00000584,-0.00000611,0.00000101,-0.00000041,0.00
 000440,0.00000458,0.00000058,-0.00000213,0.00000036,-0.00000043,-0.000
 00316,0.00000059,-0.00000431,0.00000112,-0.00000083,0.00000255,0.00000
 096,0.00000240,-0.00008776,0.00012231,-0.00020797,-0.00008156,0.000026
 18,-0.00000946,-0.04704838,-0.03952164,-0.09219822,0.00104699,0.000359
 63,-0.00135574,-0.00014466,0.00045676,-0.00031847,0.00999780,0.0139371
 1,0.01543006,-0.02693782,-0.05186024,-0.05465063,0.07010004,0.08364473
 ,0.12438198,0.00078472,0.00065648,0.00052661,0.00147074,0.00010955,-0.
 00003172,-0.00111081,-0.00208184,-0.00018486,0.00010999,0.00137710,0.0
 0023362,0.00014355,0.00035918,0.00003216,-0.00003521,-0.00007679,-0.00
 003416,0.00002323,0.00000205,0.00000043,-0.00000809,0.00000231,-0.0000
 0374,-0.00408779,0.00307138,0.00176975,-0.01223810,-0.01047830,-0.0071
 6550,0.00324697,-0.00182747,-0.00085402,-0.00070318,-0.00025043,0.0002
 5865,0.00007706,0.00016987,-0.00011755,-0.00000278,0.00001150,-0.00004
 405,0.00003104,-0.00000857,0.00002946,0.00001923,-0.00000973,-0.000021
 72,-0.00000627,0.00001321,0.00001618,-0.00000528,0.00000503,-0.0000098
 6,0.00000588,-0.00000650,-0.00001005,-0.00000726,0.00001158,0.00000086
 ,0.00001170,-0.00000377,0.00001305,0.00204465,0.00211275,-0.00005370,0
 .00021359,0.00007146,-0.00005047,0.00111747,0.00406365,0.00046493,-0.1
 9729612,-0.08776281,-0.05223815,0.00011695,-0.00034095,0.00006680,-0.0
 0040794,-0.00158624,-0.00000668,-0.00033257,-0.00104749,-0.00011099,-0
 .00066111,-0.00099451,-0.00035001,0.32339843,-0.00269801,0.00174754,0.
 00066277,0.00250921,0.00001349,-0.00012340,-0.00255143,-0.00140401,-0.
 00004324,0.00089948,0.00108966,0.00010364,0.00116509,-0.00013202,-0.00
 004791,-0.00045666,-0.00018757,-0.00000463,0.00004423,0.00005606,0.000
 00273,-0.00000356,-0.00004476,-0.00000503,0.00027839,-0.00467833,-0.00
 162003,-0.04136568,-0.02328400,-0.01560246,0.00559388,-0.00510123,-0.0
 0217510,-0.00209930,-0.00180144,0.00056892,-0.00024834,-0.00062373,-0.
 00020948,0.00001986,0.00010427,-0.00002675,0.00005713,0.00001330,0.000
 01826,0.00005228,0.00001567,-0.00001721,-0.00000887,0.00000175,0.00001
 244,-0.00000959,-0.00000117,-0.00000986,0.00000342,0.00000536,-0.00001
 237,0.00002346,0.00000367,-0.00000071,0.00000605,0.00000491,0.00001477
 ,-0.00017753,-0.00487041,-0.00134500,0.00004028,-0.00013170,-0.0000646
 5,0.00359731,-0.00063342,-0.00041269,-0.07801857,-0.13795447,-0.035752
 96,0.00025899,-0.00077187,0.00013294,-0.00063333,0.00074863,-0.0002620
 5,-0.00083581,0.00027384,0.00071459,-0.00113076,-0.00022285,-0.0001747
 0,0.11320086,0.14362966,-0.00064833,-0.00003709,0.00009671,0.00066990,
 0.00003966,0.00006743,-0.00061696,-0.00053455,-0.00011555,0.00020703,0
 .00038199,0.00020865,0.00022721,0.00001938,0.00001539,-0.00008343,-0.0
 0004469,-0.00004822,0.00001116,0.00001072,-0.00000145,-0.00000224,-0.0
 0000685,-0.00000615,-0.00072979,-0.00032246,0.00066471,-0.01098563,-0.
 00676838,0.00401656,0.00163435,-0.00214807,0.00083656,-0.00104740,0.00
 007702,-0.00024021,0.00043304,-0.00007141,0.00001808,0.00000473,0.0000
 1891,-0.00003803,0.00002089,0.00000379,0.00001415,0.00000821,-0.000001
 64,0.00000130,-0.00000299,0.00000849,0.00000849,-0.00000116,-0.0000065
 8,-0.00000069,-0.00000114,-0.00000332,-0.00000027,0.00000242,0.0000028
 2,-0.00000044,0.00000609,0.00000276,0.00000732,0.00008540,-0.00128390,
 -0.00058160,0.00003421,-0.00002481,-0.00003793,0.00076294,0.00055376,-
 0.00139548,-0.04954606,-0.03777293,-0.09263710,0.00007259,-0.00020325,
 -0.00018430,-0.00015813,-0.00057916,0.00061888,-0.00025428,0.00016585,
 0.00074726,-0.00031620,-0.00023451,0.00008123,0.09121441,0.04702767,0.
 11817910,-0.00005021,-0.00042613,-0.00098105,-0.00017065,0.00049043,-0
 .00001553,0.00079328,-0.00077211,-0.00006142,-0.00043639,0.00049582,0.
 00002481,-0.00071636,0.00039148,0.00004650,0.00030160,0.00006309,0.000
 00606,-0.00001098,-0.00003906,0.00000111,-0.00000551,0.00003578,0.0000
 0385,0.00137143,0.00273242,0.00077958,-0.01088385,0.00826594,0.0170712
 0,-0.00066300,-0.00051747,-0.00046337,-0.00009619,0.00143770,-0.000709
 59,0.00060615,0.00053415,0.00012060,-0.00006759,-0.00005252,0.00004682
 ,-0.00001824,-0.00002192,0.00000699,-0.00001712,-0.00001817,-0.0000118
 7,0.00000145,0.00000572,0.00000285,0.00000153,0.00001122,-0.00000464,0
 .00000530,-0.00000747,-0.00000358,-0.00002435,0.00000897,0.00000213,0.
 00000422,-0.00001004,-0.00000086,0.00074156,-0.00069193,0.00033988,0.0
 0009363,0.00004528,0.00012599,-0.00294467,0.00825927,0.00442711,-0.171
 30157,0.05330516,0.09297511,-0.00005490,0.00023761,0.00007898,-0.00222
 994,-0.00549297,-0.00430538,-0.00215259,-0.00601712,-0.00196677,0.0002
 5393,-0.00158261,-0.00080114,-0.08480784,-0.00623144,0.02688818,0.2651
 8295,0.00029114,0.00007561,0.00151042,0.00157073,-0.00067595,0.0000309
 9,-0.00203531,-0.00054367,0.00000806,0.00071719,0.00042872,0.00002811,
 0.00112707,-0.00027836,-0.00006056,-0.00045100,-0.00015151,0.00000084,
 0.00003401,0.00005677,0.00000202,0.00000140,-0.00004824,-0.00000478,-0
 .00291248,-0.00570857,-0.00192952,0.03475079,-0.00862526,-0.02735945,0
 .00044220,0.00133714,0.00083978,0.00025501,0.00010707,0.00041506,0.000
 48395,-0.00053393,-0.00023310,0.00014093,0.00007969,-0.00001856,0.0000
 4523,0.00002147,0.00000639,0.00004390,0.00002153,-0.00000518,-0.000006
 02,-0.00000332,0.00000539,-0.00000717,-0.00000571,-0.00000427,-0.00000
 056,0.00000843,-0.00000597,0.00002818,-0.00000304,-0.00000149,0.000000
 62,0.00000835,0.00000882,-0.00020826,0.00024268,-0.00063362,0.00000979
 ,-0.00006742,-0.00006354,0.00236396,-0.00239332,-0.00027680,0.04895763
 ,-0.10519342,-0.04576724,-0.00001098,-0.00011816,-0.00002313,-0.003114
 51,0.00039268,-0.00250363,-0.00446354,-0.00306645,0.00074303,-0.000762
 11,0.00000478,-0.00006345,-0.01766625,0.01506965,0.00965068,-0.0481159
 9,0.09418955,0.00073128,0.00072872,0.00022135,0.00050576,-0.00058283,0
 .00004419,-0.00090800,0.00020049,-0.00006343,0.00038509,-0.00010809,0.
 00010248,0.00061830,-0.00025265,-0.00000911,-0.00025000,-0.00006495,-0
 .00003459,0.00001369,0.00003339,-0.00000227,0.00000283,-0.00002800,-0.
 00000705,-0.00124491,-0.00429750,-0.00079297,0.01867968,-0.00558179,-0
 .00501670,0.00034747,0.00139276,0.00109714,0.00004157,-0.00068257,0.00
 004897,-0.00032065,-0.00026770,-0.00000669,0.00011664,0.00004538,-0.00
 005029,0.00002500,0.00001843,0.00000329,0.00001622,0.00001086,0.000010
 53,-0.00000277,0.00000228,0.00000329,-0.00000095,-0.00001305,0.0000040
 5,-0.00000486,0.00000222,0.00000329,0.00001791,-0.00000442,-0.00000213
 ,0.00000111,0.00000916,0.00000501,-0.00036250,0.00021623,-0.00018834,-
 0.00004280,-0.00005461,-0.00004853,0.00122539,-0.00156780,-0.00611601,
 0.09031337,-0.05045923,-0.15242552,0.00001277,-0.00011572,-0.00009661,
 -0.00383962,-0.00276723,-0.00171662,0.00011669,0.00233130,0.00288680,-
 0.00031397,0.00015349,0.00075136,0.01488421,0.00636613,0.01403195,-0.1
 5661250,0.04970132,0.22403901,0.00042678,-0.00099146,0.00035413,-0.000
 02695,0.00010419,-0.00002316,0.00028428,-0.00051049,-0.00006844,-0.000
 17031,0.00033078,0.00004618,-0.00031876,0.00021053,0.00003438,0.000139
 93,0.00002098,-0.00000952,-0.00000129,-0.00001747,-0.00000172,-0.00000
 272,0.00001719,-0.00000010,-0.00007398,-0.00027826,0.00049512,0.008396
 50,0.00791125,-0.00846633,-0.00144652,0.00033390,-0.00077163,-0.000149
 54,0.00130951,0.00070174,0.00095022,0.00039674,-0.00002931,0.00001139,
 -0.00002157,-0.00004314,-0.00000499,-0.00000802,0.00000695,-0.00000791
 ,-0.00001021,-0.00000469,0.00000016,0.00000590,0.00000404,0.00000067,0
 .00000313,-0.00000151,0.00000214,-0.00000532,-0.00000101,-0.00001190,0
 .00000533,0.00000051,0.00000383,-0.00000366,0.00000151,0.00026380,-0.0
 0035506,-0.00032555,0.00003575,0.00003402,-0.00007128,-0.00184491,0.00
 456486,-0.00216412,-0.08123770,0.02563427,-0.03932917,-0.00006608,0.00
 018891,0.00012600,-0.00470471,-0.00599742,0.00236934,0.00040734,-0.000
 61851,0.00041382,0.00004914,-0.00108297,0.00004242,-0.03110484,0.00871
 894,-0.05788902,0.00729491,-0.01150953,0.03584855,0.10290626,-0.000972
 40,0.00097377,-0.00214317,0.00178015,-0.00030056,-0.00020349,-0.002325
 28,-0.00068781,0.00012831,0.00083443,0.00055639,-0.00010304,0.00127347
 ,-0.00029807,-0.00009036,-0.00051134,-0.00018355,0.00003051,0.00004005
 ,0.00006272,0.00000353,0.00000016,-0.00005461,0.00000038,-0.00263833,-
 0.00322739,0.00035919,0.01341531,-0.02280525,0.03896766,0.00152797,0.0
 0088750,-0.00015277,0.00081482,-0.00095985,-0.00176560,-0.00028316,-0.
 00109175,0.00017809,0.00004786,0.00007085,0.00007478,0.00004749,0.0000
 2045,0.00000379,0.00005514,0.00002649,-0.00001451,-0.00000679,-0.00000
 940,0.00000463,-0.00000986,0.00000096,-0.00000964,0.00000298,0.0000123
 5,-0.00001146,0.00003098,-0.00000227,-0.00000076,-0.00000089,0.0000061
 1,0.00000819,-0.00008208,-0.00020682,0.00127084,0.00003480,-0.00008814
 ,0.00019318,0.00379017,-0.00271854,0.00163333,0.02549240,-0.13620338,0
 .08649417,0.00002311,-0.00026906,-0.00010718,-0.00414784,-0.00009391,-
 0.00023092,-0.00138628,0.00063068,0.00058211,-0.00104719,0.00004037,-0
 .00025744,-0.00109629,0.01906551,-0.00791993,-0.00632308,0.01537219,0.
 00563600,-0.02838048,0.13147404,0.00023609,-0.00016852,0.00063707,-0.0
 0076571,0.00031165,0.00023537,0.00103239,0.00007152,-0.00022659,-0.000
 42201,-0.00007954,0.00028343,-0.00064889,0.00021807,0.00008690,0.00025
 296,0.00009001,-0.00008212,-0.00001813,-0.00003305,-0.00000658,-0.0000
 0204,0.00002886,-0.00000618,0.00105290,0.00210353,0.00033967,-0.006166
 66,0.01210094,-0.00910786,-0.00110614,0.00011318,0.00049350,0.00008549
 ,0.00078123,0.00069085,0.00012626,0.00033574,-0.00005359,-0.00006626,-
 0.00002795,-0.00009134,-0.00001415,-0.00000957,0.00001305,-0.00003333,
 -0.00002161,0.00001225,0.00000082,0.00001662,0.00000577,0.00000512,-0.
 00000894,0.00000733,-0.00000491,-0.00001183,0.00000804,-0.00001645,0.0
 0000245,-0.00000061,0.00000622,0.00000034,0.00000310,0.00036238,-0.000
 10570,-0.00090706,-0.00000026,0.00008071,-0.00011062,-0.00200446,0.001
 99196,-0.00462050,-0.03737466,0.08790121,-0.20251746,-0.00003512,0.000
 22984,-0.00001509,0.00079801,-0.00180167,0.00232604,0.00055947,0.00032
 308,0.00128449,0.00064000,-0.00016291,0.00059421,-0.04822388,0.0022853
 7,-0.04432634,0.02298995,0.01600338,-0.07667584,0.06875500,-0.12255840
 ,0.33172670\\-0.00000172,-0.00000111,-0.00000068,-0.00000570,-0.000000
 59,-0.00000312,-0.00000088,0.00000250,0.00000204,-0.00000101,0.0000006
 2,0.00000256,0.00001210,0.00000124,-0.00000090,-0.00000229,0.00000249,
 0.00000177,0.00000036,0.00000282,0.00000046,0.00000118,0.00000431,0.00
 000256,0.,-0.00000237,-0.00000091,-0.00000059,-0.00000163,0.00000199,0
 .00000021,-0.00000298,0.00000275,0.00000073,-0.00000125,-0.00000647,0.
 00000119,-0.00000060,-0.00000525,0.00000109,0.00000088,-0.00000222,-0.
 00000072,0.00000008,0.00000257,0.00000104,0.00000431,0.00000370,0.0000
 0235,0.00000527,-0.00000082,0.00000092,0.00000177,-0.00000156,0.000001
 38,0.00000585,0.00000444,0.00000140,0.00000486,0.00000168,-0.00000014,
 0.00000200,0.00000375,-0.00000097,-0.00000048,0.00000357,0.00000190,-0
 .00000067,-0.00000709,-0.00000132,0.00000009,-0.00000699,-0.00000559,-
 0.00000207,0.00000258,0.00000113,-0.00000250,-0.00000698,-0.00000351,-
 0.00000552,-0.00000014,-0.00000127,-0.00000702,-0.00000507,-0.00000127
 ,-0.00000361,-0.00000379,-0.00000090,-0.00000187,0.00000663,0.00000254
 ,-0.00000343,0.00000359,-0.00000165,-0.00000141,0.00000534\\\@


 IN THE LONG RUN, DIGGING FOR TRUTH HAS ALWAYS PROVED NOT ONLY 
 MORE INTERESTING BUT MORE PROFITABLE THAN DIGGING FOR GOLD.

                             -- GEORGE R. HARRISON
 Job cpu time:       0 days  6 hours 27 minutes 50.3 seconds.
 File lengths (MBytes):  RWF=    909 Int=      0 D2E=      0 Chk=     26 Scr=      1
 Normal termination of Gaussian 09 at Thu Nov 14 17:00:24 2019.
pbs_rusage has been removed.
Please contact help@nci.org.au if you require this functionality.
