 Entering Gaussian System, Link 0=/apps/gaussian/g16c01/g16/g16
 Initial command:
 /apps/gaussian/g16c01/g16/l1.exe "/jobfs/19479255.gadi-pbs/Gau-860164.inp" -scrdir="/jobfs/19479255.gadi-pbs/"
 Entering Link 1 = /apps/gaussian/g16c01/g16/l1.exe PID=    860165.
  
 Copyright (c) 1988-2019, Gaussian, Inc.  All Rights Reserved.
  
 This is part of the Gaussian(R) 16 program.  It is based on
 the Gaussian(R) 09 system (copyright 2009, Gaussian, Inc.),
 the Gaussian(R) 03 system (copyright 2003, Gaussian, Inc.),
 the Gaussian(R) 98 system (copyright 1998, Gaussian, Inc.),
 the Gaussian(R) 94 system (copyright 1995, Gaussian, Inc.),
 the Gaussian 92(TM) system (copyright 1992, Gaussian, Inc.),
 the Gaussian 90(TM) system (copyright 1990, Gaussian, Inc.),
 the Gaussian 88(TM) system (copyright 1988, Gaussian, Inc.),
 the Gaussian 86(TM) system (copyright 1986, Carnegie Mellon
 University), and the Gaussian 82(TM) system (copyright 1983,
 Carnegie Mellon University). Gaussian is a federally registered
 trademark of Gaussian, Inc.
  
 This software contains proprietary and confidential information,
 including trade secrets, belonging to Gaussian, Inc.
  
 This software is provided under written license and may be
 used, copied, transmitted, or stored only in accord with that
 written license.
  
 The following legend is applicable only to US Government
 contracts under FAR:
  
                    RESTRICTED RIGHTS LEGEND
  
 Use, reproduction and disclosure by the US Government is
 subject to restrictions as set forth in subparagraphs (a)
 and (c) of the Commercial Computer Software - Restricted
 Rights clause in FAR 52.227-19.
  
 Gaussian, Inc.
 340 Quinnipiac St., Bldg. 40, Wallingford CT 06492
  
  
 ---------------------------------------------------------------
 Warning -- This program may not be used in any manner that
 competes with the business of Gaussian, Inc. or will provide
 assistance to any competitor of Gaussian, Inc.  The licensee
 of this program is prohibited from giving any competitor of
 Gaussian, Inc. access to this program.  By using this program,
 the user acknowledges that Gaussian, Inc. is engaged in the
 business of creating and licensing software in the field of
 computational chemistry and represents and warrants to the
 licensee that it is not a competitor of Gaussian, Inc. and that
 it will not use this program in any manner prohibited above.
 ---------------------------------------------------------------
  

 Cite this work as:
 Gaussian 16, Revision C.01,
 M. J. Frisch, G. W. Trucks, H. B. Schlegel, G. E. Scuseria, 
 M. A. Robb, J. R. Cheeseman, G. Scalmani, V. Barone, 
 G. A. Petersson, H. Nakatsuji, X. Li, M. Caricato, A. V. Marenich, 
 J. Bloino, B. G. Janesko, R. Gomperts, B. Mennucci, H. P. Hratchian, 
 J. V. Ortiz, A. F. Izmaylov, J. L. Sonnenberg, D. Williams-Young, 
 F. Ding, F. Lipparini, F. Egidi, J. Goings, B. Peng, A. Petrone, 
 T. Henderson, D. Ranasinghe, V. G. Zakrzewski, J. Gao, N. Rega, 
 G. Zheng, W. Liang, M. Hada, M. Ehara, K. Toyota, R. Fukuda, 
 J. Hasegawa, M. Ishida, T. Nakajima, Y. Honda, O. Kitao, H. Nakai, 
 T. Vreven, K. Throssell, J. A. Montgomery, Jr., J. E. Peralta, 
 F. Ogliaro, M. J. Bearpark, J. J. Heyd, E. N. Brothers, K. N. Kudin, 
 V. N. Staroverov, T. A. Keith, R. Kobayashi, J. Normand, 
 K. Raghavachari, A. P. Rendell, J. C. Burant, S. S. Iyengar, 
 J. Tomasi, M. Cossi, J. M. Millam, M. Klene, C. Adamo, R. Cammi, 
 J. W. Ochterski, R. L. Martin, K. Morokuma, O. Farkas, 
 J. B. Foresman, and D. J. Fox, Gaussian, Inc., Wallingford CT, 2019.
 
 ******************************************
 Gaussian 16:  ES64L-G16RevC.01  3-Jul-2019
                22-Mar-2021 
 ******************************************
 %NprocShared=32
 Will use up to   32 processors via shared memory.
 %Mem=10000MB
 %chk=NM3CA_carboxy.M062X_6-311pGd_opt_GD3.chk
 ----------------------------------------------------------------------
 # M062X/6-311+G* SCF=Tight INT(grid=ultrafine) OPT=CalcFC IOP(2/17=4) 
 EmpiricalDispersion=GD3 MaxDisk=10000MB
 ----------------------------------------------------------------------
 1/10=4,18=20,19=15,26=4,38=1/1,3;
 2/9=110,12=2,17=4,18=5,40=1/2;
 3/5=4,6=6,7=11,11=2,25=1,30=1,71=2,74=-55,75=-5,124=31,140=1/1,2,3;
 4//1;
 5/5=2,32=2,38=5/2;
 8/6=4,10=90,11=11/1;
 11/6=1,8=1,9=11,15=111,16=1/1,2,10;
 10/6=1,13=1/2;
 6/7=2,8=2,9=2,10=2,28=1/1;
 7/10=1,25=1/1,2,3,16;
 1/10=4,18=20,19=15,26=4/3(2);
 2/9=110,17=4/2;
 99//99;
 2/9=110,17=4/2;
 3/5=4,6=6,7=11,11=2,25=1,30=1,71=1,74=-55,75=-5,124=31/1,2,3;
 4/5=5,16=3,69=1/1;
 5/5=2,32=2,38=5/2;
 7//1,2,3,16;
 1/18=20,19=15,26=4/3(-5);
 2/9=110,17=4/2;
 6/7=2,8=2,9=2,10=2,19=2,28=1/1;
 99/9=1/99;
 ------------------------------------
 NM3CA_carboxy.M062X_6-311pGd_opt_GD3
 ------------------------------------
 Symbolic Z-matrix:
 Charge = -1 Multiplicity = 1
 C                    -6.05091   1.28938   0.27861 
 N                    -4.72519   0.73198   0.19781 
 C                    -3.53409   1.39825   0.13878 
 O                    -3.47716   2.61753   0.14997 
 O                    -2.38771   0.67396   0.05856 
 C                    -1.12677   1.23156  -0.01642 
 C                    -0.08105   0.1218   -0.1046 
 C                     1.32894   0.69912  -0.19383 
 C                    -6.33803   2.67583   0.34182 
 C                    -7.66766   3.1372    0.41832 
 C                    -8.71702   2.20877   0.43131 
 C                    -8.45075   0.84254   0.37045 
 C                    -7.13245   0.38929   0.29561 
 H                    -4.65198  -0.41014   0.17507 
 H                    -0.93858   1.84984   0.88941 
 H                    -1.05921   1.87677  -0.92055 
 H                    -0.27648  -0.49849  -1.0063 
 H                    -0.15243  -0.52592   0.7961 
 H                     1.429     1.33581  -1.09882 
 H                     2.06707  -0.12781  -0.25796 
 H                     1.55467   1.30855   0.70721 
 H                    -5.56303   3.41652   0.33567 
 Cl                   -9.77382  -0.30913   0.38758 
 H                    -6.92836  -0.78725   0.24396 
 C                    -7.99687   4.6095    0.4873 
 H                    -9.74401   2.54923   0.48936 
 F                    -8.78897   4.95451  -0.59274 
 F                    -8.68946   4.87133   1.65554 
 F                    -6.85931   5.39804   0.46619 
 O                    -6.47358  -2.8078    0.33265 
 O                    -4.26951  -2.44807   0.27196 
 C                    -5.19616  -3.24911   0.33204 
 C                    -4.94023  -4.73089   0.40766 
 C                    -3.45387  -5.08689   0.40457 
 H                    -5.42833  -5.22057  -0.46191 
 H                    -5.39973  -5.12311   1.33999 
 H                    -2.97236  -4.72696  -0.52966 
 H                    -3.33613  -6.18956   0.46261 
 H                    -2.94585  -4.6293    1.28031 
 
 Add virtual bond connecting atoms O30        and H24        Dist= 3.92D+00.
 Add virtual bond connecting atoms O31        and H14        Dist= 3.92D+00.

 GradGradGradGradGradGradGradGradGradGradGradGradGradGradGradGradGradGrad
 Berny optimization.
 Initialization pass.
                           ----------------------------
                           !    Initial Parameters    !
                           ! (Angstroms and Degrees)  !
 --------------------------                            --------------------------
 ! Name  Definition              Value          Derivative Info.                !
 --------------------------------------------------------------------------------
 ! R1    R(1,2)                  1.4404         calculate D2E/DX2 analytically  !
 ! R2    R(1,9)                  1.4173         calculate D2E/DX2 analytically  !
 ! R3    R(1,13)                 1.4072         calculate D2E/DX2 analytically  !
 ! R4    R(2,3)                  1.3661         calculate D2E/DX2 analytically  !
 ! R5    R(2,14)                 1.1447         calculate D2E/DX2 analytically  !
 ! R6    R(3,4)                  1.2207         calculate D2E/DX2 analytically  !
 ! R7    R(3,5)                  1.3584         calculate D2E/DX2 analytically  !
 ! R8    R(5,6)                  1.3808         calculate D2E/DX2 analytically  !
 ! R9    R(6,7)                  1.5274         calculate D2E/DX2 analytically  !
 ! R10   R(6,15)                 1.1128         calculate D2E/DX2 analytically  !
 ! R11   R(6,16)                 1.1128         calculate D2E/DX2 analytically  !
 ! R12   R(7,8)                  1.5262         calculate D2E/DX2 analytically  !
 ! R13   R(7,17)                 1.1118         calculate D2E/DX2 analytically  !
 ! R14   R(7,18)                 1.1117         calculate D2E/DX2 analytically  !
 ! R15   R(8,19)                 1.111          calculate D2E/DX2 analytically  !
 ! R16   R(8,20)                 1.1103         calculate D2E/DX2 analytically  !
 ! R17   R(8,21)                 1.111          calculate D2E/DX2 analytically  !
 ! R18   R(9,10)                 1.4095         calculate D2E/DX2 analytically  !
 ! R19   R(9,22)                 1.072          calculate D2E/DX2 analytically  !
 ! R20   R(10,11)                1.4012         calculate D2E/DX2 analytically  !
 ! R21   R(10,25)                1.5102         calculate D2E/DX2 analytically  !
 ! R22   R(11,12)                1.3933         calculate D2E/DX2 analytically  !
 ! R23   R(11,26)                1.0835         calculate D2E/DX2 analytically  !
 ! R24   R(12,13)                1.396          calculate D2E/DX2 analytically  !
 ! R25   R(12,23)                1.7542         calculate D2E/DX2 analytically  !
 ! R26   R(13,24)                1.1952         calculate D2E/DX2 analytically  !
 ! R27   R(14,31)                2.0758         calculate D2E/DX2 analytically  !
 ! R28   R(24,30)                2.073          calculate D2E/DX2 analytically  !
 ! R29   R(25,27)                1.3831         calculate D2E/DX2 analytically  !
 ! R30   R(25,28)                1.3831         calculate D2E/DX2 analytically  !
 ! R31   R(25,29)                1.3843         calculate D2E/DX2 analytically  !
 ! R32   R(30,32)                1.3515         calculate D2E/DX2 analytically  !
 ! R33   R(31,32)                1.2264         calculate D2E/DX2 analytically  !
 ! R34   R(32,33)                1.5056         calculate D2E/DX2 analytically  !
 ! R35   R(33,34)                1.5284         calculate D2E/DX2 analytically  !
 ! R36   R(33,35)                1.1109         calculate D2E/DX2 analytically  !
 ! R37   R(33,36)                1.111          calculate D2E/DX2 analytically  !
 ! R38   R(34,37)                1.1109         calculate D2E/DX2 analytically  !
 ! R39   R(34,38)                1.1105         calculate D2E/DX2 analytically  !
 ! R40   R(34,39)                1.111          calculate D2E/DX2 analytically  !
 ! A1    A(2,1,9)              124.5772         calculate D2E/DX2 analytically  !
 ! A2    A(2,1,13)             117.4222         calculate D2E/DX2 analytically  !
 ! A3    A(9,1,13)             118.0006         calculate D2E/DX2 analytically  !
 ! A4    A(1,2,3)              128.0382         calculate D2E/DX2 analytically  !
 ! A5    A(1,2,14)             116.4928         calculate D2E/DX2 analytically  !
 ! A6    A(3,2,14)             115.4684         calculate D2E/DX2 analytically  !
 ! A7    A(2,3,4)              121.8333         calculate D2E/DX2 analytically  !
 ! A8    A(2,3,5)              118.5767         calculate D2E/DX2 analytically  !
 ! A9    A(4,3,5)              119.5891         calculate D2E/DX2 analytically  !
 ! A10   A(3,5,6)              123.9572         calculate D2E/DX2 analytically  !
 ! A11   A(5,6,7)              109.5698         calculate D2E/DX2 analytically  !
 ! A12   A(5,6,15)             109.5496         calculate D2E/DX2 analytically  !
 ! A13   A(5,6,16)             109.4942         calculate D2E/DX2 analytically  !
 ! A14   A(7,6,15)             109.5676         calculate D2E/DX2 analytically  !
 ! A15   A(7,6,16)             109.4391         calculate D2E/DX2 analytically  !
 ! A16   A(15,6,16)            109.2064         calculate D2E/DX2 analytically  !
 ! A17   A(6,7,8)              111.1645         calculate D2E/DX2 analytically  !
 ! A18   A(6,7,17)             109.3816         calculate D2E/DX2 analytically  !
 ! A19   A(6,7,18)             109.4264         calculate D2E/DX2 analytically  !
 ! A20   A(8,7,17)             109.0279         calculate D2E/DX2 analytically  !
 ! A21   A(8,7,18)             109.0915         calculate D2E/DX2 analytically  !
 ! A22   A(17,7,18)            108.7085         calculate D2E/DX2 analytically  !
 ! A23   A(7,8,19)             110.3403         calculate D2E/DX2 analytically  !
 ! A24   A(7,8,20)             109.6228         calculate D2E/DX2 analytically  !
 ! A25   A(7,8,21)             110.3527         calculate D2E/DX2 analytically  !
 ! A26   A(19,8,20)            108.656          calculate D2E/DX2 analytically  !
 ! A27   A(19,8,21)            109.1461         calculate D2E/DX2 analytically  !
 ! A28   A(20,8,21)            108.6827         calculate D2E/DX2 analytically  !
 ! A29   A(1,9,10)             120.9135         calculate D2E/DX2 analytically  !
 ! A30   A(1,9,22)             121.9498         calculate D2E/DX2 analytically  !
 ! A31   A(10,9,22)            117.1367         calculate D2E/DX2 analytically  !
 ! A32   A(9,10,11)            119.3468         calculate D2E/DX2 analytically  !
 ! A33   A(9,10,25)            121.8183         calculate D2E/DX2 analytically  !
 ! A34   A(11,10,25)           118.8349         calculate D2E/DX2 analytically  !
 ! A35   A(10,11,12)           120.4122         calculate D2E/DX2 analytically  !
 ! A36   A(10,11,26)           120.1416         calculate D2E/DX2 analytically  !
 ! A37   A(12,11,26)           119.4462         calculate D2E/DX2 analytically  !
 ! A38   A(11,12,13)           120.0779         calculate D2E/DX2 analytically  !
 ! A39   A(11,12,23)           119.9483         calculate D2E/DX2 analytically  !
 ! A40   A(13,12,23)           119.9738         calculate D2E/DX2 analytically  !
 ! A41   A(1,13,12)            121.2489         calculate D2E/DX2 analytically  !
 ! A42   A(1,13,24)            119.8596         calculate D2E/DX2 analytically  !
 ! A43   A(12,13,24)           118.8914         calculate D2E/DX2 analytically  !
 ! A44   A(10,25,27)           109.4119         calculate D2E/DX2 analytically  !
 ! A45   A(10,25,28)           109.4074         calculate D2E/DX2 analytically  !
 ! A46   A(10,25,29)           112.0549         calculate D2E/DX2 analytically  !
 ! A47   A(27,25,28)           109.0002         calculate D2E/DX2 analytically  !
 ! A48   A(27,25,29)           108.4587         calculate D2E/DX2 analytically  !
 ! A49   A(28,25,29)           108.4537         calculate D2E/DX2 analytically  !
 ! A50   A(24,30,32)           121.7093         calculate D2E/DX2 analytically  !
 ! A51   A(14,31,32)           120.2876         calculate D2E/DX2 analytically  !
 ! A52   A(30,32,31)           120.0614         calculate D2E/DX2 analytically  !
 ! A53   A(30,32,33)           118.8165         calculate D2E/DX2 analytically  !
 ! A54   A(31,32,33)           121.1221         calculate D2E/DX2 analytically  !
 ! A55   A(32,33,34)           113.2311         calculate D2E/DX2 analytically  !
 ! A56   A(32,33,35)           108.6512         calculate D2E/DX2 analytically  !
 ! A57   A(32,33,36)           108.6207         calculate D2E/DX2 analytically  !
 ! A58   A(34,33,35)           108.8458         calculate D2E/DX2 analytically  !
 ! A59   A(34,33,36)           108.7655         calculate D2E/DX2 analytically  !
 ! A60   A(35,33,36)           108.6354         calculate D2E/DX2 analytically  !
 ! A61   A(33,34,37)           110.3491         calculate D2E/DX2 analytically  !
 ! A62   A(33,34,38)           109.5297         calculate D2E/DX2 analytically  !
 ! A63   A(33,34,39)           110.3129         calculate D2E/DX2 analytically  !
 ! A64   A(37,34,38)           108.6456         calculate D2E/DX2 analytically  !
 ! A65   A(37,34,39)           109.343          calculate D2E/DX2 analytically  !
 ! A66   A(38,34,39)           108.6202         calculate D2E/DX2 analytically  !
 ! A67   L(2,14,31,5,-1)       173.2197         calculate D2E/DX2 analytically  !
 ! A68   L(13,24,30,5,-1)      177.354          calculate D2E/DX2 analytically  !
 ! A69   L(2,14,31,5,-2)       175.6489         calculate D2E/DX2 analytically  !
 ! A70   L(13,24,30,5,-2)      174.9291         calculate D2E/DX2 analytically  !
 ! D1    D(9,1,2,3)             -1.5197         calculate D2E/DX2 analytically  !
 ! D2    D(9,1,2,14)           178.7796         calculate D2E/DX2 analytically  !
 ! D3    D(13,1,2,3)           178.4808         calculate D2E/DX2 analytically  !
 ! D4    D(13,1,2,14)           -1.2199         calculate D2E/DX2 analytically  !
 ! D5    D(2,1,9,10)           179.9522         calculate D2E/DX2 analytically  !
 ! D6    D(2,1,9,22)            -0.1615         calculate D2E/DX2 analytically  !
 ! D7    D(13,1,9,10)           -0.0483         calculate D2E/DX2 analytically  !
 ! D8    D(13,1,9,22)          179.8381         calculate D2E/DX2 analytically  !
 ! D9    D(2,1,13,12)         -179.9109         calculate D2E/DX2 analytically  !
 ! D10   D(2,1,13,24)            0.0094         calculate D2E/DX2 analytically  !
 ! D11   D(9,1,13,12)            0.0896         calculate D2E/DX2 analytically  !
 ! D12   D(9,1,13,24)         -179.9901         calculate D2E/DX2 analytically  !
 ! D13   D(1,2,3,4)              0.0116         calculate D2E/DX2 analytically  !
 ! D14   D(1,2,3,5)           -179.6387         calculate D2E/DX2 analytically  !
 ! D15   D(14,2,3,4)           179.7148         calculate D2E/DX2 analytically  !
 ! D16   D(14,2,3,5)             0.0646         calculate D2E/DX2 analytically  !
 ! D17   D(1,2,31,32)            2.0482         calculate D2E/DX2 analytically  !
 ! D18   D(3,2,31,32)          179.6564         calculate D2E/DX2 analytically  !
 ! D19   D(2,3,5,6)            179.5028         calculate D2E/DX2 analytically  !
 ! D20   D(4,3,5,6)             -0.1555         calculate D2E/DX2 analytically  !
 ! D21   D(3,5,6,7)           -179.5785         calculate D2E/DX2 analytically  !
 ! D22   D(3,5,6,15)            60.1944         calculate D2E/DX2 analytically  !
 ! D23   D(3,5,6,16)           -59.5433         calculate D2E/DX2 analytically  !
 ! D24   D(5,6,7,8)            179.8143         calculate D2E/DX2 analytically  !
 ! D25   D(5,6,7,17)            59.3625         calculate D2E/DX2 analytically  !
 ! D26   D(5,6,7,18)           -59.625          calculate D2E/DX2 analytically  !
 ! D27   D(15,6,7,8)           -59.9696         calculate D2E/DX2 analytically  !
 ! D28   D(15,6,7,17)          179.5786         calculate D2E/DX2 analytically  !
 ! D29   D(15,6,7,18)           60.5912         calculate D2E/DX2 analytically  !
 ! D30   D(16,6,7,8)            59.7455         calculate D2E/DX2 analytically  !
 ! D31   D(16,6,7,17)          -60.7064         calculate D2E/DX2 analytically  !
 ! D32   D(16,6,7,18)         -179.6938         calculate D2E/DX2 analytically  !
 ! D33   D(6,7,8,19)           -60.3031         calculate D2E/DX2 analytically  !
 ! D34   D(6,7,8,20)          -179.9309         calculate D2E/DX2 analytically  !
 ! D35   D(6,7,8,21)            60.4007         calculate D2E/DX2 analytically  !
 ! D36   D(17,7,8,19)           60.3574         calculate D2E/DX2 analytically  !
 ! D37   D(17,7,8,20)          -59.2704         calculate D2E/DX2 analytically  !
 ! D38   D(17,7,8,21)         -178.9388         calculate D2E/DX2 analytically  !
 ! D39   D(18,7,8,19)          178.9388         calculate D2E/DX2 analytically  !
 ! D40   D(18,7,8,20)           59.311          calculate D2E/DX2 analytically  !
 ! D41   D(18,7,8,21)          -60.3574         calculate D2E/DX2 analytically  !
 ! D42   D(1,9,10,11)           -0.0228         calculate D2E/DX2 analytically  !
 ! D43   D(1,9,10,25)          179.966          calculate D2E/DX2 analytically  !
 ! D44   D(22,9,10,11)        -179.9144         calculate D2E/DX2 analytically  !
 ! D45   D(22,9,10,25)           0.0743         calculate D2E/DX2 analytically  !
 ! D46   D(9,10,11,12)           0.0552         calculate D2E/DX2 analytically  !
 ! D47   D(9,10,11,26)        -179.9722         calculate D2E/DX2 analytically  !
 ! D48   D(25,10,11,12)       -179.9339         calculate D2E/DX2 analytically  !
 ! D49   D(25,10,11,26)          0.0387         calculate D2E/DX2 analytically  !
 ! D50   D(9,10,25,27)         120.2968         calculate D2E/DX2 analytically  !
 ! D51   D(9,10,25,28)        -120.3536         calculate D2E/DX2 analytically  !
 ! D52   D(9,10,25,29)          -0.033          calculate D2E/DX2 analytically  !
 ! D53   D(11,10,25,27)        -59.7144         calculate D2E/DX2 analytically  !
 ! D54   D(11,10,25,28)         59.6352         calculate D2E/DX2 analytically  !
 ! D55   D(11,10,25,29)        179.9558         calculate D2E/DX2 analytically  !
 ! D56   D(10,11,12,13)         -0.015          calculate D2E/DX2 analytically  !
 ! D57   D(10,11,12,23)        179.9973         calculate D2E/DX2 analytically  !
 ! D58   D(26,11,12,13)       -179.9878         calculate D2E/DX2 analytically  !
 ! D59   D(26,11,12,23)          0.0245         calculate D2E/DX2 analytically  !
 ! D60   D(11,12,13,1)          -0.0593         calculate D2E/DX2 analytically  !
 ! D61   D(11,12,13,24)       -179.9803         calculate D2E/DX2 analytically  !
 ! D62   D(23,12,13,1)         179.9284         calculate D2E/DX2 analytically  !
 ! D63   D(23,12,13,24)          0.0074         calculate D2E/DX2 analytically  !
 ! D64   D(1,13,30,32)           0.0213         calculate D2E/DX2 analytically  !
 ! D65   D(12,13,30,32)       -176.4636         calculate D2E/DX2 analytically  !
 ! D66   D(24,30,32,31)         -0.3313         calculate D2E/DX2 analytically  !
 ! D67   D(24,30,32,33)        179.5982         calculate D2E/DX2 analytically  !
 ! D68   D(14,31,32,30)          0.1373         calculate D2E/DX2 analytically  !
 ! D69   D(14,31,32,33)       -179.7906         calculate D2E/DX2 analytically  !
 ! D70   D(30,32,33,34)       -179.7483         calculate D2E/DX2 analytically  !
 ! D71   D(30,32,33,35)         59.1947         calculate D2E/DX2 analytically  !
 ! D72   D(30,32,33,36)        -58.8145         calculate D2E/DX2 analytically  !
 ! D73   D(31,32,33,34)          0.1804         calculate D2E/DX2 analytically  !
 ! D74   D(31,32,33,35)       -120.8766         calculate D2E/DX2 analytically  !
 ! D75   D(31,32,33,36)        121.1142         calculate D2E/DX2 analytically  !
 ! D76   D(32,33,34,37)        -60.4754         calculate D2E/DX2 analytically  !
 ! D77   D(32,33,34,38)        179.9627         calculate D2E/DX2 analytically  !
 ! D78   D(32,33,34,39)         60.4544         calculate D2E/DX2 analytically  !
 ! D79   D(35,33,34,37)         60.4717         calculate D2E/DX2 analytically  !
 ! D80   D(35,33,34,38)        -59.0902         calculate D2E/DX2 analytically  !
 ! D81   D(35,33,34,39)       -178.5985         calculate D2E/DX2 analytically  !
 ! D82   D(36,33,34,37)        178.6728         calculate D2E/DX2 analytically  !
 ! D83   D(36,33,34,38)         59.1109         calculate D2E/DX2 analytically  !
 ! D84   D(36,33,34,39)        -60.3974         calculate D2E/DX2 analytically  !
 --------------------------------------------------------------------------------
 Trust Radius=3.00D-01 FncErr=1.00D-07 GrdErr=1.00D-06 EigMax=2.50D+02 EigMin=1.00D-04
 Number of steps in this run=    204 maximum allowed number of steps=    234.
 GradGradGradGradGradGradGradGradGradGradGradGradGradGradGradGradGradGrad

                          Input orientation:                          
 ---------------------------------------------------------------------
 Center     Atomic      Atomic             Coordinates (Angstroms)
 Number     Number       Type             X           Y           Z
 ---------------------------------------------------------------------
      1          6           0       -6.050910    1.289380    0.278610
      2          7           0       -4.725190    0.731980    0.197810
      3          6           0       -3.534090    1.398250    0.138780
      4          8           0       -3.477160    2.617530    0.149970
      5          8           0       -2.387710    0.673960    0.058560
      6          6           0       -1.126770    1.231560   -0.016420
      7          6           0       -0.081050    0.121800   -0.104600
      8          6           0        1.328940    0.699120   -0.193830
      9          6           0       -6.338030    2.675830    0.341820
     10          6           0       -7.667660    3.137200    0.418320
     11          6           0       -8.717020    2.208770    0.431310
     12          6           0       -8.450750    0.842540    0.370450
     13          6           0       -7.132450    0.389290    0.295610
     14          1           0       -4.651980   -0.410140    0.175070
     15          1           0       -0.938580    1.849840    0.889410
     16          1           0       -1.059210    1.876770   -0.920550
     17          1           0       -0.276480   -0.498490   -1.006300
     18          1           0       -0.152430   -0.525920    0.796100
     19          1           0        1.429000    1.335810   -1.098820
     20          1           0        2.067070   -0.127810   -0.257960
     21          1           0        1.554670    1.308550    0.707210
     22          1           0       -5.563030    3.416520    0.335670
     23         17           0       -9.773820   -0.309130    0.387580
     24          1           0       -6.928360   -0.787250    0.243960
     25          6           0       -7.996870    4.609500    0.487300
     26          1           0       -9.744010    2.549230    0.489360
     27          9           0       -8.788970    4.954510   -0.592740
     28          9           0       -8.689460    4.871330    1.655540
     29          9           0       -6.859310    5.398040    0.466190
     30          8           0       -6.473580   -2.807800    0.332650
     31          8           0       -4.269510   -2.448070    0.271960
     32          6           0       -5.196160   -3.249110    0.332040
     33          6           0       -4.940230   -4.730890    0.407660
     34          6           0       -3.453870   -5.086890    0.404570
     35          1           0       -5.428330   -5.220570   -0.461910
     36          1           0       -5.399730   -5.123110    1.339990
     37          1           0       -2.972360   -4.726960   -0.529660
     38          1           0       -3.336130   -6.189560    0.462610
     39          1           0       -2.945850   -4.629300    1.280310
 ---------------------------------------------------------------------
                    Distance matrix (angstroms):
                    1          2          3          4          5
     1  C    0.000000
     2  N    1.440402   0.000000
     3  C    2.523051   1.366060   0.000000
     4  O    2.899089   2.261673   1.220660   0.000000
     5  O    3.721048   2.342343   1.358388   2.229960   0.000000
     6  C    4.933309   3.639245   2.418070   2.733666   1.380764
     7  C    6.095024   4.693805   3.689450   4.222208   2.377432
     8  C    7.418476   6.066873   4.924274   5.186241   3.725295
     9  C    1.417278   2.529930   3.087963   2.867888   4.437651
    10  C    2.459235   3.806815   4.493160   4.231118   5.837367
    11  C    2.824312   4.262644   5.254073   5.263304   6.523400
    12  C    2.442812   3.731196   4.953386   5.285433   6.073397
    13  C    1.407189   2.433496   3.740427   4.283388   4.759179
    14  H    2.203655   1.144690   2.126328   3.247710   2.513119
    15  H    5.179103   4.008284   2.739352   2.753272   2.042788
    16  H    5.167212   4.000085   2.734263   2.746128   2.042136
    17  H    6.179928   4.770216   3.939651   4.614206   2.639291
    18  H    6.193156   4.780209   3.945900   4.620886   2.641998
    19  H    7.605822   6.318221   5.115449   5.222326   4.042876
    20  H    8.258204   6.861615   5.818871   6.200144   4.537409
    21  H    7.617671   6.326813   5.121195   5.229078   4.045468
    22  H    2.183119   2.815624   2.868584   2.241366   4.204888
    23  Cl   4.053044   5.158351   6.473892   6.947642   7.458508
    24  H    2.254664   2.676593   4.038384   4.848932   4.773574
    25  C    3.854025   5.081619   5.509083   4.950708   6.865491
    26  H    3.907765   5.345648   6.325407   6.276405   7.603774
    27  F    4.657188   5.913462   6.387165   5.850506   7.728094
    28  F    4.657064   5.913935   6.398491   5.874898   7.738237
    29  F    4.191633   5.137958   5.211776   4.389780   6.517538
    30  O    4.119278   3.950328   5.135080   6.200493   5.375138
    31  O    4.140285   3.213388   3.918259   5.128645   3.651545
    32  C    4.618587   4.011098   4.939411   6.116010   4.832459
    33  C    6.123227   5.471127   6.294115   7.497083   5.987456
    34  C    6.886022   5.959719   6.491080   7.708661   5.868885
    35  H    6.581445   6.030132   6.910698   8.100449   6.652950
    36  H    6.532273   6.003471   6.888516   8.064114   6.657353
    37  H    6.806403   5.779416   6.187128   7.393122   5.464225
    38  H    7.958544   7.064511   7.597297   8.813766   6.940509
    39  H    6.758371   5.751624   6.162830   7.353673   5.470718
                    6          7          8          9         10
     6  C    0.000000
     7  C    1.527375   0.000000
     8  C    2.519023   1.526215   0.000000
     9  C    5.419546   6.772899   7.935788   0.000000
    10  C    6.826691   8.180632   9.341187   1.409479   0.000000
    11  C    7.665983   8.900709  10.177974   2.426056   1.401181
    12  C    7.344501   8.414096   9.797006   2.797384   2.425074
    13  C    6.072477   7.067812   8.481195   2.421054   2.802234
    14  H    3.893450   4.610269   6.094091   3.520480   4.662308
    15  H    1.112750   2.170146   2.763913   5.489642   6.867295
    16  H    1.112794   2.168523   2.760116   5.486166   6.859509
    17  H    2.167009   1.111762   2.161423   6.973960   8.359266
    18  H    2.167548   1.111709   2.162208   6.979916   8.368981
    19  H    2.777484   2.177738   1.111032   8.012356   9.396592
    20  H    3.479489   2.168005   1.110298   8.880644  10.289928
    21  H    2.778433   2.177841   1.110960   8.018583   9.406316
    22  H    4.957663   6.411016   7.427239   1.072047   2.124692
    23  Cl   8.792520   9.714820  11.163596   4.551564   4.039065
    24  H    6.148320   6.916178   8.401426   3.514397   3.997283
    25  C    7.672189   9.118662  10.135371   2.551861   1.510233
    26  H    8.732061   9.980882  11.247216   3.411524   2.159163
    27  F    8.538256   9.971020  10.983605   3.474607   2.362667
    28  F    8.557900   9.988035  11.008898   3.474954   2.362625
    29  F    7.103132   8.608677   9.463768   2.774460   2.401483
    30  O    6.710190   7.045437   8.570589   5.485313   6.064338
    31  O    4.847644   4.928410   6.439286   5.526120   6.539425
    32  C    6.062818   6.141501   7.644736   6.033977   6.848409
    33  C    7.090355   6.886410   8.315605   7.537750   8.327414
    34  C    6.746513   6.226204   7.530688   8.281433   9.240772
    35  H    7.767359   7.567165   8.987508   7.989159   8.697225
    36  H    7.776880   7.608172   9.029173   7.918347   8.615434
    37  H    6.258880   5.661345   6.932266   8.178540   9.208123
    38  H    7.757820   7.123941   8.345520   9.360616  10.283607
    39  H    6.272180   5.718217   6.988489   8.108796   9.130008
                   11         12         13         14         15
    11  C    0.000000
    12  C    1.393265   0.000000
    13  C    2.416565   1.396049   0.000000
    14  H    4.842406   4.004751   2.608898   0.000000
    15  H    7.800180   7.597149   6.391387   4.405353   0.000000
    16  H    7.783303   7.574376   6.369920   4.397538   1.814175
    17  H    8.979905   8.397172   7.034732   4.533039   3.089781
    18  H    8.997989   8.421162   7.057533   4.543681   2.504191
    19  H   10.297819  10.000576   8.725753   6.453639   3.134122
    20  H   11.055826  10.581163   9.230655   6.738906   3.776439
    21  H   10.314753  10.021926   8.745313   6.462165   2.557829
    22  H    3.378677   3.868528   3.410103   3.936894   4.913924
    23  Cl   2.731036   1.754181   2.733694   5.127242   9.109031
    24  H    3.494358   2.233805   1.195227   2.308433   6.576345
    25  C    2.507041   3.796004   4.312092   6.040080   7.589260
    26  H    1.083509   2.144633   3.394573   5.897916   8.842216
    27  F    2.931372   4.236794   4.937050   6.817895   8.571136
    28  F    2.930653   4.235515   4.935825   6.810797   8.354190
    29  F    3.691036   4.826430   5.019092   6.220290   6.915481
    30  O    5.496247   4.151579   3.264486   3.015266   7.255330
    31  O    6.441420   5.321709   4.030831   2.075772   5.472510
    32  C    6.495750   5.228330   4.121711   2.894913   6.666104
    33  C    7.900860   6.586976   5.570873   4.336596   7.716948
    34  C    8.996006   7.754232   6.597907   4.833232   7.394591
    35  H    8.173642   6.825624   5.911716   4.914133   8.483786
    36  H    8.098554   6.770355   5.871933   4.912052   8.290170
    37  H    9.056983   7.863987   6.645557   4.685371   7.028821
    38  H    9.974312   8.695876   7.597447   5.934293   8.400140
    39  H    8.988126   7.814909   6.609349   4.683348   6.794203
                   16         17         18         19         20
    16  H    0.000000
    17  H    2.502375   0.000000
    18  H    3.089022   1.806872   0.000000
    19  H    2.552569   2.506368   3.091550   0.000000
    20  H    3.772399   2.487899   2.489119   1.804539   0.000000
    21  H    3.131269   3.091055   2.507463   1.810602   1.804782
    22  H    4.922734   6.713851   6.710397   7.434756   8.434044
    23  Cl   9.079306   9.600949   9.632499  11.420087  11.859860
    24  H    6.549810   6.774514   6.803409   8.726735   9.033523
    25  C    7.588213   9.376930   9.380999  10.103457  11.148112
    26  H    8.824160  10.057819  10.077155  11.350368  12.133699
    27  F    8.326412  10.117743  10.322491  10.851637  11.991483
    28  F    8.592109  10.329501  10.136559  11.066600  12.014817
    29  F    6.925572   8.959405   8.954573   9.362000  10.523292
    30  O    7.268501   6.747574   6.736371   9.037111   8.970723
    31  O    5.516552   4.623754   4.573809   6.976375   6.768801
    32  C    6.705071   5.793127   5.750681   8.183007   7.927492
    33  C    7.777379   6.454693   6.384018   8.924204   8.410330
    34  C    7.482172   5.756716   5.644045   8.206929   7.450651
    35  H    8.346963   7.009705   7.173385   9.508667   9.064150
    36  H    8.540988   7.289710   6.997437   9.710664   9.124668
    37  H    6.886377   5.037352   5.230524   7.513527   6.828020
    38  H    8.494891   6.626268   6.505688   9.042993   8.152215
    39  H    7.122650   5.423810   4.987523   7.770593   6.910793
                   21         22         23         24         25
    21  H    0.000000
    22  H    7.432579   0.000000
    23  Cl  11.447870   5.622625   0.000000
    24  H    8.750359   4.420884   2.888922   0.000000
    25  C   10.108242   2.714732   5.230719   5.506890   0.000000
    26  H   11.368681   4.272752   2.860327   4.372666   2.701336
    27  F   11.044174   3.692431   5.443975   6.093418   1.383091
    28  F   10.887375   3.692302   5.442493   6.092090   1.383120
    29  F    9.358263   2.371455   6.408770   6.189666   1.384299
    30  O    9.029808   6.290570   4.139801   2.072996   7.573683
    31  O    6.944257   6.005886   5.906425   3.135058   7.984289
    32  C    8.153939   6.675719   5.440730   3.011483   8.344210
    33  C    8.874023   8.171496   6.551027   4.419475   9.828137
    34  C    8.128882   8.761352   7.922692   5.530351  10.708206
    35  H    9.631123   8.674883   6.612651   4.733146  10.204346
    36  H    9.493700   8.600035   6.573747   4.726275  10.109199
    37  H    7.645340   8.589333   8.162010   5.636465  10.651263
    38  H    8.955524   9.861641   8.719457   6.491292  11.761922
    39  H    7.472696   8.513354   8.129084   5.629898  10.559218
                   26         27         28         29         30
    26  H    0.000000
    27  F    2.805069   0.000000
    28  F    2.804318   2.252018   0.000000
    29  F    4.054349   2.245360   2.245312   0.000000
    30  O    6.278379   8.152965   8.101185   8.215986   0.000000
    31  O    7.415553   8.716158   8.661632   8.264758   2.234058
    32  C    7.370783   9.003493   8.938475   8.806660   1.351502
    33  C    8.722564  10.469984  10.383475  10.309293   2.460704
    34  C    9.893603  11.414361  11.320003  11.024272   3.783923
    35  H    8.938669  10.716495  10.815036  10.754718   2.746877
    36  H    8.857829  10.806517  10.526667  10.657790   2.743820
    37  H    9.991826  11.294591  11.383651  10.891085   4.084764
    38  H   10.836424  12.451407  12.346032  12.111370   4.614844
    39  H    9.918260  11.379797  11.108187  10.794698   4.081764
                   31         32         33         34         35
    31  O    0.000000
    32  C    1.226358   0.000000
    33  C    2.383180   1.505620   0.000000
    34  C    2.765181   2.533431   1.528402   0.000000
    35  H    3.093248   2.137970   1.110937   2.160359   0.000000
    36  H    3.094176   2.137587   1.110953   2.159327   1.804760
    37  H    2.741994   2.805682   2.179701   1.110940   2.505999
    38  H    3.860867   3.481811   2.168842   1.110456   2.484146
    39  H    2.743467   2.805002   2.179310   1.111033   3.089925
                   36         37         38         39
    36  H    0.000000
    37  H    3.089442   0.000000
    38  H    2.483054   1.804474   0.000000
    39  H    2.503785   1.812797   1.804262   0.000000
 Stoichiometry    C14H16ClF3NO4(1-)
 Framework group  C1[X(C14H16ClF3NO4)]
 Deg. of freedom   111
 Full point group                 C1      NOp   1
 Largest Abelian subgroup         C1      NOp   1
 Largest concise Abelian subgroup C1      NOp   1
                         Standard orientation:                         
 ---------------------------------------------------------------------
 Center     Atomic      Atomic             Coordinates (Angstroms)
 Number     Number       Type             X           Y           Z
 ---------------------------------------------------------------------
      1          6           0        0.741430   -0.079615   -0.033714
      2          7           0       -0.638069   -0.493975   -0.040408
      3          6           0       -1.134858   -1.766400   -0.024416
      4          8           0       -0.403006   -2.743056   -0.001052
      5          8           0       -2.482225   -1.938154   -0.042294
      6          6           0       -3.102591   -3.171703   -0.038902
      7          6           0       -4.617801   -2.982439   -0.073445
      8          6           0       -5.341087   -4.326382   -0.075365
      9          6           0        1.846871   -0.964777    0.022547
     10          6           0        3.168148   -0.474006    0.024021
     11          6           0        3.387121    0.908845   -0.031491
     12          6           0        2.310703    1.791730   -0.086487
     13          6           0        1.003389    1.301952   -0.086912
     14          1           0       -1.421634    0.340069   -0.067085
     15          1           0       -2.817538   -3.729320    0.880892
     16          1           0       -2.781307   -3.751409   -0.932787
     17          1           0       -4.898383   -2.418500   -0.989558
     18          1           0       -4.937877   -2.398520    0.816772
     19          1           0       -5.050304   -4.920168   -0.968257
     20          1           0       -6.438408   -4.159222   -0.101948
     21          1           0       -5.090791   -4.901191    0.841793
     22          1           0        1.720263   -2.028376    0.067382
     23         17           0        2.598857    3.520702   -0.155591
     24          1           0        0.095884    2.078283   -0.134996
     25          6           0        4.360853   -1.398474    0.084188
     26          1           0        4.397509    1.300134   -0.031503
     27          9           0        5.146649   -1.208661   -1.038058
     28          9           0        5.108817   -1.110910    1.211520
     29          9           0        3.984621   -2.729666    0.135771
     30          8           0       -1.535769    3.352996   -0.034359
     31          8           0       -3.008271    1.674423    0.037358
     32          6           0       -2.800953    2.883131    0.036996
     33          6           0       -3.937304    3.867625    0.116795
     34          6           0       -5.309384    3.199255    0.198587
     35          1           0       -3.907956    4.517822   -0.783518
     36          1           0       -3.794493    4.501949    1.017602
     37          1           0       -5.489768    2.575806   -0.703056
     38          1           0       -6.098889    3.978074    0.255455
     39          1           0       -5.374238    2.561452    1.105998
 ---------------------------------------------------------------------
 Rotational constants (GHZ):           0.2219701           0.1220468           0.0802290
 Standard basis: 6-311+G(d) (5D, 7F)
 There are   585 symmetry adapted cartesian basis functions of A   symmetry.
 There are   562 symmetry adapted basis functions of A   symmetry.
   562 basis functions,   925 primitive gaussians,   585 cartesian basis functions
    92 alpha electrons       92 beta electrons
       nuclear repulsion energy      2042.4769145128 Hartrees.
 NAtoms=   39 NActive=   39 NUniq=   39 SFac= 1.00D+00 NAtFMM=   60 NAOKFM=F Big=F
 Integral buffers will be    131072 words long.
 Raffenetti 2 integral format.
 Two-electron integral symmetry is turned on.
 Nuclear repulsion after empirical dispersion term =     2042.4747149128 Hartrees.
 One-electron integrals computed using PRISM.
 NBasis=   562 RedAO= T EigKep=  1.05D-06  NBF=   562
 NBsUse=   560 1.00D-06 EigRej=  4.12D-07 NBFU=   560
 ExpMin= 4.38D-02 ExpMax= 1.06D+05 ExpMxC= 3.62D+03 IAcc=3 IRadAn=         5 AccDes= 0.00D+00
 Harris functional with IExCor= 1009 and IRadAn=       5 diagonalized for initial guess.
 HarFok:  IExCor= 1009 AccDes= 0.00D+00 IRadAn=         5 IDoV= 1 UseB2=F ITyADJ=14
 ICtDFT=  3500011 ScaDFX=  1.000000  1.000000  1.000000  1.000000
 FoFCou: FMM=F IPFlag=           0 FMFlag=      100000 FMFlg1=           0
         NFxFlg=           0 DoJE=T BraDBF=F KetDBF=T FulRan=T
         wScrn=  0.000000 ICntrl=       500 IOpCl=  0 I1Cent=   200000004 NGrid=           0
         NMat0=    1 NMatS0=      1 NMatT0=    0 NMatD0=    1 NMtDS0=    0 NMtDT0=    0
 Petite list used in FoFCou.
 Requested convergence on RMS density matrix=1.00D-08 within 128 cycles.
 Requested convergence on MAX density matrix=1.00D-06.
 Requested convergence on             energy=1.00D-06.
 No special actions if energy rises.
 SCF Done:  E(RM062X) =  -1658.47352414     A.U. after   17 cycles
            NFock= 17  Conv=0.24D-08     -V/T= 2.0037
 DoSCS=F DFT=T ScalE2(SS,OS)=  1.000000  1.000000
 Range of M.O.s used for correlation:     1   560
 NBasis=   562 NAE=    92 NBE=    92 NFC=     0 NFV=     0
 NROrb=    560 NOA=    92 NOB=    92 NVA=   468 NVB=   468

 **** Warning!!: The largest alpha MO coefficient is  0.35255171D+03

 Symmetrizing basis deriv contribution to polar:
 IMax=3 JMax=2 DiffMx= 0.00D+00
 G2DrvN: will do    40 centers at a time, making    1 passes.
 Calling FoFCou, ICntrl=  3107 FMM=F I1Cent=   0 AccDes= 0.00D+00.
 End of G2Drv F.D. properties file   721 does not exist.
 End of G2Drv F.D. properties file   722 does not exist.
 End of G2Drv F.D. properties file   788 does not exist.
          IDoAtm=111111111111111111111111111111111111111
          Differentiating once with respect to nuclear coordinates.
 CalDSu exits because no D1Ps are significant.
          There are   120 degrees of freedom in the 1st order CPHF.  IDoFFX=6 NUNeed=     0.
    114 vectors produced by pass  0 Test12= 4.31D-14 1.00D-09 XBig12= 6.36D-01 1.75D-01.
 AX will form    64 AO Fock derivatives at one time.
    114 vectors produced by pass  1 Test12= 4.31D-14 1.00D-09 XBig12= 4.76D-02 6.28D-02.
    114 vectors produced by pass  2 Test12= 4.31D-14 1.00D-09 XBig12= 2.07D-03 5.13D-03.
    114 vectors produced by pass  3 Test12= 4.31D-14 1.00D-09 XBig12= 1.96D-05 5.23D-04.
    114 vectors produced by pass  4 Test12= 4.31D-14 1.00D-09 XBig12= 1.33D-07 3.49D-05.
    114 vectors produced by pass  5 Test12= 4.31D-14 1.00D-09 XBig12= 8.17D-10 2.49D-06.
     99 vectors produced by pass  6 Test12= 4.31D-14 1.00D-09 XBig12= 4.15D-12 1.51D-07.
     39 vectors produced by pass  7 Test12= 4.31D-14 1.00D-09 XBig12= 1.75D-14 8.29D-09.
 InvSVY:  IOpt=1 It=  1 EMax= 7.77D-16
 Solved reduced A of dimension   822 with   120 vectors.
 End of Minotr F.D. properties file   721 does not exist.
 End of Minotr F.D. properties file   722 does not exist.
 End of Minotr F.D. properties file   788 does not exist.

 **********************************************************************

            Population analysis using the SCF Density.

 **********************************************************************

 Orbital symmetries:
       Occupied  (A) (A) (A) (A) (A) (A) (A) (A) (A) (A) (A) (A)
                 (A) (A) (A) (A) (A) (A) (A) (A) (A) (A) (A) (A)
                 (A) (A) (A) (A) (A) (A) (A) (A) (A) (A) (A) (A)
                 (A) (A) (A) (A) (A) (A) (A) (A) (A) (A) (A) (A)
                 (A) (A) (A) (A) (A) (A) (A) (A) (A) (A) (A) (A)
                 (A) (A) (A) (A) (A) (A) (A) (A) (A) (A) (A) (A)
                 (A) (A) (A) (A) (A) (A) (A) (A) (A) (A) (A) (A)
                 (A) (A) (A) (A) (A) (A) (A) (A)
       Virtual   (A) (A) (A) (A) (A) (A) (A) (A) (A) (A) (A) (A)
                 (A) (A) (A) (A) (A) (A) (A) (A) (A) (A) (A) (A)
                 (A) (A) (A) (A) (A) (A) (A) (A) (A) (A) (A) (A)
                 (A) (A) (A) (A) (A) (A) (A) (A) (A) (A) (A) (A)
                 (A) (A) (A) (A) (A) (A) (A) (A) (A) (A) (A) (A)
                 (A) (A) (A) (A) (A) (A) (A) (A) (A) (A) (A) (A)
                 (A) (A) (A) (A) (A) (A) (A) (A) (A) (A) (A) (A)
                 (A) (A) (A) (A) (A) (A) (A) (A) (A) (A) (A) (A)
                 (A) (A) (A) (A) (A) (A) (A) (A) (A) (A) (A) (A)
                 (A) (A) (A) (A) (A) (A) (A) (A) (A) (A) (A) (A)
                 (A) (A) (A) (A) (A) (A) (A) (A) (A) (A) (A) (A)
                 (A) (A) (A) (A) (A) (A) (A) (A) (A) (A) (A) (A)
                 (A) (A) (A) (A) (A) (A) (A) (A) (A) (A) (A) (A)
                 (A) (A) (A) (A) (A) (A) (A) (A) (A) (A) (A) (A)
                 (A) (A) (A) (A) (A) (A) (A) (A) (A) (A) (A) (A)
                 (A) (A) (A) (A) (A) (A) (A) (A) (A) (A) (A) (A)
                 (A) (A) (A) (A) (A) (A) (A) (A) (A) (A) (A) (A)
                 (A) (A) (A) (A) (A) (A) (A) (A) (A) (A) (A) (A)
                 (A) (A) (A) (A) (A) (A) (A) (A) (A) (A) (A) (A)
                 (A) (A) (A) (A) (A) (A) (A) (A) (A) (A) (A) (A)
                 (A) (A) (A) (A) (A) (A) (A) (A) (A) (A) (A) (A)
                 (A) (A) (A) (A) (A) (A) (A) (A) (A) (A) (A) (A)
                 (A) (A) (A) (A) (A) (A) (A) (A) (A) (A) (A) (A)
                 (A) (A) (A) (A) (A) (A) (A) (A) (A) (A) (A) (A)
                 (A) (A) (A) (A) (A) (A) (A) (A) (A) (A) (A) (A)
                 (A) (A) (A) (A) (A) (A) (A) (A) (A) (A) (A) (A)
                 (A) (A) (A) (A) (A) (A) (A) (A) (A) (A) (A) (A)
                 (A) (A) (A) (A) (A) (A) (A) (A) (A) (A) (A) (A)
                 (A) (A) (A) (A) (A) (A) (A) (A) (A) (A) (A) (A)
                 (A) (A) (A) (A) (A) (A) (A) (A) (A) (A) (A) (A)
                 (A) (A) (A) (A) (A) (A) (A) (A) (A) (A) (A) (A)
                 (A) (A) (A) (A) (A) (A) (A) (A) (A) (A) (A) (A)
                 (A) (A) (A) (A) (A) (A) (A) (A) (A) (A) (A) (A)
                 (A) (A) (A) (A) (A) (A) (A) (A) (A) (A) (A) (A)
                 (A) (A) (A) (A) (A) (A) (A) (A) (A) (A) (A) (A)
                 (A) (A) (A) (A) (A) (A) (A) (A) (A) (A) (A) (A)
                 (A) (A) (A) (A) (A) (A) (A) (A) (A) (A) (A) (A)
                 (A) (A) (A) (A) (A) (A) (A) (A) (A) (A) (A) (A)
                 (A) (A) (A) (A) (A) (A) (A) (A) (A) (A) (A) (A)
 The electronic state is 1-A.
 Alpha  occ. eigenvalues -- -102.58147 -25.20027 -25.19921 -25.19915 -19.56735
 Alpha  occ. eigenvalues --  -19.49705 -19.42944 -19.39687 -14.69122 -10.73155
 Alpha  occ. eigenvalues --  -10.60518 -10.51995 -10.51868 -10.51504 -10.49026
 Alpha  occ. eigenvalues --  -10.48367 -10.47290 -10.46804 -10.46665 -10.46425
 Alpha  occ. eigenvalues --  -10.46061 -10.41611 -10.41368  -9.72379  -7.44898
 Alpha  occ. eigenvalues --   -7.44221  -7.44201  -1.36480  -1.28703  -1.28684
 Alpha  occ. eigenvalues --   -1.14466  -1.04354  -1.00389  -0.94002  -0.89957
 Alpha  occ. eigenvalues --   -0.86820  -0.85264  -0.81694  -0.78822  -0.74790
 Alpha  occ. eigenvalues --   -0.74174  -0.71929  -0.71268  -0.63521  -0.63021
 Alpha  occ. eigenvalues --   -0.60543  -0.60230  -0.59918  -0.59175  -0.56555
 Alpha  occ. eigenvalues --   -0.54704  -0.52736  -0.49817  -0.49045  -0.48988
 Alpha  occ. eigenvalues --   -0.47970  -0.47572  -0.45860  -0.45546  -0.45184
 Alpha  occ. eigenvalues --   -0.44534  -0.44382  -0.43732  -0.43543  -0.41304
 Alpha  occ. eigenvalues --   -0.40932  -0.40667  -0.39725  -0.38593  -0.38348
 Alpha  occ. eigenvalues --   -0.37415  -0.36786  -0.35474  -0.34931  -0.34730
 Alpha  occ. eigenvalues --   -0.33186  -0.32300  -0.31846  -0.31588  -0.31446
 Alpha  occ. eigenvalues --   -0.31129  -0.28761  -0.28348  -0.28129  -0.27507
 Alpha  occ. eigenvalues --   -0.27124  -0.25479  -0.21367  -0.18605  -0.17583
 Alpha  occ. eigenvalues --   -0.15477  -0.14590
 Alpha virt. eigenvalues --    0.08146   0.08855   0.09840   0.10047   0.10244
 Alpha virt. eigenvalues --    0.10895   0.10912   0.11273   0.11405   0.12420
 Alpha virt. eigenvalues --    0.12964   0.13285   0.13547   0.13883   0.14011
 Alpha virt. eigenvalues --    0.14719   0.14921   0.15318   0.15498   0.15854
 Alpha virt. eigenvalues --    0.16320   0.16602   0.17516   0.17560   0.18151
 Alpha virt. eigenvalues --    0.18604   0.18684   0.19292   0.19355   0.20028
 Alpha virt. eigenvalues --    0.20224   0.20463   0.21042   0.21403   0.21883
 Alpha virt. eigenvalues --    0.22081   0.22314   0.22510   0.22899   0.23457
 Alpha virt. eigenvalues --    0.23743   0.23941   0.24539   0.25541   0.25875
 Alpha virt. eigenvalues --    0.26271   0.26401   0.26792   0.26972   0.27410
 Alpha virt. eigenvalues --    0.27696   0.27999   0.28222   0.28462   0.28832
 Alpha virt. eigenvalues --    0.28917   0.29605   0.29908   0.30312   0.30578
 Alpha virt. eigenvalues --    0.30908   0.31449   0.31691   0.31798   0.31954
 Alpha virt. eigenvalues --    0.32670   0.32898   0.33605   0.33883   0.34197
 Alpha virt. eigenvalues --    0.34470   0.34577   0.34699   0.35089   0.35357
 Alpha virt. eigenvalues --    0.35721   0.36153   0.36864   0.36989   0.37524
 Alpha virt. eigenvalues --    0.37867   0.38194   0.38759   0.38888   0.39011
 Alpha virt. eigenvalues --    0.39304   0.39590   0.40089   0.40533   0.40847
 Alpha virt. eigenvalues --    0.40896   0.41211   0.42313   0.43051   0.43188
 Alpha virt. eigenvalues --    0.43534   0.43993   0.44262   0.44651   0.45078
 Alpha virt. eigenvalues --    0.45368   0.45611   0.46496   0.46577   0.47074
 Alpha virt. eigenvalues --    0.47164   0.48271   0.48488   0.48747   0.49228
 Alpha virt. eigenvalues --    0.49498   0.50287   0.50661   0.50730   0.51113
 Alpha virt. eigenvalues --    0.52207   0.52692   0.52853   0.53978   0.54435
 Alpha virt. eigenvalues --    0.54988   0.55114   0.55778   0.56067   0.56697
 Alpha virt. eigenvalues --    0.57357   0.57934   0.58476   0.58721   0.59635
 Alpha virt. eigenvalues --    0.60849   0.61731   0.62273   0.62584   0.63555
 Alpha virt. eigenvalues --    0.64320   0.66111   0.66361   0.66697   0.67080
 Alpha virt. eigenvalues --    0.67616   0.68158   0.68875   0.69342   0.69661
 Alpha virt. eigenvalues --    0.69712   0.71848   0.72343   0.73587   0.74051
 Alpha virt. eigenvalues --    0.74442   0.74627   0.74749   0.75102   0.75534
 Alpha virt. eigenvalues --    0.75961   0.77043   0.77360   0.77998   0.78128
 Alpha virt. eigenvalues --    0.78997   0.79062   0.79850   0.80104   0.80591
 Alpha virt. eigenvalues --    0.81304   0.82054   0.82624   0.82904   0.83086
 Alpha virt. eigenvalues --    0.84228   0.84478   0.84598   0.84895   0.85234
 Alpha virt. eigenvalues --    0.86388   0.87027   0.87821   0.88371   0.88772
 Alpha virt. eigenvalues --    0.89838   0.90750   0.91715   0.93610   0.95565
 Alpha virt. eigenvalues --    0.96541   0.98724   1.00509   1.01460   1.02030
 Alpha virt. eigenvalues --    1.03162   1.03223   1.03549   1.03958   1.05473
 Alpha virt. eigenvalues --    1.06579   1.07584   1.08015   1.09174   1.10310
 Alpha virt. eigenvalues --    1.10811   1.11304   1.13111   1.14397   1.14818
 Alpha virt. eigenvalues --    1.16026   1.17592   1.18402   1.18889   1.19579
 Alpha virt. eigenvalues --    1.20471   1.21650   1.21778   1.22903   1.24279
 Alpha virt. eigenvalues --    1.25841   1.28104   1.28806   1.29395   1.30427
 Alpha virt. eigenvalues --    1.31489   1.33090   1.33659   1.34003   1.35608
 Alpha virt. eigenvalues --    1.36543   1.37539   1.39738   1.40953   1.41547
 Alpha virt. eigenvalues --    1.42583   1.43100   1.43636   1.43939   1.45893
 Alpha virt. eigenvalues --    1.48064   1.48956   1.49925   1.52769   1.54012
 Alpha virt. eigenvalues --    1.54329   1.55141   1.55632   1.56306   1.57043
 Alpha virt. eigenvalues --    1.57225   1.58607   1.59374   1.60461   1.60669
 Alpha virt. eigenvalues --    1.61254   1.63805   1.65257   1.65418   1.66198
 Alpha virt. eigenvalues --    1.67544   1.67688   1.68571   1.69086   1.69755
 Alpha virt. eigenvalues --    1.70735   1.72647   1.72767   1.73148   1.73714
 Alpha virt. eigenvalues --    1.73823   1.75118   1.76332   1.79254   1.79932
 Alpha virt. eigenvalues --    1.80972   1.82398   1.84068   1.84681   1.85831
 Alpha virt. eigenvalues --    1.87120   1.87943   1.88019   1.91005   1.91064
 Alpha virt. eigenvalues --    1.91562   1.91947   1.93211   1.94407   1.95917
 Alpha virt. eigenvalues --    1.96432   1.97659   1.98871   1.99896   2.00459
 Alpha virt. eigenvalues --    2.00524   2.02879   2.05017   2.05248   2.06854
 Alpha virt. eigenvalues --    2.08815   2.10177   2.12231   2.14177   2.14683
 Alpha virt. eigenvalues --    2.16203   2.19250   2.23632   2.24938   2.27534
 Alpha virt. eigenvalues --    2.28019   2.29829   2.30389   2.32172   2.35692
 Alpha virt. eigenvalues --    2.37031   2.40591   2.44014   2.44742   2.45527
 Alpha virt. eigenvalues --    2.47429   2.53091   2.56912   2.57163   2.58538
 Alpha virt. eigenvalues --    2.59492   2.61510   2.62433   2.63623   2.65763
 Alpha virt. eigenvalues --    2.66257   2.66733   2.68982   2.69922   2.70727
 Alpha virt. eigenvalues --    2.71919   2.73836   2.76776   2.78268   2.80079
 Alpha virt. eigenvalues --    2.80502   2.85535   2.86853   2.88861   2.90656
 Alpha virt. eigenvalues --    2.91010   2.93838   2.95821   2.99948   3.04166
 Alpha virt. eigenvalues --    3.04653   3.06044   3.07040   3.08934   3.10031
 Alpha virt. eigenvalues --    3.10416   3.11942   3.12397   3.14031   3.14168
 Alpha virt. eigenvalues --    3.14526   3.15429   3.16075   3.18045   3.20153
 Alpha virt. eigenvalues --    3.21484   3.22932   3.24508   3.27474   3.28524
 Alpha virt. eigenvalues --    3.28782   3.31612   3.33857   3.35226   3.35718
 Alpha virt. eigenvalues --    3.36394   3.37179   3.39806   3.41284   3.42014
 Alpha virt. eigenvalues --    3.45514   3.46111   3.48016   3.50188   3.52080
 Alpha virt. eigenvalues --    3.53841   3.53943   3.57166   3.59577   3.62913
 Alpha virt. eigenvalues --    3.75628   3.76809   3.78501   3.82533   3.84288
 Alpha virt. eigenvalues --    3.87812   3.89040   3.89903   3.92570   3.92873
 Alpha virt. eigenvalues --    3.94279   3.95179   3.96329   3.97975   3.99726
 Alpha virt. eigenvalues --    4.03216   4.07453   4.09390   4.09646   4.12207
 Alpha virt. eigenvalues --    4.16062   4.17099   4.24889   4.26168   4.29107
 Alpha virt. eigenvalues --    4.29389   4.32852   4.33238   4.36939   4.62543
 Alpha virt. eigenvalues --    4.80347   4.89973   5.01300   5.04403   5.16412
 Alpha virt. eigenvalues --    5.21200   5.27758   5.32805   5.37223   5.49646
 Alpha virt. eigenvalues --    5.54033   5.55654   5.57995   5.83919   5.92476
 Alpha virt. eigenvalues --    6.11084   6.14069   6.52280   6.56844   6.57934
 Alpha virt. eigenvalues --    6.59411   6.61249   6.65683   6.69449   6.89726
 Alpha virt. eigenvalues --    6.93158  10.07652  23.52104  23.65571  23.70244
 Alpha virt. eigenvalues --   23.73121  23.81570  23.88295  23.92423  24.00557
 Alpha virt. eigenvalues --   24.01091  24.04074  24.08045  24.15143  24.17478
 Alpha virt. eigenvalues --   24.25140  26.03625  26.35926  26.86267  35.76700
 Alpha virt. eigenvalues --   50.12930  50.20634  50.25031  50.29840  66.95422
 Alpha virt. eigenvalues --   66.99044  67.04197 216.17989
          Condensed to atoms (all electrons):
               1          2          3          4          5          6
     1  C   36.105046  -0.536389  -0.941033  -0.416631  -0.342145  -0.847527
     2  N   -0.536389   7.947555   0.236957  -0.031756  -0.302950  -0.397096
     3  C   -0.941033   0.236957   9.290463   0.603254   0.285153  -0.756686
     4  O   -0.416631  -0.031756   0.603254   8.095586  -0.202490  -0.180381
     5  O   -0.342145  -0.302950   0.285153  -0.202490   8.505787   0.408100
     6  C   -0.847527  -0.397096  -0.756686  -0.180381   0.408100   8.448373
     7  C    0.021757   0.057592   0.261770   0.033915  -0.193194  -0.996146
     8  C   -0.020425  -0.008995  -0.234135   0.000985   0.025873   0.341154
     9  C   -2.465215   0.010711  -0.919669   0.491701   0.048108  -0.130785
    10  C  -13.297936   0.155227  -0.471074   0.120040   0.042058   0.006318
    11  C   -9.088676  -0.001884   0.780267  -0.035125   0.001835   0.041391
    12  C   -4.075757   0.113463  -1.449039  -0.014854  -0.032629  -0.141094
    13  C    5.055357   0.220718  -0.620828  -0.125149  -0.125843  -0.187556
    14  H    0.043874   0.064528   0.040672   0.000804   0.021444  -0.001615
    15  H    0.004847   0.004002   0.036568  -0.000885  -0.049760   0.372000
    16  H    0.012857   0.004407   0.044704  -0.000559  -0.052944   0.358667
    17  H   -0.001167  -0.001119   0.000655  -0.000337   0.000706  -0.050455
    18  H   -0.000396  -0.000892   0.002921  -0.000337   0.000325  -0.055494
    19  H   -0.000086  -0.000036  -0.001433  -0.000073  -0.000444  -0.044823
    20  H    0.000112   0.000027   0.006322   0.000025  -0.000944   0.087932
    21  H   -0.000152  -0.000044  -0.002500  -0.000061  -0.000403  -0.041193
    22  H    0.000897  -0.023424   0.101714   0.003659   0.003586   0.010923
    23  Cl  -0.354416  -0.008002  -0.093991   0.000492  -0.000262  -0.003628
    24  H    0.243730  -0.022438  -0.007314   0.000177   0.000225  -0.000620
    25  C   -2.832685   0.048758  -0.179456   0.002021   0.002651  -0.013814
    26  H   -0.001193   0.000647   0.001960   0.000003   0.000001   0.000020
    27  F    0.004015   0.000490   0.001139   0.000016   0.000000   0.000014
    28  F   -0.006448   0.000505   0.000660   0.000010   0.000000   0.000007
    29  F    0.289146  -0.001041   0.007896   0.000500  -0.000049   0.000107
    30  O    0.076596  -0.012053   0.012284  -0.000071   0.000087  -0.000748
    31  O    0.216411  -0.018555  -0.017596   0.000468   0.008263  -0.009102
    32  C   -0.273807   0.006782   0.014970   0.000137  -0.001875   0.001400
    33  C    0.128552  -0.038328   0.020816   0.000532   0.002133   0.002047
    34  C    0.027941   0.003049  -0.005643  -0.000145  -0.000986   0.001918
    35  H   -0.001291   0.000091   0.000075  -0.000000   0.000006  -0.000018
    36  H   -0.000473   0.000041  -0.000011  -0.000000   0.000004  -0.000028
    37  H    0.000237   0.000233  -0.000191   0.000001  -0.000003   0.000079
    38  H   -0.000097  -0.000066   0.000064  -0.000000  -0.000000  -0.000029
    39  H   -0.000309   0.000318  -0.000108   0.000001  -0.000003   0.000066
               7          8          9         10         11         12
     1  C    0.021757  -0.020425  -2.465215 -13.297936  -9.088676  -4.075757
     2  N    0.057592  -0.008995   0.010711   0.155227  -0.001884   0.113463
     3  C    0.261770  -0.234135  -0.919669  -0.471074   0.780267  -1.449039
     4  O    0.033915   0.000985   0.491701   0.120040  -0.035125  -0.014854
     5  O   -0.193194   0.025873   0.048108   0.042058   0.001835  -0.032629
     6  C   -0.996146   0.341154  -0.130785   0.006318   0.041391  -0.141094
     7  C    6.544787  -0.319766  -0.028655  -0.010385  -0.000205   0.007350
     8  C   -0.319766   6.300974  -0.002778   0.000225   0.000197  -0.001550
     9  C   -0.028655  -0.002778  25.966369   4.957370 -16.487164   2.073609
    10  C   -0.010385   0.000225   4.957370  26.435289  -8.107738   0.883278
    11  C   -0.000205   0.000197 -16.487164  -8.107738  74.507892 -23.876251
    12  C    0.007350  -0.001550   2.073609   0.883278 -23.876251  30.883963
    13  C    0.050151  -0.005941  -4.183230  -3.019266 -16.564077   5.668195
    14  H   -0.000014  -0.000463   0.036418   0.020928   0.008868  -0.027353
    15  H   -0.021342  -0.023925  -0.000401   0.000147   0.000066   0.000053
    16  H   -0.021497  -0.020125  -0.004367  -0.000764  -0.000001   0.000063
    17  H    0.455513  -0.074811   0.000527   0.000048   0.000006   0.000005
    18  H    0.455750  -0.072425   0.000511   0.000037   0.000003  -0.000007
    19  H    0.021467   0.364915   0.000003  -0.000002   0.000000   0.000001
    20  H   -0.155812   0.410689   0.000040   0.000001  -0.000000   0.000000
    21  H    0.020668   0.363529   0.000011  -0.000000   0.000000   0.000001
    22  H   -0.000856   0.000091   0.236750  -0.069522   0.111791  -0.058896
    23  Cl   0.000079  -0.000010   0.121243   0.280472  -0.243415  -1.125147
    24  H   -0.000084   0.000000   0.027579  -0.004400   0.030906  -0.266780
    25  C   -0.000197  -0.000177  -3.893056  -0.885272   5.343624  -3.192175
    26  H   -0.000000   0.000000   0.055257   0.144565  -0.138634   0.180051
    27  F   -0.000000   0.000000   0.081258   0.189236  -0.360404   0.069881
    28  F   -0.000000   0.000000   0.066009   0.212391  -0.359518   0.062763
    29  F    0.000015  -0.000001   0.256570  -0.407784  -0.083796   0.083657
    30  O    0.000543   0.000010  -0.023730   0.003115  -0.004410  -0.176954
    31  O    0.004804   0.000809   0.079894   0.010857  -0.002266  -0.073130
    32  C   -0.000070  -0.000880  -0.075283  -0.031205   0.011079   0.143668
    33  C    0.000433   0.001845  -0.027221  -0.014557  -0.008010  -0.096928
    34  C   -0.000568  -0.001471   0.006973   0.000027  -0.002682  -0.015046
    35  H    0.000022  -0.000000  -0.000098  -0.000017   0.000000   0.000382
    36  H    0.000021  -0.000000  -0.000037  -0.000003  -0.000023   0.000078
    37  H    0.000160   0.000123  -0.000026  -0.000008  -0.000002  -0.000105
    38  H   -0.000022  -0.000009   0.000007   0.000003   0.000002   0.000080
    39  H    0.000182   0.000107  -0.000077  -0.000014   0.000002  -0.000041
              13         14         15         16         17         18
     1  C    5.055357   0.043874   0.004847   0.012857  -0.001167  -0.000396
     2  N    0.220718   0.064528   0.004002   0.004407  -0.001119  -0.000892
     3  C   -0.620828   0.040672   0.036568   0.044704   0.000655   0.002921
     4  O   -0.125149   0.000804  -0.000885  -0.000559  -0.000337  -0.000337
     5  O   -0.125843   0.021444  -0.049760  -0.052944   0.000706   0.000325
     6  C   -0.187556  -0.001615   0.372000   0.358667  -0.050455  -0.055494
     7  C    0.050151  -0.000014  -0.021342  -0.021497   0.455513   0.455750
     8  C   -0.005941  -0.000463  -0.023925  -0.020125  -0.074811  -0.072425
     9  C   -4.183230   0.036418  -0.000401  -0.004367   0.000527   0.000511
    10  C   -3.019266   0.020928   0.000147  -0.000764   0.000048   0.000037
    11  C  -16.564077   0.008868   0.000066  -0.000001   0.000006   0.000003
    12  C    5.668195  -0.027353   0.000053   0.000063   0.000005  -0.000007
    13  C   21.680237  -0.125375   0.000030  -0.000042   0.000023  -0.000172
    14  H   -0.125375   0.283002   0.000037   0.000021  -0.000036  -0.000037
    15  H    0.000030   0.000037   0.489144  -0.046990   0.005540  -0.008641
    16  H   -0.000042   0.000021  -0.046990   0.492361  -0.008971   0.005560
    17  H    0.000023  -0.000036   0.005540  -0.008971   0.446447  -0.028731
    18  H   -0.000172  -0.000037  -0.008641   0.005560  -0.028731   0.444310
    19  H    0.000019  -0.000000  -0.000922   0.004629  -0.008239   0.006685
    20  H   -0.000015  -0.000000  -0.000238  -0.000243  -0.004080  -0.004070
    21  H    0.000025  -0.000000   0.004526  -0.001043   0.006768  -0.008163
    22  H   -0.015091  -0.000140  -0.000035  -0.000038  -0.000000  -0.000000
    23  Cl   0.492601   0.000413   0.000000   0.000001  -0.000000  -0.000000
    24  H    0.164527   0.017096  -0.000000   0.000000  -0.000000   0.000000
    25  C   -1.663925   0.000225  -0.000014  -0.000076   0.000001   0.000000
    26  H    0.018538  -0.000004  -0.000000  -0.000000   0.000000   0.000000
    27  F    0.019841   0.000000  -0.000000   0.000000  -0.000000   0.000000
    28  F    0.016987   0.000000   0.000000  -0.000000   0.000000  -0.000000
    29  F    0.025376  -0.000003   0.000000   0.000000   0.000000   0.000000
    30  O    0.116323   0.018424   0.000001  -0.000000  -0.000001  -0.000001
    31  O   -0.232756   0.062895   0.000012  -0.000034   0.000011  -0.000067
    32  C    0.217493  -0.006282   0.000017   0.000069   0.000225   0.000167
    33  C   -0.099177   0.034964  -0.000025   0.000009  -0.000557  -0.000549
    34  C   -0.014041  -0.002500   0.000019   0.000019   0.000408   0.000507
    35  H    0.001140  -0.000022   0.000000   0.000000   0.000000  -0.000000
    36  H    0.000923  -0.000008   0.000000   0.000000  -0.000000  -0.000000
    37  H   -0.000334  -0.000189  -0.000000  -0.000000  -0.000020  -0.000013
    38  H    0.000195   0.000030  -0.000000  -0.000000   0.000000   0.000000
    39  H   -0.000016  -0.000215  -0.000000  -0.000000  -0.000007  -0.000021
              19         20         21         22         23         24
     1  C   -0.000086   0.000112  -0.000152   0.000897  -0.354416   0.243730
     2  N   -0.000036   0.000027  -0.000044  -0.023424  -0.008002  -0.022438
     3  C   -0.001433   0.006322  -0.002500   0.101714  -0.093991  -0.007314
     4  O   -0.000073   0.000025  -0.000061   0.003659   0.000492   0.000177
     5  O   -0.000444  -0.000944  -0.000403   0.003586  -0.000262   0.000225
     6  C   -0.044823   0.087932  -0.041193   0.010923  -0.003628  -0.000620
     7  C    0.021467  -0.155812   0.020668  -0.000856   0.000079  -0.000084
     8  C    0.364915   0.410689   0.363529   0.000091  -0.000010   0.000000
     9  C    0.000003   0.000040   0.000011   0.236750   0.121243   0.027579
    10  C   -0.000002   0.000001  -0.000000  -0.069522   0.280472  -0.004400
    11  C    0.000000  -0.000000   0.000000   0.111791  -0.243415   0.030906
    12  C    0.000001   0.000000   0.000001  -0.058896  -1.125147  -0.266780
    13  C    0.000019  -0.000015   0.000025  -0.015091   0.492601   0.164527
    14  H   -0.000000  -0.000000  -0.000000  -0.000140   0.000413   0.017096
    15  H   -0.000922  -0.000238   0.004526  -0.000035   0.000000  -0.000000
    16  H    0.004629  -0.000243  -0.001043  -0.000038   0.000001   0.000000
    17  H   -0.008239  -0.004080   0.006768  -0.000000  -0.000000  -0.000000
    18  H    0.006685  -0.004070  -0.008163  -0.000000  -0.000000   0.000000
    19  H    0.478265  -0.026132  -0.038112  -0.000000  -0.000000  -0.000000
    20  H   -0.026132   0.454165  -0.026011   0.000000   0.000000   0.000000
    21  H   -0.038112  -0.026011   0.477946  -0.000000  -0.000000  -0.000000
    22  H   -0.000000   0.000000  -0.000000   0.359089  -0.000124   0.000144
    23  Cl  -0.000000   0.000000  -0.000000  -0.000124  17.591019   0.003663
    24  H   -0.000000   0.000000  -0.000000   0.000144   0.003663   0.279602
    25  C   -0.000000   0.000000   0.000000   0.014101  -0.052920  -0.003826
    26  H    0.000000   0.000000   0.000000  -0.000293  -0.024312  -0.000274
    27  F    0.000000   0.000000  -0.000000  -0.000027  -0.000521  -0.000005
    28  F   -0.000000   0.000000   0.000000  -0.000054  -0.000406  -0.000007
    29  F    0.000000   0.000000   0.000000   0.010222   0.000006  -0.000015
    30  O    0.000000   0.000000   0.000000  -0.000017   0.004204   0.040137
    31  O    0.000000   0.000002   0.000001   0.000010  -0.002036   0.007670
    32  C   -0.000001  -0.000005   0.000000   0.000203   0.001721  -0.001794
    33  C   -0.000006   0.000011  -0.000007   0.000025   0.003374   0.023903
    34  C    0.000007  -0.000023   0.000008   0.000002   0.000155  -0.000196
    35  H    0.000000  -0.000000   0.000000  -0.000000   0.000010  -0.000084
    36  H    0.000000  -0.000000   0.000000   0.000000   0.000004  -0.000071
    37  H   -0.000000   0.000000  -0.000000   0.000000   0.000000  -0.000002
    38  H    0.000000  -0.000000   0.000000  -0.000000   0.000000  -0.000002
    39  H   -0.000000   0.000000  -0.000000   0.000000   0.000000  -0.000004
              25         26         27         28         29         30
     1  C   -2.832685  -0.001193   0.004015  -0.006448   0.289146   0.076596
     2  N    0.048758   0.000647   0.000490   0.000505  -0.001041  -0.012053
     3  C   -0.179456   0.001960   0.001139   0.000660   0.007896   0.012284
     4  O    0.002021   0.000003   0.000016   0.000010   0.000500  -0.000071
     5  O    0.002651   0.000001   0.000000   0.000000  -0.000049   0.000087
     6  C   -0.013814   0.000020   0.000014   0.000007   0.000107  -0.000748
     7  C   -0.000197  -0.000000  -0.000000  -0.000000   0.000015   0.000543
     8  C   -0.000177   0.000000   0.000000   0.000000  -0.000001   0.000010
     9  C   -3.893056   0.055257   0.081258   0.066009   0.256570  -0.023730
    10  C   -0.885272   0.144565   0.189236   0.212391  -0.407784   0.003115
    11  C    5.343624  -0.138634  -0.360404  -0.359518  -0.083796  -0.004410
    12  C   -3.192175   0.180051   0.069881   0.062763   0.083657  -0.176954
    13  C   -1.663925   0.018538   0.019841   0.016987   0.025376   0.116323
    14  H    0.000225  -0.000004   0.000000   0.000000  -0.000003   0.018424
    15  H   -0.000014  -0.000000  -0.000000   0.000000   0.000000   0.000001
    16  H   -0.000076  -0.000000   0.000000  -0.000000   0.000000  -0.000000
    17  H    0.000001   0.000000  -0.000000   0.000000   0.000000  -0.000001
    18  H    0.000000   0.000000   0.000000  -0.000000   0.000000  -0.000001
    19  H   -0.000000   0.000000   0.000000  -0.000000   0.000000   0.000000
    20  H    0.000000   0.000000   0.000000   0.000000   0.000000   0.000000
    21  H    0.000000   0.000000  -0.000000   0.000000   0.000000   0.000000
    22  H    0.014101  -0.000293  -0.000027  -0.000054   0.010222  -0.000017
    23  Cl  -0.052920  -0.024312  -0.000521  -0.000406   0.000006   0.004204
    24  H   -0.003826  -0.000274  -0.000005  -0.000007  -0.000015   0.040137
    25  C   12.202554   0.071564   0.161653   0.174377  -0.022957   0.000778
    26  H    0.071564   0.421008  -0.000903  -0.000915   0.000450   0.000004
    27  F    0.161653  -0.000903   8.980201  -0.053624  -0.030384   0.000000
    28  F    0.174377  -0.000915  -0.053624   8.979551  -0.030188   0.000000
    29  F   -0.022957   0.000450  -0.030384  -0.030188   9.029153   0.000000
    30  O    0.000778   0.000004   0.000000   0.000000   0.000000   8.454004
    31  O    0.000287   0.000001   0.000000   0.000000   0.000000  -0.188336
    32  C   -0.007319  -0.000017  -0.000004  -0.000004   0.000001   0.447745
    33  C   -0.001445  -0.000005  -0.000000  -0.000000   0.000000  -0.237509
    34  C   -0.000020   0.000000  -0.000000  -0.000000  -0.000000   0.014106
    35  H   -0.000000  -0.000000  -0.000000  -0.000000  -0.000000  -0.003702
    36  H    0.000000   0.000000  -0.000000   0.000000  -0.000000  -0.003358
    37  H   -0.000000  -0.000000  -0.000000  -0.000000  -0.000000  -0.000257
    38  H    0.000000  -0.000000   0.000000   0.000000   0.000000  -0.000144
    39  H   -0.000000  -0.000000  -0.000000  -0.000000  -0.000000  -0.000324
              31         32         33         34         35         36
     1  C    0.216411  -0.273807   0.128552   0.027941  -0.001291  -0.000473
     2  N   -0.018555   0.006782  -0.038328   0.003049   0.000091   0.000041
     3  C   -0.017596   0.014970   0.020816  -0.005643   0.000075  -0.000011
     4  O    0.000468   0.000137   0.000532  -0.000145  -0.000000  -0.000000
     5  O    0.008263  -0.001875   0.002133  -0.000986   0.000006   0.000004
     6  C   -0.009102   0.001400   0.002047   0.001918  -0.000018  -0.000028
     7  C    0.004804  -0.000070   0.000433  -0.000568   0.000022   0.000021
     8  C    0.000809  -0.000880   0.001845  -0.001471  -0.000000  -0.000000
     9  C    0.079894  -0.075283  -0.027221   0.006973  -0.000098  -0.000037
    10  C    0.010857  -0.031205  -0.014557   0.000027  -0.000017  -0.000003
    11  C   -0.002266   0.011079  -0.008010  -0.002682   0.000000  -0.000023
    12  C   -0.073130   0.143668  -0.096928  -0.015046   0.000382   0.000078
    13  C   -0.232756   0.217493  -0.099177  -0.014041   0.001140   0.000923
    14  H    0.062895  -0.006282   0.034964  -0.002500  -0.000022  -0.000008
    15  H    0.000012   0.000017  -0.000025   0.000019   0.000000   0.000000
    16  H   -0.000034   0.000069   0.000009   0.000019   0.000000   0.000000
    17  H    0.000011   0.000225  -0.000557   0.000408   0.000000  -0.000000
    18  H   -0.000067   0.000167  -0.000549   0.000507  -0.000000  -0.000000
    19  H    0.000000  -0.000001  -0.000006   0.000007   0.000000   0.000000
    20  H    0.000002  -0.000005   0.000011  -0.000023  -0.000000  -0.000000
    21  H    0.000001   0.000000  -0.000007   0.000008   0.000000   0.000000
    22  H    0.000010   0.000203   0.000025   0.000002  -0.000000   0.000000
    23  Cl  -0.002036   0.001721   0.003374   0.000155   0.000010   0.000004
    24  H    0.007670  -0.001794   0.023903  -0.000196  -0.000084  -0.000071
    25  C    0.000287  -0.007319  -0.001445  -0.000020  -0.000000   0.000000
    26  H    0.000001  -0.000017  -0.000005   0.000000  -0.000000   0.000000
    27  F    0.000000  -0.000004  -0.000000  -0.000000  -0.000000  -0.000000
    28  F    0.000000  -0.000004  -0.000000  -0.000000  -0.000000   0.000000
    29  F    0.000000   0.000001   0.000000  -0.000000  -0.000000  -0.000000
    30  O   -0.188336   0.447745  -0.237509   0.014106  -0.003702  -0.003358
    31  O    8.444306   0.280046  -0.200283   0.060573   0.000975   0.000965
    32  C    0.280046   6.636908  -1.664003   0.309235  -0.047197  -0.035136
    33  C   -0.200283  -1.664003   8.362845  -0.631766   0.434384   0.422688
    34  C    0.060573   0.309235  -0.631766   6.135030  -0.055380  -0.056154
    35  H    0.000975  -0.047197   0.434384  -0.055380   0.461408  -0.029732
    36  H    0.000965  -0.035136   0.422688  -0.056154  -0.029732   0.461045
    37  H   -0.009468  -0.019078  -0.009816   0.384343  -0.007477   0.006127
    38  H    0.004062   0.088113  -0.159488   0.410055  -0.003780  -0.003841
    39  H   -0.009344  -0.024363  -0.005771   0.385762   0.006121  -0.007485
              37         38         39
     1  C    0.000237  -0.000097  -0.000309
     2  N    0.000233  -0.000066   0.000318
     3  C   -0.000191   0.000064  -0.000108
     4  O    0.000001  -0.000000   0.000001
     5  O   -0.000003  -0.000000  -0.000003
     6  C    0.000079  -0.000029   0.000066
     7  C    0.000160  -0.000022   0.000182
     8  C    0.000123  -0.000009   0.000107
     9  C   -0.000026   0.000007  -0.000077
    10  C   -0.000008   0.000003  -0.000014
    11  C   -0.000002   0.000002   0.000002
    12  C   -0.000105   0.000080  -0.000041
    13  C   -0.000334   0.000195  -0.000016
    14  H   -0.000189   0.000030  -0.000215
    15  H   -0.000000  -0.000000  -0.000000
    16  H   -0.000000  -0.000000  -0.000000
    17  H   -0.000020   0.000000  -0.000007
    18  H   -0.000013   0.000000  -0.000021
    19  H   -0.000000   0.000000  -0.000000
    20  H    0.000000  -0.000000   0.000000
    21  H   -0.000000   0.000000  -0.000000
    22  H    0.000000  -0.000000   0.000000
    23  Cl   0.000000   0.000000   0.000000
    24  H   -0.000002  -0.000002  -0.000004
    25  C   -0.000000   0.000000  -0.000000
    26  H   -0.000000  -0.000000  -0.000000
    27  F   -0.000000   0.000000  -0.000000
    28  F   -0.000000   0.000000  -0.000000
    29  F   -0.000000   0.000000  -0.000000
    30  O   -0.000257  -0.000144  -0.000324
    31  O   -0.009468   0.004062  -0.009344
    32  C   -0.019078   0.088113  -0.024363
    33  C   -0.009816  -0.159488  -0.005771
    34  C    0.384343   0.410055   0.385762
    35  H   -0.007477  -0.003780   0.006121
    36  H    0.006127  -0.003841  -0.007485
    37  H    0.467316  -0.035619  -0.027060
    38  H   -0.035619   0.515377  -0.035451
    39  H   -0.027060  -0.035451   0.466438
 Mulliken charges:
               1
     1  C   -0.727119
     2  N   -0.471033
     3  C   -0.050574
     4  O   -0.345473
     5  O   -0.049423
     6  C   -0.221678
     7  C   -0.188165
     8  C   -1.023639
     9  C   -0.275125
    10  C   -1.141685
    11  C    0.526350
    12  C    0.453198
    13  C   -0.765866
    14  H    0.509614
    15  H    0.236170
    16  H    0.234327
    17  H    0.261649
    18  H    0.263238
    19  H    0.244318
    20  H    0.258248
    21  H    0.244207
    22  H    0.315310
    23  Cl   0.409731
    24  H    0.468556
    25  C    0.726739
    26  H    0.272481
    27  F   -0.061871
    28  F   -0.062097
    29  F   -0.126879
    30  O   -0.536748
    31  O   -0.420350
    32  C    0.028344
    33  C   -0.243108
    34  C   -0.953519
    35  H    0.244186
    36  H    0.244462
    37  H    0.251046
    38  H    0.220560
    39  H    0.251617
 Sum of Mulliken charges =  -1.00000
 Mulliken charges with hydrogens summed into heavy atoms:
               1
     1  C   -0.727119
     2  N    0.038581
     3  C   -0.050574
     4  O   -0.345473
     5  O   -0.049423
     6  C    0.248820
     7  C    0.336722
     8  C   -0.276866
     9  C    0.040185
    10  C   -1.141685
    11  C    0.798831
    12  C    0.453198
    13  C   -0.297310
    23  Cl   0.409731
    25  C    0.726739
    27  F   -0.061871
    28  F   -0.062097
    29  F   -0.126879
    30  O   -0.536748
    31  O   -0.420350
    32  C    0.028344
    33  C    0.245540
    34  C   -0.230296
 APT charges:
               1
     1  C   -1.772843
     2  N   -0.888173
     3  C    0.173689
     4  O   -0.198431
     5  O    0.697638
     6  C   -1.181137
     7  C   -0.038529
     8  C   -2.695581
     9  C   -0.477785
    10  C   -0.539800
    11  C    1.096132
    12  C    1.412219
    13  C   -1.056810
    14  H    0.495791
    15  H    0.479974
    16  H    0.483139
    17  H    0.407961
    18  H    0.407310
    19  H    0.479566
    20  H    0.962954
    21  H    0.480296
    22  H    0.531137
    23  Cl  -0.212304
    24  H    0.522082
    25  C   -0.579737
    26  H    0.955588
    27  F    0.035498
    28  F    0.027521
    29  F   -0.119542
    30  O   -0.755687
[...]
 9002,0.00000788,0.00004906,0.00011475,0.00002178,-0.00002034,-0.000006
 80,-0.00002186,-0.00002606,-0.00000415,0.00001229,0.00000759,0.0000949
 8,-0.00005175,-0.00001933,-0.00002137,-0.00002263,0.00000070,0.0000421
 0,-0.00000847,-0.00001127,-0.00006395,-0.00002272,0.00001901,0.0000657
 9,0.00012671,-0.00000495,-0.00023970,0.00179461,-0.00003852,-0.0000160
 0,-0.00000451,0.00000207,-0.00001694,-0.00001448,0.00000607,-0.0000022
 7,0.00000307,0.00000979,0.00000822,0.00000052,0.00000283,-0.00000057,-
 0.00000486,0.00000072,-0.00000999,0.00000118,-0.00000167,0.00000403,0.
 00000197,0.00000207,-0.00000988,0.00001078,0.00000061,0.00003924,0.000
 02362,0.00000332,-0.00005040,-0.00005784,-0.00003400,-0.00001773,0.000
 06993,-0.00000970,0.00000097,0.00000026,-0.00000179,0.00000316,-0.0000
 2630,0.00001780,0.00002004,-0.00002308,-0.00000481,0.00000193,-0.00001
 839,-0.00000112,-0.00098179,0.00177258,0.00437534,-0.00055843,-0.00750
 534,0.00370064,-0.00222783,-0.01226488,-0.03374285,-0.00510013,-0.0961
 5714,-0.10819346,0.00074168,0.00176296,0.00538933,0.00682695,0.1042473
 6,-0.00013832,0.00003231,0.00000093,0.00003670,-0.00019566,0.00005316,
 0.00004888,0.00011040,-0.00003451,-0.00002104,-0.00009765,0.00001338,-
 0.00002104,-0.00005035,0.00003012,0.00004121,0.00001963,-0.00001175,-0
 .00000273,0.00000729,-0.00002364,0.00000608,-0.00000251,0.00000526,0.0
 0002695,-0.00002467,0.00000262,-0.00000751,-0.00000956,-0.00000528,0.0
 0002809,-0.00000267,0.00000387,-0.00007326,-0.00002417,-0.00000183,0.0
 0005470,0.00001593,0.00001053,0.00000899,0.00032759,-0.00010806,-0.000
 00448,-0.00000117,-0.00000195,-0.00000354,-0.00001078,0.00000741,0.000
 00232,0.00000284,-0.00000480,0.00001261,0.00000396,0.00001683,-0.00000
 446,-0.00000831,0.00000588,-0.00000353,0.00000372,-0.00000336,-0.00000
 108,-0.00000021,-0.00000153,-0.00000519,0.00000454,-0.00000265,0.00003
 572,0.00002004,0.00000564,-0.00001949,-0.00001043,-0.00000907,-0.00002
 345,0.00006407,-0.00001468,0.00000144,-0.00000150,-0.00000258,0.000004
 16,-0.00002517,0.00001775,0.00001771,-0.00001801,-0.00000242,0.0000042
 3,-0.00001493,0.00000152,0.00110030,0.00065059,0.00143917,0.00123003,0
 .00004801,0.00020298,-0.00274311,0.00281856,0.00209622,-0.01486223,-0.
 10567785,-0.25766533,-0.00054807,-0.00414888,-0.00945060,0.01920597,0.
 11401343,0.28039694,-0.00012210,0.00003870,0.00000356,0.00015254,-0.00
 005306,-0.00004463,-0.00024083,0.00006426,0.00002176,0.00005712,-0.000
 04363,-0.00000435,0.00014620,-0.00009547,-0.00001481,-0.00004762,0.000
 01757,0.00000631,0.00000448,0.00002457,-0.00000406,0.00001432,-0.00001
 396,0.00000120,0.00003034,-0.00002608,0.00000039,-0.00001593,0.0000094
 8,0.00000006,0.00001909,-0.00000016,0.00000385,-0.00001928,-0.00001421
 ,-0.00001005,0.00003463,0.00001872,0.00000195,-0.00006131,0.00008691,0
 .00007649,0.00000641,-0.00000727,-0.00000656,0.00000788,-0.00000719,0.
 00000486,0.00000225,0.00001007,-0.00003550,0.00001447,0.00002002,0.000
 03621,-0.00000798,-0.00000831,0.00000841,0.00000949,0.00000489,-0.0000
 0102,-0.00000832,-0.00000833,-0.00000736,-0.00000827,0.00000551,0.0000
 0307,0.00001379,0.00001177,0.00000005,0.00001581,-0.00010040,-0.000013
 78,-0.00001384,-0.00000719,0.00000676,0.00000017,0.00000022,0.00000117
 ,0.00000339,0.00000452,-0.00000514,0.00000823,-0.00000140,-0.00000388,
 0.00000555,0.00000325,0.00000031,-0.00017308,0.00089523,0.00048865,0.0
 0066183,0.00033815,0.00101389,0.00413017,0.00274862,-0.00709360,-0.163
 58207,-0.07896952,0.10341246,-0.02095894,-0.01342800,0.01833601,0.0008
 7727,0.00134720,-0.00058424,0.18203535,-0.00032317,0.00006686,0.000015
 92,0.00006904,-0.00079415,0.00022531,0.00024006,0.00015596,-0.00001063
 ,-0.00008472,-0.00017649,-0.00000570,-0.00008839,-0.00002885,0.0000080
 5,0.00008249,0.00002499,-0.00000244,-0.00000505,-0.00000281,0.00000146
 ,0.00000091,0.00000479,0.00000022,0.00006300,-0.00005673,-0.00002334,-
 0.00002577,-0.00001256,-0.00000549,0.00006737,0.00000307,-0.00001366,-
 0.00014574,-0.00008115,0.00000571,0.00010670,0.00000893,0.00001755,0.0
 0004625,0.00120497,-0.00051012,-0.00001065,-0.00000776,-0.00000298,-0.
 00000960,-0.00000686,0.00000377,0.00000601,-0.00000154,-0.00000393,0.0
 0000564,-0.00000041,0.00000204,-0.00000047,-0.00000220,0.00000092,-0.0
 0000676,0.00000188,0.00000082,-0.00000143,-0.00000336,-0.00000153,-0.0
 0000903,0.00000481,0.00000369,0.00007293,0.00006091,-0.00000448,-0.000
 06438,0.00006433,0.00001173,-0.00002158,0.00005273,0.00002006,0.000003
 31,-0.00000672,0.00000209,0.00000479,-0.00001565,0.00000208,0.00002241
 ,-0.00001830,-0.00001048,0.00000194,-0.00001452,-0.00000776,0.00298354
 ,0.00142905,-0.00371964,0.00258850,-0.00600188,-0.00352978,-0.02519805
 ,-0.01283064,0.02260793,-0.08120250,-0.09823606,0.07459771,0.00412236,
 0.00181781,-0.00330622,0.01084067,0.00694278,-0.00910623,0.08568139,0.
 10571195,0.00012754,-0.00001940,-0.00000670,-0.00003391,0.00024498,0.0
 0000977,-0.00011447,-0.00010934,0.00001003,0.00003720,0.00009515,-0.00
 000567,0.00006287,0.00002570,0.00000471,-0.00006055,-0.00001544,0.0000
 0206,0.00000021,-0.00000387,-0.00000954,-0.00000003,-0.00000269,0.0000
 0299,-0.00002115,0.00001958,0.00000243,0.00000370,0.00001616,0.0000018
 0,-0.00004274,-0.00000043,0.00000485,0.00012259,0.00005976,-0.00000236
 ,-0.00006505,-0.00001049,0.00000312,0.00002450,-0.00040175,-0.00000432
 ,0.00000689,0.00000496,0.00000383,0.00000663,0.00000061,-0.00000353,-0
 .00000734,0.00000289,0.00000027,0.00000015,0.00000742,0.00000607,-0.00
 000090,0.00000002,-0.00000103,0.00000573,-0.00000196,-0.00000157,0.000
 00092,0.00000275,0.00000207,0.00000397,-0.00000170,-0.00000074,-0.0000
 5888,-0.00003746,0.00000008,0.00005656,-0.00009409,-0.00003063,0.00002
 471,-0.00007047,-0.00000782,-0.00000233,0.00000574,0.00000067,-0.00000
 467,0.00002309,-0.00000829,-0.00002259,0.00002063,0.00000788,-0.000000
 41,0.00001870,0.00000580,-0.00229283,0.00051220,0.00056023,-0.00031256
 ,0.00040089,-0.00040976,0.00319237,-0.00126462,-0.00163067,0.10409080,
 0.07098642,-0.13785088,-0.01046793,-0.00705538,0.00895897,0.01984835,0
 .01437185,-0.01849453,-0.11244414,-0.07726728,0.14769548,-0.00016322,0
 .00005878,-0.00000149,0.00014499,-0.00004734,-0.00003372,-0.00022935,0
 .00011700,0.00003485,0.00004584,-0.00007562,-0.00000863,0.00010023,-0.
 00012284,-0.00003464,0.00003832,0.00002875,-0.00000039,-0.00001812,0.0
 0001163,0.00004845,0.00001440,-0.00001280,-0.00001333,0.00003742,-0.00
 002962,0.00000569,-0.00002097,0.00000815,-0.00000141,0.00003149,0.0000
 0380,0.00000137,-0.00005649,-0.00003207,-0.00000549,0.00003657,0.00003
 649,-0.00000265,-0.00003105,0.00011672,0.00002525,-0.00000412,-0.00001
 125,-0.00000857,-0.00000417,0.00000022,0.00000547,0.00000169,-0.000022
 77,-0.00001906,0.00004877,0.00004859,-0.00000255,-0.00000407,-0.000000
 86,0.00000289,-0.00000453,0.00000381,0.00000402,-0.00000982,-0.0000091
 3,-0.00000458,-0.00000903,0.00000624,0.00000358,0.00003195,0.00002707,
 -0.00000138,-0.00000688,-0.00004112,0.00000460,-0.00001531,-0.00000174
 ,0.00001098,0.00000012,-0.00000097,0.00000092,0.00000371,0.00000333,-0
 .00000604,0.00001046,-0.00000323,-0.00000505,0.00000547,0.00000163,-0.
 00000052,0.00077826,0.00084368,0.00002065,0.00214838,0.00117412,-0.000
 10109,-0.00141824,-0.00316823,-0.00007474,-0.02216147,-0.01343936,0.01
 940933,-0.16645512,-0.07994829,0.10775625,0.00127791,-0.00046950,-0.00
 026382,-0.00519206,0.00121951,-0.00342570,0.18377178,0.00013170,-0.000
 02449,-0.00000156,-0.00005887,0.00022885,-0.00002064,0.00003160,-0.000
 17546,0.00000051,0.00001426,0.00014682,-0.00000668,0.00001497,0.000120
 45,-0.00001076,-0.00012375,-0.00005490,0.00001300,0.00001519,-0.000037
 44,0.00001721,-0.00001773,0.00002122,-0.00000482,-0.00002293,0.0000274
 3,0.00000106,0.00000402,0.00001495,0.00000542,-0.00002589,0.00000809,0
 .00000142,0.00005333,0.00001668,-0.00001068,-0.00004802,-0.00001372,0.
 00001542,0.00002945,-0.00039255,0.00005491,0.00001422,0.00001213,0.000
 00637,0.00001058,0.00001587,-0.00001062,-0.00006117,-0.00003343,0.0000
 3828,-0.00001368,0.00003598,-0.00003168,0.00001103,0.00000893,-0.00000
 415,0.00002409,-0.00000503,0.00000052,0.00000991,0.00000444,0.00000064
 ,0.00000530,-0.00000367,-0.00000087,-0.00002318,-0.00001093,-0.0000001
 7,0.00003036,-0.00005131,-0.00000893,0.00001624,-0.00007861,-0.0000027
 4,-0.00000179,0.00000144,0.00000058,-0.00000307,0.00002719,-0.00001324
 ,-0.00001750,0.00002194,0.00000573,0.00000231,0.00002253,0.00000692,-0
 .00045663,0.00009202,-0.00015748,-0.00009015,-0.00017202,0.00013261,0.
 00115992,0.00011325,-0.00034213,0.00198644,0.00161303,-0.00274241,-0.0
 8183085,-0.10146954,0.07299819,-0.00050237,-0.00001158,-0.00012676,0.0
 0113549,0.00045072,-0.00003638,0.08894601,0.10606447,0.00011244,-0.000
 05017,-0.00001634,-0.00019032,-0.00004738,0.00001312,0.00039182,-0.000
 09036,-0.00001972,-0.00009574,0.00005402,0.00000631,-0.00024450,0.0001
 3734,-0.00002512,0.00009422,-0.00003012,-0.00001429,0.00000132,-0.0000
 2517,0.00010034,-0.00003020,0.00002552,-0.00003094,-0.00002424,0.00002
 565,0.00000857,0.00001481,-0.00000859,-0.00000841,-0.00002134,-0.00000
 193,0.00000654,0.00002330,0.00001589,-0.00000589,-0.00002766,-0.000017
 19,0.00000840,0.00003077,0.00004976,-0.00000392,-0.00000948,0.00000409
 ,0.00000700,-0.00002004,0.00002327,-0.00000971,0.00001884,-0.00000580,
 0.00003603,-0.00006033,-0.00007969,-0.00009009,0.00002117,0.00002369,-
 0.00001673,-0.00001576,-0.00000910,0.00000924,0.00000948,0.00000747,0.
 00000985,0.00000993,-0.00000577,-0.00000252,-0.00001687,-0.00001475,0.
 00000129,-0.00000224,0.00003243,0.00000506,0.00001765,0.00000546,-0.00
 000280,-0.00000037,-0.00000024,-0.00000074,-0.00000355,-0.00000310,0.0
 0000264,-0.00000903,0.00000186,0.00000371,-0.00000710,-0.00000372,-0.0
 0000165,0.00003425,-0.00052792,-0.00029229,-0.00122684,-0.00024588,-0.
 00009385,0.00073605,0.00131342,0.00068052,-0.00989742,-0.00701246,0.00
 895775,0.10902360,0.07187709,-0.14385600,0.00076703,-0.00049993,0.0008
 2561,-0.00322710,0.00053459,-0.00002302,-0.11559114,-0.07989584,0.1536
 9827,-0.00003599,0.00004512,0.00000728,0.00013512,0.00024888,-0.000031
 61,-0.00037006,-0.00007061,0.00003405,0.00009795,0.00007275,-0.0000095
 1,0.00019763,-0.00006862,-0.00000811,-0.00007782,-0.00000093,0.0000026
 0,-0.00000267,0.00002048,-0.00000087,0.00001402,-0.00002038,0.00000002
 ,0.00002627,-0.00000186,-0.00000691,-0.00002489,0.00003830,0.00001120,
 -0.00001875,0.00001346,0.00000179,0.00008501,0.00003173,-0.00000458,-0
 .00004361,0.00005560,0.00003518,0.00000558,-0.00040928,0.00003257,0.00
 001057,0.00000139,-0.00000194,0.00001049,-0.00000059,0.00000119,0.0000
 0448,0.00000360,-0.00002338,0.00002429,0.00001947,0.00002183,-0.000007
 76,-0.00000312,0.00000363,0.00000438,0.00000125,-0.00000020,-0.0000067
 7,-0.00000245,-0.00000210,-0.00000525,0.00000686,0.00000089,-0.0000303
 8,-0.00000923,0.00000309,0.00007484,-0.00027460,-0.00008554,0.00001567
 ,-0.00012364,-0.00001160,-0.00000387,0.00000676,-0.00000013,-0.0000022
 6,0.00004205,-0.00001676,-0.00002183,0.00003058,0.00000895,0.00001101,
 0.00003755,0.00001560,-0.00252522,0.00323245,-0.00114572,0.00154537,0.
 00084490,0.00038249,-0.00417164,-0.00579175,-0.00206338,-0.00660386,0.
 03287830,-0.00184480,-0.06309157,0.06019707,-0.00484837,0.00125199,-0.
 00063274,-0.00018962,0.00085414,-0.00035215,0.00105088,0.00640662,-0.0
 2118820,-0.00030204,0.06761856,-0.00022644,0.00003437,0.00002175,0.000
 01212,-0.00052037,0.00004010,0.00020568,0.00031768,-0.00003916,-0.0000
 8433,-0.00026787,0.00001721,-0.00013788,-0.00011556,0.00003042,0.00017
 591,0.00006563,-0.00001880,-0.00001533,0.00002038,-0.00000949,0.000021
 69,-0.00001335,0.00000375,0.00002618,-0.00004248,-0.00000724,0.0000077
 7,-0.00004810,-0.00001459,0.00005265,-0.00002337,-0.00000504,-0.000132
 04,-0.00004007,0.00000704,0.00010014,0.00001944,-0.00001944,-0.0000129
 6,0.00091495,-0.00009515,-0.00001827,-0.00001665,-0.00001079,-0.000017
 22,-0.00001932,0.00001521,0.00002151,0.00000282,-0.00002786,0.00004563
 ,0.00001240,0.00002751,-0.00001110,-0.00001092,0.00000626,-0.00002385,
 0.00001133,0.00000310,-0.00000877,-0.00001134,-0.00000542,-0.00000662,
 0.00000425,0.00000122,0.00005631,0.00002217,-0.00000103,-0.00010329,0.
 00022179,0.00004604,-0.00004647,0.00021629,0.00001651,0.00000487,-0.00
 000516,-0.00000071,0.00000829,-0.00007402,0.00003132,0.00004885,-0.000
 05873,-0.00001772,-0.00000942,-0.00006381,-0.00002253,0.00164748,-0.00
 053128,0.00076856,0.00177471,-0.00072157,0.00080921,-0.00194250,0.0006
 9159,-0.00101226,-0.00132453,-0.00099046,-0.00056864,0.06005389,-0.289
 64398,0.02355089,0.00044707,0.00022758,0.00062164,0.00074641,0.0002621
 2,-0.00014679,0.00337169,-0.01310010,0.00015581,-0.06718987,0.31608480
 ,-0.00000554,0.00001306,-0.00000517,0.00002099,0.00006696,0.00002003,-
 0.00005656,-0.00005566,-0.00000797,0.00001896,0.00004582,-0.00000070,0
 .00003655,0.00001788,0.00001922,-0.00002812,-0.00001098,-0.00000055,0.
 00000187,-0.00000058,-0.00001943,-0.00000475,0.00000399,0.00000752,0.0
 0000772,0.00000349,-0.00000073,-0.00000816,0.00001379,0.00000443,-0.00
 000775,0.00000561,-0.00000105,0.00002902,0.00000842,-0.00000172,-0.000
 01807,0.00002357,0.00002211,0.00002411,-0.00012063,-0.00002922,0.00000
 420,0.00000766,0.00000217,0.00000287,0.00000253,-0.00000085,-0.0000103
 2,-0.00000311,0.00001739,-0.00000353,-0.00001031,-0.00000852,0.0000005
 9,0.00000188,-0.00000097,0.00000411,-0.00000197,0.00000042,0.00000480,
 0.00000302,0.00000010,-0.00000097,0.00000224,-0.00000047,-0.00000967,-
 0.00000203,0.00000031,0.00002963,-0.00011002,-0.00003094,0.00000525,-0
 .00004704,-0.00000383,-0.00000155,0.00000228,0.00000014,-0.00000094,0.
 00001630,-0.00000700,-0.00000792,0.00001178,0.00000290,0.00000436,0.00
 001438,0.00000585,-0.00097761,0.00135909,-0.00041256,0.00051809,0.0002
 5824,0.00094337,-0.00211934,-0.00260355,-0.00031082,-0.00237134,0.0135
 9844,-0.00206233,-0.00483667,0.02369147,-0.05233757,0.00057163,0.00011
 736,-0.00008825,0.00033860,-0.00055881,0.00038403,-0.00676493,0.018929
 29,-0.00199851,0.00800839,-0.02633397,0.05025770,-0.00000533,-0.000005
 53,-0.00000736,-0.00007267,-0.00010422,0.00001401,0.00018122,0.0000100
 7,-0.00001108,-0.00004766,-0.00001878,0.00000447,-0.00010653,0.0000440
 9,-0.00001885,0.00005062,-0.00000380,-0.00000964,0.00000390,-0.0000231
 8,0.00008413,-0.00001056,0.00001012,-0.00002184,0.00000060,0.00000657,
 0.00000350,0.00000465,-0.00000683,-0.00000367,-0.00000228,-0.00000213,
 0.00000255,-0.00000745,0.00000272,-0.00000087,-0.00000404,0.00002115,0
 .00001374,0.00002923,0.00016621,-0.00001658,-0.00000243,-0.00000739,-0
 .00000044,-0.00001272,0.00000727,-0.00000389,0.00000202,0.00000346,-0.
 00001141,-0.00001301,-0.00000644,-0.00002853,0.00000873,0.00000979,-0.
 00000755,-0.00000362,-0.00000077,0.00000800,-0.00000066,-0.00000588,0.
 00000111,0.00000258,-0.00000028,-0.00000134,0.00000168,-0.00000229,0.0
 0000403,-0.00000283,-0.00001267,-0.00002298,0.00000198,0.00002367,-0.0
 0000520,-0.00000013,0.00000030,-0.00000149,-0.00000056,-0.00000935,0.0
 0000655,0.00000117,-0.00000517,0.00000085,-0.00000276,-0.00000685,-0.0
 0000079,0.00041783,0.00030463,0.00060784,0.00026183,0.00070431,0.00089
 854,-0.00025735,-0.00133834,-0.00091470,-0.00191288,-0.01443279,-0.030
 51027,-0.04672954,-0.00602100,-0.01114800,-0.00594231,0.00127109,-0.00
 234585,0.00134672,-0.00067938,0.00071162,0.00086964,0.01083937,0.01971
 659,-0.00134981,0.00248202,0.00760203,0.05330275,0.00015001,-0.0000290
 2,-0.00002327,-0.00004037,0.00027582,-0.00002063,-0.00006991,-0.000155
 72,0.00003237,0.00003442,0.00012712,-0.00000847,0.00005346,0.00006150,
 -0.00004388,-0.00009288,-0.00003175,0.00000952,0.00001243,-0.00001100,
 0.00003895,-0.00000675,0.00000284,-0.00001320,-0.00002388,0.00002333,0
 .00000521,0.00000259,0.00001798,0.00000227,-0.00002907,0.00000736,0.00
 000771,0.00006639,0.00002478,-0.00001160,-0.00005438,-0.00002038,0.000
 01769,0.00000768,-0.00044024,0.00007203,0.00000989,0.00000372,0.000003
 68,0.00000911,0.00001135,-0.00000890,-0.00000257,0.00000405,-0.0000035
 7,-0.00002541,0.00000878,-0.00001783,0.00000697,0.00000516,-0.00000189
 ,0.00001119,-0.00000389,-0.00000230,0.00000016,0.00000405,0.00000223,0
 .00000472,-0.00000337,-0.00000071,-0.00003109,-0.00001698,0.00000168,0
 .00003702,-0.00005770,-0.00001201,0.00002140,-0.00008321,-0.00001028,-
 0.00000211,0.00000233,-0.00000036,-0.00000391,0.00002750,-0.00000987,-
 0.00002178,0.00002358,0.00000877,0.00000260,0.00002451,0.00000971,-0.0
 0053066,0.00005370,-0.00027780,0.00024189,-0.00055075,-0.00009026,0.00
 059864,0.00016284,0.00102995,-0.00064007,0.00161386,0.00326234,-0.0065
 8392,-0.09999169,-0.10921326,0.00080973,0.00036484,0.00079290,-0.00042
 876,0.00002997,-0.00027998,0.00140955,0.00656639,0.01428774,-0.0016885
 4,-0.01281106,-0.02835991,0.00678623,0.10475942,-0.00012093,0.00004139
 ,-0.00000583,0.00008425,-0.00008746,0.00003738,-0.00011188,0.00007972,
 -0.00004211,0.00002058,-0.00005871,0.00001414,0.00005931,-0.00006790,0
 .00007078,0.00002011,0.00002140,-0.00001306,-0.00001199,0.00001615,-0.
 00009911,0.00001085,-0.00000681,0.00002992,0.00002701,-0.00001892,0.00
 000531,-0.00001247,0.00000364,0.00000194,0.00002024,0.00000126,0.00000
 140,-0.00003726,-0.00001816,-0.00000091,0.00002566,0.00003621,0.000018
 35,0.00001148,0.00015554,-0.00006008,-0.00000308,0.00001039,0.00000065
 ,0.00000171,-0.00001662,0.00001066,-0.00000305,-0.00000528,0.00001968,
 0.00003466,0.00000894,0.00002020,-0.00001058,-0.00001366,0.00000859,-0
 .00000423,0.00000247,-0.00000870,0.00000313,0.00000730,-0.00000023,-0.
 00000641,0.00000569,-0.00000300,0.00002181,0.00001614,0.00000349,-0.00
 000345,-0.00004736,-0.00002888,-0.00001738,0.00001392,-0.00001952,0.00
 000004,0.00000013,-0.00000213,0.00000287,-0.00000798,0.00001074,0.0000
 0871,-0.00000540,0.00000092,0.00000841,0.00000043,0.00000761,0.0006099
 6,0.00100628,0.00045009,0.00183721,0.00077396,0.00184122,-0.00147562,-
 0.00328490,-0.00114257,-0.00102788,-0.00445649,-0.01136448,-0.01251681
 ,-0.10680169,-0.26666664,-0.00260417,0.00045885,0.00079099,-0.00026579
 ,0.00002883,0.00082394,-0.00096337,-0.00879956,-0.01786774,0.00097553,
 0.00218305,0.00564143,0.01541278,0.11882522,0.28751553\\0.00000005,0.0
 0000085,0.00000012,0.00000088,0.00000052,-0.00000143,0.00000059,-0.000
 00046,0.00000098,-0.00000205,0.00000027,-0.00000043,-0.00000117,0.0000
 0158,0.00000070,0.00000083,0.00000063,0.00000043,0.00000030,0.00000190
 ,0.00000083,-0.00000023,0.00000212,0.00000060,0.00000006,-0.00000110,-
 0.00000071,-0.00000437,-0.00000180,0.00000012,-0.00000098,-0.00000226,
 -0.00000062,0.00000022,-0.00000263,-0.00000048,-0.00000185,-0.00000547
 ,-0.00000094,-0.00000020,-0.00000049,-0.00000057,-0.00000079,0.0000014
 7,0.00000037,-0.00000055,0.00000146,0.00000024,0.00000059,0.00000153,0
 .00000052,0.00000011,0.00000136,0.00000045,-0.00000022,0.00000241,0.00
 000065,0.00000030,0.00000256,0.00000090,-0.00000043,0.00000254,0.00000
 084,-0.00000105,-0.00000053,-0.00000008,0.00000032,-0.00000218,-0.0000
 0091,0.00000011,0.00000209,0.00000019,-0.00000268,-0.00000083,-0.00000
 032,-0.00000033,-0.00000269,-0.00000100,-0.00000151,-0.00000207,-0.000
 00041,-0.00000140,-0.00000095,-0.00000111,-0.00000132,-0.00000052,-0.0
 0000149,-0.00000039,-0.00000006,-0.00000070,-0.00000166,0.00000210,-0.
 00000052,0.00000446,0.00000116,0.00000147,0.00000358,-0.00000184,0.000
 00190,0.00000182,-0.00000028,-0.00000069,0.00000137,-0.00000091,0.0000
 0015,0.00000163,-0.00000105,-0.00000104,0.00000208,0.00000086,0.000001
 59,0.00000210,0.00000002,0.00000049,0.00000178,0.00000066,-0.00000009\
 \\@


 CHINESE FORTUNE COOKIE OF JAN 1 1967 SAY....
 ALL THINGS ARE DIFFICULT BEFORE THEY ARE EASY.
 WE LEARN SO LITTLE AND FORGET SO MUCH.
 YOU WILL OVERCOME OBSTACLES TO ACHIEVE SUCCESS.
 AH SO.
 Job cpu time:       0 days  7 hours 47 minutes  3.5 seconds.
 Elapsed time:       0 days  7 hours 47 minutes 11.5 seconds.
 File lengths (MBytes):  RWF=   1238 Int=      0 D2E=      0 Chk=     27 Scr=      1
 Normal termination of Gaussian 16 at Mon Mar 22 21:31:49 2021.
