 Entering Gaussian System, Link 0=/apps/gaussian/g16c01/g16/g16
 Initial command:
 /apps/gaussian/g16c01/g16/l1.exe "/jobfs/19479271.gadi-pbs/Gau-155005.inp" -scrdir="/jobfs/19479271.gadi-pbs/"
 Entering Link 1 = /apps/gaussian/g16c01/g16/l1.exe PID=    155006.
  
 Copyright (c) 1988-2019, Gaussian, Inc.  All Rights Reserved.
  
 This is part of the Gaussian(R) 16 program.  It is based on
 the Gaussian(R) 09 system (copyright 2009, Gaussian, Inc.),
 the Gaussian(R) 03 system (copyright 2003, Gaussian, Inc.),
 the Gaussian(R) 98 system (copyright 1998, Gaussian, Inc.),
 the Gaussian(R) 94 system (copyright 1995, Gaussian, Inc.),
 the Gaussian 92(TM) system (copyright 1992, Gaussian, Inc.),
 the Gaussian 90(TM) system (copyright 1990, Gaussian, Inc.),
 the Gaussian 88(TM) system (copyright 1988, Gaussian, Inc.),
 the Gaussian 86(TM) system (copyright 1986, Carnegie Mellon
 University), and the Gaussian 82(TM) system (copyright 1983,
 Carnegie Mellon University). Gaussian is a federally registered
 trademark of Gaussian, Inc.
  
 This software contains proprietary and confidential information,
 including trade secrets, belonging to Gaussian, Inc.
  
 This software is provided under written license and may be
 used, copied, transmitted, or stored only in accord with that
 written license.
  
 The following legend is applicable only to US Government
 contracts under FAR:
  
                    RESTRICTED RIGHTS LEGEND
  
 Use, reproduction and disclosure by the US Government is
 subject to restrictions as set forth in subparagraphs (a)
 and (c) of the Commercial Computer Software - Restricted
 Rights clause in FAR 52.227-19.
  
 Gaussian, Inc.
 340 Quinnipiac St., Bldg. 40, Wallingford CT 06492
  
  
 ---------------------------------------------------------------
 Warning -- This program may not be used in any manner that
 competes with the business of Gaussian, Inc. or will provide
 assistance to any competitor of Gaussian, Inc.  The licensee
 of this program is prohibited from giving any competitor of
 Gaussian, Inc. access to this program.  By using this program,
 the user acknowledges that Gaussian, Inc. is engaged in the
 business of creating and licensing software in the field of
 computational chemistry and represents and warrants to the
 licensee that it is not a competitor of Gaussian, Inc. and that
 it will not use this program in any manner prohibited above.
 ---------------------------------------------------------------
  

 Cite this work as:
 Gaussian 16, Revision C.01,
 M. J. Frisch, G. W. Trucks, H. B. Schlegel, G. E. Scuseria, 
 M. A. Robb, J. R. Cheeseman, G. Scalmani, V. Barone, 
 G. A. Petersson, H. Nakatsuji, X. Li, M. Caricato, A. V. Marenich, 
 J. Bloino, B. G. Janesko, R. Gomperts, B. Mennucci, H. P. Hratchian, 
 J. V. Ortiz, A. F. Izmaylov, J. L. Sonnenberg, D. Williams-Young, 
 F. Ding, F. Lipparini, F. Egidi, J. Goings, B. Peng, A. Petrone, 
 T. Henderson, D. Ranasinghe, V. G. Zakrzewski, J. Gao, N. Rega, 
 G. Zheng, W. Liang, M. Hada, M. Ehara, K. Toyota, R. Fukuda, 
 J. Hasegawa, M. Ishida, T. Nakajima, Y. Honda, O. Kitao, H. Nakai, 
 T. Vreven, K. Throssell, J. A. Montgomery, Jr., J. E. Peralta, 
 F. Ogliaro, M. J. Bearpark, J. J. Heyd, E. N. Brothers, K. N. Kudin, 
 V. N. Staroverov, T. A. Keith, R. Kobayashi, J. Normand, 
 K. Raghavachari, A. P. Rendell, J. C. Burant, S. S. Iyengar, 
 J. Tomasi, M. Cossi, J. M. Millam, M. Klene, C. Adamo, R. Cammi, 
 J. W. Ochterski, R. L. Martin, K. Morokuma, O. Farkas, 
 J. B. Foresman, and D. J. Fox, Gaussian, Inc., Wallingford CT, 2019.
 
 ******************************************
 Gaussian 16:  ES64L-G16RevC.01  3-Jul-2019
                22-Mar-2021 
 ******************************************
 %NprocShared=32
 Will use up to   32 processors via shared memory.
 %Mem=10000MB
 %chk=NM3CA_carboxy.M062X_6-311pGd_opt_Pentadecane_GD3.chk
 ----------------------------------------------------------------------
 # M062X/6-311+G* SCF=Tight INT(grid=ultrafine) OPT=CalcFC IOP(2/17=4) 
 EmpiricalDispersion=GD3 SCRF=(SMD,Solvent=n-Pentadecane) MaxDisk=10000
 MB
 ----------------------------------------------------------------------
 1/10=4,18=20,19=15,26=6,38=1/1,3;
 2/9=110,12=2,17=4,18=5,40=1/2;
 3/5=4,6=6,7=11,11=2,25=1,30=1,70=32201,71=2,72=151,74=-55,75=-5,124=31,140=1/1,2,3;
 4//1;
 5/5=2,32=2,38=5,53=151/2;
 8/6=4,10=90,11=11/1;
 11/6=1,8=1,9=11,15=111,16=1/1,2,10;
 10/6=1,13=1/2;
 6/7=2,8=2,9=2,10=2,28=1/1;
 7/10=1,25=1/1,2,3,16;
 1/10=4,18=20,19=15,26=6/3(2);
 2/9=110,17=4/2;
 99//99;
 2/9=110,17=4/2;
 3/5=4,6=6,7=11,11=2,25=1,30=1,70=32205,71=1,72=151,74=-55,75=-5,124=31/1,2,3;
 4/5=5,16=3,69=1/1;
 5/5=2,32=2,38=5,53=151/2;
 7//1,2,3,16;
 1/18=20,19=15,26=6/3(-5);
 2/9=110,17=4/2;
 6/7=2,8=2,9=2,10=2,19=2,28=1/1;
 99/9=1/99;
 ------------------------------------------------
 NM3CA_carboxy.M062X_6-311pGd_opt_Pentadecane_GD3
 ------------------------------------------------
 Symbolic Z-matrix:
 Charge = -1 Multiplicity = 1
 C                    -6.05091   1.28938   0.27861 
 N                    -4.72519   0.73198   0.19781 
 C                    -3.53409   1.39825   0.13878 
 O                    -3.47716   2.61753   0.14997 
 O                    -2.38771   0.67396   0.05856 
 C                    -1.12677   1.23156  -0.01642 
 C                    -0.08105   0.1218   -0.1046 
 C                     1.32894   0.69912  -0.19383 
 C                    -6.33803   2.67583   0.34182 
 C                    -7.66766   3.1372    0.41832 
 C                    -8.71702   2.20877   0.43131 
 C                    -8.45075   0.84254   0.37045 
 C                    -7.13245   0.38929   0.29561 
 H                    -4.65198  -0.41014   0.17507 
 H                    -0.93858   1.84984   0.88941 
 H                    -1.05921   1.87677  -0.92055 
 H                    -0.27648  -0.49849  -1.0063 
 H                    -0.15243  -0.52592   0.7961 
 H                     1.429     1.33581  -1.09882 
 H                     2.06707  -0.12781  -0.25796 
 H                     1.55467   1.30855   0.70721 
 H                    -5.56303   3.41652   0.33567 
 Cl                   -9.77382  -0.30913   0.38758 
 H                    -6.92836  -0.78725   0.24396 
 C                    -7.99687   4.6095    0.4873 
 H                    -9.74401   2.54923   0.48936 
 F                    -8.78897   4.95451  -0.59274 
 F                    -8.68946   4.87133   1.65554 
 F                    -6.85931   5.39804   0.46619 
 O                    -6.47358  -2.8078    0.33265 
 O                    -4.26951  -2.44807   0.27196 
 C                    -5.19616  -3.24911   0.33204 
 C                    -4.94023  -4.73089   0.40766 
 C                    -3.45387  -5.08689   0.40457 
 H                    -5.42833  -5.22057  -0.46191 
 H                    -5.39973  -5.12311   1.33999 
 H                    -2.97236  -4.72696  -0.52966 
 H                    -3.33613  -6.18956   0.46261 
 H                    -2.94585  -4.6293    1.28031 
 
 Add virtual bond connecting atoms O30        and H24        Dist= 3.92D+00.
 Add virtual bond connecting atoms O31        and H14        Dist= 3.92D+00.

 GradGradGradGradGradGradGradGradGradGradGradGradGradGradGradGradGradGrad
 Berny optimization.
 Initialization pass.
                           ----------------------------
                           !    Initial Parameters    !
                           ! (Angstroms and Degrees)  !
 --------------------------                            --------------------------
 ! Name  Definition              Value          Derivative Info.                !
 --------------------------------------------------------------------------------
 ! R1    R(1,2)                  1.4404         calculate D2E/DX2 analytically  !
 ! R2    R(1,9)                  1.4173         calculate D2E/DX2 analytically  !
 ! R3    R(1,13)                 1.4072         calculate D2E/DX2 analytically  !
 ! R4    R(2,3)                  1.3661         calculate D2E/DX2 analytically  !
 ! R5    R(2,14)                 1.1447         calculate D2E/DX2 analytically  !
 ! R6    R(3,4)                  1.2207         calculate D2E/DX2 analytically  !
 ! R7    R(3,5)                  1.3584         calculate D2E/DX2 analytically  !
 ! R8    R(5,6)                  1.3808         calculate D2E/DX2 analytically  !
 ! R9    R(6,7)                  1.5274         calculate D2E/DX2 analytically  !
 ! R10   R(6,15)                 1.1128         calculate D2E/DX2 analytically  !
 ! R11   R(6,16)                 1.1128         calculate D2E/DX2 analytically  !
 ! R12   R(7,8)                  1.5262         calculate D2E/DX2 analytically  !
 ! R13   R(7,17)                 1.1118         calculate D2E/DX2 analytically  !
 ! R14   R(7,18)                 1.1117         calculate D2E/DX2 analytically  !
 ! R15   R(8,19)                 1.111          calculate D2E/DX2 analytically  !
 ! R16   R(8,20)                 1.1103         calculate D2E/DX2 analytically  !
 ! R17   R(8,21)                 1.111          calculate D2E/DX2 analytically  !
 ! R18   R(9,10)                 1.4095         calculate D2E/DX2 analytically  !
 ! R19   R(9,22)                 1.072          calculate D2E/DX2 analytically  !
 ! R20   R(10,11)                1.4012         calculate D2E/DX2 analytically  !
 ! R21   R(10,25)                1.5102         calculate D2E/DX2 analytically  !
 ! R22   R(11,12)                1.3933         calculate D2E/DX2 analytically  !
 ! R23   R(11,26)                1.0835         calculate D2E/DX2 analytically  !
 ! R24   R(12,13)                1.396          calculate D2E/DX2 analytically  !
 ! R25   R(12,23)                1.7542         calculate D2E/DX2 analytically  !
 ! R26   R(13,24)                1.1952         calculate D2E/DX2 analytically  !
 ! R27   R(14,31)                2.0758         calculate D2E/DX2 analytically  !
 ! R28   R(24,30)                2.073          calculate D2E/DX2 analytically  !
 ! R29   R(25,27)                1.3831         calculate D2E/DX2 analytically  !
 ! R30   R(25,28)                1.3831         calculate D2E/DX2 analytically  !
 ! R31   R(25,29)                1.3843         calculate D2E/DX2 analytically  !
 ! R32   R(30,32)                1.3515         calculate D2E/DX2 analytically  !
 ! R33   R(31,32)                1.2264         calculate D2E/DX2 analytically  !
 ! R34   R(32,33)                1.5056         calculate D2E/DX2 analytically  !
 ! R35   R(33,34)                1.5284         calculate D2E/DX2 analytically  !
 ! R36   R(33,35)                1.1109         calculate D2E/DX2 analytically  !
 ! R37   R(33,36)                1.111          calculate D2E/DX2 analytically  !
 ! R38   R(34,37)                1.1109         calculate D2E/DX2 analytically  !
 ! R39   R(34,38)                1.1105         calculate D2E/DX2 analytically  !
 ! R40   R(34,39)                1.111          calculate D2E/DX2 analytically  !
 ! A1    A(2,1,9)              124.5772         calculate D2E/DX2 analytically  !
 ! A2    A(2,1,13)             117.4222         calculate D2E/DX2 analytically  !
 ! A3    A(9,1,13)             118.0006         calculate D2E/DX2 analytically  !
 ! A4    A(1,2,3)              128.0382         calculate D2E/DX2 analytically  !
 ! A5    A(1,2,14)             116.4928         calculate D2E/DX2 analytically  !
 ! A6    A(3,2,14)             115.4684         calculate D2E/DX2 analytically  !
 ! A7    A(2,3,4)              121.8333         calculate D2E/DX2 analytically  !
 ! A8    A(2,3,5)              118.5767         calculate D2E/DX2 analytically  !
 ! A9    A(4,3,5)              119.5891         calculate D2E/DX2 analytically  !
 ! A10   A(3,5,6)              123.9572         calculate D2E/DX2 analytically  !
 ! A11   A(5,6,7)              109.5698         calculate D2E/DX2 analytically  !
 ! A12   A(5,6,15)             109.5496         calculate D2E/DX2 analytically  !
 ! A13   A(5,6,16)             109.4942         calculate D2E/DX2 analytically  !
 ! A14   A(7,6,15)             109.5676         calculate D2E/DX2 analytically  !
 ! A15   A(7,6,16)             109.4391         calculate D2E/DX2 analytically  !
 ! A16   A(15,6,16)            109.2064         calculate D2E/DX2 analytically  !
 ! A17   A(6,7,8)              111.1645         calculate D2E/DX2 analytically  !
 ! A18   A(6,7,17)             109.3816         calculate D2E/DX2 analytically  !
 ! A19   A(6,7,18)             109.4264         calculate D2E/DX2 analytically  !
 ! A20   A(8,7,17)             109.0279         calculate D2E/DX2 analytically  !
 ! A21   A(8,7,18)             109.0915         calculate D2E/DX2 analytically  !
 ! A22   A(17,7,18)            108.7085         calculate D2E/DX2 analytically  !
 ! A23   A(7,8,19)             110.3403         calculate D2E/DX2 analytically  !
 ! A24   A(7,8,20)             109.6228         calculate D2E/DX2 analytically  !
 ! A25   A(7,8,21)             110.3527         calculate D2E/DX2 analytically  !
 ! A26   A(19,8,20)            108.656          calculate D2E/DX2 analytically  !
 ! A27   A(19,8,21)            109.1461         calculate D2E/DX2 analytically  !
 ! A28   A(20,8,21)            108.6827         calculate D2E/DX2 analytically  !
 ! A29   A(1,9,10)             120.9135         calculate D2E/DX2 analytically  !
 ! A30   A(1,9,22)             121.9498         calculate D2E/DX2 analytically  !
 ! A31   A(10,9,22)            117.1367         calculate D2E/DX2 analytically  !
 ! A32   A(9,10,11)            119.3468         calculate D2E/DX2 analytically  !
 ! A33   A(9,10,25)            121.8183         calculate D2E/DX2 analytically  !
 ! A34   A(11,10,25)           118.8349         calculate D2E/DX2 analytically  !
 ! A35   A(10,11,12)           120.4122         calculate D2E/DX2 analytically  !
 ! A36   A(10,11,26)           120.1416         calculate D2E/DX2 analytically  !
 ! A37   A(12,11,26)           119.4462         calculate D2E/DX2 analytically  !
 ! A38   A(11,12,13)           120.0779         calculate D2E/DX2 analytically  !
 ! A39   A(11,12,23)           119.9483         calculate D2E/DX2 analytically  !
 ! A40   A(13,12,23)           119.9738         calculate D2E/DX2 analytically  !
 ! A41   A(1,13,12)            121.2489         calculate D2E/DX2 analytically  !
 ! A42   A(1,13,24)            119.8596         calculate D2E/DX2 analytically  !
 ! A43   A(12,13,24)           118.8914         calculate D2E/DX2 analytically  !
 ! A44   A(10,25,27)           109.4119         calculate D2E/DX2 analytically  !
 ! A45   A(10,25,28)           109.4074         calculate D2E/DX2 analytically  !
 ! A46   A(10,25,29)           112.0549         calculate D2E/DX2 analytically  !
 ! A47   A(27,25,28)           109.0002         calculate D2E/DX2 analytically  !
 ! A48   A(27,25,29)           108.4587         calculate D2E/DX2 analytically  !
 ! A49   A(28,25,29)           108.4537         calculate D2E/DX2 analytically  !
 ! A50   A(24,30,32)           121.7093         calculate D2E/DX2 analytically  !
 ! A51   A(14,31,32)           120.2876         calculate D2E/DX2 analytically  !
 ! A52   A(30,32,31)           120.0614         calculate D2E/DX2 analytically  !
 ! A53   A(30,32,33)           118.8165         calculate D2E/DX2 analytically  !
 ! A54   A(31,32,33)           121.1221         calculate D2E/DX2 analytically  !
 ! A55   A(32,33,34)           113.2311         calculate D2E/DX2 analytically  !
 ! A56   A(32,33,35)           108.6512         calculate D2E/DX2 analytically  !
 ! A57   A(32,33,36)           108.6207         calculate D2E/DX2 analytically  !
 ! A58   A(34,33,35)           108.8458         calculate D2E/DX2 analytically  !
 ! A59   A(34,33,36)           108.7655         calculate D2E/DX2 analytically  !
 ! A60   A(35,33,36)           108.6354         calculate D2E/DX2 analytically  !
 ! A61   A(33,34,37)           110.3491         calculate D2E/DX2 analytically  !
 ! A62   A(33,34,38)           109.5297         calculate D2E/DX2 analytically  !
 ! A63   A(33,34,39)           110.3129         calculate D2E/DX2 analytically  !
 ! A64   A(37,34,38)           108.6456         calculate D2E/DX2 analytically  !
 ! A65   A(37,34,39)           109.343          calculate D2E/DX2 analytically  !
 ! A66   A(38,34,39)           108.6202         calculate D2E/DX2 analytically  !
 ! A67   L(2,14,31,5,-1)       173.2197         calculate D2E/DX2 analytically  !
 ! A68   L(13,24,30,5,-1)      177.354          calculate D2E/DX2 analytically  !
 ! A69   L(2,14,31,5,-2)       175.6489         calculate D2E/DX2 analytically  !
 ! A70   L(13,24,30,5,-2)      174.9291         calculate D2E/DX2 analytically  !
 ! D1    D(9,1,2,3)             -1.5197         calculate D2E/DX2 analytically  !
 ! D2    D(9,1,2,14)           178.7796         calculate D2E/DX2 analytically  !
 ! D3    D(13,1,2,3)           178.4808         calculate D2E/DX2 analytically  !
 ! D4    D(13,1,2,14)           -1.2199         calculate D2E/DX2 analytically  !
 ! D5    D(2,1,9,10)           179.9522         calculate D2E/DX2 analytically  !
 ! D6    D(2,1,9,22)            -0.1615         calculate D2E/DX2 analytically  !
 ! D7    D(13,1,9,10)           -0.0483         calculate D2E/DX2 analytically  !
 ! D8    D(13,1,9,22)          179.8381         calculate D2E/DX2 analytically  !
 ! D9    D(2,1,13,12)         -179.9109         calculate D2E/DX2 analytically  !
 ! D10   D(2,1,13,24)            0.0094         calculate D2E/DX2 analytically  !
 ! D11   D(9,1,13,12)            0.0896         calculate D2E/DX2 analytically  !
 ! D12   D(9,1,13,24)         -179.9901         calculate D2E/DX2 analytically  !
 ! D13   D(1,2,3,4)              0.0116         calculate D2E/DX2 analytically  !
 ! D14   D(1,2,3,5)           -179.6387         calculate D2E/DX2 analytically  !
 ! D15   D(14,2,3,4)           179.7148         calculate D2E/DX2 analytically  !
 ! D16   D(14,2,3,5)             0.0646         calculate D2E/DX2 analytically  !
 ! D17   D(1,2,31,32)            2.0482         calculate D2E/DX2 analytically  !
 ! D18   D(3,2,31,32)          179.6564         calculate D2E/DX2 analytically  !
 ! D19   D(2,3,5,6)            179.5028         calculate D2E/DX2 analytically  !
 ! D20   D(4,3,5,6)             -0.1555         calculate D2E/DX2 analytically  !
 ! D21   D(3,5,6,7)           -179.5785         calculate D2E/DX2 analytically  !
 ! D22   D(3,5,6,15)            60.1944         calculate D2E/DX2 analytically  !
 ! D23   D(3,5,6,16)           -59.5433         calculate D2E/DX2 analytically  !
 ! D24   D(5,6,7,8)            179.8143         calculate D2E/DX2 analytically  !
 ! D25   D(5,6,7,17)            59.3625         calculate D2E/DX2 analytically  !
 ! D26   D(5,6,7,18)           -59.625          calculate D2E/DX2 analytically  !
 ! D27   D(15,6,7,8)           -59.9696         calculate D2E/DX2 analytically  !
 ! D28   D(15,6,7,17)          179.5786         calculate D2E/DX2 analytically  !
 ! D29   D(15,6,7,18)           60.5912         calculate D2E/DX2 analytically  !
 ! D30   D(16,6,7,8)            59.7455         calculate D2E/DX2 analytically  !
 ! D31   D(16,6,7,17)          -60.7064         calculate D2E/DX2 analytically  !
 ! D32   D(16,6,7,18)         -179.6938         calculate D2E/DX2 analytically  !
 ! D33   D(6,7,8,19)           -60.3031         calculate D2E/DX2 analytically  !
 ! D34   D(6,7,8,20)          -179.9309         calculate D2E/DX2 analytically  !
 ! D35   D(6,7,8,21)            60.4007         calculate D2E/DX2 analytically  !
 ! D36   D(17,7,8,19)           60.3574         calculate D2E/DX2 analytically  !
 ! D37   D(17,7,8,20)          -59.2704         calculate D2E/DX2 analytically  !
 ! D38   D(17,7,8,21)         -178.9388         calculate D2E/DX2 analytically  !
 ! D39   D(18,7,8,19)          178.9388         calculate D2E/DX2 analytically  !
 ! D40   D(18,7,8,20)           59.311          calculate D2E/DX2 analytically  !
 ! D41   D(18,7,8,21)          -60.3574         calculate D2E/DX2 analytically  !
 ! D42   D(1,9,10,11)           -0.0228         calculate D2E/DX2 analytically  !
 ! D43   D(1,9,10,25)          179.966          calculate D2E/DX2 analytically  !
 ! D44   D(22,9,10,11)        -179.9144         calculate D2E/DX2 analytically  !
 ! D45   D(22,9,10,25)           0.0743         calculate D2E/DX2 analytically  !
 ! D46   D(9,10,11,12)           0.0552         calculate D2E/DX2 analytically  !
 ! D47   D(9,10,11,26)        -179.9722         calculate D2E/DX2 analytically  !
 ! D48   D(25,10,11,12)       -179.9339         calculate D2E/DX2 analytically  !
 ! D49   D(25,10,11,26)          0.0387         calculate D2E/DX2 analytically  !
 ! D50   D(9,10,25,27)         120.2968         calculate D2E/DX2 analytically  !
 ! D51   D(9,10,25,28)        -120.3536         calculate D2E/DX2 analytically  !
 ! D52   D(9,10,25,29)          -0.033          calculate D2E/DX2 analytically  !
 ! D53   D(11,10,25,27)        -59.7144         calculate D2E/DX2 analytically  !
 ! D54   D(11,10,25,28)         59.6352         calculate D2E/DX2 analytically  !
 ! D55   D(11,10,25,29)        179.9558         calculate D2E/DX2 analytically  !
 ! D56   D(10,11,12,13)         -0.015          calculate D2E/DX2 analytically  !
 ! D57   D(10,11,12,23)        179.9973         calculate D2E/DX2 analytically  !
 ! D58   D(26,11,12,13)       -179.9878         calculate D2E/DX2 analytically  !
 ! D59   D(26,11,12,23)          0.0245         calculate D2E/DX2 analytically  !
 ! D60   D(11,12,13,1)          -0.0593         calculate D2E/DX2 analytically  !
 ! D61   D(11,12,13,24)       -179.9803         calculate D2E/DX2 analytically  !
 ! D62   D(23,12,13,1)         179.9284         calculate D2E/DX2 analytically  !
 ! D63   D(23,12,13,24)          0.0074         calculate D2E/DX2 analytically  !
 ! D64   D(1,13,30,32)           0.0213         calculate D2E/DX2 analytically  !
 ! D65   D(12,13,30,32)       -176.4636         calculate D2E/DX2 analytically  !
 ! D66   D(24,30,32,31)         -0.3313         calculate D2E/DX2 analytically  !
 ! D67   D(24,30,32,33)        179.5982         calculate D2E/DX2 analytically  !
 ! D68   D(14,31,32,30)          0.1373         calculate D2E/DX2 analytically  !
 ! D69   D(14,31,32,33)       -179.7906         calculate D2E/DX2 analytically  !
 ! D70   D(30,32,33,34)       -179.7483         calculate D2E/DX2 analytically  !
 ! D71   D(30,32,33,35)         59.1947         calculate D2E/DX2 analytically  !
 ! D72   D(30,32,33,36)        -58.8145         calculate D2E/DX2 analytically  !
 ! D73   D(31,32,33,34)          0.1804         calculate D2E/DX2 analytically  !
 ! D74   D(31,32,33,35)       -120.8766         calculate D2E/DX2 analytically  !
 ! D75   D(31,32,33,36)        121.1142         calculate D2E/DX2 analytically  !
 ! D76   D(32,33,34,37)        -60.4754         calculate D2E/DX2 analytically  !
 ! D77   D(32,33,34,38)        179.9627         calculate D2E/DX2 analytically  !
 ! D78   D(32,33,34,39)         60.4544         calculate D2E/DX2 analytically  !
 ! D79   D(35,33,34,37)         60.4717         calculate D2E/DX2 analytically  !
 ! D80   D(35,33,34,38)        -59.0902         calculate D2E/DX2 analytically  !
 ! D81   D(35,33,34,39)       -178.5985         calculate D2E/DX2 analytically  !
 ! D82   D(36,33,34,37)        178.6728         calculate D2E/DX2 analytically  !
 ! D83   D(36,33,34,38)         59.1109         calculate D2E/DX2 analytically  !
 ! D84   D(36,33,34,39)        -60.3974         calculate D2E/DX2 analytically  !
 --------------------------------------------------------------------------------
 Trust Radius=3.00D-01 FncErr=5.00D-06 GrdErr=5.00D-06 EigMax=2.50D+02 EigMin=1.00D-04
 Number of steps in this run=    204 maximum allowed number of steps=    234.
 GradGradGradGradGradGradGradGradGradGradGradGradGradGradGradGradGradGrad

                          Input orientation:                          
 ---------------------------------------------------------------------
 Center     Atomic      Atomic             Coordinates (Angstroms)
 Number     Number       Type             X           Y           Z
 ---------------------------------------------------------------------
      1          6           0       -6.050910    1.289380    0.278610
      2          7           0       -4.725190    0.731980    0.197810
      3          6           0       -3.534090    1.398250    0.138780
      4          8           0       -3.477160    2.617530    0.149970
      5          8           0       -2.387710    0.673960    0.058560
      6          6           0       -1.126770    1.231560   -0.016420
      7          6           0       -0.081050    0.121800   -0.104600
      8          6           0        1.328940    0.699120   -0.193830
      9          6           0       -6.338030    2.675830    0.341820
     10          6           0       -7.667660    3.137200    0.418320
     11          6           0       -8.717020    2.208770    0.431310
     12          6           0       -8.450750    0.842540    0.370450
     13          6           0       -7.132450    0.389290    0.295610
     14          1           0       -4.651980   -0.410140    0.175070
     15          1           0       -0.938580    1.849840    0.889410
     16          1           0       -1.059210    1.876770   -0.920550
     17          1           0       -0.276480   -0.498490   -1.006300
     18          1           0       -0.152430   -0.525920    0.796100
     19          1           0        1.429000    1.335810   -1.098820
     20          1           0        2.067070   -0.127810   -0.257960
     21          1           0        1.554670    1.308550    0.707210
     22          1           0       -5.563030    3.416520    0.335670
     23         17           0       -9.773820   -0.309130    0.387580
     24          1           0       -6.928360   -0.787250    0.243960
     25          6           0       -7.996870    4.609500    0.487300
     26          1           0       -9.744010    2.549230    0.489360
     27          9           0       -8.788970    4.954510   -0.592740
     28          9           0       -8.689460    4.871330    1.655540
     29          9           0       -6.859310    5.398040    0.466190
     30          8           0       -6.473580   -2.807800    0.332650
     31          8           0       -4.269510   -2.448070    0.271960
     32          6           0       -5.196160   -3.249110    0.332040
     33          6           0       -4.940230   -4.730890    0.407660
     34          6           0       -3.453870   -5.086890    0.404570
     35          1           0       -5.428330   -5.220570   -0.461910
     36          1           0       -5.399730   -5.123110    1.339990
     37          1           0       -2.972360   -4.726960   -0.529660
     38          1           0       -3.336130   -6.189560    0.462610
     39          1           0       -2.945850   -4.629300    1.280310
 ---------------------------------------------------------------------
                    Distance matrix (angstroms):
                    1          2          3          4          5
     1  C    0.000000
     2  N    1.440402   0.000000
     3  C    2.523051   1.366060   0.000000
     4  O    2.899089   2.261673   1.220660   0.000000
     5  O    3.721048   2.342343   1.358388   2.229960   0.000000
     6  C    4.933309   3.639245   2.418070   2.733666   1.380764
     7  C    6.095024   4.693805   3.689450   4.222208   2.377432
     8  C    7.418476   6.066873   4.924274   5.186241   3.725295
     9  C    1.417278   2.529930   3.087963   2.867888   4.437651
    10  C    2.459235   3.806815   4.493160   4.231118   5.837367
    11  C    2.824312   4.262644   5.254073   5.263304   6.523400
    12  C    2.442812   3.731196   4.953386   5.285433   6.073397
    13  C    1.407189   2.433496   3.740427   4.283388   4.759179
    14  H    2.203655   1.144690   2.126328   3.247710   2.513119
    15  H    5.179103   4.008284   2.739352   2.753272   2.042788
    16  H    5.167212   4.000085   2.734263   2.746128   2.042136
    17  H    6.179928   4.770216   3.939651   4.614206   2.639291
    18  H    6.193156   4.780209   3.945900   4.620886   2.641998
    19  H    7.605822   6.318221   5.115449   5.222326   4.042876
    20  H    8.258204   6.861615   5.818871   6.200144   4.537409
    21  H    7.617671   6.326813   5.121195   5.229078   4.045468
    22  H    2.183119   2.815624   2.868584   2.241366   4.204888
    23  Cl   4.053044   5.158351   6.473892   6.947642   7.458508
    24  H    2.254664   2.676593   4.038384   4.848932   4.773574
    25  C    3.854025   5.081619   5.509083   4.950708   6.865491
    26  H    3.907765   5.345648   6.325407   6.276405   7.603774
    27  F    4.657188   5.913462   6.387165   5.850506   7.728094
    28  F    4.657064   5.913935   6.398491   5.874898   7.738237
    29  F    4.191633   5.137958   5.211776   4.389780   6.517538
    30  O    4.119278   3.950328   5.135080   6.200493   5.375138
    31  O    4.140285   3.213388   3.918259   5.128645   3.651545
    32  C    4.618587   4.011098   4.939411   6.116010   4.832459
    33  C    6.123227   5.471127   6.294115   7.497083   5.987456
    34  C    6.886022   5.959719   6.491080   7.708661   5.868885
    35  H    6.581445   6.030132   6.910698   8.100449   6.652950
    36  H    6.532273   6.003471   6.888516   8.064114   6.657353
    37  H    6.806403   5.779416   6.187128   7.393122   5.464225
    38  H    7.958544   7.064511   7.597297   8.813766   6.940509
    39  H    6.758371   5.751624   6.162830   7.353673   5.470718
                    6          7          8          9         10
     6  C    0.000000
     7  C    1.527375   0.000000
     8  C    2.519023   1.526215   0.000000
     9  C    5.419546   6.772899   7.935788   0.000000
    10  C    6.826691   8.180632   9.341187   1.409479   0.000000
    11  C    7.665983   8.900709  10.177974   2.426056   1.401181
    12  C    7.344501   8.414096   9.797006   2.797384   2.425074
    13  C    6.072477   7.067812   8.481195   2.421054   2.802234
    14  H    3.893450   4.610269   6.094091   3.520480   4.662308
    15  H    1.112750   2.170146   2.763913   5.489642   6.867295
    16  H    1.112794   2.168523   2.760116   5.486166   6.859509
    17  H    2.167009   1.111762   2.161423   6.973960   8.359266
    18  H    2.167548   1.111709   2.162208   6.979916   8.368981
    19  H    2.777484   2.177738   1.111032   8.012356   9.396592
    20  H    3.479489   2.168005   1.110298   8.880644  10.289928
    21  H    2.778433   2.177841   1.110960   8.018583   9.406316
    22  H    4.957663   6.411016   7.427239   1.072047   2.124692
    23  Cl   8.792520   9.714820  11.163596   4.551564   4.039065
    24  H    6.148320   6.916178   8.401426   3.514397   3.997283
    25  C    7.672189   9.118662  10.135371   2.551861   1.510233
    26  H    8.732061   9.980882  11.247216   3.411524   2.159163
    27  F    8.538256   9.971020  10.983605   3.474607   2.362667
    28  F    8.557900   9.988035  11.008898   3.474954   2.362625
    29  F    7.103132   8.608677   9.463768   2.774460   2.401483
    30  O    6.710190   7.045437   8.570589   5.485313   6.064338
    31  O    4.847644   4.928410   6.439286   5.526120   6.539425
    32  C    6.062818   6.141501   7.644736   6.033977   6.848409
    33  C    7.090355   6.886410   8.315605   7.537750   8.327414
    34  C    6.746513   6.226204   7.530688   8.281433   9.240772
    35  H    7.767359   7.567165   8.987508   7.989159   8.697225
    36  H    7.776880   7.608172   9.029173   7.918347   8.615434
    37  H    6.258880   5.661345   6.932266   8.178540   9.208123
    38  H    7.757820   7.123941   8.345520   9.360616  10.283607
    39  H    6.272180   5.718217   6.988489   8.108796   9.130008
                   11         12         13         14         15
    11  C    0.000000
    12  C    1.393265   0.000000
    13  C    2.416565   1.396049   0.000000
    14  H    4.842406   4.004751   2.608898   0.000000
    15  H    7.800180   7.597149   6.391387   4.405353   0.000000
    16  H    7.783303   7.574376   6.369920   4.397538   1.814175
    17  H    8.979905   8.397172   7.034732   4.533039   3.089781
    18  H    8.997989   8.421162   7.057533   4.543681   2.504191
    19  H   10.297819  10.000576   8.725753   6.453639   3.134122
    20  H   11.055826  10.581163   9.230655   6.738906   3.776439
    21  H   10.314753  10.021926   8.745313   6.462165   2.557829
    22  H    3.378677   3.868528   3.410103   3.936894   4.913924
    23  Cl   2.731036   1.754181   2.733694   5.127242   9.109031
    24  H    3.494358   2.233805   1.195227   2.308433   6.576345
    25  C    2.507041   3.796004   4.312092   6.040080   7.589260
    26  H    1.083509   2.144633   3.394573   5.897916   8.842216
    27  F    2.931372   4.236794   4.937050   6.817895   8.571136
    28  F    2.930653   4.235515   4.935825   6.810797   8.354190
    29  F    3.691036   4.826430   5.019092   6.220290   6.915481
    30  O    5.496247   4.151579   3.264486   3.015266   7.255330
    31  O    6.441420   5.321709   4.030831   2.075772   5.472510
    32  C    6.495750   5.228330   4.121711   2.894913   6.666104
    33  C    7.900860   6.586976   5.570873   4.336596   7.716948
    34  C    8.996006   7.754232   6.597907   4.833232   7.394591
    35  H    8.173642   6.825624   5.911716   4.914133   8.483786
    36  H    8.098554   6.770355   5.871933   4.912052   8.290170
    37  H    9.056983   7.863987   6.645557   4.685371   7.028821
    38  H    9.974312   8.695876   7.597447   5.934293   8.400140
    39  H    8.988126   7.814909   6.609349   4.683348   6.794203
                   16         17         18         19         20
    16  H    0.000000
    17  H    2.502375   0.000000
    18  H    3.089022   1.806872   0.000000
    19  H    2.552569   2.506368   3.091550   0.000000
    20  H    3.772399   2.487899   2.489119   1.804539   0.000000
    21  H    3.131269   3.091055   2.507463   1.810602   1.804782
    22  H    4.922734   6.713851   6.710397   7.434756   8.434044
    23  Cl   9.079306   9.600949   9.632499  11.420087  11.859860
    24  H    6.549810   6.774514   6.803409   8.726735   9.033523
    25  C    7.588213   9.376930   9.380999  10.103457  11.148112
    26  H    8.824160  10.057819  10.077155  11.350368  12.133699
    27  F    8.326412  10.117743  10.322491  10.851637  11.991483
    28  F    8.592109  10.329501  10.136559  11.066600  12.014817
    29  F    6.925572   8.959405   8.954573   9.362000  10.523292
    30  O    7.268501   6.747574   6.736371   9.037111   8.970723
    31  O    5.516552   4.623754   4.573809   6.976375   6.768801
    32  C    6.705071   5.793127   5.750681   8.183007   7.927492
    33  C    7.777379   6.454693   6.384018   8.924204   8.410330
    34  C    7.482172   5.756716   5.644045   8.206929   7.450651
    35  H    8.346963   7.009705   7.173385   9.508667   9.064150
    36  H    8.540988   7.289710   6.997437   9.710664   9.124668
    37  H    6.886377   5.037352   5.230524   7.513527   6.828020
    38  H    8.494891   6.626268   6.505688   9.042993   8.152215
    39  H    7.122650   5.423810   4.987523   7.770593   6.910793
                   21         22         23         24         25
    21  H    0.000000
    22  H    7.432579   0.000000
    23  Cl  11.447870   5.622625   0.000000
    24  H    8.750359   4.420884   2.888922   0.000000
    25  C   10.108242   2.714732   5.230719   5.506890   0.000000
    26  H   11.368681   4.272752   2.860327   4.372666   2.701336
    27  F   11.044174   3.692431   5.443975   6.093418   1.383091
    28  F   10.887375   3.692302   5.442493   6.092090   1.383120
    29  F    9.358263   2.371455   6.408770   6.189666   1.384299
    30  O    9.029808   6.290570   4.139801   2.072996   7.573683
    31  O    6.944257   6.005886   5.906425   3.135058   7.984289
    32  C    8.153939   6.675719   5.440730   3.011483   8.344210
    33  C    8.874023   8.171496   6.551027   4.419475   9.828137
    34  C    8.128882   8.761352   7.922692   5.530351  10.708206
    35  H    9.631123   8.674883   6.612651   4.733146  10.204346
    36  H    9.493700   8.600035   6.573747   4.726275  10.109199
    37  H    7.645340   8.589333   8.162010   5.636465  10.651263
    38  H    8.955524   9.861641   8.719457   6.491292  11.761922
    39  H    7.472696   8.513354   8.129084   5.629898  10.559218
                   26         27         28         29         30
    26  H    0.000000
    27  F    2.805069   0.000000
    28  F    2.804318   2.252018   0.000000
    29  F    4.054349   2.245360   2.245312   0.000000
    30  O    6.278379   8.152965   8.101185   8.215986   0.000000
    31  O    7.415553   8.716158   8.661632   8.264758   2.234058
    32  C    7.370783   9.003493   8.938475   8.806660   1.351502
    33  C    8.722564  10.469984  10.383475  10.309293   2.460704
    34  C    9.893603  11.414361  11.320003  11.024272   3.783923
    35  H    8.938669  10.716495  10.815036  10.754718   2.746877
    36  H    8.857829  10.806517  10.526667  10.657790   2.743820
    37  H    9.991826  11.294591  11.383651  10.891085   4.084764
    38  H   10.836424  12.451407  12.346032  12.111370   4.614844
    39  H    9.918260  11.379797  11.108187  10.794698   4.081764
                   31         32         33         34         35
    31  O    0.000000
    32  C    1.226358   0.000000
    33  C    2.383180   1.505620   0.000000
    34  C    2.765181   2.533431   1.528402   0.000000
    35  H    3.093248   2.137970   1.110937   2.160359   0.000000
    36  H    3.094176   2.137587   1.110953   2.159327   1.804760
    37  H    2.741994   2.805682   2.179701   1.110940   2.505999
    38  H    3.860867   3.481811   2.168842   1.110456   2.484146
    39  H    2.743467   2.805002   2.179310   1.111033   3.089925
                   36         37         38         39
    36  H    0.000000
    37  H    3.089442   0.000000
    38  H    2.483054   1.804474   0.000000
    39  H    2.503785   1.812797   1.804262   0.000000
 Stoichiometry    C14H16ClF3NO4(1-)
 Framework group  C1[X(C14H16ClF3NO4)]
 Deg. of freedom   111
 Full point group                 C1      NOp   1
 Largest Abelian subgroup         C1      NOp   1
 Largest concise Abelian subgroup C1      NOp   1
                         Standard orientation:                         
 ---------------------------------------------------------------------
 Center     Atomic      Atomic             Coordinates (Angstroms)
 Number     Number       Type             X           Y           Z
 ---------------------------------------------------------------------
      1          6           0        0.741430   -0.079615   -0.033714
      2          7           0       -0.638069   -0.493975   -0.040408
      3          6           0       -1.134858   -1.766400   -0.024416
      4          8           0       -0.403006   -2.743056   -0.001052
      5          8           0       -2.482225   -1.938154   -0.042294
      6          6           0       -3.102591   -3.171703   -0.038902
      7          6           0       -4.617801   -2.982439   -0.073445
      8          6           0       -5.341087   -4.326382   -0.075365
      9          6           0        1.846871   -0.964777    0.022547
     10          6           0        3.168148   -0.474006    0.024021
     11          6           0        3.387121    0.908845   -0.031491
     12          6           0        2.310703    1.791730   -0.086487
     13          6           0        1.003389    1.301952   -0.086912
     14          1           0       -1.421634    0.340069   -0.067085
     15          1           0       -2.817538   -3.729320    0.880892
     16          1           0       -2.781307   -3.751409   -0.932787
     17          1           0       -4.898383   -2.418500   -0.989558
     18          1           0       -4.937877   -2.398520    0.816772
     19          1           0       -5.050304   -4.920168   -0.968257
     20          1           0       -6.438408   -4.159222   -0.101948
     21          1           0       -5.090791   -4.901191    0.841793
     22          1           0        1.720263   -2.028376    0.067382
     23         17           0        2.598857    3.520702   -0.155591
     24          1           0        0.095884    2.078283   -0.134996
     25          6           0        4.360853   -1.398474    0.084188
     26          1           0        4.397509    1.300134   -0.031503
     27          9           0        5.146649   -1.208661   -1.038058
     28          9           0        5.108817   -1.110910    1.211520
     29          9           0        3.984621   -2.729666    0.135771
     30          8           0       -1.535769    3.352996   -0.034359
     31          8           0       -3.008271    1.674423    0.037358
     32          6           0       -2.800953    2.883131    0.036996
     33          6           0       -3.937304    3.867625    0.116795
     34          6           0       -5.309384    3.199255    0.198587
     35          1           0       -3.907956    4.517822   -0.783518
     36          1           0       -3.794493    4.501949    1.017602
     37          1           0       -5.489768    2.575806   -0.703056
     38          1           0       -6.098889    3.978074    0.255455
     39          1           0       -5.374238    2.561452    1.105998
 ---------------------------------------------------------------------
 Rotational constants (GHZ):           0.2219701           0.1220468           0.0802290
 Standard basis: 6-311+G(d) (5D, 7F)
 There are   585 symmetry adapted cartesian basis functions of A   symmetry.
 There are   562 symmetry adapted basis functions of A   symmetry.
   562 basis functions,   925 primitive gaussians,   585 cartesian basis functions
    92 alpha electrons       92 beta electrons
       nuclear repulsion energy      2042.4769145128 Hartrees.
 NAtoms=   39 NActive=   39 NUniq=   39 SFac= 1.00D+00 NAtFMM=   60 NAOKFM=F Big=F
 Integral buffers will be    131072 words long.
 Raffenetti 2 integral format.
 Two-electron integral symmetry is turned on.
 Nuclear repulsion after empirical dispersion term =     2042.4747149128 Hartrees.
 Force inversion solution in PCM.
 ------------------------------------------------------------------------------
 Polarizable Continuum Model (PCM)
 =================================
 Model                : PCM.
 Atomic radii         : SMD-Coulomb.
 Polarization charges : Total charges.
 Charge compensation  : None.
 Solution method      : Matrix inversion.
 Cavity type          : VdW (van der Waals Surface) (Alpha=1.000).
 Cavity algorithm     : GePol (No added spheres)
                        Default sphere list used, NSphG=   39.
                        Lebedev-Laikov grids with approx.  5.0 points / Ang**2.
                        Smoothing algorithm: York/Karplus (Gamma=1.0000).
                        Polarization charges: spherical gaussians, with
                                              point-specific exponents (IZeta= 3).
                        Self-potential: point-specific (ISelfS= 7).
                        Self-field    : sphere-specific E.n sum rule (ISelfD= 2).
 1st derivatives      : Analytical E(r).r(x)/FMM algorithm (CHGder, D1EAlg=3).
                        Cavity 1st derivative terms included.
 2nd derivatives      : Analytical E(r).r(xy)/FMM algorithm (CHGder, D2EAlg=3).
                        Cavity 2nd derivative terms included.
 Solvent              : n-Pentadecane, Eps=   2.033300 Eps(inf)=   2.049192
 ------------------------------------------------------------------------------
 ------------------------------------------------------------------------------
 Atomic radii for non-electrostatic terms: SMD-CDS.
 ------------------------------------------------------------------------------
 Nuclear repulsion after PCM non-electrostatic terms =     2042.4673916158 Hartrees.
 One-electron integrals computed using PRISM.
 NBasis=   562 RedAO= T EigKep=  1.05D-06  NBF=   562
 NBsUse=   560 1.00D-06 EigRej=  4.12D-07 NBFU=   560
 ExpMin= 4.38D-02 ExpMax= 1.06D+05 ExpMxC= 3.62D+03 IAcc=3 IRadAn=         5 AccDes= 0.00D+00
 Harris functional with IExCor= 1009 and IRadAn=       5 diagonalized for initial guess.
 HarFok:  IExCor= 1009 AccDes= 0.00D+00 IRadAn=         5 IDoV= 1 UseB2=F ITyADJ=14
 ICtDFT=  3500011 ScaDFX=  1.000000  1.000000  1.000000  1.000000
 FoFCou: FMM=F IPFlag=           0 FMFlag=      100000 FMFlg1=           0
         NFxFlg=           0 DoJE=T BraDBF=F KetDBF=T FulRan=T
         wScrn=  0.000000 ICntrl=       500 IOpCl=  0 I1Cent=   200000004 NGrid=           0
         NMat0=    1 NMatS0=      1 NMatT0=    0 NMatD0=    1 NMtDS0=    0 NMtDT0=    0
 Petite list used in FoFCou.
 Requested convergence on RMS density matrix=1.00D-08 within 128 cycles.
 Requested convergence on MAX density matrix=1.00D-06.
 Requested convergence on             energy=1.00D-06.
 No special actions if energy rises.
 Inv3:  Mode=1 IEnd=    32216187.
 Iteration    1 A*A^-1 deviation from unit magnitude is 8.66D-15 for   3262.
 Iteration    1 A*A^-1 deviation from orthogonality  is 3.10D-15 for   3257   3004.
 Iteration    1 A^-1*A deviation from unit magnitude is 8.66D-15 for   3262.
 Iteration    1 A^-1*A deviation from orthogonality  is 2.83D-15 for   3267   3165.
 Error on total polarization charges =  0.01371
 SCF Done:  E(RM062X) =  -1658.51666662     A.U. after   17 cycles
            NFock= 17  Conv=0.16D-08     -V/T= 2.0038
 SMD-CDS (non-electrostatic) energy       (kcal/mol) =      -4.60
 (included in total energy above)
 DoSCS=F DFT=T ScalE2(SS,OS)=  1.000000  1.000000
 Range of M.O.s used for correlation:     1   560
 NBasis=   562 NAE=    92 NBE=    92 NFC=     0 NFV=     0
 NROrb=    560 NOA=    92 NOB=    92 NVA=   468 NVB=   468

 **** Warning!!: The largest alpha MO coefficient is  0.29154255D+03

 Symmetrizing basis deriv contribution to polar:
 IMax=3 JMax=2 DiffMx= 0.00D+00
 G2DrvN: will do    40 centers at a time, making    1 passes.
 Calling FoFCou, ICntrl=  3107 FMM=F I1Cent=   0 AccDes= 0.00D+00.
 NEqPCM:  Using equilibrium solvation (IEInf=0, Eps=   2.0333, EpsInf=   2.0492)
 G2PCM: DoFxE=T DoFxN=T DoGrad=T DoDP/DQ/DG/TGxP=FFFF NFrqRd=   0 IEInf=0 SqF1=F DoCFld=F IF1Alg=4.
 End of G2Drv F.D. properties file   721 does not exist.
 End of G2Drv F.D. properties file   722 does not exist.
 End of G2Drv F.D. properties file   788 does not exist.
          IDoAtm=111111111111111111111111111111111111111
 NEqPCM:  Using equilibrium solvation (IEInf=0, Eps=   2.0333, EpsInf=   2.0492)
          Differentiating once with respect to nuclear coordinates.
 CalDSu exits because no D1Ps are significant.
          There are   120 degrees of freedom in the 1st order CPHF.  IDoFFX=6 NUNeed=     0.
    114 vectors produced by pass  0 Test12= 4.31D-14 1.00D-09 XBig12= 6.22D-01 1.37D-01.
 AX will form    64 AO Fock derivatives at one time.
    114 vectors produced by pass  1 Test12= 4.31D-14 1.00D-09 XBig12= 4.34D-02 5.67D-02.
    114 vectors produced by pass  2 Test12= 4.31D-14 1.00D-09 XBig12= 1.86D-03 4.53D-03.
    114 vectors produced by pass  3 Test12= 4.31D-14 1.00D-09 XBig12= 1.82D-05 6.19D-04.
    114 vectors produced by pass  4 Test12= 4.31D-14 1.00D-09 XBig12= 1.26D-07 3.87D-05.
    114 vectors produced by pass  5 Test12= 4.31D-14 1.00D-09 XBig12= 7.52D-10 2.35D-06.
     95 vectors produced by pass  6 Test12= 4.31D-14 1.00D-09 XBig12= 3.73D-12 1.48D-07.
     37 vectors produced by pass  7 Test12= 4.31D-14 1.00D-09 XBig12= 1.60D-14 9.99D-09.
 InvSVY:  IOpt=1 It=  1 EMax= 1.44D-15
 Solved reduced A of dimension   816 with   120 vectors.
 End of Minotr F.D. properties file   721 does not exist.
 End of Minotr F.D. properties file   722 does not exist.
 End of Minotr F.D. properties file   788 does not exist.

 **********************************************************************

            Population analysis using the SCF Density.

 **********************************************************************

 Orbital symmetries:
       Occupied  (A) (A) (A) (A) (A) (A) (A) (A) (A) (A) (A) (A)
                 (A) (A) (A) (A) (A) (A) (A) (A) (A) (A) (A) (A)
                 (A) (A) (A) (A) (A) (A) (A) (A) (A) (A) (A) (A)
                 (A) (A) (A) (A) (A) (A) (A) (A) (A) (A) (A) (A)
                 (A) (A) (A) (A) (A) (A) (A) (A) (A) (A) (A) (A)
                 (A) (A) (A) (A) (A) (A) (A) (A) (A) (A) (A) (A)
                 (A) (A) (A) (A) (A) (A) (A) (A) (A) (A) (A) (A)
                 (A) (A) (A) (A) (A) (A) (A) (A)
       Virtual   (A) (A) (A) (A) (A) (A) (A) (A) (A) (A) (A) (A)
                 (A) (A) (A) (A) (A) (A) (A) (A) (A) (A) (A) (A)
                 (A) (A) (A) (A) (A) (A) (A) (A) (A) (A) (A) (A)
                 (A) (A) (A) (A) (A) (A) (A) (A) (A) (A) (A) (A)
                 (A) (A) (A) (A) (A) (A) (A) (A) (A) (A) (A) (A)
                 (A) (A) (A) (A) (A) (A) (A) (A) (A) (A) (A) (A)
                 (A) (A) (A) (A) (A) (A) (A) (A) (A) (A) (A) (A)
                 (A) (A) (A) (A) (A) (A) (A) (A) (A) (A) (A) (A)
                 (A) (A) (A) (A) (A) (A) (A) (A) (A) (A) (A) (A)
                 (A) (A) (A) (A) (A) (A) (A) (A) (A) (A) (A) (A)
                 (A) (A) (A) (A) (A) (A) (A) (A) (A) (A) (A) (A)
                 (A) (A) (A) (A) (A) (A) (A) (A) (A) (A) (A) (A)
                 (A) (A) (A) (A) (A) (A) (A) (A) (A) (A) (A) (A)
                 (A) (A) (A) (A) (A) (A) (A) (A) (A) (A) (A) (A)
                 (A) (A) (A) (A) (A) (A) (A) (A) (A) (A) (A) (A)
                 (A) (A) (A) (A) (A) (A) (A) (A) (A) (A) (A) (A)
                 (A) (A) (A) (A) (A) (A) (A) (A) (A) (A) (A) (A)
                 (A) (A) (A) (A) (A) (A) (A) (A) (A) (A) (A) (A)
                 (A) (A) (A) (A) (A) (A) (A) (A) (A) (A) (A) (A)
                 (A) (A) (A) (A) (A) (A) (A) (A) (A) (A) (A) (A)
                 (A) (A) (A) (A) (A) (A) (A) (A) (A) (A) (A) (A)
                 (A) (A) (A) (A) (A) (A) (A) (A) (A) (A) (A) (A)
                 (A) (A) (A) (A) (A) (A) (A) (A) (A) (A) (A) (A)
                 (A) (A) (A) (A) (A) (A) (A) (A) (A) (A) (A) (A)
                 (A) (A) (A) (A) (A) (A) (A) (A) (A) (A) (A) (A)
                 (A) (A) (A) (A) (A) (A) (A) (A) (A) (A) (A) (A)
                 (A) (A) (A) (A) (A) (A) (A) (A) (A) (A) (A) (A)
                 (A) (A) (A) (A) (A) (A) (A) (A) (A) (A) (A) (A)
                 (A) (A) (A) (A) (A) (A) (A) (A) (A) (A) (A) (A)
                 (A) (A) (A) (A) (A) (A) (A) (A) (A) (A) (A) (A)
                 (A) (A) (A) (A) (A) (A) (A) (A) (A) (A) (A) (A)
                 (A) (A) (A) (A) (A) (A) (A) (A) (A) (A) (A) (A)
                 (A) (A) (A) (A) (A) (A) (A) (A) (A) (A) (A) (A)
                 (A) (A) (A) (A) (A) (A) (A) (A) (A) (A) (A) (A)
                 (A) (A) (A) (A) (A) (A) (A) (A) (A) (A) (A) (A)
                 (A) (A) (A) (A) (A) (A) (A) (A) (A) (A) (A) (A)
                 (A) (A) (A) (A) (A) (A) (A) (A) (A) (A) (A) (A)
                 (A) (A) (A) (A) (A) (A) (A) (A) (A) (A) (A) (A)
                 (A) (A) (A) (A) (A) (A) (A) (A) (A) (A) (A) (A)
 The electronic state is 1-A.
 Alpha  occ. eigenvalues -- -102.63494 -25.24885 -25.24752 -25.24747 -19.61576
 Alpha  occ. eigenvalues --  -19.54873 -19.49275 -19.46178 -14.74520 -10.78072
 Alpha  occ. eigenvalues --  -10.65666 -10.57271 -10.57192 -10.55513 -10.54657
 Alpha  occ. eigenvalues --  -10.54180 -10.52353 -10.51873 -10.51499 -10.50077
 Alpha  occ. eigenvalues --  -10.49919 -10.46967 -10.46841  -9.77727  -7.50245
 Alpha  occ. eigenvalues --   -7.49568  -7.49550  -1.41318  -1.33534  -1.33530
 Alpha  occ. eigenvalues --   -1.19378  -1.09393  -1.06745  -0.99350  -0.95233
 Alpha  occ. eigenvalues --   -0.93312  -0.90486  -0.85660  -0.83768  -0.79844
 Alpha  occ. eigenvalues --   -0.79709  -0.76893  -0.75565  -0.68345  -0.68064
 Alpha  occ. eigenvalues --   -0.65476  -0.65088  -0.65070  -0.63496  -0.61299
 Alpha  occ. eigenvalues --   -0.59625  -0.57923  -0.54144  -0.53879  -0.53870
 Alpha  occ. eigenvalues --   -0.53107  -0.52718  -0.50923  -0.50851  -0.50386
 Alpha  occ. eigenvalues --   -0.49540  -0.48584  -0.48557  -0.48122  -0.46453
 Alpha  occ. eigenvalues --   -0.46266  -0.45639  -0.44474  -0.44269  -0.43693
 Alpha  occ. eigenvalues --   -0.42273  -0.41118  -0.40623  -0.39864  -0.38976
 Alpha  occ. eigenvalues --   -0.37754  -0.37729  -0.37451  -0.37042  -0.36193
 Alpha  occ. eigenvalues --   -0.35325  -0.34463  -0.33755  -0.33329  -0.33142
 Alpha  occ. eigenvalues --   -0.31953  -0.30590  -0.26687  -0.23896  -0.23813
 Alpha  occ. eigenvalues --   -0.22037  -0.21087
 Alpha virt. eigenvalues --    0.03621   0.04860   0.05167   0.05562   0.06450
 Alpha virt. eigenvalues --    0.06890   0.06971   0.07428   0.07572   0.08342
 Alpha virt. eigenvalues --    0.08694   0.09046   0.09325   0.09607   0.09914
 Alpha virt. eigenvalues --    0.10484   0.10689   0.10934   0.11531   0.11620
 Alpha virt. eigenvalues --    0.11992   0.12170   0.12974   0.13102   0.13435
 Alpha virt. eigenvalues --    0.14152   0.14265   0.14462   0.14847   0.15274
 Alpha virt. eigenvalues --    0.15535   0.15638   0.16451   0.16621   0.16735
 Alpha virt. eigenvalues --    0.17304   0.17607   0.18163   0.18440   0.18829
 Alpha virt. eigenvalues --    0.18949   0.19397   0.19789   0.20559   0.20898
 Alpha virt. eigenvalues --    0.21662   0.21901   0.22042   0.22213   0.22583
 Alpha virt. eigenvalues --    0.23156   0.23246   0.23728   0.23953   0.24366
 Alpha virt. eigenvalues --    0.24617   0.24985   0.25411   0.25620   0.25690
 Alpha virt. eigenvalues --    0.26476   0.26771   0.27015   0.27227   0.27554
 Alpha virt. eigenvalues --    0.28246   0.28343   0.28626   0.28954   0.29309
 Alpha virt. eigenvalues --    0.29779   0.30337   0.30409   0.30518   0.30791
 Alpha virt. eigenvalues --    0.30949   0.31528   0.31784   0.32356   0.32695
 Alpha virt. eigenvalues --    0.33099   0.33455   0.33785   0.33935   0.34138
 Alpha virt. eigenvalues --    0.34707   0.34794   0.35181   0.35386   0.35957
 Alpha virt. eigenvalues --    0.36181   0.36205   0.37187   0.37630   0.38208
 Alpha virt. eigenvalues --    0.38481   0.38869   0.39243   0.39533   0.39909
 Alpha virt. eigenvalues --    0.40284   0.40585   0.41148   0.41661   0.42035
 Alpha virt. eigenvalues --    0.42427   0.43194   0.43314   0.43964   0.44108
 Alpha virt. eigenvalues --    0.44404   0.45078   0.45271   0.46093   0.47248
 Alpha virt. eigenvalues --    0.47510   0.47708   0.47787   0.49088   0.49711
 Alpha virt. eigenvalues --    0.49967   0.50139   0.50687   0.51446   0.52201
 Alpha virt. eigenvalues --    0.52836   0.53023   0.53574   0.53807   0.54397
 Alpha virt. eigenvalues --    0.55777   0.56846   0.57163   0.57716   0.58423
 Alpha virt. eigenvalues --    0.58833   0.60668   0.61257   0.61535   0.62103
 Alpha virt. eigenvalues --    0.62722   0.63612   0.64003   0.64254   0.64607
 Alpha virt. eigenvalues --    0.64801   0.66787   0.67424   0.68514   0.68835
 Alpha virt. eigenvalues --    0.69398   0.69631   0.69898   0.70112   0.70961
 Alpha virt. eigenvalues --    0.71158   0.71884   0.72467   0.73757   0.74067
 Alpha virt. eigenvalues --    0.74239   0.74915   0.75038   0.75138   0.75997
 Alpha virt. eigenvalues --    0.76546   0.76970   0.77591   0.77733   0.78005
 Alpha virt. eigenvalues --    0.78753   0.78887   0.79890   0.80689   0.81071
 Alpha virt. eigenvalues --    0.81477   0.81866   0.82936   0.83578   0.83834
 Alpha virt. eigenvalues --    0.85252   0.85566   0.86663   0.88659   0.90443
 Alpha virt. eigenvalues --    0.91285   0.93704   0.95317   0.96150   0.96681
 Alpha virt. eigenvalues --    0.97465   0.97936   0.98355   0.98634   1.00067
 Alpha virt. eigenvalues --    1.01314   1.02434   1.03115   1.04000   1.05116
 Alpha virt. eigenvalues --    1.05635   1.06926   1.08654   1.09161   1.09623
 Alpha virt. eigenvalues --    1.10786   1.12272   1.13412   1.13709   1.14288
 Alpha virt. eigenvalues --    1.15160   1.16654   1.17131   1.17842   1.18821
 Alpha virt. eigenvalues --    1.20620   1.23244   1.23571   1.24104   1.25245
 Alpha virt. eigenvalues --    1.26021   1.27519   1.28034   1.28854   1.30255
 Alpha virt. eigenvalues --    1.31265   1.32312   1.33799   1.34515   1.36158
 Alpha virt. eigenvalues --    1.37359   1.37587   1.38314   1.38644   1.41254
 Alpha virt. eigenvalues --    1.43167   1.43245   1.44793   1.47450   1.48976
 Alpha virt. eigenvalues --    1.49160   1.49900   1.50735   1.50981   1.51449
 Alpha virt. eigenvalues --    1.52317   1.53311   1.55121   1.55314   1.55784
 Alpha virt. eigenvalues --    1.56466   1.58606   1.60508   1.60555   1.61033
 Alpha virt. eigenvalues --    1.62567   1.62780   1.64416   1.64725   1.65382
 Alpha virt. eigenvalues --    1.66098   1.67311   1.67908   1.68480   1.68564
 Alpha virt. eigenvalues --    1.68748   1.69870   1.72669   1.73680   1.74655
 Alpha virt. eigenvalues --    1.76865   1.77332   1.78587   1.79284   1.81571
 Alpha virt. eigenvalues --    1.82197   1.82854   1.83683   1.85342   1.85785
 Alpha virt. eigenvalues --    1.86100   1.87916   1.88350   1.88952   1.90617
 Alpha virt. eigenvalues --    1.91177   1.92928   1.93811   1.94737   1.94812
 Alpha virt. eigenvalues --    1.95344   1.97741   1.99870   2.00128   2.01826
 Alpha virt. eigenvalues --    2.03594   2.05265   2.06475   2.09070   2.09703
 Alpha virt. eigenvalues --    2.11460   2.15038   2.18549   2.19583   2.22648
 Alpha virt. eigenvalues --    2.23035   2.24923   2.25087   2.27048   2.30513
 Alpha virt. eigenvalues --    2.31162   2.35266   2.38735   2.39447   2.40311
 Alpha virt. eigenvalues --    2.42265   2.47797   2.51631   2.53274   2.53466
 Alpha virt. eigenvalues --    2.56105   2.58004   2.58332   2.59148   2.61175
 Alpha virt. eigenvalues --    2.61618   2.62122   2.63446   2.65399   2.65999
 Alpha virt. eigenvalues --    2.66872   2.70018   2.71590   2.72826   2.74851
 Alpha virt. eigenvalues --    2.75280   2.80078   2.81543   2.82786   2.85543
 Alpha virt. eigenvalues --    2.85859   2.88363   2.90576   2.94813   2.99096
 Alpha virt. eigenvalues --    3.00171   3.00925   3.02170   3.03692   3.03881
 Alpha virt. eigenvalues --    3.05103   3.06414   3.07694   3.08138   3.08247
 Alpha virt. eigenvalues --    3.09405   3.10568   3.11483   3.11801   3.15610
 Alpha virt. eigenvalues --    3.16214   3.17016   3.20995   3.23372   3.23699
 Alpha virt. eigenvalues --    3.24371   3.26423   3.28631   3.30576   3.30820
 Alpha virt. eigenvalues --    3.31517   3.31667   3.34779   3.36579   3.36767
 Alpha virt. eigenvalues --    3.39987   3.40923   3.42802   3.43704   3.46096
 Alpha virt. eigenvalues --    3.48652   3.48738   3.52046   3.53236   3.57845
 Alpha virt. eigenvalues --    3.69608   3.71505   3.74029   3.77869   3.79150
 Alpha virt. eigenvalues --    3.81662   3.84204   3.84646   3.87736   3.88051
 Alpha virt. eigenvalues --    3.89441   3.90328   3.91510   3.93218   3.94033
 Alpha virt. eigenvalues --    3.98234   4.02600   4.04268   4.04505   4.07731
 Alpha virt. eigenvalues --    4.10947   4.11924   4.20010   4.21706   4.24260
 Alpha virt. eigenvalues --    4.24347   4.27026   4.28310   4.30609   4.57119
 Alpha virt. eigenvalues --    4.75441   4.84714   4.96474   4.99552   5.11132
 Alpha virt. eigenvalues --    5.16332   5.22594   5.26419   5.30751   5.44465
 Alpha virt. eigenvalues --    5.47561   5.49406   5.53058   5.77559   5.87415
 Alpha virt. eigenvalues --    6.06067   6.07707   6.47448   6.52018   6.53116
 Alpha virt. eigenvalues --    6.54578   6.56427   6.60859   6.64631   6.84897
 Alpha virt. eigenvalues --    6.88308  10.02309  23.46967  23.62147  23.65273
 Alpha virt. eigenvalues --   23.67790  23.77862  23.84572  23.86906  23.95384
 Alpha virt. eigenvalues --   23.95885  23.98815  24.01793  24.09933  24.12186
 Alpha virt. eigenvalues --   24.19909  25.98281  26.30564  26.80940  35.71305
 Alpha virt. eigenvalues --   50.08038  50.14223  50.19856  50.23488  66.90589
 Alpha virt. eigenvalues --   66.94189  66.99361 216.12643
          Condensed to atoms (all electrons):
               1          2          3          4          5          6
     1  C   35.292686  -0.504924  -0.815846  -0.414342  -0.334796  -0.807340
     2  N   -0.504924   7.935601   0.231112  -0.034040  -0.294985  -0.388941
     3  C   -0.815846   0.231112   9.147303   0.610204   0.278865  -0.735457
     4  O   -0.414342  -0.034040   0.610204   8.101943  -0.201027  -0.175590
     5  O   -0.334796  -0.294985   0.278865  -0.201027   8.504422   0.398295
     6  C   -0.807340  -0.388941  -0.735457  -0.175590   0.398295   8.390075
     7  C    0.022143   0.053062   0.251041   0.031654  -0.182968  -0.973818
     8  C   -0.020412  -0.009048  -0.231785   0.000503   0.025671   0.338196
     9  C   -2.320924   0.042233  -0.832601   0.480467   0.039823  -0.123103
    10  C  -13.124244   0.171235  -0.442738   0.117730   0.038568   0.006778
    11  C   -9.408823   0.005156   0.767453  -0.035728   0.002048   0.040816
    12  C   -3.814964   0.094050  -1.470097  -0.013886  -0.031459  -0.141668
    13  C    5.384085   0.156113  -0.714799  -0.119622  -0.115524  -0.200831
    14  H    0.038266   0.078053   0.040158   0.000903   0.022927   0.000667
    15  H    0.005964   0.003697   0.033832  -0.000298  -0.049159   0.372391
    16  H    0.011438   0.004250   0.039092   0.000143  -0.052146   0.363542
    17  H   -0.000902  -0.001024   0.000995  -0.000330   0.001192  -0.054117
    18  H   -0.000475  -0.000782   0.002258  -0.000322   0.000863  -0.056658
    19  H   -0.000081  -0.000033  -0.001249  -0.000070  -0.000372  -0.044880
    20  H    0.000104   0.000027   0.006243   0.000024  -0.000876   0.085838
    21  H   -0.000129  -0.000042  -0.002068  -0.000060  -0.000334  -0.041965
    22  H    0.006244  -0.023153   0.099444   0.004129   0.003405   0.010659
    23  Cl  -0.297538  -0.007395  -0.089524   0.000461  -0.000275  -0.003473
    24  H    0.218830  -0.021627  -0.005914   0.000150   0.000209  -0.000531
    25  C   -2.808637   0.047434  -0.179292   0.002035   0.002306  -0.013993
    26  H    0.003334   0.000572   0.001817   0.000003   0.000001   0.000018
    27  F    0.003924   0.000486   0.001147   0.000016   0.000000   0.000014
    28  F   -0.007097   0.000504   0.000608   0.000010   0.000000   0.000007
    29  F    0.286700  -0.001030   0.007935   0.000456  -0.000047   0.000105
    30  O    0.070402  -0.010771   0.011076  -0.000068   0.000063  -0.000824
    31  O    0.194063  -0.018446  -0.015774   0.000456   0.007882  -0.009460
    32  C   -0.248435   0.006480   0.014937   0.000150  -0.001727   0.001764
    33  C    0.097616  -0.033633   0.020687   0.000472   0.002093   0.003187
    34  C    0.025028   0.002338  -0.004885  -0.000136  -0.001082   0.001229
    35  H   -0.001050   0.000079   0.000058  -0.000000   0.000005  -0.000022
    36  H   -0.000462   0.000062  -0.000013  -0.000000   0.000004  -0.000026
    37  H    0.000113   0.000241  -0.000202   0.000001  -0.000002   0.000095
    38  H   -0.000057  -0.000061   0.000059  -0.000000  -0.000000  -0.000025
    39  H   -0.000455   0.000287  -0.000070   0.000001  -0.000002   0.000030
               7          8          9         10         11         12
     1  C    0.022143  -0.020412  -2.320924 -13.124244  -9.408823  -3.814964
     2  N    0.053062  -0.009048   0.042233   0.171235   0.005156   0.094050
     3  C    0.251041  -0.231785  -0.832601  -0.442738   0.767453  -1.470097
     4  O    0.031654   0.000503   0.480467   0.117730  -0.035728  -0.013886
     5  O   -0.182968   0.025671   0.039823   0.038568   0.002048  -0.031459
     6  C   -0.973818   0.338196  -0.123103   0.006778   0.040816  -0.141668
     7  C    6.499881  -0.287819  -0.027537  -0.009884  -0.000130   0.006990
     8  C   -0.287819   6.284458  -0.002490   0.000258   0.000203  -0.001547
     9  C   -0.027537  -0.002490  25.431354   4.719231 -16.329213   2.159654
    10  C   -0.009884   0.000258   4.719231  25.876620  -7.740944   0.977430
    11  C   -0.000130   0.000203 -16.329213  -7.740944  73.645183 -23.072348
    12  C    0.006990  -0.001547   2.159654   0.977430 -23.072348  29.631209
    13  C    0.047012  -0.006009  -3.918911  -2.858149 -16.501862   5.475245
    14  H   -0.000374  -0.000403   0.038315   0.019640   0.007872  -0.028187
    15  H   -0.022274  -0.020710  -0.001059   0.000048   0.000053   0.000055
    16  H   -0.022636  -0.017549  -0.003784  -0.000628   0.000008   0.000065
    17  H    0.453020  -0.069159   0.000399   0.000038   0.000005   0.000003
    18  H    0.452533  -0.067731   0.000471   0.000036   0.000004  -0.000003
    19  H    0.019897   0.365907  -0.000000  -0.000002   0.000000   0.000001
    20  H   -0.147234   0.403840   0.000040   0.000001  -0.000000   0.000000
    21  H    0.019314   0.364819   0.000002  -0.000001   0.000000   0.000001
    22  H   -0.000815   0.000084   0.232755  -0.072842   0.110936  -0.057386
    23  Cl   0.000079  -0.000010   0.146892   0.261920  -0.447027  -1.060069
    24  H   -0.000077   0.000001   0.024487  -0.004713   0.033404  -0.244796
    25  C   -0.000196  -0.000179  -3.892522  -0.899832   5.349200  -3.131231
    26  H   -0.000000   0.000000   0.049953   0.128974  -0.104409   0.163463
    27  F   -0.000000   0.000000   0.083636   0.193569  -0.362906   0.069403
    28  F   -0.000000   0.000000   0.068380   0.217981  -0.362578   0.062842
    29  F    0.000014  -0.000001   0.251769  -0.403353  -0.079271   0.080706
    30  O    0.000500   0.000006  -0.023763   0.002395  -0.001930  -0.165166
    31  O    0.004653   0.000737   0.073062   0.010500  -0.001706  -0.064467
    32  C   -0.000348  -0.000892  -0.072604  -0.031254   0.012243   0.133974
    33  C    0.000172   0.001819  -0.029789  -0.014939  -0.007696  -0.080784
    34  C   -0.000137  -0.001412   0.005810   0.000016  -0.002521  -0.013710
    35  H    0.000022  -0.000000  -0.000071  -0.000012  -0.000001   0.000335
    36  H    0.000020  -0.000000  -0.000046  -0.000003  -0.000029  -0.000002
    37  H    0.000164   0.000122  -0.000039  -0.000007  -0.000002  -0.000091
    38  H   -0.000025  -0.000008   0.000009   0.000002   0.000001   0.000067
    39  H    0.000193   0.000100  -0.000078  -0.000012   0.000004   0.000003
              13         14         15         16         17         18
     1  C    5.384085   0.038266   0.005964   0.011438  -0.000902  -0.000475
     2  N    0.156113   0.078053   0.003697   0.004250  -0.001024  -0.000782
     3  C   -0.714799   0.040158   0.033832   0.039092   0.000995   0.002258
     4  O   -0.119622   0.000903  -0.000298   0.000143  -0.000330  -0.000322
     5  O   -0.115524   0.022927  -0.049159  -0.052146   0.001192   0.000863
     6  C   -0.200831   0.000667   0.372391   0.363542  -0.054117  -0.056658
     7  C    0.047012  -0.000374  -0.022274  -0.022636   0.453020   0.452533
     8  C   -0.006009  -0.000403  -0.020710  -0.017549  -0.069159  -0.067731
     9  C   -3.918911   0.038315  -0.001059  -0.003784   0.000399   0.000471
    10  C   -2.858149   0.019640   0.000048  -0.000628   0.000038   0.000036
    11  C  -16.501862   0.007872   0.000053   0.000008   0.000005   0.000004
    12  C    5.475245  -0.028187   0.000055   0.000065   0.000003  -0.000003
    13  C   21.107665  -0.122047   0.000010   0.000015   0.000017  -0.000111
    14  H   -0.122047   0.280095   0.000025   0.000019  -0.000034  -0.000028
    15  H    0.000010   0.000025   0.475711  -0.044877   0.005366  -0.008348
    16  H    0.000015   0.000019  -0.044877   0.478621  -0.008586   0.005383
    17  H    0.000017  -0.000034   0.005366  -0.008586   0.443227  -0.029965
    18  H   -0.000111  -0.000028  -0.008348   0.005383  -0.029965   0.442170
    19  H    0.000020  -0.000000  -0.000796   0.004296  -0.008005   0.006461
    20  H   -0.000014  -0.000000  -0.000214  -0.000220  -0.003864  -0.003863
    21  H    0.000023  -0.000000   0.004207  -0.000888   0.006511  -0.007952
    22  H   -0.010725  -0.000124  -0.000033  -0.000033  -0.000000  -0.000000
    23  Cl   0.585121   0.000258   0.000001   0.000001  -0.000000  -0.000000
    24  H    0.180674   0.016150  -0.000000   0.000000  -0.000000  -0.000000
    25  C   -1.636786  -0.000019  -0.000015  -0.000063   0.000001   0.000001
    26  H    0.020923  -0.000004  -0.000000  -0.000000   0.000000   0.000000
    27  F    0.019966   0.000000  -0.000000   0.000000  -0.000000   0.000000
    28  F    0.017167   0.000000   0.000000  -0.000000   0.000000  -0.000000
    29  F    0.024860  -0.000004   0.000000   0.000000   0.000000   0.000000
    30  O    0.108356   0.017700   0.000001  -0.000000  -0.000001  -0.000001
    31  O   -0.213332   0.061500   0.000013  -0.000028   0.000006  -0.000064
    32  C    0.192978  -0.006196   0.000018   0.000060   0.000223   0.000183
    33  C   -0.074890   0.031006  -0.000020   0.000005  -0.000487  -0.000538
    34  C   -0.011766  -0.001798   0.000016   0.000018   0.000350   0.000497
    35  H    0.001035  -0.000018   0.000000   0.000000   0.000000  -0.000000
    36  H    0.001017  -0.000010   0.000000   0.000000  -0.000000  -0.000000
    37  H   -0.000179  -0.000178  -0.000000  -0.000000  -0.000019  -0.000013
    38  H    0.000134   0.000026  -0.000000  -0.000000   0.000000   0.000000
    39  H    0.000164  -0.000190  -0.000000  -0.000000  -0.000007  -0.000022
              19         20         21         22         23         24
     1  C   -0.000081   0.000104  -0.000129   0.006244  -0.297538   0.218830
     2  N   -0.000033   0.000027  -0.000042  -0.023153  -0.007395  -0.021627
     3  C   -0.001249   0.006243  -0.002068   0.099444  -0.089524  -0.005914
     4  O   -0.000070   0.000024  -0.000060   0.004129   0.000461   0.000150
     5  O   -0.000372  -0.000876  -0.000334   0.003405  -0.000275   0.000209
     6  C   -0.044880   0.085838  -0.041965   0.010659  -0.003473  -0.000531
     7  C    0.019897  -0.147234   0.019314  -0.000815   0.000079  -0.000077
     8  C    0.365907   0.403840   0.364819   0.000084  -0.000010   0.000001
     9  C   -0.000000   0.000040   0.000002   0.232755   0.146892   0.024487
    10  C   -0.000002   0.000001  -0.000001  -0.072842   0.261920  -0.004713
    11  C    0.000000  -0.000000   0.000000   0.110936  -0.447027   0.033404
    12  C    0.000001   0.000000   0.000001  -0.057386  -1.060069  -0.244796
    13  C    0.000020  -0.000014   0.000023  -0.010725   0.585121   0.180674
    14  H   -0.000000  -0.000000  -0.000000  -0.000124   0.000258   0.016150
    15  H   -0.000796  -0.000214   0.004207  -0.000033   0.000001  -0.000000
    16  H    0.004296  -0.000220  -0.000888  -0.000033   0.000001   0.000000
    17  H   -0.008005  -0.003864   0.006511  -0.000000  -0.000000  -0.000000
    18  H    0.006461  -0.003863  -0.007952  -0.000000  -0.000000  -0.000000
    19  H    0.467233  -0.024794  -0.036695  -0.000000  -0.000000  -0.000000
    20  H   -0.024794   0.441200  -0.024689   0.000000   0.000000   0.000000
    21  H   -0.036695  -0.024689   0.466905  -0.000000  -0.000000  -0.000000
    22  H   -0.000000   0.000000  -0.000000   0.356436  -0.000188   0.000132
    23  Cl  -0.000000   0.000000  -0.000000  -0.000188  17.589163   0.001495
    24  H   -0.000000   0.000000  -0.000000   0.000132   0.001495   0.286061
    25  C   -0.000000   0.000000  -0.000000   0.013095  -0.062754  -0.003676
    26  H    0.000000   0.000000   0.000000  -0.000264  -0.019850  -0.000265
    27  F    0.000000   0.000000  -0.000000   0.000001  -0.000564  -0.000005
    28  F   -0.000000   0.000000   0.000000  -0.000036  -0.000448  -0.000006
    29  F    0.000000   0.000000   0.000000   0.010534   0.000033  -0.000014
    30  O    0.000000   0.000000   0.000000  -0.000018   0.003163   0.033702
    31  O    0.000000   0.000002   0.000001   0.000009  -0.001952   0.008054
    32  C   -0.000001  -0.000005   0.000000   0.000196   0.001796  -0.000219
    33  C   -0.000006   0.000009  -0.000007   0.000024   0.002842   0.020859
    34  C    0.000007  -0.000021   0.000008   0.000002   0.000282   0.000070
    35  H    0.000000  -0.000000   0.000000  -0.000000   0.000010  -0.000080
    36  H    0.000000  -0.000000   0.000000   0.000000   0.000010  -0.000062
    37  H   -0.000000   0.000000  -0.000000   0.000000   0.000000  -0.000002
    38  H    0.000000  -0.000000   0.000000  -0.000000  -0.000000  -0.000002
    39  H   -0.000000   0.000000  -0.000000   0.000000  -0.000000  -0.000004
              25         26         27         28         29         30
     1  C   -2.808637   0.003334   0.003924  -0.007097   0.286700   0.070402
     2  N    0.047434   0.000572   0.000486   0.000504  -0.001030  -0.010771
     3  C   -0.179292   0.001817   0.001147   0.000608   0.007935   0.011076
     4  O    0.002035   0.000003   0.000016   0.000010   0.000456  -0.000068
     5  O    0.002306   0.000001   0.000000   0.000000  -0.000047   0.000063
     6  C   -0.013993   0.000018   0.000014   0.000007   0.000105  -0.000824
     7  C   -0.000196  -0.000000  -0.000000  -0.000000   0.000014   0.000500
     8  C   -0.000179   0.000000   0.000000   0.000000  -0.000001   0.000006
     9  C   -3.892522   0.049953   0.083636   0.068380   0.251769  -0.023763
    10  C   -0.899832   0.128974   0.193569   0.217981  -0.403353   0.002395
    11  C    5.349200  -0.104409  -0.362906  -0.362578  -0.079271  -0.001930
    12  C   -3.131231   0.163463   0.069403   0.062842   0.080706  -0.165166
    13  C   -1.636786   0.020923   0.019966   0.017167   0.024860   0.108356
    14  H   -0.000019  -0.000004   0.000000   0.000000  -0.000004   0.017700
    15  H   -0.000015  -0.000000  -0.000000   0.000000   0.000000   0.000001
    16  H   -0.000063  -0.000000   0.000000  -0.000000   0.000000  -0.000000
    17  H    0.000001   0.000000  -0.000000   0.000000   0.000000  -0.000001
    18  H    0.000001   0.000000   0.000000  -0.000000   0.000000  -0.000001
    19  H   -0.000000   0.000000   0.000000  -0.000000   0.000000   0.000000
    20  H    0.000000   0.000000   0.000000   0.000000   0.000000   0.000000
    21  H   -0.000000   0.000000  -0.000000   0.000000   0.000000   0.000000
    22  H    0.013095  -0.000264   0.000001  -0.000036   0.010534  -0.000018
    23  Cl  -0.062754  -0.019850  -0.000564  -0.000448   0.000033   0.003163
    24  H   -0.003676  -0.000265  -0.000005  -0.000006  -0.000014   0.033702
    25  C   12.099717   0.065507   0.160320   0.172469  -0.020149   0.000687
    26  H    0.065507   0.397073  -0.000671  -0.000680   0.000419   0.000002
    27  F    0.160320  -0.000671   8.977655  -0.052540  -0.029890   0.000000
    28  F    0.172469  -0.000680  -0.052540   8.976991  -0.029719   0.000000
    29  F   -0.020149   0.000419  -0.029890  -0.029719   9.028187   0.000000
    30  O    0.000687   0.000002   0.000000   0.000000   0.000000   8.504389
    31  O    0.000301   0.000001   0.000000   0.000000   0.000000  -0.189024
    32  C   -0.007282  -0.000018  -0.000004  -0.000004   0.000001   0.432618
    33  C   -0.001433  -0.000004  -0.000000  -0.000000   0.000000  -0.234286
    34  C   -0.000015   0.000000  -0.000000  -0.000000  -0.000000   0.013445
    35  H   -0.000000  -0.000000  -0.000000  -0.000000  -0.000000  -0.003270
    36  H    0.000000   0.000000  -0.000000   0.000000  -0.000000  -0.002935
    37  H   -0.000000  -0.000000  -0.000000  -0.000000  -0.000000  -0.000260
    38  H    0.000000  -0.000000   0.000000   0.000000   0.000000  -0.000174
    39  H   -0.000000  -0.000000  -0.000000  -0.000000  -0.000000  -0.000353
              31         32         33         34         35         36
     1  C    0.194063  -0.248435   0.097616   0.025028  -0.001050  -0.000462
     2  N   -0.018446   0.006480  -0.033633   0.002338   0.000079   0.000062
     3  C   -0.015774   0.014937   0.020687  -0.004885   0.000058  -0.000013
     4  O    0.000456   0.000150   0.000472  -0.000136  -0.000000  -0.000000
     5  O    0.007882  -0.001727   0.002093  -0.001082   0.000005   0.000004
     6  C   -0.009460   0.001764   0.003187   0.001229  -0.000022  -0.000026
     7  C    0.004653  -0.000348   0.000172  -0.000137   0.000022   0.000020
     8  C    0.000737  -0.000892   0.001819  -0.001412  -0.000000  -0.000000
     9  C    0.073062  -0.072604  -0.029789   0.005810  -0.000071  -0.000046
    10  C    0.010500  -0.031254  -0.014939   0.000016  -0.000012  -0.000003
    11  C   -0.001706   0.012243  -0.007696  -0.002521  -0.000001  -0.000029
    12  C   -0.064467   0.133974  -0.080784  -0.013710   0.000335  -0.000002
    13  C   -0.213332   0.192978  -0.074890  -0.011766   0.001035   0.001017
    14  H    0.061500  -0.006196   0.031006  -0.001798  -0.000018  -0.000010
    15  H    0.000013   0.000018  -0.000020   0.000016   0.000000   0.000000
    16  H   -0.000028   0.000060   0.000005   0.000018   0.000000   0.000000
    17  H    0.000006   0.000223  -0.000487   0.000350   0.000000  -0.000000
    18  H   -0.000064   0.000183  -0.000538   0.000497  -0.000000  -0.000000
    19  H    0.000000  -0.000001  -0.000006   0.000007   0.000000   0.000000
    20  H    0.000002  -0.000005   0.000009  -0.000021  -0.000000  -0.000000
    21  H    0.000001   0.000000  -0.000007   0.000008   0.000000   0.000000
    22  H    0.000009   0.000196   0.000024   0.000002  -0.000000   0.000000
    23  Cl  -0.001952   0.001796   0.002842   0.000282   0.000010   0.000010
    24  H    0.008054  -0.000219   0.020859   0.000070  -0.000080  -0.000062
    25  C    0.000301  -0.007282  -0.001433  -0.000015  -0.000000   0.000000
    26  H    0.000001  -0.000018  -0.000004   0.000000  -0.000000   0.000000
    27  F    0.000000  -0.000004  -0.000000  -0.000000  -0.000000  -0.000000
    28  F    0.000000  -0.000004  -0.000000  -0.000000  -0.000000   0.000000
    29  F    0.000000   0.000001   0.000000  -0.000000  -0.000000  -0.000000
    30  O   -0.189024   0.432618  -0.234286   0.013445  -0.003270  -0.002935
    31  O    8.452826   0.279598  -0.186188   0.053290   0.000903   0.000812
    32  C    0.279598   6.451397  -1.441492   0.282807  -0.039125  -0.033174
    33  C   -0.186188  -1.441492   8.061559  -0.560405   0.421864   0.416646
    34  C    0.053290   0.282807  -0.560405   6.103099  -0.052299  -0.053257
    35  H    0.000903  -0.039125   0.421864  -0.052299   0.451585  -0.029136
    36  H    0.000812  -0.033174   0.416646  -0.053257  -0.029136   0.450990
    37  H   -0.008350  -0.015552  -0.015728   0.384059  -0.007382   0.006031
    38  H    0.003690   0.076979  -0.141192   0.406565  -0.003556  -0.003618
    39  H   -0.008141  -0.020246  -0.012882   0.386131   0.006033  -0.007357
              37         38         39
     1  C    0.000113  -0.000057  -0.000455
     2  N    0.000241  -0.000061   0.000287
     3  C   -0.000202   0.000059  -0.000070
     4  O    0.000001  -0.000000   0.000001
     5  O   -0.000002  -0.000000  -0.000002
     6  C    0.000095  -0.000025   0.000030
     7  C    0.000164  -0.000025   0.000193
     8  C    0.000122  -0.000008   0.000100
     9  C   -0.000039   0.000009  -0.000078
    10  C   -0.000007   0.000002  -0.000012
    11  C   -0.000002   0.000001   0.000004
    12  C   -0.000091   0.000067   0.000003
    13  C   -0.000179   0.000134   0.000164
    14  H   -0.000178   0.000026  -0.000190
    15  H   -0.000000  -0.000000  -0.000000
    16  H   -0.000000  -0.000000  -0.000000
    17  H   -0.000019   0.000000  -0.000007
    18  H   -0.000013   0.000000  -0.000022
    19  H   -0.000000   0.000000  -0.000000
    20  H    0.000000  -0.000000   0.000000
    21  H   -0.000000   0.000000  -0.000000
    22  H    0.000000  -0.000000   0.000000
    23  Cl   0.000000  -0.000000  -0.000000
    24  H   -0.000002  -0.000002  -0.000004
    25  C   -0.000000   0.000000  -0.000000
    26  H   -0.000000  -0.000000  -0.000000
    27  F   -0.000000   0.000000  -0.000000
    28  F   -0.000000   0.000000  -0.000000
    29  F   -0.000000   0.000000  -0.000000
[...]
 1,0.00003306,0.00002919,0.00005058,-0.00088777,-0.00007518,0.00033626,
 0.00015988,-0.00004645,-0.00011050,-0.00019232,0.00002593,-0.00014347,
 -0.00002344,0.00002718,0.00009378,0.00002328,-0.00001866,-0.00000639,-
 0.00001503,-0.00001653,-0.00000110,0.00000879,0.00000465,0.00006884,-0
 .00004833,-0.00000351,-0.00001306,-0.00002369,0.00001025,0.00003982,-0
 .00001084,-0.00000112,-0.00006603,-0.00002643,0.00001313,0.00007776,0.
 00006540,-0.00005257,-0.00009628,0.00142690,0.00021627,-0.00001341,-0.
 00000562,0.00000152,-0.00001350,-0.00001272,0.00000535,0.00000123,0.00
 000569,0.00000204,0.00000618,0.00000005,0.00000641,-0.00000185,-0.0000
 0450,0.00000164,-0.00000626,0.00000065,-0.00000144,0.00000140,0.000000
 50,0.00000102,-0.00000784,0.00000692,-0.00000247,0.00003770,0.00001745
 ,0.00000014,-0.00006530,0.00003252,0.00002304,-0.00001332,0.00006419,-
 0.00001288,0.00000149,-0.00000179,-0.00000239,0.00001923,-0.00002065,0
 .00000464,0.00000249,-0.00001770,-0.00000531,-0.00000333,-0.00002086,0
 .00000920,0.00109331,0.00021445,0.00419500,0.00055531,-0.00652237,0.00
 419908,-0.01029146,-0.01238319,-0.03161192,-0.03305362,-0.09748465,-0.
 10444055,0.00166945,0.00129574,0.00403642,0.03487417,0.10616697,-0.000
 12160,0.00002399,-0.00000456,0.00003800,-0.00020425,0.00004492,0.00005
 270,0.00011236,-0.00002322,-0.00002213,-0.00009721,0.00000789,-0.00001
 945,-0.00005075,0.00001270,0.00003728,0.00002092,-0.00000797,-0.000003
 02,0.00000376,-0.00001086,0.00000521,-0.00000290,0.00000214,0.00002183
 ,-0.00002264,0.00000306,-0.00000482,-0.00001373,0.00000027,0.00003018,
 -0.00000296,0.00000113,-0.00007904,-0.00003197,0.00000014,0.00005673,0
 .00000869,0.00000755,-0.00001325,0.00034589,-0.00007974,-0.00000296,-0
 .00000355,-0.00000260,-0.00000283,-0.00000728,0.00000659,0.00000479,0.
 00000511,-0.00001007,0.00000678,0.00000162,0.00001466,-0.00000376,-0.0
 0000537,0.00000536,-0.00000101,0.00000290,-0.00000168,-0.00000240,-0.0
 0000213,-0.00000271,-0.00000418,0.00000332,-0.00000218,0.00003791,0.00
 001824,0.00000206,-0.00002835,0.00004459,-0.00000601,-0.00002104,0.000
 05900,-0.00000929,0.00000116,-0.00000279,-0.00000193,0.00002010,-0.000
 01816,0.00000430,0.00000375,-0.00001594,-0.00000286,-0.00000115,-0.000
 01835,0.00000637,0.00100195,-0.00019684,-0.00057360,0.00085091,-0.0003
 4101,-0.00036096,-0.00193629,0.00242446,0.00090729,-0.06402643,-0.1005
 8795,-0.23493891,-0.00036265,-0.00021406,-0.00136410,0.07235379,0.1094
 1541,0.25586404,-0.00003446,0.00002073,0.00000687,0.00007964,0.0000789
 2,-0.00005504,-0.00020184,0.00001859,0.00002326,0.00005011,-0.00000388
 ,-0.00000457,0.00012140,-0.00005797,-0.00001873,-0.00004515,0.00001699
 ,0.00000566,-0.00000239,0.00000836,0.00001544,0.00001168,-0.00001112,-
 0.00000406,0.00001160,-0.00001014,-0.00000224,-0.00001027,0.00001265,-
 0.00000171,0.00000133,0.00000300,0.00000201,0.00001467,0.00000278,-0.0
 0000137,0.00000790,-0.00001179,-0.00001076,-0.00001009,-0.00013524,0.0
 0010062,0.00000838,-0.00000914,-0.00000545,0.00000750,-0.00000181,0.00
 000219,0.00001055,0.00001688,-0.00003386,0.00000575,0.00001259,0.00002
 430,-0.00000502,-0.00000266,0.00000491,0.00000863,0.00000361,0.0000022
 4,-0.00000833,-0.00000935,-0.00000610,-0.00000384,0.00000281,0.0000019
 1,-0.00000781,0.00000408,-0.00000031,0.00002604,-0.00010292,0.00000219
 ,-0.00000190,-0.00002654,0.00000718,-0.00000025,0.00000169,0.00000098,
 -0.00000270,0.00000587,-0.00000127,0.00000077,0.00000702,0.00000063,0.
 00000530,0.00001007,-0.00000563,-0.00218916,0.00174449,0.00064329,0.00
 089171,0.00094005,0.00085063,0.00258405,0.00266573,-0.00894999,-0.1050
 0706,-0.05813366,0.09234349,-0.01609911,-0.01530003,0.02542539,0.00402
 989,0.00514541,-0.00664421,0.11955826,-0.00032959,0.00004652,0.0000132
 9,0.00006765,-0.00088681,0.00014411,0.00030978,0.00017306,-0.00000176,
 -0.00010534,-0.00020031,-0.00000799,-0.00012733,-0.00003548,0.00000327
 ,0.00009337,0.00002578,0.00000173,-0.00000652,-0.00000726,0.00000681,0
 .00000045,0.00000645,-0.00000171,0.00007203,-0.00005669,-0.00001581,-0
 .00001875,-0.00001974,-0.00000232,0.00004860,-0.00000746,-0.00001146,-
 0.00008999,-0.00003748,-0.00000066,0.00009132,0.00006246,0.00004003,-0
 .00006392,0.00140156,-0.00034616,-0.00001312,-0.00001104,-0.00000261,-
 0.00001208,-0.00000713,0.00000214,0.00000690,-0.00000084,-0.00000607,0
 .00000322,0.00000232,0.00000185,-0.00000010,-0.00000103,0.00000009,-0.
 00000623,0.00000105,0.00000121,-0.00000200,-0.00000397,-0.00000131,-0.
 00000875,0.00000717,0.00000409,0.00004693,0.00002913,-0.00000466,-0.00
 006151,0.00002011,-0.00002315,-0.00001520,0.00005959,0.00002669,0.0000
 0207,-0.00000309,0.00000324,0.00001802,-0.00001926,-0.00000147,0.00000
 075,-0.00001981,-0.00002065,0.00000265,-0.00001477,-0.00000283,0.00168
 286,0.00315999,-0.00458783,0.00143098,-0.00698470,-0.00359583,-0.01715
 766,-0.01320962,0.02769400,-0.05858994,-0.10392626,0.09791914,0.002713
 23,0.00149831,-0.00360934,0.00775825,0.00735789,-0.01155518,0.06206727
 ,0.11082009,0.00012514,-0.00002367,-0.00000927,-0.00003899,0.00020730,
 0.00002831,-0.00006852,-0.00010811,-0.00000316,0.00002573,0.00009296,-
 0.00000058,0.00003350,0.00004167,0.00000814,-0.00004361,-0.00001642,-0
 .00000037,0.00000032,-0.00000854,-0.00000796,-0.00000293,0.00000238,0.
 00000170,-0.00002260,0.00002165,0.00000142,0.00000565,0.00001326,-0.00
 000305,-0.00003347,0.00000123,0.00000532,0.00008890,0.00004004,-0.0000
 0609,-0.00005530,-0.00001495,0.00000705,0.00002125,-0.00036409,-0.0000
 3830,0.00000423,0.00000556,0.00000431,0.00000369,0.00000183,-0.0000036
 9,-0.00000551,0.00000242,0.00000851,-0.00000406,-0.00000050,-0.0000042
 8,0.00000124,0.00000123,-0.00000247,0.00000234,-0.00000227,-0.00000074
 ,0.00000279,0.00000372,0.00000308,0.00000404,-0.00000310,-0.00000185,-
 0.00004503,-0.00002142,0.00000425,0.00003088,-0.00005458,-0.00001195,0
 .00001998,-0.00005379,-0.00001196,-0.00000141,0.00000348,-0.00000117,-
 0.00001762,0.00001637,0.00000004,-0.00000227,0.00001754,0.00001287,-0.
 00000206,0.00001367,0.00000121,-0.00188544,-0.00056255,0.00042595,-0.0
 0066839,0.00032339,-0.00032356,0.00229221,-0.00236148,-0.00010984,0.09
 272425,0.09481959,-0.19228614,-0.00306917,-0.00329483,0.00456281,0.012
 77523,0.01398276,-0.02179424,-0.10203117,-0.10201077,0.20740978,-0.000
 07910,0.00002516,-0.00000307,0.00000406,-0.00008016,-0.00002613,0.0000
 4868,0.00004551,0.00001852,-0.00001906,-0.00003678,-0.00000766,-0.0000
 6047,-0.00003350,-0.00002986,0.00008070,0.00002502,0.00001198,-0.00003
 248,-0.00004356,0.00000555,-0.00000446,0.00001240,-0.00000205,0.000017
 25,-0.00000968,0.00000611,-0.00000794,0.00000006,-0.00000479,0.0000126
 8,0.00000043,0.00000109,-0.00002866,-0.00001440,-0.00000410,0.00001580
 ,0.00003136,-0.00000296,0.00001177,0.00014675,0.00003201,-0.00001198,-
 0.00000022,-0.00000176,-0.00000987,0.00000761,-0.00000244,0.00001564,-
 0.00001439,0.00003902,0.00000798,-0.00000268,-0.00003546,0.00000570,0.
 00000643,-0.00000519,-0.00001217,-0.00000261,0.00000100,0.00000269,0.0
 0000330,0.00000237,-0.00000196,0.00000267,0.00000336,0.00001526,0.0000
 1134,-0.00000356,-0.00001072,-0.00002296,0.00000768,-0.00000483,0.0000
 0801,0.00001575,0.00000007,-0.00000041,0.00000191,0.00000335,-0.000003
 00,-0.00000244,-0.00000002,-0.00000424,-0.00000791,0.00000313,-0.00000
 016,-0.00000540,0.00071043,0.00071430,-0.00030138,0.00140165,0.0008067
 5,-0.00019617,-0.00099728,-0.00255520,0.00059904,-0.01665664,-0.015515
 87,0.02683056,-0.10698862,-0.05842987,0.09560269,0.00149698,-0.0004767
 7,-0.00037720,-0.00652018,0.00118095,-0.00148245,0.11916905,0.00009041
 ,-0.00001391,0.00000495,-0.00003007,0.00018202,-0.00001239,0.00001102,
 -0.00012715,0.00000211,0.00001327,0.00010602,-0.00000380,0.00000600,0.
 00009081,0.00001027,-0.00007718,-0.00002015,0.00000490,-0.00000924,-0.
 00006096,-0.00000192,-0.00000920,0.00001731,0.00000345,-0.00001440,0.0
 0001815,-0.00000438,-0.00000007,0.00001161,-0.00000071,-0.00001613,0.0
 0000721,0.00000430,0.00003459,0.00000992,-0.00001512,-0.00003231,-0.00
 000588,0.00001291,0.00000747,-0.00032053,0.00002109,0.00000857,0.00001
 095,0.00000337,0.00000663,0.00000909,-0.00000638,-0.00004022,-0.000013
 17,0.00003003,-0.00001212,0.00000563,-0.00002284,0.00000657,0.00000619
 ,-0.00000298,0.00001420,-0.00000228,0.00000246,0.00000945,0.00000350,-
 0.00000071,0.00000362,-0.00000262,-0.00000014,-0.00001799,-0.00000468,
 -0.00000018,0.00002414,-0.00005096,0.00000213,0.00000689,-0.00004498,-
 0.00000027,-0.00000104,0.00000136,0.00000052,-0.00001005,0.00001277,-0
 .00000141,-0.00000042,0.00001297,0.00000651,0.00000262,0.00001445,-0.0
 0000413,-0.00046741,0.00018200,0.00000900,0.00030141,-0.00164106,0.000
 27635,0.00073469,-0.00022158,-0.00058208,0.00076162,0.00126421,-0.0025
 5715,-0.05994023,-0.10479242,0.09506970,-0.00046830,0.00001042,0.00001
 202,0.00082103,0.00049680,-0.00031751,0.06519475,0.11121019,0.00011343
 ,-0.00004419,-0.00000802,-0.00014488,0.00002317,0.00002361,0.00027944,
 -0.00010902,-0.00002745,-0.00006226,0.00008291,0.00000637,-0.00018319,
 0.00013511,0.00000792,0.00003581,-0.00008267,-0.00001337,0.00003844,0.
 00005498,0.00004533,-0.00002865,0.00001020,-0.00001094,-0.00002499,0.0
 0002350,0.00000353,0.00001193,-0.00000470,0.00000021,-0.00002005,0.000
 00018,0.00000223,0.00002727,0.00001599,-0.00000097,-0.00003374,-0.0000
 2001,0.00000482,0.00002817,-0.00007364,-0.00002328,-0.00000796,0.00001
 944,0.00000879,-0.00001243,0.00001647,-0.00000770,-0.00004439,-0.00007
 893,0.00005131,-0.00003147,-0.00004661,-0.00008054,0.00001544,0.000013
 25,-0.00001114,-0.00001321,-0.00000798,-0.00000045,0.00001454,0.000017
 02,0.00001057,0.00000777,-0.00000533,-0.00000241,-0.00001770,-0.000012
 07,0.00000309,0.00000972,0.00001864,-0.00000702,0.00001299,-0.00000188
 ,-0.00001125,-0.00000041,0.00000025,-0.00000118,-0.00000707,0.00000297
 ,0.00000073,-0.00000197,0.00000144,0.00000513,-0.00000612,-0.00000248,
 0.00000503,-0.00029686,-0.00065886,-0.00013235,-0.00116443,0.00003946,
 -0.00058865,0.00125736,0.00199172,0.00015170,-0.00240262,-0.00313361,0
 .00414519,0.09715179,0.09359187,-0.20328234,0.00061736,-0.00032255,0.0
 0075900,-0.00130185,0.00015952,0.00134723,-0.10478856,-0.10435177,0.21
 789028,-0.00000881,0.00004227,0.00000357,0.00009304,0.00025913,-0.0000
 1384,-0.00028852,-0.00008773,0.00001658,0.00007753,0.00008246,-0.00000
 420,0.00015383,-0.00003848,-0.00000155,-0.00005732,0.00000712,0.000005
 18,-0.00001175,-0.00000112,-0.00001394,0.00000913,-0.00001209,0.000003
 17,0.00002090,0.00000828,-0.00000161,-0.00002111,0.00003700,-0.0000020
 3,-0.00002192,0.00001515,0.00000146,0.00009000,0.00002560,-0.00000297,
 -0.00003750,0.00006990,0.00001030,0.00001716,-0.00044392,0.00001366,0.
 00000832,0.00000188,-0.00000128,0.00000894,0.00000093,0.00000012,0.000
 01692,0.00001554,-0.00000794,0.00001489,0.00000718,0.00001524,-0.00000
 501,-0.00000111,0.00000139,0.00000152,0.00000007,-0.00000007,-0.000004
 11,-0.00000092,-0.00000103,-0.00000311,0.00000572,-0.00000023,-0.00004
 304,0.00000075,0.00000309,0.00004981,-0.00030673,-0.00002083,0.0000142
 7,-0.00011018,-0.00001142,-0.00000312,0.00000657,-0.00000038,-0.000020
 34,0.00002786,-0.00000041,0.00000089,0.00003485,0.00002215,0.00000763,
 0.00003408,-0.00000736,-0.00325345,0.00342439,-0.00021219,0.00156464,0
 .00102244,0.00008989,-0.00447951,-0.00638183,-0.00067143,-0.00834074,0
 .03513318,-0.00044793,-0.06855363,0.06998926,-0.00101821,0.00134512,-0
 .00050981,-0.00047660,0.00122383,-0.00045713,0.00076281,0.00421823,-0.
 01484419,-0.00198789,0.07448677,-0.00017355,0.00002647,0.00001581,0.00
 001551,-0.00038907,0.00001391,0.00012080,0.00024670,-0.00001593,-0.000
 05515,-0.00020790,0.00000701,-0.00007620,-0.00011813,0.00001219,0.0001
 2640,0.00006084,-0.00000852,-0.00002362,0.00000286,-0.00001219,0.00001
 899,-0.00001221,0.00000299,0.00001974,-0.00003563,-0.00000616,0.000007
 11,-0.00003619,0.00000703,0.00003730,-0.00002029,-0.00000768,-0.000092
 99,-0.00002513,0.00001205,0.00007035,0.00000971,-0.00001674,-0.0000051
 0,0.00070624,-0.00002789,-0.00001224,-0.00001409,-0.00000721,-0.000010
 98,-0.00001379,0.00001083,0.00003191,0.00001405,-0.00002483,0.00003128
 ,0.00000683,0.00002849,-0.00000990,-0.00000781,0.00000543,-0.00001620,
 0.00000667,0.00000046,-0.00000940,-0.00000803,-0.00000373,-0.00000537,
 0.00000448,0.00000082,0.00004708,0.00000666,-0.00000161,-0.00007255,0.
 00018788,0.00001059,-0.00002720,0.00013928,0.00001157,0.00000261,-0.00
 000391,0.00000038,0.00003180,-0.00003857,0.00000197,0.00000164,-0.0000
 4321,-0.00002582,-0.00000606,-0.00004277,0.00000808,0.00166081,-0.0004
 3879,0.00011206,0.00186956,-0.00067061,0.00017274,-0.00225385,0.000708
 46,-0.00017187,-0.00168238,-0.00011716,-0.00013073,0.07031176,-0.28920
 212,0.00464925,0.00055042,0.00028312,0.00042042,0.00063018,0.00029994,
 -0.00027500,0.00361430,-0.01316795,-0.00078563,-0.07783051,0.31449912,
 0.00000019,0.00000438,0.00000519,0.00000830,0.00002626,0.00002767,-0.0
 0001837,-0.00001353,-0.00001268,0.00000597,0.00001385,0.00000081,0.000
 01221,0.00000500,0.00002748,-0.00001170,-0.00001268,-0.00000216,0.0000
 0757,0.00001693,-0.00002312,-0.00000074,-0.00000216,0.00000858,0.00000
 169,0.00000178,-0.00000294,-0.00000205,0.00000374,0.00000044,-0.000002
 13,0.00000150,0.00000138,0.00000722,0.00000167,-0.00000371,-0.00000359
 ,0.00000816,-0.00000297,0.00000265,-0.00004915,-0.00004046,0.00000153,
 0.00000430,0.00000088,0.00000137,-0.00000149,0.00000076,-0.00001815,-0
 .00001319,0.00000592,0.00000653,-0.00000204,0.00000483,-0.00000214,-0.
 00000043,-0.00000016,0.00000119,-0.00000005,0.00000076,0.00000289,0.00
 000092,-0.00000031,-0.00000027,0.00000061,-0.00000054,-0.00000368,0.00
 000049,0.00000039,0.00000674,-0.00003450,-0.00000242,0.00000038,-0.000
 01019,0.00000052,-0.00000034,0.00000065,0.00000032,-0.00000165,0.00000
 258,-0.00000041,0.00000020,0.00000302,0.00000147,0.00000114,0.00000354
 ,-0.00000129,-0.00037106,0.00035517,0.00000955,0.00002917,0.00012985,0
 .00059219,-0.00055015,-0.00060675,0.00065767,-0.00072529,0.00388228,-0
 .00133073,-0.00107980,0.00464773,-0.05044738,0.00022649,0.00032279,-0.
 00002198,0.00007705,-0.00040244,0.00007639,-0.00882890,0.02375660,0.00
 069341,0.00198360,-0.00516078,0.04727485,-0.00002612,0.00000601,-0.000
 00038,-0.00004497,-0.00006739,0.00002450,0.00012468,0.00000676,-0.0000
 2009,-0.00003372,-0.00000909,0.00000670,-0.00009763,0.00001740,0.00001
 095,0.00006329,-0.00000688,-0.00001398,-0.00000733,-0.00001109,0.00003
 513,-0.00001191,0.00000826,-0.00001035,0.00000550,0.00000193,0.0000003
 3,-0.00000048,-0.00000294,0.00000529,0.00000230,0.00000036,-0.00000238
 ,-0.00001156,-0.00000567,0.00000662,0.00000130,0.00002425,0.00000484,0
 .00002223,0.00011246,-0.00002666,-0.00000617,0.00000282,0.00000257,-0.
 00001358,0.00000669,-0.00000204,0.00000075,-0.00000813,0.00002124,0.00
 000107,-0.00001853,-0.00003856,0.00000710,0.00000860,-0.00000714,-0.00
 000969,-0.00000257,0.00000527,0.00000458,0.00000251,0.00000395,0.00000
 088,0.00000071,-0.00000239,0.00000545,0.00000516,0.00000554,-0.0000073
 8,-0.00002233,-0.00001551,-0.00000040,0.00000849,-0.00001438,-0.000000
 27,0.00000005,-0.00000180,0.00000273,-0.00000256,0.00000258,0.00000054
 ,-0.00000065,0.00000567,-0.00000256,-0.00000467,0.00000434,0.00048143,
 0.00050186,0.00044716,0.00117707,0.00064634,0.00130481,-0.00044965,-0.
 00198723,-0.00066893,-0.01025403,-0.01502191,-0.03046559,-0.06923647,-
 0.03383052,-0.06530673,-0.00677029,0.00111859,-0.00036869,0.00149057,-
 0.00053213,0.00055582,0.00420533,0.00793163,0.01296122,0.00172963,0.00
 316366,0.00923591,0.07765777,0.00009456,-0.00001722,-0.00002356,-0.000
 02695,0.00018721,-0.00000014,-0.00001465,-0.00011428,0.00000873,0.0000
 1635,0.00009512,-0.00000202,0.00000879,0.00007562,-0.00003004,-0.00005
 818,-0.00002619,0.00000816,0.00000748,-0.00001297,0.00001817,-0.000010
 95,0.00000655,-0.00000948,-0.00001485,0.00001682,0.00000865,-0.0000006
 1,0.00001188,-0.00000630,-0.00001650,0.00000712,0.00000662,0.00003885,
 0.00001248,-0.00000948,-0.00003591,-0.00000768,0.00002137,0.00000028,-
 0.00031868,0.00001445,0.00000684,0.00000587,0.00000272,0.00000489,0.00
 001018,-0.00000575,-0.00000429,0.00000286,0.00001347,-0.00002349,0.000
 00057,-0.00002071,0.00000782,0.00000408,-0.00000158,0.00000850,-0.0000
 0257,-0.00000215,0.00000365,0.00000493,0.00000208,0.00000336,-0.000002
 41,-0.00000104,-0.00002035,-0.00000609,0.00000127,0.00002644,-0.000049
 58,-0.00000655,0.00000951,-0.00004664,-0.00000903,-0.00000116,0.000001
 44,-0.00000089,-0.00001079,0.00001322,0.00000032,-0.00000011,0.0000151
 6,0.00001119,0.00000093,0.00001377,-0.00000093,-0.00041639,0.00016953,
 -0.00008807,-0.00007804,0.00062922,0.00017746,0.00062346,-0.00019513,0
 .00075022,0.00018872,0.00119271,0.00279996,-0.03477199,-0.09955938,-0.
 10215588,0.00073607,0.00052804,0.00047232,-0.00042460,-0.00001547,-0.0
 0011847,0.00540937,0.00680673,0.01352382,-0.00922583,-0.01259596,-0.02
 688441,0.03795973,0.10315914,-0.00011565,0.00004346,0.00000271,0.00012
 492,-0.00004488,0.00002868,-0.00022830,0.00011454,-0.00002666,0.000048
 24,-0.00008145,0.00000986,0.00014656,-0.00013009,0.00005770,-0.0000209
 3,0.00004043,-0.00000454,-0.00001313,0.00002437,-0.00010291,0.00002500
 ,-0.00002205,0.00002981,0.00002521,-0.00002142,0.00000127,-0.00001135,
 0.00000260,0.00000341,0.00001994,0.00000019,-0.00000225,-0.00003099,-0
 .00001641,0.00000485,0.00003224,0.00002658,0.00000246,-0.00002151,0.00
 009683,-0.00005387,0.00000289,-0.00000296,-0.00000322,0.00001119,-0.00
 002600,0.00001282,0.00000784,0.00001679,-0.00003567,0.00004389,0.00003
 734,0.00008214,-0.00001997,-0.00002133,0.00001360,0.00000565,0.0000057
 1,-0.00000978,-0.00000734,-0.00000285,-0.00000469,-0.00000728,0.000005
 49,-0.00000303,0.00001816,0.00001363,0.00000184,-0.00001168,-0.0000252
 4,-0.00001323,-0.00001560,0.00001070,-0.00001472,0.00000013,-0.0000000
 8,-0.00000164,0.00001113,-0.00000597,0.00000409,0.00000421,-0.00000052
 ,0.00000631,0.00000243,-0.00000353,0.00000360,0.00043371,0.00078327,-0
 .00000589,0.00247918,0.00081674,0.00063755,-0.00144560,-0.00244990,-0.
 00020583,-0.00093004,-0.00021494,-0.00197355,-0.06683514,-0.10060725,-
 0.24521806,-0.00049522,0.00008047,0.00156998,-0.00046190,0.00019081,0.
 00071228,-0.00705921,-0.01134682,-0.02095643,0.00197313,0.00117824,0.0
 0250182,0.07231518,0.11153550,0.26294917\\-0.00000021,-0.00000204,-0.0
 0000221,0.00000148,-0.00000947,0.00000218,-0.00000266,0.00000401,-0.00
 000251,-0.00000439,0.00000175,-0.00000033,-0.00000359,-0.00000018,0.00
 000250,0.00000181,0.00000540,-0.00000104,0.00000010,0.00000456,0.00000
 343,-0.00000005,0.00000788,0.00000383,-0.00000346,-0.00000212,-0.00000
 243,-0.00000534,-0.00000586,-0.00000639,-0.00000372,-0.00000602,-0.000
 00335,0.00000038,-0.00000446,-0.00000356,0.00000012,-0.00001104,-0.000
 00348,-0.00000212,0.00000654,-0.00000259,-0.00000262,0.00000452,0.0000
 0114,-0.00000158,0.00000346,0.00000278,0.00000205,0.00000567,0.0000039
 6,0.00000061,0.00000628,0.00000264,-0.00000042,0.00000671,0.00000411,0
 .00000054,0.00000936,0.00000471,-0.00000185,0.00000803,0.00000274,-0.0
 0000391,-0.00000179,-0.00000254,0.,-0.00000651,-0.00000309,0.00000006,
 0.00000487,0.00000008,-0.00000747,-0.00000637,-0.00000558,-0.00000357,
 -0.00000753,-0.00000516,-0.00000250,-0.00000738,-0.00000584,-0.0000082
 1,-0.00000235,-0.00000575,-0.00000857,-0.00000397,-0.00000400,0.000002
 32,-0.00000648,-0.00000051,0.00000732,0.00000181,0.00000417,0.00000322
 ,0.00000010,-0.00000035,0.00000660,-0.00000455,0.00000550,0.00000670,0
 .00000180,0.00000182,0.00000788,-0.00000115,0.00000321,0.00000668,-0.0
 0000078,0.00000029,0.00000553,0.00000133,0.00000437,0.00000793,0.00000
 296,0.00000429,0.00000491,0.00000304,0.00000297\\\@


 WHEN YOU'VE SEEN ONE NUCLEAR WAR YOU'VE SEEN THEM ALL.
 Job cpu time:       0 days  7 hours 53 minutes 20.8 seconds.
 Elapsed time:       0 days  7 hours 53 minutes 21.4 seconds.
 File lengths (MBytes):  RWF=   1406 Int=      0 D2E=      0 Chk=     40 Scr=      1
 Normal termination of Gaussian 16 at Mon Mar 22 22:28:39 2021.
