 Entering Gaussian System, Link 0=/apps/gaussian/g16c01/g16/g16
 Initial command:
 /apps/gaussian/g16c01/g16/l1.exe "/jobfs/21662014.gadi-pbs/Gau-537504.inp" -scrdir="/jobfs/21662014.gadi-pbs/"
 Entering Link 1 = /apps/gaussian/g16c01/g16/l1.exe PID=    537505.
  
 Copyright (c) 1988-2019, Gaussian, Inc.  All Rights Reserved.
  
 This is part of the Gaussian(R) 16 program.  It is based on
 the Gaussian(R) 09 system (copyright 2009, Gaussian, Inc.),
 the Gaussian(R) 03 system (copyright 2003, Gaussian, Inc.),
 the Gaussian(R) 98 system (copyright 1998, Gaussian, Inc.),
 the Gaussian(R) 94 system (copyright 1995, Gaussian, Inc.),
 the Gaussian 92(TM) system (copyright 1992, Gaussian, Inc.),
 the Gaussian 90(TM) system (copyright 1990, Gaussian, Inc.),
 the Gaussian 88(TM) system (copyright 1988, Gaussian, Inc.),
 the Gaussian 86(TM) system (copyright 1986, Carnegie Mellon
 University), and the Gaussian 82(TM) system (copyright 1983,
 Carnegie Mellon University). Gaussian is a federally registered
 trademark of Gaussian, Inc.
  
 This software contains proprietary and confidential information,
 including trade secrets, belonging to Gaussian, Inc.
  
 This software is provided under written license and may be
 used, copied, transmitted, or stored only in accord with that
 written license.
  
 The following legend is applicable only to US Government
 contracts under FAR:
  
                    RESTRICTED RIGHTS LEGEND
  
 Use, reproduction and disclosure by the US Government is
 subject to restrictions as set forth in subparagraphs (a)
 and (c) of the Commercial Computer Software - Restricted
 Rights clause in FAR 52.227-19.
  
 Gaussian, Inc.
 340 Quinnipiac St., Bldg. 40, Wallingford CT 06492
  
  
 ---------------------------------------------------------------
 Warning -- This program may not be used in any manner that
 competes with the business of Gaussian, Inc. or will provide
 assistance to any competitor of Gaussian, Inc.  The licensee
 of this program is prohibited from giving any competitor of
 Gaussian, Inc. access to this program.  By using this program,
 the user acknowledges that Gaussian, Inc. is engaged in the
 business of creating and licensing software in the field of
 computational chemistry and represents and warrants to the
 licensee that it is not a competitor of Gaussian, Inc. and that
 it will not use this program in any manner prohibited above.
 ---------------------------------------------------------------
  

 Cite this work as:
 Gaussian 16, Revision C.01,
 M. J. Frisch, G. W. Trucks, H. B. Schlegel, G. E. Scuseria, 
 M. A. Robb, J. R. Cheeseman, G. Scalmani, V. Barone, 
 G. A. Petersson, H. Nakatsuji, X. Li, M. Caricato, A. V. Marenich, 
 J. Bloino, B. G. Janesko, R. Gomperts, B. Mennucci, H. P. Hratchian, 
 J. V. Ortiz, A. F. Izmaylov, J. L. Sonnenberg, D. Williams-Young, 
 F. Ding, F. Lipparini, F. Egidi, J. Goings, B. Peng, A. Petrone, 
 T. Henderson, D. Ranasinghe, V. G. Zakrzewski, J. Gao, N. Rega, 
 G. Zheng, W. Liang, M. Hada, M. Ehara, K. Toyota, R. Fukuda, 
 J. Hasegawa, M. Ishida, T. Nakajima, Y. Honda, O. Kitao, H. Nakai, 
 T. Vreven, K. Throssell, J. A. Montgomery, Jr., J. E. Peralta, 
 F. Ogliaro, M. J. Bearpark, J. J. Heyd, E. N. Brothers, K. N. Kudin, 
 V. N. Staroverov, T. A. Keith, R. Kobayashi, J. Normand, 
 K. Raghavachari, A. P. Rendell, J. C. Burant, S. S. Iyengar, 
 J. Tomasi, M. Cossi, J. M. Millam, M. Klene, C. Adamo, R. Cammi, 
 J. W. Ochterski, R. L. Martin, K. Morokuma, O. Farkas, 
 J. B. Foresman, and D. J. Fox, Gaussian, Inc., Wallingford CT, 2019.
 
 ******************************************
 Gaussian 16:  ES64L-G16RevC.01  3-Jul-2019
                28-Apr-2021 
 ******************************************
 %NprocShared=32
 Will use up to   32 processors via shared memory.
 %Mem=1194000MB
 %chk=NM3CA_carboxy.DSDPBEP86_AUG-cc-PVTZ.chk
 ----------------------------------------------------------------------
 # DSDPBEP86/AUG-cc-PVTZ SCF=Tight INT(grid=ultrafine) Pop=NBO MaxDisk=
 1400000MB
 ----------------------------------------------------------------------
 1/38=1,172=1/1;
 2/12=2,17=6,18=5,40=1/2;
 3/5=16,6=1,7=10,11=9,25=1,30=1,74=-77,75=-5/1,2,3;
 4//1;
 5/5=2,32=2,38=5/2;
 8/10=1/1;
 9/16=-3/6;
 6/7=2,8=2,9=2,10=2,40=1/1,7;
 99/5=1,9=1/99;
 -----------------------------------
 NM3CA_carboxy.DSDPBEP86_AUG-cc-PVTZ
 -----------------------------------
 Symbolic Z-matrix:
 Charge = -1 Multiplicity = 1
 C                    -6.02187   1.15112   0.26638 
 N                    -4.74734   0.60379   0.1578 
 C                    -3.59901   1.31279   0.03597 
 O                    -3.46571   2.51965  -0.01504 
 O                    -2.54903   0.46462  -0.03303 
 C                    -1.27213   1.07453  -0.14755 
 C                    -0.24712  -0.04009  -0.21097 
 C                     1.16944   0.51496  -0.32796 
 C                    -6.27815   2.51744   0.43687 
 C                    -7.59488   2.94944   0.55973 
 C                    -8.67114   2.07555   0.51907 
 C                    -8.3853    0.7257    0.34528 
 C                    -7.09793   0.24467   0.21393 
 H                    -4.66052  -0.45332   0.23417 
 H                    -1.09828   1.72936   0.7124 
 H                    -1.24042   1.69959  -1.0456 
 H                    -0.48074  -0.68334  -1.0634 
 H                    -0.34737  -0.66021   0.68353 
 H                     1.28324   1.12477  -1.2286 
 H                     1.90752  -0.28807  -0.37622 
 H                     1.42043   1.14482   0.53006 
 H                    -5.46169   3.22296   0.47456 
 Cl                   -9.72339  -0.40072   0.28519 
 H                    -6.90908  -0.81825   0.04745 
 C                    -7.84663   4.42054   0.68842 
 H                    -9.69111   2.42098   0.62028 
 F                    -7.74833   5.06078  -0.49442 
 F                    -9.07648   4.69599   1.16115 
 F                    -6.97302   5.02403   1.51163 
 O                    -6.35897  -2.74724  -0.44987 
 O                    -4.46682  -2.02708   0.5122 
 C                    -5.25209  -2.92089   0.08782 
 C                    -4.7892   -4.38014   0.26625 
 C                    -3.38807  -4.53465   0.8427 
 H                    -4.87202  -4.8647   -0.71152 
 H                    -5.53169  -4.87294   0.90274 
 H                    -2.65095  -4.04717   0.20173 
 H                    -3.11243  -5.58901   0.95081 
 H                    -3.31908  -4.05394   1.81968 
 
                          Input orientation:                          
 ---------------------------------------------------------------------
 Center     Atomic      Atomic             Coordinates (Angstroms)
 Number     Number       Type             X           Y           Z
 ---------------------------------------------------------------------
      1          6           0       -6.021868    1.151123    0.266376
      2          7           0       -4.747343    0.603786    0.157800
      3          6           0       -3.599013    1.312787    0.035967
      4          8           0       -3.465714    2.519647   -0.015037
      5          8           0       -2.549028    0.464622   -0.033030
      6          6           0       -1.272132    1.074531   -0.147547
      7          6           0       -0.247123   -0.040090   -0.210971
      8          6           0        1.169441    0.514955   -0.327959
      9          6           0       -6.278155    2.517445    0.436867
     10          6           0       -7.594882    2.949441    0.559731
     11          6           0       -8.671141    2.075553    0.519069
     12          6           0       -8.385303    0.725699    0.345283
     13          6           0       -7.097926    0.244672    0.213933
     14          1           0       -4.660515   -0.453322    0.234170
     15          1           0       -1.098281    1.729356    0.712399
     16          1           0       -1.240415    1.699593   -1.045599
     17          1           0       -0.480735   -0.683342   -1.063397
     18          1           0       -0.347370   -0.660213    0.683525
     19          1           0        1.283245    1.124769   -1.228596
     20          1           0        1.907521   -0.288069   -0.376216
     21          1           0        1.420428    1.144815    0.530063
     22          1           0       -5.461692    3.222958    0.474555
     23         17           0       -9.723395   -0.400725    0.285192
     24          1           0       -6.909080   -0.818253    0.047453
     25          6           0       -7.846633    4.420541    0.688415
     26          1           0       -9.691114    2.420977    0.620283
     27          9           0       -7.748325    5.060784   -0.494420
     28          9           0       -9.076477    4.695993    1.161152
     29          9           0       -6.973016    5.024026    1.511628
     30          8           0       -6.358974   -2.747237   -0.449868
     31          8           0       -4.466818   -2.027080    0.512203
     32          6           0       -5.252086   -2.920888    0.087822
     33          6           0       -4.789205   -4.380136    0.266254
     34          6           0       -3.388071   -4.534649    0.842695
     35          1           0       -4.872023   -4.864702   -0.711521
     36          1           0       -5.531692   -4.872939    0.902737
     37          1           0       -2.650949   -4.047174    0.201735
     38          1           0       -3.112429   -5.589010    0.950805
     39          1           0       -3.319082   -4.053936    1.819679
 ---------------------------------------------------------------------
                    Distance matrix (angstroms):
                    1          2          3          4          5
     1  C    0.000000
     2  N    1.391324   0.000000
     3  C    2.439150   1.355060   0.000000
     4  O    2.913069   2.311486   1.215270   0.000000
     5  O    3.552682   2.210966   1.351522   2.250281   0.000000
     6  C    4.768353   3.520217   2.346234   2.630156   1.419707
     7  C    5.915618   4.560981   3.623040   4.117035   2.363295
     8  C    7.243816   5.937355   4.848415   5.059780   3.730486
     9  C    1.400566   2.466445   2.964747   2.848516   4.282671
    10  C    2.407151   3.711081   4.349706   4.191075   5.655646
    11  C    2.817281   4.206282   5.151863   5.251567   6.354540
    12  C    2.402714   3.644827   4.832072   5.248850   5.854347
    13  C    1.407943   2.378519   3.662640   4.291957   4.560903
    14  H    2.104415   1.063414   2.070076   3.213752   2.317843
    15  H    4.977450   3.858775   2.623881   2.599705   2.063949
    16  H    4.988426   3.866200   2.623430   2.585828   2.064684
    17  H    5.986461   4.620818   3.862225   4.502032   2.580177
    18  H    5.971171   4.608019   3.858139   4.508167   2.574102
    19  H    7.456562   6.209791   5.046871   5.096177   4.068352
    20  H    8.084517   6.735562   5.749308   6.073333   4.532676
    21  H    7.446968   6.202635   5.046496   5.105064   4.066487
    22  H    2.156301   2.733256   2.703829   2.172159   4.043473
    23  Cl   4.013712   5.078028   6.364456   6.912111   7.233369
    24  H    2.171063   2.589880   3.936751   4.796066   4.545580
    25  C    3.767888   4.945177   5.303406   4.827079   6.650895
    26  H    3.898864   5.287433   6.219583   6.258511   7.433945
    27  F    4.341073   5.412589   5.616546   5.002794   6.954874
    28  F    4.764174   6.041049   6.535652   6.131929   7.870080
    29  F    4.177883   5.130788   5.228267   4.572066   6.538027
    30  O    3.977921   3.767754   4.933276   6.024956   5.000548
    31  O    3.546771   2.669410   3.483475   4.685394   3.191203
    32  C    4.147978   3.561319   4.545255   5.727226   4.333913
    33  C    5.666947   4.985278   5.820564   7.031199   5.345994
    34  C    6.292618   5.359125   5.906590   7.106675   5.144278
    35  H    6.202304   5.538558   6.351429   7.549265   5.853063
    36  H    6.077381   5.582531   6.538329   7.730518   6.185588
    37  H    6.195931   5.101786   5.445684   6.620722   4.519049
    38  H    7.373105   6.453877   6.979147   8.173615   6.158881
    39  H    6.067162   5.147441   5.662306   6.826396   4.943974
                    6          7          8          9         10
     6  C    0.000000
     7  C    1.515601   0.000000
     8  C    2.511364   1.525914   0.000000
     9  C    5.242500   6.582858   7.749942   0.000000
    10  C    6.632699   7.969996   9.139369   1.391218   0.000000
    11  C    7.496116   8.716249   9.999499   2.434832   1.386963
    12  C    7.138751   8.193035   9.580751   2.767456   2.369764
    13  C    5.895694   6.869871   8.289514   2.426359   2.771699
    14  H    3.736467   4.454991   5.936492   3.388702   4.505030
    15  H    1.094772   2.169797   2.774829   5.246723   6.611939
    16  H    1.094627   2.170191   2.779529   5.314641   6.672215
    17  H    2.134293   1.093150   2.167917   6.790133   8.151241
    18  H    2.134292   1.093035   2.169064   6.732945   8.097614
    19  H    2.775093   2.175886   1.093604   7.866898   9.238435
    20  H    3.466866   2.175153   1.091760   8.691220  10.082318
    21  H    2.777404   2.175742   1.093581   7.820548   9.194203
    22  H    4.749228   6.189439   7.207582   1.079713   2.152339
    23  Cl   8.589964   9.496103  10.948438   4.517566   3.978637
    24  H    5.949440   6.712227   8.196394   3.417103   3.863712
    25  C    7.424196   8.857691   9.878067   2.478947   1.498024
    26  H    8.560475   9.794733  11.067237   3.419245   2.162667
    27  F    7.612596   9.075643  10.010935   3.081765   2.364858
    28  F    8.702613  10.112897  11.165902   3.619567   2.367968
    29  F    7.131020   8.593617   9.487645   2.814408   2.365741
    30  O    6.369715   6.688829   8.205716   5.339448   5.915987
    31  O    4.501253   4.719845   6.239810   4.892782   5.878163
    32  C    5.644360   5.782554   7.294786   5.545278   6.338150
    33  C    6.503417   6.300338   7.734369   7.058520   7.853703
    34  C    6.076239   5.583621   6.902162   7.632124   8.590048
    35  H    6.967909   6.702024   8.098587   7.602111   8.372029
    36  H    7.390490   7.247306   8.686150   7.442581   8.097162
    37  H    5.315542   4.690994   5.974025   7.503740   8.574570
    38  H    6.999704   6.352183   7.564922   8.717830   9.651449
    39  H    5.861839   5.447149   6.755291   7.338347   8.301640
                   11         12         13         14         15
    11  C    0.000000
    12  C    1.390688   0.000000
    13  C    2.433155   1.380572   0.000000
    14  H    4.749894   3.908513   2.535463   0.000000
    15  H    7.583235   7.364970   6.200685   4.205033   0.000000
    16  H    7.602975   7.343871   6.165521   4.239097   1.763986
    17  H    8.786265   8.151807   6.802940   4.382596   3.058745
    18  H    8.763368   8.163548   6.827103   4.341422   2.504943
    19  H   10.151262   9.803936   8.549823   6.321261   3.131237
    20  H   10.876412  10.367763   9.040473   6.598408   3.780202
    21  H   10.134404   9.816422   8.571612   6.294399   2.592070
    22  H    3.408677   3.847143   3.408133   3.770239   4.618092
    23  Cl   2.700721   1.750124   2.704571   5.063410   8.894512
    24  H    3.420731   2.156785   1.092331   2.285624   6.379487
    25  C    2.491477   3.749635   4.268909   5.840568   7.265213
    26  H    1.081622   2.157484   3.409700   5.806686   8.621114
    27  F    3.284867   4.461368   4.911183   6.361665   7.535112
    28  F    2.728236   4.111764   4.962474   6.846565   8.523727
    29  F    3.544333   4.672316   4.953972   6.081192   6.782782
    30  O    5.435464   4.098726   3.152491   2.935083   7.004687
    31  O    5.874349   4.791677   3.488918   1.609824   5.049548
    32  C    6.069624   4.814657   3.666578   2.541703   6.266495
    33  C    7.537193   6.245616   5.169312   3.929053   7.151773
    34  C    8.468196   7.272620   6.082785   4.318177   6.670673
    35  H    8.007171   6.686744   5.649496   4.516562   7.729830
    36  H    7.634454   6.308613   5.396062   4.554003   7.954977
    37  H    8.592508   7.462153   6.180266   4.117666   6.003320
    38  H    9.477933   8.248964   7.103451   5.411602   7.594216
    39  H    8.240556   7.119364   5.944419   4.156646   6.293210
                   16         17         18         19         20
    16  H    0.000000
    17  H    2.501161   0.000000
    18  H    3.058772   1.752158   0.000000
    19  H    2.594758   2.531438   3.082414   0.000000
    20  H    3.782641   2.516392   2.519143   1.764194   0.000000
    21  H    3.141747   3.081508   2.531163   1.764115   1.764018
    22  H    4.738216   6.514170   6.424871   7.266175   8.207096
    23  Cl   8.839869   9.344802   9.388069  11.214491  11.650252
    24  H    6.298260   6.525014   6.594361   8.515739   8.842683
    25  C    7.352040   9.130987   9.058313   9.894025  10.883381
    26  H    8.643487   9.864210   9.838865  11.204243  11.952417
    27  F    7.345359   9.280980   9.428229   9.879296  11.039002
    28  F    8.674793  10.381360  10.252530  11.215541  12.159465
    29  F    7.103097   9.019673   8.769008   9.533041  10.518852
    30  O    6.806529   6.260173   6.463716   8.602462   8.624840
    31  O    5.169576   4.491882   4.343677   6.784376   6.666757
    32  C    6.223102   5.394229   5.433392   7.798131   7.642450
    33  C    7.160864   5.830709   5.808773   8.331458   7.874257
    34  C    6.858852   5.188290   4.927722   7.624988   6.896556
    35  H    7.509337   6.073795   6.332169   8.603978   8.186587
    36  H    8.087599   6.850589   6.683734   9.325151   8.831685
    37  H    6.047378   4.198303   4.124330   6.653775   5.936712
    38  H    7.785487   5.920169   5.657741   8.315442   7.420301
    39  H    6.755278   5.265856   4.651803   7.569173   6.805960
                   21         22         23         24         25
    21  H    0.000000
    22  H    7.189251   0.000000
    23  Cl  11.253152   5.597235   0.000000
    24  H    8.571303   4.313784   2.855034   0.000000
    25  C    9.830253   2.677291   5.189357   5.360485   0.000000
    26  H   11.184949   4.307251   2.841713   4.308185   2.721214
    27  F   10.022495   3.089532   5.859759   5.963308   1.348583
    28  F   11.099285   3.963321   5.211751   6.028669   1.346056
    29  F    9.298475   2.569721   6.204567   6.023298   1.343533
    30  O    8.753709   6.107610   4.167225   2.066621   7.408499
    31  O    6.687369   5.343602   5.507101   2.764398   7.281897
    32  C    7.826108   6.159573   5.136417   2.677374   7.809543
    33  C    8.315902   7.635618   6.338952   4.150754   9.326201
    34  C    7.448202   8.038401   7.585280   5.180880  10.004900
    35  H    8.789241   8.195409   6.667559   4.593407   9.850069
    36  H    9.202403   8.107514   6.160555   4.366828   9.579857
    37  H    6.606108   7.799328   7.957577   5.346158   9.946566
    38  H    8.128236   9.132176   8.430078   6.163662  11.075769
    39  H    7.152138   7.704111   7.530991   5.147671   9.674464
                   26         27         28         29         30
    26  H    0.000000
    27  F    3.462018   0.000000
    28  F    2.417853   2.153596   0.000000
    29  F    3.867611   2.150973   2.157542   0.000000
    30  O    6.241700   7.930793   8.085906   8.038473   0.000000
    31  O    6.862227   7.875239   8.177395   7.549700   2.241530
    32  C    6.965917   8.383156   8.590394   8.252907   1.242765
    33  C    8.391019   9.923004  10.077583   9.734385   2.375577
    34  C    9.389279  10.624125  10.847310  10.230717   3.700247
    35  H    8.836202  10.336127  10.610901  10.351014   2.600604
    36  H    8.401297  10.273479  10.207681  10.019885   2.651895
    37  H    9.569539  10.460534  10.892697  10.133249   3.982947
    38  H   10.370547  11.704629  11.890980  11.307307   4.536256
    39  H    9.163288  10.394777  10.494881   9.790584   4.012387
                   31         32         33         34         35
    31  O    0.000000
    32  C    1.263186   0.000000
    33  C    2.387739   1.541267   0.000000
    34  C    2.749695   2.578491   1.522936   0.000000
    35  H    3.116695   2.135839   1.094398   2.174083   0.000000
    36  H    3.063558   2.133723   1.095104   2.170981   1.743864
    37  H    2.733962   2.836796   2.164986   1.091701   2.536839
    38  H    3.835895   3.527287   2.177513   1.095146   2.526682
    39  H    2.671131   2.831896   2.163515   1.091027   3.078301
                   36         37         38         39
    36  H    0.000000
    37  H    3.077657   0.000000
    38  H    2.523470   1.775199   0.000000
    39  H    2.531243   1.750483   1.775978   0.000000
 Stoichiometry    C14H16ClF3NO4(1-)
 Framework group  C1[X(C14H16ClF3NO4)]
 Deg. of freedom   111
 Full point group                 C1      NOp   1
 Largest Abelian subgroup         C1      NOp   1
 Largest concise Abelian subgroup C1      NOp   1
                         Standard orientation:                         
 ---------------------------------------------------------------------
 Center     Atomic      Atomic             Coordinates (Angstroms)
 Number     Number       Type             X           Y           Z
 ---------------------------------------------------------------------
      1          6           0        0.668287   -0.038198   -0.049001
      2          7           0       -0.684473   -0.363226   -0.062277
      3          6           0       -1.186664   -1.620294   -0.123696
      4          8           0       -0.575517   -2.668526   -0.191459
      5          8           0       -2.537099   -1.569151   -0.105803
      6          6           0       -3.200772   -2.823426   -0.149404
      7          6           0       -4.690070   -2.543636   -0.121932
      8          6           0       -5.498313   -3.837421   -0.157693
      9          6           0        1.700515   -0.976619    0.075321
     10          6           0        3.019029   -0.533600    0.102536
     11          6           0        3.354521    0.808994    0.010061
     12          6           0        2.308296    1.716488   -0.115963
     13          6           0        0.983395    1.330120   -0.152525
     14          1           0       -1.380442    0.434018    0.042024
     15          1           0       -2.892491   -3.433172    0.705990
     16          1           0       -2.911201   -3.363340   -1.056514
     17          1           0       -4.943181   -1.907300   -0.973982
     18          1           0       -4.922147   -1.966820    0.777039
     19          1           0       -5.283631   -4.414207   -1.061684
     20          1           0       -6.571133   -3.635675   -0.140484
     21          1           0       -5.266725   -4.473277    0.701361
     22          1           0        1.471887   -2.029103    0.151395
     23         17           0        2.700926    3.417514   -0.239602
     24          1           0        0.186590    2.065704   -0.283696
     25          6           0        4.107506   -1.559652    0.183223
     26          1           0        4.382716    1.143654    0.036939
     27          9           0        4.334368   -2.157825   -1.003958
     28          9           0        5.285847   -1.035296    0.568490
     29          9           0        3.823418   -2.547092    1.048867
     30          8           0       -1.437922    3.272414   -0.702902
     31          8           0       -2.457350    1.586054    0.365468
     32          6           0       -2.391340    2.762283   -0.090346
     33          6           0       -3.621479    3.659508    0.148924
     34          6           0       -4.796121    2.959112    0.818994
     35          1           0       -3.908479    4.075775   -0.821673
     36          1           0       -3.280976    4.512214    0.745752
     37          1           0       -5.135810    2.113783    0.217461
     38          1           0       -5.639295    3.642061    0.967262
     39          1           0       -4.500421    2.554178    1.787978
 ---------------------------------------------------------------------
 Rotational constants (GHZ):           0.2419992           0.1309433           0.0873092
 Standard basis: Aug-CC-pVTZ (5D, 7F)
 There are  1669 symmetry adapted cartesian basis functions of A   symmetry.
 There are  1430 symmetry adapted basis functions of A   symmetry.
  1430 basis functions,  2130 primitive gaussians,  1669 cartesian basis functions
    92 alpha electrons       92 beta electrons
       nuclear repulsion energy      2102.7940683297 Hartrees.
 NAtoms=   39 NActive=   39 NUniq=   39 SFac= 1.00D+00 NAtFMM=   60 NAOKFM=F Big=F
 Integral buffers will be    131072 words long.
 Regular integral format.
 Two-electron integral symmetry is turned on.
 Nuclear repulsion after empirical dispersion term =     2102.7659902990 Hartrees.
 One-electron integrals computed using PRISM.
 NBasis=  1430 RedAO= T EigKep=  1.51D-06  NBF=  1430
 NBsUse=  1426 1.00D-06 EigRej=  8.97D-07 NBFU=  1426
 ExpMin= 2.53D-02 ExpMax= 4.56D+05 ExpMxC= 1.44D+03 IAcc=3 IRadAn=         5 AccDes= 0.00D+00
 Harris functional with IExCor= 1004 and IRadAn=       5 diagonalized for initial guess.
 HarFok:  IExCor= 1004 AccDes= 0.00D+00 IRadAn=         5 IDoV= 1 UseB2=F ITyADJ=14
 ICtDFT=  3500011 ScaDFX=  1.000000  1.000000  1.000000  1.000000
 FoFCou: FMM=F IPFlag=           0 FMFlag=      100000 FMFlg1=           0
         NFxFlg=           0 DoJE=T BraDBF=F KetDBF=T FulRan=T
         wScrn=  0.000000 ICntrl=       500 IOpCl=  0 I1Cent=   200000004 NGrid=           0
         NMat0=    1 NMatS0=      1 NMatT0=    0 NMatD0=    1 NMtDS0=    0 NMtDT0=    0
 Petite list used in FoFCou.
 Requested convergence on RMS density matrix=1.00D-08 within 128 cycles.
 Requested convergence on MAX density matrix=1.00D-06.
 Requested convergence on             energy=1.00D-06.
 No special actions if energy rises.
 SCF Done:  E(RDSDPBEP86) =  -1654.65810955     A.U. after   15 cycles
            NFock= 15  Conv=0.13D-08     -V/T= 2.0027
 DoSCS=T DFT=T ScalE2(SS,OS)=  0.220000  0.520000
 ExpMin= 2.53D-02 ExpMax= 4.56D+05 ExpMxC= 1.44D+03 IAcc=3 IRadAn=         5 AccDes= 0.00D+00
 HarFok:  IExCor=  205 AccDes= 0.00D+00 IRadAn=         5 IDoV=-2 UseB2=F ITyADJ=14
 ICtDFT= 12500011 ScaDFX=  1.000000  1.000000  1.000000  1.000000
 GSVD:  LWork=        -945 too small for GESVD, short by        4050 words or        4050 for optimal perf.
 Range of M.O.s used for correlation:    28  1426
 NBasis=  1430 NAE=    92 NBE=    92 NFC=    27 NFV=     0
 NROrb=   1399 NOA=    65 NOB=    65 NVA=  1334 NVB=  1334

 **** Warning!!: The largest alpha MO coefficient is  0.10565909D+03

 DoSCS=T DFT=T ScalE2(SS,OS)=  0.220000  0.520000
 Fully direct method using O(OVN) memory.
 JobTyp=1 Pass  1:  I=   1 to  59 NPSUse= 32 ParTrn=T ParDer=T DoDerP=F.
 JobTyp=1 Pass  2:  I=  60 to  65 NPSUse= 32 ParTrn=T ParDer=T DoDerP=F.
 Spin components of T(2) and E(2):
     alpha-alpha T2 =       0.2265334911D+00 E2=     -0.1432972895D+00
     alpha-beta  T2 =       0.1180604219D+01 E2=     -0.1931328422D+01
     beta-beta   T2 =       0.2265334911D+00 E2=     -0.1432972895D+00
 E2(DSDPBEP86) =    -0.2217923001D+01 E(DSDPBEP86) =    -0.16568760325548D+04

 **********************************************************************

            Population analysis using the SCF Density.

 **********************************************************************

 Orbital symmetries:
       Occupied  (A) (A) (A) (A) (A) (A) (A) (A) (A) (A) (A) (A)
                 (A) (A) (A) (A) (A) (A) (A) (A) (A) (A) (A) (A)
                 (A) (A) (A) (A) (A) (A) (A) (A) (A) (A) (A) (A)
                 (A) (A) (A) (A) (A) (A) (A) (A) (A) (A) (A) (A)
                 (A) (A) (A) (A) (A) (A) (A) (A) (A) (A) (A) (A)
                 (A) (A) (A) (A) (A) (A) (A) (A) (A) (A) (A) (A)
                 (A) (A) (A) (A) (A) (A) (A) (A) (A) (A) (A) (A)
                 (A) (A) (A) (A) (A) (A) (A) (A)
       Virtual   (A) (A) (A) (A) (A) (A) (A) (A) (A) (A) (A) (A)
                 (A) (A) (A) (A) (A) (A) (A) (A) (A) (A) (A) (A)
                 (A) (A) (A) (A) (A) (A) (A) (A) (A) (A) (A) (A)
                 (A) (A) (A) (A) (A) (A) (A) (A) (A) (A) (A) (A)
                 (A) (A) (A) (A) (A) (A) (A) (A) (A) (A) (A) (A)
                 (A) (A) (A) (A) (A) (A) (A) (A) (A) (A) (A) (A)
                 (A) (A) (A) (A) (A) (A) (A) (A) (A) (A) (A) (A)
                 (A) (A) (A) (A) (A) (A) (A) (A) (A) (A) (A) (A)
                 (A) (A) (A) (A) (A) (A) (A) (A) (A) (A) (A) (A)
                 (A) (A) (A) (A) (A) (A) (A) (A) (A) (A) (A) (A)
                 (A) (A) (A) (A) (A) (A) (A) (A) (A) (A) (A) (A)
                 (A) (A) (A) (A) (A) (A) (A) (A) (A) (A) (A) (A)
                 (A) (A) (A) (A) (A) (A) (A) (A) (A) (A) (A) (A)
                 (A) (A) (A) (A) (A) (A) (A) (A) (A) (A) (A) (A)
                 (A) (A) (A) (A) (A) (A) (A) (A) (A) (A) (A) (A)
                 (A) (A) (A) (A) (A) (A) (A) (A) (A) (A) (A) (A)
                 (A) (A) (A) (A) (A) (A) (A) (A) (A) (A) (A) (A)
                 (A) (A) (A) (A) (A) (A) (A) (A) (A) (A) (A) (A)
                 (A) (A) (A) (A) (A) (A) (A) (A) (A) (A) (A) (A)
                 (A) (A) (A) (A) (A) (A) (A) (A) (A) (A) (A) (A)
                 (A) (A) (A) (A) (A) (A) (A) (A) (A) (A) (A) (A)
                 (A) (A) (A) (A) (A) (A) (A) (A) (A) (A) (A) (A)
                 (A) (A) (A) (A) (A) (A) (A) (A) (A) (A) (A) (A)
                 (A) (A) (A) (A) (A) (A) (A) (A) (A) (A) (A) (A)
                 (A) (A) (A) (A) (A) (A) (A) (A) (A) (A) (A) (A)
                 (A) (A) (A) (A) (A) (A) (A) (A) (A) (A) (A) (A)
                 (A) (A) (A) (A) (A) (A) (A) (A) (A) (A) (A) (A)
                 (A) (A) (A) (A) (A) (A) (A) (A) (A) (A) (A) (A)
                 (A) (A) (A) (A) (A) (A) (A) (A) (A) (A) (A) (A)
                 (A) (A) (A) (A) (A) (A) (A) (A) (A) (A) (A) (A)
                 (A) (A) (A) (A) (A) (A) (A) (A) (A) (A) (A) (A)
                 (A) (A) (A) (A) (A) (A) (A) (A) (A) (A) (A) (A)
                 (A) (A) (A) (A) (A) (A) (A) (A) (A) (A) (A) (A)
                 (A) (A) (A) (A) (A) (A) (A) (A) (A) (A) (A) (A)
                 (A) (A) (A) (A) (A) (A) (A) (A) (A) (A) (A) (A)
                 (A) (A) (A) (A) (A) (A) (A) (A) (A) (A) (A) (A)
                 (A) (A) (A) (A) (A) (A) (A) (A) (A) (A) (A) (A)
                 (A) (A) (A) (A) (A) (A) (A) (A) (A) (A) (A) (A)
                 (A) (A) (A) (A) (A) (A) (A) (A) (A) (A) (A) (A)
                 (A) (A) (A) (A) (A) (A) (A) (A) (A) (A) (A) (A)
                 (A) (A) (A) (A) (A) (A) (A) (A) (A) (A) (A) (A)
                 (A) (A) (A) (A) (A) (A) (A) (A) (A) (A) (A) (A)
                 (A) (A) (A) (A) (A) (A) (A) (A) (A) (A) (A) (A)
                 (A) (A) (A) (A) (A) (A) (A) (A) (A) (A) (A) (A)
                 (A) (A) (A) (A) (A) (A) (A) (A) (A) (A) (A) (A)
                 (A) (A) (A) (A) (A) (A) (A) (A) (A) (A) (A) (A)
                 (A) (A) (A) (A) (A) (A) (A) (A) (A) (A) (A) (A)
                 (A) (A) (A) (A) (A) (A) (A) (A) (A) (A) (A) (A)
                 (A) (A) (A) (A) (A) (A) (A) (A) (A) (A) (A) (A)
                 (A) (A) (A) (A) (A) (A) (A) (A) (A) (A) (A) (A)
                 (A) (A) (A) (A) (A) (A) (A) (A) (A) (A) (A) (A)
                 (A) (A) (A) (A) (A) (A) (A) (A) (A) (A) (A) (A)
                 (A) (A) (A) (A) (A) (A) (A) (A) (A) (A) (A) (A)
                 (A) (A) (A) (A) (A) (A) (A) (A) (A) (A) (A) (A)
                 (A) (A) (A) (A) (A) (A) (A) (A) (A) (A) (A) (A)
                 (A) (A) (A) (A) (A) (A) (A) (A) (A) (A) (A) (A)
                 (A) (A) (A) (A) (A) (A) (A) (A) (A) (A) (A) (A)
                 (A) (A) (A) (A) (A) (A) (A) (A) (A) (A) (A) (A)
                 (A) (A) (A) (A) (A) (A) (A) (A) (A) (A) (A) (A)
                 (A) (A) (A) (A) (A) (A) (A) (A) (A) (A) (A) (A)
                 (A) (A) (A) (A) (A) (A) (A) (A) (A) (A) (A) (A)
                 (A) (A) (A) (A) (A) (A) (A) (A) (A) (A) (A) (A)
                 (A) (A) (A) (A) (A) (A) (A) (A) (A) (A) (A) (A)
                 (A) (A) (A) (A) (A) (A) (A) (A) (A) (A) (A) (A)
                 (A) (A) (A) (A) (A) (A) (A) (A) (A) (A) (A) (A)
                 (A) (A) (A) (A) (A) (A) (A) (A) (A) (A) (A) (A)
                 (A) (A) (A) (A) (A) (A) (A) (A) (A) (A) (A) (A)
                 (A) (A) (A) (A) (A) (A) (A) (A) (A) (A) (A) (A)
                 (A) (A) (A) (A) (A) (A) (A) (A) (A) (A) (A) (A)
                 (A) (A) (A) (A) (A) (A) (A) (A) (A) (A) (A) (A)
                 (A) (A) (A) (A) (A) (A) (A) (A) (A) (A) (A) (A)
                 (A) (A) (A) (A) (A) (A) (A) (A) (A) (A) (A) (A)
                 (A) (A) (A) (A) (A) (A) (A) (A) (A) (A) (A) (A)
                 (A) (A) (A) (A) (A) (A) (A) (A) (A) (A) (A) (A)
                 (A) (A) (A) (A) (A) (A) (A) (A) (A) (A) (A) (A)
                 (A) (A) (A) (A) (A) (A) (A) (A) (A) (A) (A) (A)
                 (A) (A) (A) (A) (A) (A) (A) (A) (A) (A) (A) (A)
                 (A) (A) (A) (A) (A) (A) (A) (A) (A) (A) (A) (A)
                 (A) (A) (A) (A) (A) (A) (A) (A) (A) (A) (A) (A)
                 (A) (A) (A) (A) (A) (A) (A) (A) (A) (A) (A) (A)
                 (A) (A) (A) (A) (A) (A) (A) (A) (A) (A) (A) (A)
                 (A) (A) (A) (A) (A) (A) (A) (A) (A) (A) (A) (A)
                 (A) (A) (A) (A) (A) (A) (A) (A) (A) (A) (A) (A)
                 (A) (A) (A) (A) (A) (A) (A) (A) (A) (A) (A) (A)
                 (A) (A) (A) (A) (A) (A) (A) (A) (A) (A) (A) (A)
                 (A) (A) (A) (A) (A) (A) (A) (A) (A) (A) (A) (A)
                 (A) (A) (A) (A) (A) (A) (A) (A) (A) (A) (A) (A)
                 (A) (A) (A) (A) (A) (A) (A) (A) (A) (A) (A) (A)
                 (A) (A) (A) (A) (A) (A) (A) (A) (A) (A) (A) (A)
                 (A) (A) (A) (A) (A) (A) (A) (A) (A) (A) (A) (A)
                 (A) (A) (A) (A) (A) (A) (A) (A) (A) (A) (A) (A)
                 (A) (A) (A) (A) (A) (A) (A) (A) (A) (A) (A) (A)
                 (A) (A) (A) (A) (A) (A) (A) (A) (A) (A) (A) (A)
                 (A) (A) (A) (A) (A) (A) (A) (A) (A) (A) (A) (A)
                 (A) (A) (A) (A) (A) (A) (A) (A) (A) (A) (A) (A)
                 (A) (A) (A) (A) (A) (A) (A) (A) (A) (A) (A) (A)
                 (A) (A) (A) (A) (A) (A) (A) (A) (A) (A) (A) (A)
                 (A) (A) (A) (A) (A) (A) (A) (A) (A) (A) (A) (A)
                 (A) (A) (A) (A) (A) (A) (A) (A) (A) (A) (A) (A)
                 (A) (A) (A) (A) (A) (A) (A) (A) (A) (A) (A) (A)
                 (A) (A) (A) (A) (A) (A) (A) (A) (A) (A) (A) (A)
                 (A) (A) (A) (A) (A) (A) (A) (A) (A) (A) (A) (A)
                 (A) (A) (A) (A) (A) (A) (A) (A) (A) (A) (A) (A)
                 (A) (A) (A) (A) (A) (A) (A) (A) (A) (A) (A) (A)
                 (A) (A) (A) (A) (A) (A) (A) (A) (A) (A) (A) (A)
                 (A) (A) (A) (A) (A) (A) (A) (A) (A) (A) (A) (A)
                 (A) (A) (A) (A) (A) (A) (A) (A) (A) (A) (A) (A)
                 (A) (A) (A) (A) (A) (A) (A) (A) (A) (A) (A) (A)
                 (A) (A) (A) (A) (A) (A) (A) (A) (A) (A) (A) (A)
                 (A) (A) (A) (A) (A) (A) (A) (A) (A) (A) (A) (A)
                 (A) (A) (A) (A) (A) (A) (A) (A) (A) (A) (A) (A)
                 (A) (A)
 The electronic state is 1-A.
 Alpha  occ. eigenvalues -- -103.46880 -25.62234 -25.61904 -25.61627 -19.93970
 Alpha  occ. eigenvalues --  -19.87263 -19.80550 -19.79667 -14.98771 -10.99326
 Alpha  occ. eigenvalues --  -10.87159 -10.78954 -10.77870 -10.77794 -10.77062
 Alpha  occ. eigenvalues --  -10.75433 -10.73879 -10.73622 -10.73155 -10.72719
 Alpha  occ. eigenvalues --  -10.71922 -10.68534 -10.68353 -10.04379  -7.62051
 Alpha  occ. eigenvalues --   -7.61597  -7.61580  -1.48393  -1.39151  -1.38667
 Alpha  occ. eigenvalues --   -1.23016  -1.12537  -1.10758  -1.03193  -1.00760
 Alpha  occ. eigenvalues --   -0.97712  -0.92345  -0.88479  -0.85073  -0.80970
 Alpha  occ. eigenvalues --   -0.80869  -0.77474  -0.76560  -0.68741  -0.68599
 Alpha  occ. eigenvalues --   -0.65915  -0.65193  -0.64518  -0.64035  -0.60622
 Alpha  occ. eigenvalues --   -0.59302  -0.56500  -0.53599  -0.53102  -0.52667
 Alpha  occ. eigenvalues --   -0.52034  -0.51625  -0.49811  -0.49116  -0.48522
 Alpha  occ. eigenvalues --   -0.47935  -0.47041  -0.46802  -0.46372  -0.44729
 Alpha  occ. eigenvalues --   -0.43904  -0.43567  -0.43032  -0.42295  -0.41807
 Alpha  occ. eigenvalues --   -0.39960  -0.39381  -0.38858  -0.38476  -0.37994
 Alpha  occ. eigenvalues --   -0.36093  -0.35630  -0.35331  -0.35147  -0.34499
 Alpha  occ. eigenvalues --   -0.33315  -0.32764  -0.30408  -0.30313  -0.30118
 Alpha  occ. eigenvalues --   -0.29218  -0.28483  -0.21440  -0.21087  -0.20598
 Alpha  occ. eigenvalues --   -0.19618  -0.17971
 Alpha virt. eigenvalues --    0.07491   0.09079   0.09536   0.09707   0.09772
 Alpha virt. eigenvalues --    0.10814   0.11395   0.11596   0.11745   0.12463
 Alpha virt. eigenvalues --    0.12782   0.12970   0.13258   0.13856   0.13968
 Alpha virt. eigenvalues --    0.14153   0.14380   0.14732   0.14848   0.15452
 Alpha virt. eigenvalues --    0.15464   0.15943   0.16799   0.17390   0.17568
 Alpha virt. eigenvalues --    0.18010   0.18239   0.18378   0.18559   0.18665
 Alpha virt. eigenvalues --    0.18889   0.19132   0.19308   0.19585   0.19999
 Alpha virt. eigenvalues --    0.20059   0.20625   0.20851   0.21245   0.21560
 Alpha virt. eigenvalues --    0.21758   0.22087   0.22255   0.22422   0.22537
 Alpha virt. eigenvalues --    0.22615   0.23159   0.23531   0.23613   0.23871
 Alpha virt. eigenvalues --    0.24232   0.24685   0.25026   0.25270   0.25485
 Alpha virt. eigenvalues --    0.25848   0.26011   0.26556   0.26652   0.26749
 Alpha virt. eigenvalues --    0.26943   0.27573   0.28118   0.28361   0.28445
 Alpha virt. eigenvalues --    0.28625   0.28773   0.28941   0.29258   0.29742
 Alpha virt. eigenvalues --    0.29939   0.29979   0.30652   0.31138   0.31576
 Alpha virt. eigenvalues --    0.31942   0.32141   0.32382   0.32776   0.32856
 Alpha virt. eigenvalues --    0.33025   0.33293   0.33594   0.33817   0.33846
 Alpha virt. eigenvalues --    0.34065   0.34223   0.34652   0.35173   0.35347
 Alpha virt. eigenvalues --    0.35691   0.35995   0.36168   0.36262   0.36535
 Alpha virt. eigenvalues --    0.36735   0.36827   0.37517   0.37583   0.37871
 Alpha virt. eigenvalues --    0.38008   0.38150   0.38387   0.38583   0.38738
 Alpha virt. eigenvalues --    0.38838   0.39102   0.39245   0.39518   0.39801
 Alpha virt. eigenvalues --    0.40136   0.40333   0.40469   0.40763   0.40895
 Alpha virt. eigenvalues --    0.41142   0.41656   0.41902   0.42013   0.42312
 Alpha virt. eigenvalues --    0.42392   0.42529   0.42892   0.43332   0.43627
 Alpha virt. eigenvalues --    0.43862   0.44111   0.44272   0.44480   0.44610
 Alpha virt. eigenvalues --    0.44923   0.45088   0.45538   0.45556   0.45706
 Alpha virt. eigenvalues --    0.46067   0.46314   0.46366   0.46718   0.46858
 Alpha virt. eigenvalues --    0.47427   0.47649   0.47740   0.47945   0.48368
 Alpha virt. eigenvalues --    0.48448   0.48667   0.49039   0.49377   0.49509
 Alpha virt. eigenvalues --    0.49748   0.50166   0.50469   0.50647   0.50797
 Alpha virt. eigenvalues --    0.50964   0.51393   0.51656   0.51904   0.52397
 Alpha virt. eigenvalues --    0.52485   0.52769   0.52997   0.53213   0.53332
 Alpha virt. eigenvalues --    0.53659   0.53854   0.53963   0.54248   0.54485
 Alpha virt. eigenvalues --    0.54662   0.54818   0.54880   0.55242   0.55475
 Alpha virt. eigenvalues --    0.55714   0.55795   0.56318   0.56362   0.56596
 Alpha virt. eigenvalues --    0.56753   0.57060   0.57310   0.57383   0.57491
 Alpha virt. eigenvalues --    0.57939   0.58042   0.58201   0.58514   0.58809
 Alpha virt. eigenvalues --    0.59077   0.59173   0.59388   0.59876   0.60022
 Alpha virt. eigenvalues --    0.60700   0.60729   0.61110   0.61346   0.61727
 Alpha virt. eigenvalues --    0.61824   0.62181   0.62446   0.62731   0.63176
 Alpha virt. eigenvalues --    0.63243   0.63632   0.64034   0.64519   0.64707
 Alpha virt. eigenvalues --    0.64886   0.65166   0.65326   0.65638   0.65930
 Alpha virt. eigenvalues --    0.66358   0.66599   0.67242   0.67534   0.67765
 Alpha virt. eigenvalues --    0.67908   0.68352   0.68406   0.68874   0.69331
 Alpha virt. eigenvalues --    0.69624   0.69754   0.69884   0.70033   0.70442
 Alpha virt. eigenvalues --    0.71061   0.71827   0.72177   0.72714   0.73043
 Alpha virt. eigenvalues --    0.73427   0.73872   0.74015   0.74409   0.74601
 Alpha virt. eigenvalues --    0.74719   0.75114   0.75605   0.76179   0.76275
 Alpha virt. eigenvalues --    0.76778   0.77175   0.77379   0.77800   0.78302
 Alpha virt. eigenvalues --    0.78652   0.78808   0.79339   0.79566   0.80217
 Alpha virt. eigenvalues --    0.80293   0.80532   0.81023   0.81312   0.81868
 Alpha virt. eigenvalues --    0.82000   0.82295   0.83056   0.83532   0.84009
 Alpha virt. eigenvalues --    0.84140   0.84516   0.85033   0.85498   0.85807
 Alpha virt. eigenvalues --    0.86088   0.86272   0.86694   0.86710   0.86991
 Alpha virt. eigenvalues --    0.87598   0.88063   0.88230   0.88702   0.89188
 Alpha virt. eigenvalues --    0.89481   0.89681   0.89834   0.90162   0.90582
 Alpha virt. eigenvalues --    0.91206   0.91252   0.91529   0.91729   0.92279
 Alpha virt. eigenvalues --    0.92788   0.92976   0.93376   0.93452   0.93680
 Alpha virt. eigenvalues --    0.93901   0.94088   0.94279   0.94665   0.95079
 Alpha virt. eigenvalues --    0.95153   0.95387   0.95631   0.95823   0.96175
 Alpha virt. eigenvalues --    0.96657   0.96911   0.97091   0.97296   0.97495
 Alpha virt. eigenvalues --    0.97768   0.98154   0.98281   0.98540   0.98605
 Alpha virt. eigenvalues --    0.99216   0.99450   0.99684   0.99821   1.00355
 Alpha virt. eigenvalues --    1.00446   1.00801   1.00978   1.01145   1.01290
 Alpha virt. eigenvalues --    1.01653   1.02544   1.02753   1.02774   1.03087
 Alpha virt. eigenvalues --    1.03390   1.03859   1.04503   1.04579   1.04676
 Alpha virt. eigenvalues --    1.05095   1.05273   1.06066   1.06208   1.06283
 Alpha virt. eigenvalues --    1.06534   1.06721   1.07336   1.07627   1.08163
 Alpha virt. eigenvalues --    1.08272   1.08851   1.09100   1.09304   1.09458
 Alpha virt. eigenvalues --    1.09462   1.10171   1.10217   1.10971   1.11181
 Alpha virt. eigenvalues --    1.11432   1.11744   1.12016   1.12430   1.12829
 Alpha virt. eigenvalues --    1.12913   1.13232   1.13429   1.13597   1.14136
 Alpha virt. eigenvalues --    1.14326   1.14572   1.14761   1.15112   1.15236
 Alpha virt. eigenvalues --    1.15323   1.15772   1.16237   1.16455   1.16865
 Alpha virt. eigenvalues --    1.17246   1.17511   1.17715   1.17864   1.18013
 Alpha virt. eigenvalues --    1.18363   1.18568   1.18822   1.19132   1.19669
 Alpha virt. eigenvalues --    1.19860   1.20112   1.20527   1.20876   1.21091
 Alpha virt. eigenvalues --    1.21449   1.21856   1.22135   1.22380   1.22696
 Alpha virt. eigenvalues --    1.22860   1.22965   1.23136   1.23515   1.23876
 Alpha virt. eigenvalues --    1.24482   1.24507   1.24877   1.25218   1.25463
 Alpha virt. eigenvalues --    1.25951   1.26658   1.26929   1.27190   1.27362
 Alpha virt. eigenvalues --    1.27663   1.27961   1.28012   1.28186   1.28430
 Alpha virt. eigenvalues --    1.28842   1.29378   1.30030   1.30264   1.30501
 Alpha virt. eigenvalues --    1.30793   1.30975   1.31561   1.31723   1.32067
 Alpha virt. eigenvalues --    1.32709   1.33034   1.33144   1.33584   1.33827
 Alpha virt. eigenvalues --    1.34334   1.34458   1.35026   1.35151   1.35742
 Alpha virt. eigenvalues --    1.35880   1.36139   1.36786   1.37096   1.37678
 Alpha virt. eigenvalues --    1.37975   1.38411   1.38635   1.38918   1.39362
 Alpha virt. eigenvalues --    1.39751   1.40262   1.40556   1.40693   1.41333
 Alpha virt. eigenvalues --    1.41584   1.41903   1.42376   1.42725   1.43055
 Alpha virt. eigenvalues --    1.43683   1.43849   1.44385   1.44567   1.45143
 Alpha virt. eigenvalues --    1.45742   1.46111   1.46503   1.46741   1.47541
 Alpha virt. eigenvalues --    1.47714   1.48400   1.48869   1.49272   1.49916
 Alpha virt. eigenvalues --    1.50305   1.50571   1.50763   1.51223   1.51448
 Alpha virt. eigenvalues --    1.51867   1.52438   1.52841   1.53100   1.53580
 Alpha virt. eigenvalues --    1.54533   1.54825   1.55071   1.55288   1.55693
 Alpha virt. eigenvalues --    1.56403   1.56550   1.57016   1.57475   1.57558
 Alpha virt. eigenvalues --    1.58183   1.58627   1.58804   1.59485   1.59760
 Alpha virt. eigenvalues --    1.60174   1.60370   1.61599   1.61855   1.62313
 Alpha virt. eigenvalues --    1.62917   1.63268   1.63837   1.64196   1.64421
 Alpha virt. eigenvalues --    1.64824   1.65076   1.65404   1.65481   1.65888
 Alpha virt. eigenvalues --    1.66754   1.67107   1.67238   1.67514   1.67824
 Alpha virt. eigenvalues --    1.68069   1.68858   1.69058   1.69511   1.69545
 Alpha virt. eigenvalues --    1.69877   1.70662   1.70784   1.71208   1.71674
 Alpha virt. eigenvalues --    1.71957   1.72166   1.72715   1.72929   1.74125
 Alpha virt. eigenvalues --    1.74316   1.74480   1.74560   1.74927   1.75224
 Alpha virt. eigenvalues --    1.75732   1.76361   1.76458   1.77047   1.77225
 Alpha virt. eigenvalues --    1.77537   1.77702   1.77914   1.78410   1.78438
 Alpha virt. eigenvalues --    1.78854   1.79012   1.79544   1.79995   1.80229
 Alpha virt. eigenvalues --    1.80664   1.81534   1.81699   1.81801   1.82440
 Alpha virt. eigenvalues --    1.82699   1.82950   1.83454   1.83537   1.83881
 Alpha virt. eigenvalues --    1.84247   1.84655   1.84996   1.85830   1.85943
 Alpha virt. eigenvalues --    1.86618   1.86905   1.87173   1.87894   1.88215
 Alpha virt. eigenvalues --    1.88448   1.89279   1.89522   1.90003   1.90134
 Alpha virt. eigenvalues --    1.90268   1.90671   1.91010   1.91817   1.91967
 Alpha virt. eigenvalues --    1.92511   1.92643   1.93171   1.93505   1.94621
 Alpha virt. eigenvalues --    1.95048   1.95516   1.95682   1.96092   1.96215
 Alpha virt. eigenvalues --    1.96797   1.97099   1.97255   1.97602   1.97950
 Alpha virt. eigenvalues --    1.98594   1.99122   1.99577   2.00154   2.00440
 Alpha virt. eigenvalues --    2.01109   2.01430   2.02220   2.02539   2.03385
 Alpha virt. eigenvalues --    2.03567   2.03661   2.03708   2.04145   2.04859
 Alpha virt. eigenvalues --    2.05436   2.06147   2.06638   2.07009   2.07325
 Alpha virt. eigenvalues --    2.07610   2.08232   2.09381   2.09701   2.10044
 Alpha virt. eigenvalues --    2.10368   2.10493   2.11117   2.11621   2.12435
 Alpha virt. eigenvalues --    2.13132   2.13869   2.14675   2.15032   2.15402
 Alpha virt. eigenvalues --    2.15575   2.16248   2.16759   2.17102   2.17851
 Alpha virt. eigenvalues --    2.18376   2.19491   2.19808   2.20373   2.20898
 Alpha virt. eigenvalues --    2.21468   2.22226   2.22645   2.23562   2.23798
 Alpha virt. eigenvalues --    2.24063   2.24939   2.25282   2.25863   2.26631
 Alpha virt. eigenvalues --    2.27075   2.27745   2.28453   2.28736   2.29359
 Alpha virt. eigenvalues --    2.29775   2.30125   2.30792   2.31504   2.32026
 Alpha virt. eigenvalues --    2.32796   2.33378   2.33556   2.33791   2.34249
 Alpha virt. eigenvalues --    2.35308   2.35877   2.37374   2.37658   2.38429
 Alpha virt. eigenvalues --    2.38625   2.39085   2.40258   2.40357   2.41395
 Alpha virt. eigenvalues --    2.42229   2.42840   2.43194   2.43984   2.44699
 Alpha virt. eigenvalues --    2.45317   2.45375   2.45594   2.46264   2.46562
 Alpha virt. eigenvalues --    2.47691   2.48554   2.49159   2.50477   2.50962
 Alpha virt. eigenvalues --    2.51307   2.51961   2.52622   2.53657   2.54230
 Alpha virt. eigenvalues --    2.54779   2.55086   2.56038   2.57185   2.58148
 Alpha virt. eigenvalues --    2.58787   2.59058   2.60299   2.60554   2.61093
 Alpha virt. eigenvalues --    2.61751   2.62342   2.63274   2.63726   2.64436
 Alpha virt. eigenvalues --    2.65293   2.66203   2.67348   2.67944   2.68219
 Alpha virt. eigenvalues --    2.69023   2.70133   2.70420   2.71009   2.72218
 Alpha virt. eigenvalues --    2.72668   2.73356   2.74225   2.74432   2.74815
 Alpha virt. eigenvalues --    2.75637   2.76761   2.77123   2.78061   2.78513
 Alpha virt. eigenvalues --    2.79124   2.80080   2.80875   2.81595   2.82358
 Alpha virt. eigenvalues --    2.82482   2.84006   2.84393   2.85072   2.86459
 Alpha virt. eigenvalues --    2.87258   2.87409   2.88000   2.88805   2.89493
 Alpha virt. eigenvalues --    2.90082   2.90760   2.92789   2.92953   2.93596
 Alpha virt. eigenvalues --    2.94163   2.94681   2.95506   2.96740   2.97575
 Alpha virt. eigenvalues --    2.98290   2.99096   2.99910   3.00133   3.00772
 Alpha virt. eigenvalues --    3.02002   3.02837   3.03083   3.03881   3.04875
 Alpha virt. eigenvalues --    3.05240   3.05788   3.05984   3.06568   3.07662
 Alpha virt. eigenvalues --    3.08608   3.09576   3.10227   3.10766   3.11174
 Alpha virt. eigenvalues --    3.11538   3.12034   3.12196   3.13189   3.13859
 Alpha virt. eigenvalues --    3.13986   3.14547   3.15622   3.16286   3.16699
 Alpha virt. eigenvalues --    3.17492   3.17860   3.18247   3.19647   3.20223
 Alpha virt. eigenvalues --    3.20869   3.21932   3.22457   3.23381   3.23953
 Alpha virt. eigenvalues --    3.24831   3.25593   3.26329   3.27596   3.27799
 Alpha virt. eigenvalues --    3.28555   3.28804   3.29399   3.31025   3.31220
 Alpha virt. eigenvalues --    3.31669   3.32671   3.33150   3.33749   3.35082
 Alpha virt. eigenvalues --    3.35249   3.35909   3.36890   3.37828   3.38455
 Alpha virt. eigenvalues --    3.39032   3.39518   3.39938   3.40448   3.41012
 Alpha virt. eigenvalues --    3.41117   3.41960   3.42585   3.43118   3.43341
 Alpha virt. eigenvalues --    3.43913   3.44235   3.44681   3.45010   3.45117
 Alpha virt. eigenvalues --    3.46054   3.46795   3.47287   3.48622   3.48979
 Alpha virt. eigenvalues --    3.49446   3.49937   3.50669   3.51466   3.51926
 Alpha virt. eigenvalues --    3.52317   3.53658   3.53947   3.54715   3.55744
 Alpha virt. eigenvalues --    3.56882   3.57235   3.57366   3.57924   3.58918
 Alpha virt. eigenvalues --    3.59532   3.59768   3.60380   3.60619   3.61132
 Alpha virt. eigenvalues --    3.61763   3.62432   3.62941   3.63696   3.63827
 Alpha virt. eigenvalues --    3.64191   3.64989   3.65227   3.66964   3.67296
 Alpha virt. eigenvalues --    3.67400   3.68238   3.68488   3.68993   3.69879
 Alpha virt. eigenvalues --    3.70301   3.70582   3.70930   3.71829   3.72215
 Alpha virt. eigenvalues --    3.73133   3.73369   3.73430   3.74185   3.74974
 Alpha virt. eigenvalues --    3.75434   3.75698   3.76256   3.76680   3.77224
 Alpha virt. eigenvalues --    3.77423   3.78012   3.78216   3.78680   3.79042
 Alpha virt. eigenvalues --    3.79792   3.80201   3.80521   3.81168   3.81905
 Alpha virt. eigenvalues --    3.82551   3.83414   3.83866   3.84444   3.85274
 Alpha virt. eigenvalues --    3.85565   3.86066   3.87062   3.87443   3.88208
 Alpha virt. eigenvalues --    3.88454   3.88863   3.89463   3.90099   3.90696
 Alpha virt. eigenvalues --    3.91154   3.91317   3.91979   3.92438   3.92670
 Alpha virt. eigenvalues --    3.93034   3.93221   3.93772   3.94074   3.94618
 Alpha virt. eigenvalues --    3.95323   3.95890   3.96305   3.97117   3.97488
 Alpha virt. eigenvalues --    3.98603   3.98661   3.99279   3.99912   4.00587
 Alpha virt. eigenvalues --    4.01243   4.01860   4.02353   4.03453   4.04002
 Alpha virt. eigenvalues --    4.04558   4.05317   4.05552   4.06352   4.06683
 Alpha virt. eigenvalues --    4.07370   4.08181   4.09003   4.09430   4.09566
 Alpha virt. eigenvalues --    4.09874   4.11708   4.12257   4.12583   4.13526
 Alpha virt. eigenvalues --    4.13891   4.14170   4.14874   4.15438   4.15739
 Alpha virt. eigenvalues --    4.16978   4.17560   4.17910   4.18364   4.19048
 Alpha virt. eigenvalues --    4.19410   4.19599   4.20467   4.21308   4.21836
 Alpha virt. eigenvalues --    4.22009   4.22287   4.22896   4.23454   4.23756
 Alpha virt. eigenvalues --    4.24319   4.25152   4.25618   4.25707   4.26104
 Alpha virt. eigenvalues --    4.26994   4.27401   4.28341   4.28762   4.29054
 Alpha virt. eigenvalues --    4.29071   4.29709   4.30502   4.31196   4.32033
 Alpha virt. eigenvalues --    4.32253   4.33571   4.34416   4.34849   4.35319
 Alpha virt. eigenvalues --    4.35780   4.36317   4.38017   4.38562   4.39123
 Alpha virt. eigenvalues --    4.40394   4.40752   4.42000   4.42852   4.43557
 Alpha virt. eigenvalues --    4.44488   4.44711   4.46168   4.46931   4.47228
 Alpha virt. eigenvalues --    4.47501   4.48085   4.49001   4.49198   4.50067
 Alpha virt. eigenvalues --    4.50778   4.51325   4.51679   4.52282   4.52742
 Alpha virt. eigenvalues --    4.53791   4.54772   4.54911   4.56093   4.56968
 Alpha virt. eigenvalues --    4.58042   4.58463   4.58897   4.59239   4.60094
 Alpha virt. eigenvalues --    4.60805   4.62567   4.62916   4.63897   4.64057
 Alpha virt. eigenvalues --    4.64742   4.65716   4.65948   4.66850   4.67048
 Alpha virt. eigenvalues --    4.67629   4.68852   4.69362   4.70397   4.70642
 Alpha virt. eigenvalues --    4.71343   4.71933   4.73452   4.74828   4.74881
 Alpha virt. eigenvalues --    4.75508   4.75960   4.77032   4.77468   4.78650
 Alpha virt. eigenvalues --    4.79057   4.79664   4.79827   4.80781   4.82104
 Alpha virt. eigenvalues --    4.82721   4.83618   4.84385   4.84844   4.85607
 Alpha virt. eigenvalues --    4.86560   4.87487   4.88084   4.88487   4.88881
 Alpha virt. eigenvalues --    4.90312   4.91434   4.91946   4.92675   4.93725
 Alpha virt. eigenvalues --    4.95417   4.96118   4.96840   4.96947   4.97965
 Alpha virt. eigenvalues --    4.99154   4.99335   5.01839   5.02819   5.03643
 Alpha virt. eigenvalues --    5.05133   5.05384   5.05833   5.06234   5.06615
 Alpha virt. eigenvalues --    5.07583   5.08616   5.09459   5.10888   5.11112
 Alpha virt. eigenvalues --    5.11855   5.12620   5.13133   5.13639   5.14042
 Alpha virt. eigenvalues --    5.14793   5.15169   5.15756   5.17102   5.17478
 Alpha virt. eigenvalues --    5.18975   5.19080   5.21017   5.21417   5.21820
 Alpha virt. eigenvalues --    5.22272   5.22904   5.23646   5.23871   5.24400
 Alpha virt. eigenvalues --    5.26366   5.26566   5.27618   5.27817   5.28595
 Alpha virt. eigenvalues --    5.30081   5.31034   5.32008   5.32130   5.32457
 Alpha virt. eigenvalues --    5.32990   5.34628   5.35203   5.35681   5.37284
 Alpha virt. eigenvalues --    5.38810   5.40236   5.42750   5.43753   5.44961
 Alpha virt. eigenvalues --    5.47249   5.48330   5.49454   5.49980   5.50909
 Alpha virt. eigenvalues --    5.51592   5.53320   5.54810   5.55264   5.56158
 Alpha virt. eigenvalues --    5.57175   5.58238   5.59944   5.60617   5.63662
 Alpha virt. eigenvalues --    5.63908   5.64630   5.64739   5.65583   5.67816
 Alpha virt. eigenvalues --    5.68254   5.68593   5.69111   5.69470   5.70011
 Alpha virt. eigenvalues --    5.71574   5.76073   5.76389   5.77330   5.78263
 Alpha virt. eigenvalues --    5.79768   5.81401   5.82262   5.83034   5.83227
 Alpha virt. eigenvalues --    5.84213   5.84957   5.86300   5.90389   5.91637
 Alpha virt. eigenvalues --    5.93819   5.94363   5.95851   5.97571   5.97801
 Alpha virt. eigenvalues --    5.98966   5.99682   6.00285   6.01951   6.05979
 Alpha virt. eigenvalues --    6.06793   6.08002   6.10286   6.10781   6.11534
 Alpha virt. eigenvalues --    6.11916   6.17204   6.17399   6.19026   6.20373
 Alpha virt. eigenvalues --    6.20953   6.21859   6.23966   6.26626   6.29635
 Alpha virt. eigenvalues --    6.32450   6.33702   6.36308   6.37441   6.41518
 Alpha virt. eigenvalues --    6.42065   6.44260   6.46527   6.52733   6.56206
 Alpha virt. eigenvalues --    6.57761   6.65154   6.67280   6.67843   6.70806
 Alpha virt. eigenvalues --    6.72477   6.73198   6.74268   6.76170   6.77273
 Alpha virt. eigenvalues --    6.79526   6.81480   6.85326   6.87471   6.88432
 Alpha virt. eigenvalues --    6.89189   6.89715   6.91031   6.92193   6.93439
 Alpha virt. eigenvalues --    6.95711   6.97947   6.99349   7.00683   7.02372
 Alpha virt. eigenvalues --    7.05088   7.09408   7.10973   7.11869   7.14246
 Alpha virt. eigenvalues --    7.14818   7.18478   7.22133   7.22978   7.23920
 Alpha virt. eigenvalues --    7.24945   7.25839   7.27656   7.29003   7.33145
 Alpha virt. eigenvalues --    7.33820   7.36064   7.36663   7.38949   7.41288
 Alpha virt. eigenvalues --    7.42467   7.44328   7.48966   7.54389   7.55917
 Alpha virt. eigenvalues --    7.59558   7.62181   7.64539   7.69155   7.71471
 Alpha virt. eigenvalues --    7.73544   7.74059   7.82009   7.84819   7.85914
 Alpha virt. eigenvalues --    7.88736   7.93760   7.98268   8.02591   8.06119
 Alpha virt. eigenvalues --    8.07281   8.19897   8.38395   8.52283   8.55115
 Alpha virt. eigenvalues --    8.62999   8.83042   8.85132   8.87530   8.89225
 Alpha virt. eigenvalues --    8.90229   8.94287   9.04177   9.05023   9.17479
 Alpha virt. eigenvalues --    9.18962   9.19297   9.23631   9.23881   9.25641
 Alpha virt. eigenvalues --    9.28465   9.30969   9.32826   9.33792   9.36113
 Alpha virt. eigenvalues --    9.37298   9.38779   9.39261   9.42361   9.45476
 Alpha virt. eigenvalues --    9.47755   9.49867   9.53859   9.57530   9.59326
 Alpha virt. eigenvalues --    9.60476   9.67252   9.79811   9.81509   9.88081
 Alpha virt. eigenvalues --   10.03655  10.07600  14.92070  15.48579  15.64089
 Alpha virt. eigenvalues --   15.93762  16.10270  16.30791  16.52004  16.79192
 Alpha virt. eigenvalues --   17.05860  17.30434  17.68714  17.93569  18.24374
 Alpha virt. eigenvalues --   18.58728  18.68141  18.89360  19.58317  20.13830
 Alpha virt. eigenvalues --   20.41780  20.87895  21.13762  21.78812
          Condensed to atoms (all electrons):
               1          2          3          4          5          6
     1  C    9.858923  -0.027205  -0.903561   0.154421  -0.003734  -0.034216
     2  N   -0.027205   8.502475   0.371772  -0.170156  -0.367541  -0.049954
     3  C   -0.903561   0.371772   6.239833   0.278971   0.321140  -0.165630
     4  O    0.154421  -0.170156   0.278971   9.112703  -0.189726   0.032448
     5  O   -0.003734  -0.367541   0.321140  -0.189726   8.671725   0.129873
     6  C   -0.034216  -0.049954  -0.165630   0.032448   0.129873   5.818575
     7  C   -0.004601   0.004119   0.020027  -0.020335  -0.097723  -0.009563
     8  C    0.001281   0.003112   0.001919  -0.002620   0.008244  -0.031937
     9  C   -1.106035  -0.411234   0.100756  -0.167363  -0.064752  -0.043261
    10  C    0.034003  -0.004609  -0.048995   0.029248   0.017957  -0.004274
    11  C   -0.249199   0.058544   0.047582  -0.002535  -0.000512   0.004694
    12  C   -0.238819   0.075058  -0.039233   0.010217   0.002650  -0.004470
    13  C   -0.851889  -0.325908  -0.050385   0.020730  -0.035431   0.000466
    14  H   -0.258482  -0.148042  -0.334993  -0.026422   0.069524  -0.036763
    15  H   -0.013413   0.012737  -0.005544   0.001446  -0.052347   0.315438
    16  H   -0.005345   0.015133  -0.025622  -0.008137  -0.022927   0.309104
    17  H   -0.001710  -0.007995  -0.006776   0.005989  -0.056503   0.068262
    18  H    0.000669  -0.004108  -0.015597   0.003062  -0.045447   0.070772
    19  H    0.000420  -0.000245   0.005417   0.000177   0.001382  -0.007631
    20  H    0.000140  -0.000152   0.001612  -0.000101   0.000063  -0.006020
    21  H    0.000615  -0.000784   0.004597  -0.000194   0.000864  -0.006738
    22  H   -0.592517  -0.131299   0.008382  -0.149088  -0.003462  -0.028807
    23  Cl   0.073240  -0.018368   0.000958  -0.000024  -0.000467   0.000338
    24  H   -0.250554   0.035147   0.001758   0.002109   0.000272  -0.000078
    25  C   -0.026706   0.003898   0.005083   0.000003   0.001078  -0.001166
    26  H    0.018173  -0.010819  -0.000277   0.000136  -0.000133   0.000296
    27  F    0.008066  -0.001874  -0.000559   0.000774  -0.000049  -0.000207
    28  F   -0.009017   0.001872   0.001358   0.000020   0.000029   0.000099
    29  F   -0.014211   0.003914   0.005275  -0.001693  -0.000027   0.000001
    30  O   -0.005130   0.000984  -0.005216  -0.000009  -0.005683  -0.004717
    31  O    0.020140  -0.188738  -0.020696  -0.007252   0.006636   0.019236
    32  C   -0.010141  -0.021550  -0.027818   0.002184  -0.009461   0.000496
    33  C   -0.010801  -0.013479  -0.000920   0.000143   0.002171   0.005379
    34  C    0.000144  -0.003364  -0.002988   0.000097   0.000245  -0.000586
    35  H    0.000227  -0.000822  -0.000009  -0.000020   0.000579   0.000732
    36  H   -0.001144   0.000476  -0.000115   0.000028   0.000187   0.000300
    37  H   -0.000994   0.001274  -0.001957   0.000081  -0.000303  -0.001269
    38  H    0.000880  -0.000642  -0.000156  -0.000014   0.000146   0.000148
    39  H   -0.000210  -0.000222   0.000236   0.000041  -0.000924  -0.000692
               7          8          9         10         11         12
     1  C   -0.004601   0.001281  -1.106035   0.034003  -0.249199  -0.238819
     2  N    0.004119   0.003112  -0.411234  -0.004609   0.058544   0.075058
     3  C    0.020027   0.001919   0.100756  -0.048995   0.047582  -0.039233
     4  O   -0.020335  -0.002620  -0.167363   0.029248  -0.002535   0.010217
     5  O   -0.097723   0.008244  -0.064752   0.017957  -0.000512   0.002650
     6  C   -0.009563  -0.031937  -0.043261  -0.004274   0.004694  -0.004470
     7  C    5.697959   0.074244  -0.004318   0.000175   0.000155   0.000405
     8  C    0.074244   5.831979  -0.000512   0.000120   0.000011   0.000019
     9  C   -0.004318  -0.000512   9.568593  -1.001040   0.119516  -0.044230
    10  C    0.000175   0.000120  -1.001040   8.148848  -1.069876  -0.024185
    11  C    0.000155   0.000011   0.119516  -1.069876   8.735514  -0.359270
    12  C    0.000405   0.000019  -0.044230  -0.024185  -0.359270   6.955913
    13  C    0.003895   0.000171  -0.423050  -0.109564  -0.056263  -0.482990
    14  H    0.004714  -0.001424   0.058209  -0.008388   0.005155   0.004108
    15  H    0.014795  -0.008522   0.000249  -0.001074   0.000253  -0.000608
    16  H    0.007203  -0.003206   0.004838  -0.000983   0.000270  -0.000047
    17  H    0.387280  -0.046780  -0.000548  -0.000005   0.000070   0.000005
    18  H    0.382261  -0.036465  -0.001200  -0.000055   0.000023   0.000016
    19  H    0.028159   0.371631  -0.000123   0.000022  -0.000007   0.000002
    20  H   -0.037014   0.455203  -0.000019  -0.000003   0.000002  -0.000004
    21  H    0.030821   0.368230  -0.000004   0.000079  -0.000000   0.000026
    22  H   -0.000877  -0.000134   0.374962  -0.285720   0.013808   0.007089
    23  Cl   0.000001  -0.000000  -0.016875   0.015994  -0.225498   0.093821
    24  H   -0.000088   0.000036   0.095777  -0.082547   0.088021  -0.246135
    25  C    0.000046   0.000005  -0.226984  -0.296199  -0.286070  -0.003156
    26  H    0.000014   0.000002  -0.067070  -0.137274   0.217994  -0.224599
    27  F   -0.000001  -0.000001  -0.000930  -0.005380  -0.010854   0.002293
    28  F   -0.000001   0.000000   0.009028   0.056763  -0.016321   0.013997
    29  F   -0.000009  -0.000001   0.056309   0.049793  -0.029540   0.008326
    30  O    0.001019   0.000013  -0.002657  -0.006072  -0.007710   0.021719
    31  O   -0.000223  -0.000559  -0.026919   0.003263  -0.000774   0.004247
    32  C    0.002197   0.000275  -0.019529   0.003289  -0.002020   0.019929
    33  C   -0.000948  -0.000250  -0.001442  -0.000527   0.001009   0.001919
    34  C   -0.000840  -0.000170  -0.001273  -0.000145   0.000457   0.000530
    35  H   -0.000280  -0.000012  -0.000060   0.000133  -0.000021   0.000326
    36  H   -0.000043  -0.000006   0.000103   0.000152  -0.000051  -0.000407
    37  H   -0.000259   0.000094  -0.000105  -0.000026   0.000014  -0.000045
    38  H    0.000082  -0.000016  -0.000081  -0.000011   0.000001  -0.000021
    39  H    0.000187   0.000091   0.000119  -0.000103   0.000130   0.000339
              13         14         15         16         17         18
     1  C   -0.851889  -0.258482  -0.013413  -0.005345  -0.001710   0.000669
     2  N   -0.325908  -0.148042   0.012737   0.015133  -0.007995  -0.004108
     3  C   -0.050385  -0.334993  -0.005544  -0.025622  -0.006776  -0.015597
     4  O    0.020730  -0.026422   0.001446  -0.008137   0.005989   0.003062
     5  O   -0.035431   0.069524  -0.052347  -0.022927  -0.056503  -0.045447
     6  C    0.000466  -0.036763   0.315438   0.309104   0.068262   0.070772
     7  C    0.003895   0.004714   0.014795   0.007203   0.387280   0.382261
     8  C    0.000171  -0.001424  -0.008522  -0.003206  -0.046780  -0.036465
     9  C   -0.423050   0.058209   0.000249   0.004838  -0.000548  -0.001200
    10  C   -0.109564  -0.008388  -0.001074  -0.000983  -0.000005  -0.000055
    11  C   -0.056263   0.005155   0.000253   0.000270   0.000070   0.000023
    12  C   -0.482990   0.004108  -0.000608  -0.000047   0.000005   0.000016
    13  C    9.673551  -0.102860   0.000793  -0.000357  -0.000295   0.000074
    14  H   -0.102860   1.327420   0.005287  -0.002578  -0.000052  -0.003451
    15  H    0.000793   0.005287   0.432536  -0.005571   0.026629  -0.023516
    16  H   -0.000357  -0.002578  -0.005571   0.423639  -0.026755   0.023764
    17  H   -0.000295  -0.000052   0.026629  -0.026755   0.443047  -0.001997
    18  H    0.000074  -0.003451  -0.023516   0.023764  -0.001997   0.424662
    19  H    0.000029   0.000277  -0.007267  -0.008337  -0.000455   0.000479
    20  H   -0.000013  -0.000052  -0.001040   0.000358  -0.003467  -0.002015
    21  H   -0.000018  -0.000138  -0.007842  -0.007995   0.001048  -0.001709
    22  H   -0.086830   0.017692  -0.003009   0.000256  -0.000183  -0.000313
    23  Cl   0.045598  -0.001993   0.000010   0.000024   0.000005   0.000016
    24  H   -0.409448  -0.055170  -0.000614   0.000153  -0.000366   0.000189
    25  C    0.026419  -0.001555  -0.000098  -0.000224   0.000005  -0.000000
    26  H    0.018239  -0.001644   0.000006   0.000012   0.000002   0.000004
    27  F    0.002255   0.000398   0.000013  -0.000039   0.000001  -0.000003
    28  F   -0.007296   0.000066   0.000013   0.000007  -0.000000   0.000001
    29  F   -0.014897   0.000229   0.000060   0.000028  -0.000000  -0.000000
    30  O    0.066370  -0.028548  -0.000045  -0.000138   0.000080  -0.000035
    31  O    0.081561  -0.130367  -0.000410   0.001107   0.000232  -0.000024
    32  C    0.071779  -0.055598  -0.000359  -0.000632  -0.000180   0.000450
    33  C   -0.000733   0.019361   0.000162   0.000026   0.000171   0.000009
    34  C   -0.000737  -0.006381   0.000269  -0.000179   0.001064  -0.000227
    35  H   -0.000823   0.001093  -0.000002   0.000044  -0.000007  -0.000017
    36  H    0.004391   0.004084   0.000016  -0.000019   0.000033  -0.000017
    37  H    0.000668   0.000341   0.000147  -0.000328   0.000052  -0.000179
    38  H   -0.000108  -0.000002   0.000033   0.000003   0.000175  -0.000244
    39  H   -0.001701  -0.002247  -0.000172   0.000114  -0.000227   0.000180
              19         20         21         22         23         24
     1  C    0.000420   0.000140   0.000615  -0.592517   0.073240  -0.250554
     2  N   -0.000245  -0.000152  -0.000784  -0.131299  -0.018368   0.035147
     3  C    0.005417   0.001612   0.004597   0.008382   0.000958   0.001758
     4  O    0.000177  -0.000101  -0.000194  -0.149088  -0.000024   0.002109
     5  O    0.001382   0.000063   0.000864  -0.003462  -0.000467   0.000272
     6  C   -0.007631  -0.006020  -0.006738  -0.028807   0.000338  -0.000078
     7  C    0.028159  -0.037014   0.030821  -0.000877   0.000001  -0.000088
     8  C    0.371631   0.455203   0.368230  -0.000134  -0.000000   0.000036
     9  C   -0.000123  -0.000019  -0.000004   0.374962  -0.016875   0.095777
    10  C    0.000022  -0.000003   0.000079  -0.285720   0.015994  -0.082547
    11  C   -0.000007   0.000002  -0.000000   0.013808  -0.225498   0.088021
    12  C    0.000002  -0.000004   0.000026   0.007089   0.093821  -0.246135
    13  C    0.000029  -0.000013  -0.000018  -0.086830   0.045598  -0.409448
    14  H    0.000277  -0.000052  -0.000138   0.017692  -0.001993  -0.055170
    15  H   -0.007267  -0.001040  -0.007842  -0.003009   0.000010  -0.000614
    16  H   -0.008337   0.000358  -0.007995   0.000256   0.000024   0.000153
    17  H   -0.000455  -0.003467   0.001048  -0.000183   0.000005  -0.000366
    18  H    0.000479  -0.002015  -0.001709  -0.000313   0.000016   0.000189
    19  H    0.320499   0.000663   0.018769  -0.000001  -0.000000   0.000011
    20  H    0.000663   0.311922   0.000353  -0.000012   0.000000   0.000011
    21  H    0.018769   0.000353   0.322805   0.000116  -0.000001   0.000005
    22  H   -0.000001  -0.000012   0.000116   1.461264  -0.001719  -0.000146
    23  Cl  -0.000000   0.000000  -0.000001  -0.001719  17.649120  -0.165828
    24  H    0.000011   0.000011   0.000005  -0.000146  -0.165828   1.325530
    25  C    0.000003  -0.000000   0.000003  -0.081112  -0.004117   0.001614
    26  H    0.000000   0.000000   0.000001  -0.006021  -0.028339  -0.032125
    27  F   -0.000001   0.000000  -0.000000  -0.015783  -0.000115   0.000570
    28  F    0.000000   0.000000  -0.000000  -0.001526  -0.000339  -0.000283
    29  F   -0.000001   0.000000  -0.000001  -0.028772  -0.000039   0.000292
    30  O    0.000002  -0.000003  -0.000001  -0.000339   0.005208  -0.223383
    31  O   -0.000045  -0.000097   0.000061   0.000059   0.003132  -0.002887
    32  C   -0.000034   0.000023   0.000042  -0.004418   0.004145  -0.062759
    33  C   -0.000021  -0.000009   0.000008  -0.000398   0.001818  -0.032387
    34  C   -0.000029   0.000023  -0.000043  -0.000056   0.000291   0.005106
    35  H   -0.000011   0.000005   0.000004   0.000008  -0.000099   0.000048
    36  H    0.000000  -0.000001   0.000001  -0.000027  -0.000128  -0.004520
    37  H    0.000076  -0.000065  -0.000020  -0.000042   0.000039   0.001483
    38  H   -0.000009   0.000005  -0.000005  -0.000008   0.000013   0.000129
    39  H   -0.000010  -0.000004   0.000026   0.000042   0.000026   0.001708
              25         26         27         28         29         30
     1  C   -0.026706   0.018173   0.008066  -0.009017  -0.014211  -0.005130
     2  N    0.003898  -0.010819  -0.001874   0.001872   0.003914   0.000984
     3  C    0.005083  -0.000277  -0.000559   0.001358   0.005275  -0.005216
     4  O    0.000003   0.000136   0.000774   0.000020  -0.001693  -0.000009
     5  O    0.001078  -0.000133  -0.000049   0.000029  -0.000027  -0.005683
     6  C   -0.001166   0.000296  -0.000207   0.000099   0.000001  -0.004717
     7  C    0.000046   0.000014  -0.000001  -0.000001  -0.000009   0.001019
     8  C    0.000005   0.000002  -0.000001   0.000000  -0.000001   0.000013
     9  C   -0.226984  -0.067070  -0.000930   0.009028   0.056309  -0.002657
    10  C   -0.296199  -0.137274  -0.005380   0.056763   0.049793  -0.006072
    11  C   -0.286070   0.217994  -0.010854  -0.016321  -0.029540  -0.007710
    12  C   -0.003156  -0.224599   0.002293   0.013997   0.008326   0.021719
    13  C    0.026419   0.018239   0.002255  -0.007296  -0.014897   0.066370
    14  H   -0.001555  -0.001644   0.000398   0.000066   0.000229  -0.028548
    15  H   -0.000098   0.000006   0.000013   0.000013   0.000060  -0.000045
    16  H   -0.000224   0.000012  -0.000039   0.000007   0.000028  -0.000138
    17  H    0.000005   0.000002   0.000001  -0.000000  -0.000000   0.000080
    18  H   -0.000000   0.000004  -0.000003   0.000001  -0.000000  -0.000035
    19  H    0.000003   0.000000  -0.000001   0.000000  -0.000001   0.000002
    20  H   -0.000000   0.000000   0.000000   0.000000   0.000000  -0.000003
    21  H    0.000003   0.000001  -0.000000  -0.000000  -0.000001  -0.000001
    22  H   -0.081112  -0.006021  -0.015783  -0.001526  -0.028772  -0.000339
    23  Cl  -0.004117  -0.028339  -0.000115  -0.000339  -0.000039   0.005208
    24  H    0.001614  -0.032125   0.000570  -0.000283   0.000292  -0.223383
    25  C    5.213991  -0.048914   0.184146   0.131991   0.171912  -0.000711
    26  H   -0.048914   0.866999   0.002336   0.001032  -0.002333  -0.000831
    27  F    0.184146   0.002336   9.326693  -0.052983  -0.029634  -0.000005
    28  F    0.131991   0.001032  -0.052983   9.327733  -0.063965  -0.000002
    29  F    0.171912  -0.002333  -0.029634  -0.063965   9.301049  -0.000004
    30  O   -0.000711  -0.000831  -0.000005  -0.000002  -0.000004   8.916773
    31  O   -0.000545   0.000234   0.000013   0.000013  -0.000074  -0.065510
    32  C   -0.000270   0.001282   0.000050   0.000028  -0.000240   0.442172
    33  C    0.000034   0.000131   0.000003   0.000003  -0.000007  -0.134497
    34  C   -0.000012   0.000015  -0.000000   0.000000  -0.000001  -0.012275
    35  H    0.000010   0.000017  -0.000000   0.000000  -0.000000  -0.001670
    36  H    0.000018   0.000029   0.000001   0.000000  -0.000001   0.005435
    37  H   -0.000006   0.000000   0.000001   0.000000  -0.000001   0.002975
    38  H   -0.000002  -0.000000  -0.000000   0.000000  -0.000000  -0.004060
    39  H    0.000002   0.000006  -0.000001  -0.000000  -0.000000   0.002638
              31         32         33         34         35         36
     1  C    0.020140  -0.010141  -0.010801   0.000144   0.000227  -0.001144
     2  N   -0.188738  -0.021550  -0.013479  -0.003364  -0.000822   0.000476
     3  C   -0.020696  -0.027818  -0.000920  -0.002988  -0.000009  -0.000115
     4  O   -0.007252   0.002184   0.000143   0.000097  -0.000020   0.000028
     5  O    0.006636  -0.009461   0.002171   0.000245   0.000579   0.000187
     6  C    0.019236   0.000496   0.005379  -0.000586   0.000732   0.000300
     7  C   -0.000223   0.002197  -0.000948  -0.000840  -0.000280  -0.000043
     8  C   -0.000559   0.000275  -0.000250  -0.000170  -0.000012  -0.000006
     9  C   -0.026919  -0.019529  -0.001442  -0.001273  -0.000060   0.000103
    10  C    0.003263   0.003289  -0.000527  -0.000145   0.000133   0.000152
    11  C   -0.000774  -0.002020   0.001009   0.000457  -0.000021  -0.000051
    12  C    0.004247   0.019929   0.001919   0.000530   0.000326  -0.000407
    13  C    0.081561   0.071779  -0.000733  -0.000737  -0.000823   0.004391
    14  H   -0.130367  -0.055598   0.019361  -0.006381   0.001093   0.004084
    15  H   -0.000410  -0.000359   0.000162   0.000269  -0.000002   0.000016
    16  H    0.001107  -0.000632   0.000026  -0.000179   0.000044  -0.000019
    17  H    0.000232  -0.000180   0.000171   0.001064  -0.000007   0.000033
    18  H   -0.000024   0.000450   0.000009  -0.000227  -0.000017  -0.000017
    19  H   -0.000045  -0.000034  -0.000021  -0.000029  -0.000011   0.000000
    20  H   -0.000097   0.000023  -0.000009   0.000023   0.000005  -0.000001
    21  H    0.000061   0.000042   0.000008  -0.000043   0.000004   0.000001
    22  H    0.000059  -0.004418  -0.000398  -0.000056   0.000008  -0.000027
    23  Cl   0.003132   0.004145   0.001818   0.000291  -0.000099  -0.000128
    24  H   -0.002887  -0.062759  -0.032387   0.005106   0.000048  -0.004520
    25  C   -0.000545  -0.000270   0.000034  -0.000012   0.000010   0.000018
    26  H    0.000234   0.001282   0.000131   0.000015   0.000017   0.000029
    27  F    0.000013   0.000050   0.000003  -0.000000  -0.000000   0.000001
    28  F    0.000013   0.000028   0.000003   0.000000   0.000000   0.000000
    29  F   -0.000074  -0.000240  -0.000007  -0.000001  -0.000000  -0.000001
    30  O   -0.065510   0.442172  -0.134497  -0.012275  -0.001670   0.005435
    31  O    8.821272   0.404698  -0.077525  -0.046886  -0.022035  -0.013850
    32  C    0.404698   5.323521  -0.472626   0.094392  -0.070504  -0.070454
    33  C   -0.077525  -0.472626   5.826978   0.091878   0.479861   0.493617
    34  C   -0.046886   0.094392   0.091878   5.743412  -0.018928  -0.028266
    35  H   -0.022035  -0.070504   0.479861  -0.018928   0.390971   0.020898
    36  H   -0.013850  -0.070454   0.493617  -0.028266   0.020898   0.392400
    37  H    0.005993  -0.021822   0.041292   0.326268  -0.004886   0.000704
    38  H   -0.006292   0.024328  -0.060245   0.445073  -0.008501  -0.007793
    39  H   -0.001774  -0.010480   0.031633   0.371903   0.001566  -0.003516
              37         38         39
     1  C   -0.000994   0.000880  -0.000210
     2  N    0.001274  -0.000642  -0.000222
     3  C   -0.001957  -0.000156   0.000236
     4  O    0.000081  -0.000014   0.000041
     5  O   -0.000303   0.000146  -0.000924
     6  C   -0.001269   0.000148  -0.000692
     7  C   -0.000259   0.000082   0.000187
     8  C    0.000094  -0.000016   0.000091
     9  C   -0.000105  -0.000081   0.000119
    10  C   -0.000026  -0.000011  -0.000103
    11  C    0.000014   0.000001   0.000130
    12  C   -0.000045  -0.000021   0.000339
    13  C    0.000668  -0.000108  -0.001701
    14  H    0.000341  -0.000002  -0.002247
    15  H    0.000147   0.000033  -0.000172
    16  H   -0.000328   0.000003   0.000114
    17  H    0.000052   0.000175  -0.000227
    18  H   -0.000179  -0.000244   0.000180
    19  H    0.000076  -0.000009  -0.000010
    20  H   -0.000065   0.000005  -0.000004
    21  H   -0.000020  -0.000005   0.000026
    22  H   -0.000042  -0.000008   0.000042
    23  Cl   0.000039   0.000013   0.000026
    24  H    0.001483   0.000129   0.001708
    25  C   -0.000006  -0.000002   0.000002
    26  H    0.000000  -0.000000   0.000006
    27  F    0.000001  -0.000000  -0.000001
    28  F    0.000000   0.000000  -0.000000
    29  F   -0.000001  -0.000000  -0.000000
    30  O    0.002975  -0.004060   0.002638
    31  O    0.005993  -0.006292  -0.001774
    32  C   -0.021822   0.024328  -0.010480
    33  C    0.041292  -0.060245   0.031633
    34  C    0.326268   0.445073   0.371903
    35  H   -0.004886  -0.008501   0.001566
    36  H    0.000704  -0.007793  -0.003516
    37  H    0.314646  -0.007240   0.019488
    38  H   -0.007240   0.364607  -0.008416
    39  H    0.019488  -0.008416   0.335377
 Mulliken charges:
               1
     1  C    0.448289
     2  N   -0.181405
     3  C    0.240370
     4  O   -0.909339
     5  O   -0.277616
     6  C   -0.338675
     7  C   -0.482637
     8  C   -0.984068
     9  C   -0.756846
    10  C    0.727216
    11  C   -0.976700
    12  C    0.445266
    13  C   -1.055393
    14  H    0.689190
    15  H    0.320560
    16  H    0.333338
    17  H    0.220154
    18  H    0.229990
    19  H    0.276206
    20  H    0.279709
    21  H    0.277019
    22  H    0.538942
    23  Cl  -0.429848
    24  H    1.009349
    25  C    1.237589
    26  H    0.433418
    27  F   -0.409191
    28  F   -0.392322
    29  F   -0.411736
    30  O   -0.956138
    31  O   -0.758415
    32  C    0.465616
    33  C   -0.190787
    34  C   -0.957780
    35  H    0.232187
    36  H    0.207485
    37  H    0.323914
    38  H    0.268242
    39  H    0.264846
 Sum of Mulliken charges =  -1.00000
 Mulliken charges with hydrogens summed into heavy atoms:
               1
     1  C    0.448289
     2  N    0.507785
     3  C    0.240370
     4  O   -0.909339
     5  O   -0.277616
     6  C    0.315223
     7  C   -0.032492
     8  C   -0.151134
     9  C   -0.217904
    10  C    0.727216
    11  C   -0.543282
    12  C    0.445266
    13  C   -0.046045
    23  Cl  -0.429848
    25  C    1.237589
    27  F   -0.409191
    28  F   -0.392322
    29  F   -0.411736
    30  O   -0.956138
    31  O   -0.758415
    32  C    0.465616
    33  C    0.248886
    34  C   -0.100778
 Electronic spatial extent (au):  <R**2>=          11522.8481
 Charge=             -1.0000 electrons
 Dipole moment (field-independent basis, Debye):
    X=              0.2048    Y=             -5.3442    Z=              0.8588  Tot=              5.4167
 Quadrupole moment (field-independent basis, Debye-Ang):
   XX=           -179.6172   YY=           -186.0362   ZZ=           -147.5987
[...]
  1194. RY*(  10) C  33                  0.00010    -0.16232   
  1195. RY*(  11) C  33                  0.00000     2.14004   
  1196. RY*(  12) C  33                  0.00000     1.58919   
  1197. RY*(  13) C  33                  0.00001     1.48052   
  1198. RY*(  14) C  33                  0.00001     1.12972   
  1199. RY*(  15) C  33                  0.00000     2.73033   
  1200. RY*(  16) C  33                  0.00000     1.19325   
  1201. RY*(  17) C  33                  0.00000     1.37006   
  1202. RY*(  18) C  33                  0.00000     6.87875   
  1203. RY*(  19) C  33                  0.00001     2.48125   
  1204. RY*(  20) C  33                  0.00000     3.26710   
  1205. RY*(  21) C  33                  0.00000     3.00126   
  1206. RY*(  22) C  33                  0.00000     1.30551   
  1207. RY*(  23) C  33                  0.00000     3.30073   
  1208. RY*(  24) C  33                  0.00000     3.28250   
  1209. RY*(  25) C  33                  0.00000     3.29150   
  1210. RY*(  26) C  33                  0.00000     3.53213   
  1211. RY*(  27) C  33                  0.00000     2.69662   
  1212. RY*(  28) C  33                  0.00000     4.31739   
  1213. RY*(  29) C  33                  0.00000     3.47403   
  1214. RY*(  30) C  33                  0.00000     0.13876   
  1215. RY*(  31) C  33                  0.00000     3.04603   
  1216. RY*(  32) C  33                  0.00000     4.38072   
  1217. RY*(  33) C  33                  0.00000     2.80627   
  1218. RY*(  34) C  33                  0.00000     4.32482   
  1219. RY*(  35) C  33                  0.00000    -0.47773   
  1220. RY*(  36) C  33                  0.00000     4.39284   
  1221. RY*(  37) C  33                  0.00000     3.18789   
  1222. RY*(  38) C  33                  0.00000     4.63993   
  1223. RY*(  39) C  33                  0.00000     3.34667   
  1224. RY*(  40) C  33                  0.00000     4.30703   
  1225. RY*(  41) C  33                  0.00000     3.79772   
  1226. RY*(   1) C  34                  0.00191     1.31420   
  1227. RY*(   2) C  34                  0.00074     1.59379   
  1228. RY*(   3) C  34                  0.00034     1.00721   
  1229. RY*(   4) C  34                  0.00016     1.62741   
  1230. RY*(   5) C  34                  0.00010     1.44125   
  1231. RY*(   6) C  34                  0.00006     1.54688   
  1232. RY*(   7) C  34                  0.00004    -2.85735   
  1233. RY*(   8) C  34                  0.00005     2.50399   
  1234. RY*(   9) C  34                  0.00002     1.78272   
  1235. RY*(  10) C  34                  0.00001     1.02266   
  1236. RY*(  11) C  34                  0.00000     2.05646   
  1237. RY*(  12) C  34                  0.00000     0.15217   
  1238. RY*(  13) C  34                  0.00000    -3.81469   
  1239. RY*(  14) C  34                  0.00000     2.18589   
  1240. RY*(  15) C  34                  0.00000    -0.50786   
  1241. RY*(  16) C  34                  0.00000    -4.72970   
  1242. RY*(  17) C  34                  0.00000     5.83283   
  1243. RY*(  18) C  34                  0.00000     5.70027   
  1244. RY*(  19) C  34                  0.00000     5.77029   
  1245. RY*(  20) C  34                  0.00000     5.69118   
  1246. RY*(  21) C  34                  0.00000    10.74991   
  1247. RY*(  22) C  34                  0.00001     1.98355   
  1248. RY*(  23) C  34                  0.00000     4.87135   
  1249. RY*(  24) C  34                  0.00000    12.14757   
  1250. RY*(  25) C  34                  0.00000    -1.21294   
  1251. RY*(  26) C  34                  0.00000     5.67723   
  1252. RY*(  27) C  34                  0.00000    11.58633   
  1253. RY*(  28) C  34                  0.00000     5.39689   
  1254. RY*(  29) C  34                  0.00000     2.83615   
  1255. RY*(  30) C  34                  0.00000     4.89788   
  1256. RY*(  31) C  34                  0.00000     3.07163   
  1257. RY*(  32) C  34                  0.00000     4.52100   
  1258. RY*(  33) C  34                  0.00000     2.81654   
  1259. RY*(  34) C  34                  0.00000     4.73305   
  1260. RY*(  35) C  34                  0.00000     1.99666   
  1261. RY*(  36) C  34                  0.00000    -6.40212   
  1262. RY*(  37) C  34                  0.00000     4.29850   
  1263. RY*(  38) C  34                  0.00000     4.32507   
  1264. RY*(  39) C  34                  0.00000    -1.25440   
  1265. RY*(  40) C  34                  0.00000     1.61196   
  1266. RY*(  41) C  34                  0.00000     4.21285   
  1267. RY*(   1) H  35                  0.00107     0.80163   
  1268. RY*(   2) H  35                  0.00039     0.01066   
  1269. RY*(   3) H  35                  0.00033    -1.49308   
  1270. RY*(   4) H  35                  0.00013     1.99828   
  1271. RY*(   5) H  35                  0.00014     2.76804   
  1272. RY*(   6) H  35                  0.00009     2.27535   
  1273. RY*(   7) H  35                  0.00003     3.61430   
  1274. RY*(   8) H  35                  0.00001     3.63856   
  1275. RY*(   9) H  35                  0.00001     1.58891   
  1276. RY*(  10) H  35                  0.00000     0.85318   
  1277. RY*(  11) H  35                  0.00000     3.83364   
  1278. RY*(  12) H  35                  0.00001     5.12473   
  1279. RY*(  13) H  35                  0.00000     5.67430   
  1280. RY*(  14) H  35                  0.00000     3.94886   
  1281. RY*(  15) H  35                  0.00000     5.06129   
  1282. RY*(  16) H  35                  0.00000    16.13328   
  1283. RY*(  17) H  35                  0.00000     2.09504   
  1284. RY*(  18) H  35                  0.00000     5.37200   
  1285. RY*(  19) H  35                  0.00001    13.44824   
  1286. RY*(  20) H  35                  0.00000     3.78787   
  1287. RY*(  21) H  35                  0.00000     5.02365   
  1288. RY*(  22) H  35                  0.00000    11.77341   
  1289. RY*(   1) H  36                  0.00110     1.65871   
  1290. RY*(   2) H  36                  0.00036     1.83836   
  1291. RY*(   3) H  36                  0.00031     1.32772   
  1292. RY*(   4) H  36                  0.00015     1.19296   
  1293. RY*(   5) H  36                  0.00014     2.80041   
  1294. RY*(   6) H  36                  0.00009     2.35924   
  1295. RY*(   7) H  36                  0.00003     3.08755   
  1296. RY*(   8) H  36                  0.00000     5.23799   
  1297. RY*(   9) H  36                  0.00001     3.44347   
  1298. RY*(  10) H  36                  0.00001     4.41272   
  1299. RY*(  11) H  36                  0.00001     3.35016   
  1300. RY*(  12) H  36                  0.00000     3.35830   
  1301. RY*(  13) H  36                  0.00000     2.01063   
  1302. RY*(  14) H  36                  0.00000     4.64070   
  1303. RY*(  15) H  36                  0.00000     3.10036   
  1304. RY*(  16) H  36                  0.00000     3.85975   
  1305. RY*(  17) H  36                  0.00001     2.62205   
  1306. RY*(  18) H  36                  0.00000     1.79580   
  1307. RY*(  19) H  36                  0.00001     2.96146   
  1308. RY*(  20) H  36                  0.00000     3.70666   
  1309. RY*(  21) H  36                  0.00000     2.40606   
  1310. RY*(  22) H  36                  0.00000     3.72097   
  1311. RY*(   1) H  37                  0.00091     0.82819   
  1312. RY*(   2) H  37                  0.00036     1.16159   
  1313. RY*(   3) H  37                  0.00022     1.84009   
  1314. RY*(   4) H  37                  0.00020     1.62843   
  1315. RY*(   5) H  37                  0.00009     2.21058   
  1316. RY*(   6) H  37                  0.00007     2.57555   
  1317. RY*(   7) H  37                  0.00003     1.87346   
  1318. RY*(   8) H  37                  0.00000     5.27352   
  1319. RY*(   9) H  37                  0.00000     3.33324   
  1320. RY*(  10) H  37                  0.00000     2.72233   
  1321. RY*(  11) H  37                  0.00001     2.96522   
  1322. RY*(  12) H  37                  0.00000     3.26940   
  1323. RY*(  13) H  37                  0.00000     2.55874   
  1324. RY*(  14) H  37                  0.00000     4.56140   
  1325. RY*(  15) H  37                  0.00001     1.93121   
  1326. RY*(  16) H  37                  0.00000     4.26822   
  1327. RY*(  17) H  37                  0.00000     2.47574   
  1328. RY*(  18) H  37                  0.00000     4.01656   
  1329. RY*(  19) H  37                  0.00001     3.09491   
  1330. RY*(  20) H  37                  0.00000     4.43346   
  1331. RY*(  21) H  37                  0.00001     2.12170   
  1332. RY*(  22) H  37                  0.00000     4.61137   
  1333. RY*(   1) H  38                  0.00096     0.67907   
  1334. RY*(   2) H  38                  0.00032    -1.62330   
  1335. RY*(   3) H  38                  0.00017    -6.14986   
  1336. RY*(   4) H  38                  0.00014     2.05304   
  1337. RY*(   5) H  38                  0.00007     0.34311   
  1338. RY*(   6) H  38                  0.00004     1.08329   
  1339. RY*(   7) H  38                  0.00002    -0.46532   
  1340. RY*(   8) H  38                  0.00000     3.72534   
  1341. RY*(   9) H  38                  0.00000     3.96994   
  1342. RY*(  10) H  38                  0.00000     3.31297   
  1343. RY*(  11) H  38                  0.00001   -45.42631   
  1344. RY*(  12) H  38                  0.00000     3.79454   
  1345. RY*(  13) H  38                  0.00000    -0.05989   
  1346. RY*(  14) H  38                  0.00000     4.89218   
  1347. RY*(  15) H  38                  0.00000     1.68777   
  1348. RY*(  16) H  38                  0.00000     4.18167   
  1349. RY*(  17) H  38                  0.00000     2.01733   
  1350. RY*(  18) H  38                  0.00000     4.19049   
  1351. RY*(  19) H  38                  0.00000     0.28904   
  1352. RY*(  20) H  38                  0.00000     5.81746   
  1353. RY*(  21) H  38                  0.00000     2.02347   
  1354. RY*(  22) H  38                  0.00000     4.05453   
  1355. RY*(   1) H  39                  0.00095    -0.10970   
  1356. RY*(   2) H  39                  0.00034     0.65836   
  1357. RY*(   3) H  39                  0.00022    -3.29279   
  1358. RY*(   4) H  39                  0.00020   -15.34230   
  1359. RY*(   5) H  39                  0.00010    -7.64392   
  1360. RY*(   6) H  39                  0.00007    -6.80510   
  1361. RY*(   7) H  39                  0.00003   -26.26149   
  1362. RY*(   8) H  39                  0.00001    -1.17710   
  1363. RY*(   9) H  39                  0.00000    -6.65389   
  1364. RY*(  10) H  39                  0.00001   -25.42634   
  1365. RY*(  11) H  39                  0.00000     5.20616   
  1366. RY*(  12) H  39                  0.00001    -6.14140   
  1367. RY*(  13) H  39                  0.00000     2.38423   
  1368. RY*(  14) H  39                  0.00000     1.44468   
  1369. RY*(  15) H  39                  0.00001    -4.07840   
  1370. RY*(  16) H  39                  0.00000   -26.80222   
  1371. RY*(  17) H  39                  0.00000   -10.31335   
  1372. RY*(  18) H  39                  0.00000     0.01189   
  1373. RY*(  19) H  39                  0.00001   -10.24923   
  1374. RY*(  20) H  39                  0.00000    -1.47359   
  1375. RY*(  21) H  39                  0.00000  -201.05625   
  1376. RY*(  22) H  39                  0.00000    -7.42599   
  1409. BD*(   1) O  30 - C  32          0.03954     6.65434   
  1410. BD*(   1) O  31 - C  32          0.05185    -2.15757   
  1411. BD*(   1) C  32 - C  33          0.08189     7.30309   
  1412. BD*(   1) C  33 - C  34          0.00680    -4.46924   
  1413. BD*(   1) C  33 - H  35          0.01140     6.52149   
  1414. BD*(   1) C  33 - H  36          0.01144     6.45246   
  1415. BD*(   1) C  34 - H  37          0.00781     6.22738   
  1416. BD*(   1) C  34 - H  38          0.00766    -8.14915   
  1417. BD*(   1) C  34 - H  39          0.00773     5.39096   
       -------------------------------
              Total Lewis   38.92516  ( 97.5594%)
        Valence non-Lewis    0.90417  (  2.2661%)
        Rydberg non-Lewis    0.06962  (  0.1745%)
       -------------------------------
            Total unit  2   39.89895  (100.0000%)
           Charge unit  2   -0.89895
 Unable to Open any file for archive entry.
 1\1\GINC-GADI-HMEM-CLX-0049\SP\RDSDPBEP86-FC\Aug-CC-pVTZ\C14H16Cl1F3N1
 O4(1-)\HIO507\28-Apr-2021\0\\# DSDPBEP86/AUG-cc-PVTZ SCF=Tight INT(gri
 d=ultrafine) Pop=NBO MaxDisk=1400000MB\\NM3CA_carboxy.DSDPBEP86_AUG-cc
 -PVTZ\\-1,1\C,0,-6.0218682765,1.1511233346,0.2663762385\N,0,-4.7473428
 498,0.6037863335,0.1578002785\C,0,-3.5990125137,1.3127865958,0.0359666
 95\O,0,-3.4657142753,2.5196470019,-0.0150367536\O,0,-2.549028129,0.464
 6220958,-0.0330302146\C,0,-1.2721319454,1.0745308768,-0.1475468422\C,0
 ,-0.2471228371,-0.0400897276,-0.2109707102\C,0,1.16944091,0.5149552102
 ,-0.3279591496\C,0,-6.2781547558,2.5174448429,0.4368671959\C,0,-7.5948
 819429,2.9494408987,0.5597313659\C,0,-8.6711411615,2.0755534437,0.5190
 691027\C,0,-8.3853025227,0.7256987108,0.3452825216\C,0,-7.0979255503,0
 .2446720113,0.213932532\H,0,-4.6605154939,-0.4533220936,0.2341695898\H
 ,0,-1.0982806136,1.7293558966,0.7123985021\H,0,-1.2404150479,1.6995930
 523,-1.0455994694\H,0,-0.480735253,-0.6833418148,-1.0633965674\H,0,-0.
 3473704103,-0.66021289,0.6835254741\H,0,1.2832449026,1.1247686995,-1.2
 285957209\H,0,1.9075212571,-0.2880687716,-0.3762162384\H,0,1.420427562
 7,1.1448151791,0.5300630863\H,0,-5.4616923497,3.2229577478,0.474555181
 6\Cl,0,-9.7233949877,-0.4007249638,0.2851922043\H,0,-6.9090797148,-0.8
 182530646,0.0474534283\C,0,-7.8466334296,4.4205411722,0.6884154257\H,0
 ,-9.6911137464,2.420977436,0.6202830689\F,0,-7.7483252288,5.0607842598
 ,-0.4944203483\F,0,-9.0764766862,4.6959932777,1.1611515205\F,0,-6.9730
 159039,5.0240260732,1.5116281794\O,0,-6.3589735715,-2.7472367037,-0.44
 98684595\O,0,-4.4668183366,-2.0270798678,0.5122028401\C,0,-5.252086338
 ,-2.9208877443,0.0878216047\C,0,-4.7892047351,-4.3801364041,0.26625402
 43\C,0,-3.3880707417,-4.5346490042,0.842695366\H,0,-4.8720226976,-4.86
 47016038,-0.7115209116\H,0,-5.5316919205,-4.8729392508,0.9027371721\H,
 0,-2.6509494513,-4.0471735582,0.2017347359\H,0,-3.1124293358,-5.589010
 3199,0.950805386\H,0,-3.3190818786,-4.0539363674,1.8196786657\\Version
 =ES64L-G16RevC.01\State=1-A\HF=-1654.6581096\MP2=-1656.8760326\RMSD=1.
 255e-09\PG=C01 [X(C14H16Cl1F3N1O4)]\\@
 The archive entry for this job was punched.


                                                                                    A
                                                                                  AA
                                                                                 AAA
                                                                                AAAA
                                                                               AAAAA
                                                                              AAAAAA   KKKKKKKK
                                                                             AAAAAAA   KKKKKKKK
                                                                            AAAAAAAA   KKKKKKKK
                                       ZZZZZZZZZZZZZZZZZZZZ                AAAA  AAA   KKKKKKKK
                                       ZZZZZZZZZZZZZZZZZZZ                AAAA   AAA   KKKKKKKK          K
                                       ZZZZZZZZZZZZZZZZZZ                AAAA    AAA   KKKKKKKK         KKK
                                       ZZZZZZZZZZZZZZZZZ                AAAA     AAA   KKKKKKKK        KKKKK
                                       ZZZZZZZZZZZZZZZZ                AAAA      AAA   KKKKKKKK       KKKKKKK
                                                ZZZZZZ                AAAA       AAA   KKKKKKKK      KKKKKKK
                                               ZZZZZZ                AAAA        AAA   KKKKKKKK     KKKKKKK
                                              ZZZZZZ                AAAA         AAA   KKKKKKKK    KKKKKKK
                                             ZZZZZZ                AAAA          AAA   KKKKKKKK   KKKKKKK
                                            ZZZZZZ                AAAAAAAAAAAAAAAAAA   KKKKKKKK  KKKKKKK
                                           ZZZZZZ                AAAAAAAAAAAAAAAAAAA   KKKKKKKK KKKKKKK
                                          ZZZZZZ                AAAAAAAAAAAAAAAAAAAA   KKKKKKKKKKKKKKK
                                         ZZZZZZ                AAAAAAAAAAAAAAAAAAAAA   KKKKKKKKKKKKKK
                                        ZZZZZZ                AAAAAA        AAAAAAAA   KKKKKKKKKKKKK
                                       ZZZZZZ                AAAAAA         AAAAAAAA   KKKKKKKKKKKK
                                      ZZZZZZ                AAAAAA          AAAAAAAA   KKKKKKKKKKK
                                     ZZZZZZ                AAAAAA           AAAAAAAA   KKKKKKKKKKKK
                                    ZZZZZZ                AAAAAA            AAAAAAAA   KKKKKKKKKKKKK
                                   ZZZZZZ                AAAAAA             AAAAAAAA   KKKKKKKKKKKKKK
                                  ZZZZZZ                AAAAAA              AAAAAAAA   KKKKKKKKKKKKKKK
                                 ZZZZZZ                AAAAAA               AAAAAAAA   KKKKK KKKKKKKKKK
                                ZZZZZZ                AAAAAA                AAAAAAAA   KKKKK  KKKKKKKKKK
                               ZZZZZZ                AAAAAA                            KKKKK   KKKKKKKKKK
                              ZZZZZZ                AAAAAA                             KKKKK    KKKKKKKKKK
                             ZZZZZZ                                                    KKKKK     KKKKKKKKKK
                            ZZZZZZ                                                     KKKKK      KKKKKKKKKK
                           ZZZZZZ                                                      KKKKK       KKKKKKKKKK
                          ZZZZZZ                                                       KKKKK        KKKKKKKKKK
                         ZZZZZZZZZZZZZZZZZZZZZZZZZZZZZZZZZZZZZZZZ                      KKKKK         KKKKKKKKKK
                        ZZZZZZZZZZZZZZZZZZZZZZZZZZZZZZZZZZZZZZZZZ                      KKKKK          KKKKKKKKKK
                       ZZZZZZZZZZZZZZZZZZZZZZZZZZZZZZZZZZZZZZZZZZ                      KKKKK           KKKKKKKKKK
                       ZZZZZZZZZZZZZZZZZZZZZZZZZZZZZZZZZZZZZZZZZZ                      KKKKK            KKKKKKKKKK
                       ZZZZZZZZZZZZZZZZZZZZZZZZZZZZZZZZZZZZZZZZZZ                      KKKKK             KKKKKKKKKK
                       ZZZZZZZZZZZZZZZZZZZZZZZZZZZZZZZZZZZZZZZZZZ                      KKKKK              KKKKKKKKKK
                       ZZZZZZZZZZZZZZZZZZZZZZZZZZZZZZZZZZZZZZZZZZ                      KKKKK               KKKKKKKKKK
                       ZZZZZZZZZZZZZZZZZZZZZZZZZZZZZZZZZZZZZZZZZZ                      KKKKK                KKKKKKKKKK
                       ZZZZZZZZZZZZZZZZZZZZZZZZZZZZZZZZZZZZZZZZZZ                      KKKKK
                                                                                       KKKKK
                                                                                          (J.P.)
 Job cpu time:       6 days 12 hours 54 minutes 37.8 seconds.
 Elapsed time:       0 days  4 hours 56 minutes  1.8 seconds.
 File lengths (MBytes):  RWF=   1053 Int=      0 D2E=      0 Chk=    134 Scr=      1
 Normal termination of Gaussian 16 at Wed Apr 28 17:16:44 2021.
