 Entering Gaussian System, Link 0=/apps/gaussian/g16c01/g16/g16
 Initial command:
 /apps/gaussian/g16c01/g16/l1.exe "/jobfs/19908908.gadi-pbs/Gau-514351.inp" -scrdir="/jobfs/19908908.gadi-pbs/"
 Entering Link 1 = /apps/gaussian/g16c01/g16/l1.exe PID=    514352.
  
 Copyright (c) 1988-2019, Gaussian, Inc.  All Rights Reserved.
  
 This is part of the Gaussian(R) 16 program.  It is based on
 the Gaussian(R) 09 system (copyright 2009, Gaussian, Inc.),
 the Gaussian(R) 03 system (copyright 2003, Gaussian, Inc.),
 the Gaussian(R) 98 system (copyright 1998, Gaussian, Inc.),
 the Gaussian(R) 94 system (copyright 1995, Gaussian, Inc.),
 the Gaussian 92(TM) system (copyright 1992, Gaussian, Inc.),
 the Gaussian 90(TM) system (copyright 1990, Gaussian, Inc.),
 the Gaussian 88(TM) system (copyright 1988, Gaussian, Inc.),
 the Gaussian 86(TM) system (copyright 1986, Carnegie Mellon
 University), and the Gaussian 82(TM) system (copyright 1983,
 Carnegie Mellon University). Gaussian is a federally registered
 trademark of Gaussian, Inc.
  
 This software contains proprietary and confidential information,
 including trade secrets, belonging to Gaussian, Inc.
  
 This software is provided under written license and may be
 used, copied, transmitted, or stored only in accord with that
 written license.
  
 The following legend is applicable only to US Government
 contracts under FAR:
  
                    RESTRICTED RIGHTS LEGEND
  
 Use, reproduction and disclosure by the US Government is
 subject to restrictions as set forth in subparagraphs (a)
 and (c) of the Commercial Computer Software - Restricted
 Rights clause in FAR 52.227-19.
  
 Gaussian, Inc.
 340 Quinnipiac St., Bldg. 40, Wallingford CT 06492
  
  
 ---------------------------------------------------------------
 Warning -- This program may not be used in any manner that
 competes with the business of Gaussian, Inc. or will provide
 assistance to any competitor of Gaussian, Inc.  The licensee
 of this program is prohibited from giving any competitor of
 Gaussian, Inc. access to this program.  By using this program,
 the user acknowledges that Gaussian, Inc. is engaged in the
 business of creating and licensing software in the field of
 computational chemistry and represents and warrants to the
 licensee that it is not a competitor of Gaussian, Inc. and that
 it will not use this program in any manner prohibited above.
 ---------------------------------------------------------------
  

 Cite this work as:
 Gaussian 16, Revision C.01,
 M. J. Frisch, G. W. Trucks, H. B. Schlegel, G. E. Scuseria, 
 M. A. Robb, J. R. Cheeseman, G. Scalmani, V. Barone, 
 G. A. Petersson, H. Nakatsuji, X. Li, M. Caricato, A. V. Marenich, 
 J. Bloino, B. G. Janesko, R. Gomperts, B. Mennucci, H. P. Hratchian, 
 J. V. Ortiz, A. F. Izmaylov, J. L. Sonnenberg, D. Williams-Young, 
 F. Ding, F. Lipparini, F. Egidi, J. Goings, B. Peng, A. Petrone, 
 T. Henderson, D. Ranasinghe, V. G. Zakrzewski, J. Gao, N. Rega, 
 G. Zheng, W. Liang, M. Hada, M. Ehara, K. Toyota, R. Fukuda, 
 J. Hasegawa, M. Ishida, T. Nakajima, Y. Honda, O. Kitao, H. Nakai, 
 T. Vreven, K. Throssell, J. A. Montgomery, Jr., J. E. Peralta, 
 F. Ogliaro, M. J. Bearpark, J. J. Heyd, E. N. Brothers, K. N. Kudin, 
 V. N. Staroverov, T. A. Keith, R. Kobayashi, J. Normand, 
 K. Raghavachari, A. P. Rendell, J. C. Burant, S. S. Iyengar, 
 J. Tomasi, M. Cossi, J. M. Millam, M. Klene, C. Adamo, R. Cammi, 
 J. W. Ochterski, R. L. Martin, K. Morokuma, O. Farkas, 
 J. B. Foresman, and D. J. Fox, Gaussian, Inc., Wallingford CT, 2019.
 
 ******************************************
 Gaussian 16:  ES64L-G16RevC.01  3-Jul-2019
                 1-Apr-2021 
 ******************************************
 %NprocShared=32
 Will use up to   32 processors via shared memory.
 %Mem=10000MB
 %chk=NM3CA_carboxy.M062X_6-311pGd_opt_water_GD3.chk
 ----------------------------------------------------------------------
 # M062X/6-311+G* SCF=Tight INT(grid=ultrafine) OPT=CalcFC IOP(2/17=4) 
 EmpiricalDispersion=GD3 SCRF=(SMD,Solvent=h2o) MaxDisk=10000MB
 ----------------------------------------------------------------------
 1/10=4,18=20,19=15,26=6,38=1/1,3;
 2/9=110,12=2,17=4,18=5,40=1/2;
 3/5=4,6=6,7=11,11=2,25=1,30=1,70=32201,71=2,72=1,74=-55,75=-5,124=31,140=1/1,2,3;
 4//1;
 5/5=2,32=2,38=5,53=1/2;
 8/6=4,10=90,11=11/1;
 11/6=1,8=1,9=11,15=111,16=1/1,2,10;
 10/6=1,13=1/2;
 6/7=2,8=2,9=2,10=2,28=1/1;
 7/10=1,25=1/1,2,3,16;
 1/10=4,18=20,19=15,26=6/3(2);
 2/9=110,17=4/2;
 99//99;
 2/9=110,17=4/2;
 3/5=4,6=6,7=11,11=2,25=1,30=1,70=32205,71=1,72=1,74=-55,75=-5,124=31/1,2,3;
 4/5=5,16=3,69=1/1;
 5/5=2,32=2,38=5,53=1/2;
 7//1,2,3,16;
 1/18=20,19=15,26=6/3(-5);
 2/9=110,17=4/2;
 6/7=2,8=2,9=2,10=2,19=2,28=1/1;
 99/9=1/99;
 ------------------------------------------
 NM3CA_carboxy.M062X_6-311pGd_opt_water_GD3
 ------------------------------------------
 Symbolic Z-matrix:
 Charge = -1 Multiplicity = 1
 C                    -6.02187   1.15112   0.26638 
 N                    -4.74734   0.60379   0.1578 
 C                    -3.59901   1.31279   0.03597 
 O                    -3.46571   2.51965  -0.01504 
 O                    -2.54903   0.46462  -0.03303 
 C                    -1.27213   1.07453  -0.14755 
 C                    -0.24712  -0.04009  -0.21097 
 C                     1.16944   0.51496  -0.32796 
 C                    -6.27815   2.51744   0.43687 
 C                    -7.59488   2.94944   0.55973 
 C                    -8.67114   2.07555   0.51907 
 C                    -8.3853    0.7257    0.34528 
 C                    -7.09793   0.24467   0.21393 
 H                    -4.66052  -0.45332   0.23417 
 H                    -1.09828   1.72936   0.7124 
 H                    -1.24042   1.69959  -1.0456 
 H                    -0.48074  -0.68334  -1.0634 
 H                    -0.34737  -0.66021   0.68353 
 H                     1.28324   1.12477  -1.2286 
 H                     1.90752  -0.28807  -0.37622 
 H                     1.42043   1.14482   0.53006 
 H                    -5.46169   3.22296   0.47456 
 Cl                   -9.72339  -0.40072   0.28519 
 H                    -6.90908  -0.81825   0.04745 
 C                    -7.84663   4.42054   0.68842 
 H                    -9.69111   2.42098   0.62028 
 F                    -7.74833   5.06078  -0.49442 
 F                    -9.07648   4.69599   1.16115 
 F                    -6.97302   5.02403   1.51163 
 O                    -6.35897  -2.74724  -0.44987 
 O                    -4.46682  -2.02708   0.5122 
 C                    -5.25209  -2.92089   0.08782 
 C                    -4.7892   -4.38014   0.26625 
 C                    -3.38807  -4.53465   0.8427 
 H                    -4.87202  -4.8647   -0.71152 
 H                    -5.53169  -4.87294   0.90274 
 H                    -2.65095  -4.04717   0.20173 
 H                    -3.11243  -5.58901   0.95081 
 H                    -3.31908  -4.05394   1.81968 
 
 Add virtual bond connecting atoms O31        and H14        Dist= 3.04D+00.

 GradGradGradGradGradGradGradGradGradGradGradGradGradGradGradGradGradGrad
 Berny optimization.
 Initialization pass.
                           ----------------------------
                           !    Initial Parameters    !
                           ! (Angstroms and Degrees)  !
 --------------------------                            --------------------------
 ! Name  Definition              Value          Derivative Info.                !
 --------------------------------------------------------------------------------
 ! R1    R(1,2)                  1.3913         calculate D2E/DX2 analytically  !
 ! R2    R(1,9)                  1.4006         calculate D2E/DX2 analytically  !
 ! R3    R(1,13)                 1.4079         calculate D2E/DX2 analytically  !
 ! R4    R(2,3)                  1.3551         calculate D2E/DX2 analytically  !
 ! R5    R(2,14)                 1.0634         calculate D2E/DX2 analytically  !
 ! R6    R(3,4)                  1.2153         calculate D2E/DX2 analytically  !
 ! R7    R(3,5)                  1.3515         calculate D2E/DX2 analytically  !
 ! R8    R(5,6)                  1.4197         calculate D2E/DX2 analytically  !
 ! R9    R(6,7)                  1.5156         calculate D2E/DX2 analytically  !
 ! R10   R(6,15)                 1.0948         calculate D2E/DX2 analytically  !
 ! R11   R(6,16)                 1.0946         calculate D2E/DX2 analytically  !
 ! R12   R(7,8)                  1.5259         calculate D2E/DX2 analytically  !
 ! R13   R(7,17)                 1.0932         calculate D2E/DX2 analytically  !
 ! R14   R(7,18)                 1.093          calculate D2E/DX2 analytically  !
 ! R15   R(8,19)                 1.0936         calculate D2E/DX2 analytically  !
 ! R16   R(8,20)                 1.0918         calculate D2E/DX2 analytically  !
 ! R17   R(8,21)                 1.0936         calculate D2E/DX2 analytically  !
 ! R18   R(9,10)                 1.3912         calculate D2E/DX2 analytically  !
 ! R19   R(9,22)                 1.0797         calculate D2E/DX2 analytically  !
 ! R20   R(10,11)                1.387          calculate D2E/DX2 analytically  !
 ! R21   R(10,25)                1.498          calculate D2E/DX2 analytically  !
 ! R22   R(11,12)                1.3907         calculate D2E/DX2 analytically  !
 ! R23   R(11,26)                1.0816         calculate D2E/DX2 analytically  !
 ! R24   R(12,13)                1.3806         calculate D2E/DX2 analytically  !
 ! R25   R(12,23)                1.7501         calculate D2E/DX2 analytically  !
 ! R26   R(13,24)                1.0923         calculate D2E/DX2 analytically  !
 ! R27   R(14,31)                1.6098         calculate D2E/DX2 analytically  !
 ! R28   R(25,27)                1.3486         calculate D2E/DX2 analytically  !
 ! R29   R(25,28)                1.3461         calculate D2E/DX2 analytically  !
 ! R30   R(25,29)                1.3435         calculate D2E/DX2 analytically  !
 ! R31   R(30,32)                1.2428         calculate D2E/DX2 analytically  !
 ! R32   R(31,32)                1.2632         calculate D2E/DX2 analytically  !
 ! R33   R(32,33)                1.5413         calculate D2E/DX2 analytically  !
 ! R34   R(33,34)                1.5229         calculate D2E/DX2 analytically  !
 ! R35   R(33,35)                1.0944         calculate D2E/DX2 analytically  !
 ! R36   R(33,36)                1.0951         calculate D2E/DX2 analytically  !
 ! R37   R(34,37)                1.0917         calculate D2E/DX2 analytically  !
 ! R38   R(34,38)                1.0951         calculate D2E/DX2 analytically  !
 ! R39   R(34,39)                1.091          calculate D2E/DX2 analytically  !
 ! A1    A(2,1,9)              124.1181         calculate D2E/DX2 analytically  !
 ! A2    A(2,1,13)             116.3555         calculate D2E/DX2 analytically  !
 ! A3    A(9,1,13)             119.5216         calculate D2E/DX2 analytically  !
 ! A4    A(1,2,3)              125.2736         calculate D2E/DX2 analytically  !
 ! A5    A(1,2,14)             117.4033         calculate D2E/DX2 analytically  !
 ! A6    A(3,2,14)             117.2185         calculate D2E/DX2 analytically  !
 ! A7    A(2,3,4)              128.0486         calculate D2E/DX2 analytically  !
 ! A8    A(2,3,5)              109.5483         calculate D2E/DX2 analytically  !
 ! A9    A(4,3,5)              122.4025         calculate D2E/DX2 analytically  !
 ! A10   A(3,5,6)              115.6745         calculate D2E/DX2 analytically  !
 ! A11   A(5,6,7)              107.2            calculate D2E/DX2 analytically  !
 ! A12   A(5,6,15)             109.6594         calculate D2E/DX2 analytically  !
 ! A13   A(5,6,16)             109.7278         calculate D2E/DX2 analytically  !
 ! A14   A(7,6,15)             111.4299         calculate D2E/DX2 analytically  !
 ! A15   A(7,6,16)             111.4706         calculate D2E/DX2 analytically  !
 ! A16   A(15,6,16)            107.3547         calculate D2E/DX2 analytically  !
 ! A17   A(6,7,8)              111.3176         calculate D2E/DX2 analytically  !
 ! A18   A(6,7,17)             108.7148         calculate D2E/DX2 analytically  !
 ! A19   A(6,7,18)             108.7214         calculate D2E/DX2 analytically  !
 ! A20   A(8,7,17)             110.6494         calculate D2E/DX2 analytically  !
 ! A21   A(8,7,18)             110.7476         calculate D2E/DX2 analytically  !
 ! A22   A(17,7,18)            106.5411         calculate D2E/DX2 analytically  !
 ! A23   A(7,8,19)             111.2585         calculate D2E/DX2 analytically  !
 ! A24   A(7,8,20)             111.3117         calculate D2E/DX2 analytically  !
 ! A25   A(7,8,21)             111.2484         calculate D2E/DX2 analytically  !
 ! A26   A(19,8,20)            107.6615         calculate D2E/DX2 analytically  !
 ! A27   A(19,8,21)            107.524          calculate D2E/DX2 analytically  !
 ! A28   A(20,8,21)            107.6474         calculate D2E/DX2 analytically  !
 ! A29   A(1,9,10)             119.1347         calculate D2E/DX2 analytically  !
 ! A30   A(1,9,22)             120.2203         calculate D2E/DX2 analytically  !
 ! A31   A(10,9,22)            120.6448         calculate D2E/DX2 analytically  !
 ! A32   A(9,10,11)            122.4251         calculate D2E/DX2 analytically  !
 ! A33   A(9,10,25)            118.1369         calculate D2E/DX2 analytically  !
 ! A34   A(11,10,25)           119.397          calculate D2E/DX2 analytically  !
 ! A35   A(10,11,12)           117.1127         calculate D2E/DX2 analytically  !
 ! A36   A(10,11,26)           121.8564         calculate D2E/DX2 analytically  !
 ! A37   A(12,11,26)           121.0307         calculate D2E/DX2 analytically  !
 ! A38   A(11,12,13)           122.8027         calculate D2E/DX2 analytically  !
 ! A39   A(11,12,23)           118.1557         calculate D2E/DX2 analytically  !
 ! A40   A(13,12,23)           119.041          calculate D2E/DX2 analytically  !
 ! A41   A(1,13,12)            119.0006         calculate D2E/DX2 analytically  !
 ! A42   A(1,13,24)            120.0018         calculate D2E/DX2 analytically  !
 ! A43   A(12,13,24)           120.9813         calculate D2E/DX2 analytically  !
 ! A44   A(10,25,27)           112.2485         calculate D2E/DX2 analytically  !
 ! A45   A(10,25,28)           112.6235         calculate D2E/DX2 analytically  !
 ! A46   A(10,25,29)           112.6104         calculate D2E/DX2 analytically  !
 ! A47   A(27,25,28)           106.1104         calculate D2E/DX2 analytically  !
 ! A48   A(27,25,29)           106.0673         calculate D2E/DX2 analytically  !
 ! A49   A(28,25,29)           106.678          calculate D2E/DX2 analytically  !
 ! A50   A(14,31,32)           123.9802         calculate D2E/DX2 analytically  !
 ! A51   A(30,32,31)           126.8823         calculate D2E/DX2 analytically  !
 ! A52   A(30,32,33)           116.7355         calculate D2E/DX2 analytically  !
 ! A53   A(31,32,33)           116.3808         calculate D2E/DX2 analytically  !
 ! A54   A(32,33,34)           114.5939         calculate D2E/DX2 analytically  !
 ! A55   A(32,33,35)           107.0405         calculate D2E/DX2 analytically  !
 ! A56   A(32,33,36)           106.8413         calculate D2E/DX2 analytically  !
 ! A57   A(34,33,35)           111.2767         calculate D2E/DX2 analytically  !
 ! A58   A(34,33,36)           110.9856         calculate D2E/DX2 analytically  !
 ! A59   A(35,33,36)           105.5879         calculate D2E/DX2 analytically  !
 ! A60   A(33,34,37)           110.7119         calculate D2E/DX2 analytically  !
 ! A61   A(33,34,38)           111.5066         calculate D2E/DX2 analytically  !
 ! A62   A(33,34,39)           110.6351         calculate D2E/DX2 analytically  !
 ! A63   A(37,34,38)           108.5368         calculate D2E/DX2 analytically  !
 ! A64   A(37,34,39)           106.6373         calculate D2E/DX2 analytically  !
 ! A65   A(38,34,39)           108.6558         calculate D2E/DX2 analytically  !
 ! A66   L(2,14,31,5,-1)       178.183          calculate D2E/DX2 analytically  !
 ! A67   L(2,14,31,5,-2)       173.6867         calculate D2E/DX2 analytically  !
 ! D1    D(9,1,2,3)             -8.5784         calculate D2E/DX2 analytically  !
 ! D2    D(9,1,2,14)           167.5887         calculate D2E/DX2 analytically  !
 ! D3    D(13,1,2,3)           172.2255         calculate D2E/DX2 analytically  !
 ! D4    D(13,1,2,14)          -11.6074         calculate D2E/DX2 analytically  !
 ! D5    D(2,1,9,10)          -178.7605         calculate D2E/DX2 analytically  !
 ! D6    D(2,1,9,22)             1.081          calculate D2E/DX2 analytically  !
 ! D7    D(13,1,9,10)            0.4117         calculate D2E/DX2 analytically  !
 ! D8    D(13,1,9,22)         -179.7468         calculate D2E/DX2 analytically  !
 ! D9    D(2,1,13,12)          178.621          calculate D2E/DX2 analytically  !
 ! D10   D(2,1,13,24)           -2.8301         calculate D2E/DX2 analytically  !
 ! D11   D(9,1,13,12)           -0.6142         calculate D2E/DX2 analytically  !
 ! D12   D(9,1,13,24)          177.9347         calculate D2E/DX2 analytically  !
 ! D13   D(1,2,3,4)             -0.8584         calculate D2E/DX2 analytically  !
 ! D14   D(1,2,3,5)            179.4395         calculate D2E/DX2 analytically  !
 ! D15   D(14,2,3,4)          -177.0318         calculate D2E/DX2 analytically  !
 ! D16   D(14,2,3,5)             3.266          calculate D2E/DX2 analytically  !
 ! D17   D(1,2,31,32)           40.3595         calculate D2E/DX2 analytically  !
 ! D18   D(3,2,31,32)         -146.8918         calculate D2E/DX2 analytically  !
 ! D19   D(2,3,5,6)           -179.2911         calculate D2E/DX2 analytically  !
 ! D20   D(4,3,5,6)              0.9867         calculate D2E/DX2 analytically  !
 ! D21   D(3,5,6,7)           -179.9443         calculate D2E/DX2 analytically  !
 ! D22   D(3,5,6,15)            58.9426         calculate D2E/DX2 analytically  !
 ! D23   D(3,5,6,16)           -58.7424         calculate D2E/DX2 analytically  !
 ! D24   D(5,6,7,8)           -179.6829         calculate D2E/DX2 analytically  !
 ! D25   D(5,6,7,17)            58.1844         calculate D2E/DX2 analytically  !
 ! D26   D(5,6,7,18)           -57.4227         calculate D2E/DX2 analytically  !
 ! D27   D(15,6,7,8)           -59.694          calculate D2E/DX2 analytically  !
 ! D28   D(15,6,7,17)          178.1733         calculate D2E/DX2 analytically  !
 ! D29   D(15,6,7,18)           62.5662         calculate D2E/DX2 analytically  !
 ! D30   D(16,6,7,8)            60.2207         calculate D2E/DX2 analytically  !
 ! D31   D(16,6,7,17)          -61.912          calculate D2E/DX2 analytically  !
 ! D32   D(16,6,7,18)         -177.5191         calculate D2E/DX2 analytically  !
 ! D33   D(6,7,8,19)           -59.7739         calculate D2E/DX2 analytically  !
 ! D34   D(6,7,8,20)          -179.8544         calculate D2E/DX2 analytically  !
 ! D35   D(6,7,8,21)            60.0898         calculate D2E/DX2 analytically  !
 ! D36   D(17,7,8,19)           61.2326         calculate D2E/DX2 analytically  !
 ! D37   D(17,7,8,20)          -58.8479         calculate D2E/DX2 analytically  !
 ! D38   D(17,7,8,21)         -178.9037         calculate D2E/DX2 analytically  !
 ! D39   D(18,7,8,19)          179.1442         calculate D2E/DX2 analytically  !
 ! D40   D(18,7,8,20)           59.0637         calculate D2E/DX2 analytically  !
 ! D41   D(18,7,8,21)          -60.9921         calculate D2E/DX2 analytically  !
 ! D42   D(1,9,10,11)           -0.0402         calculate D2E/DX2 analytically  !
 ! D43   D(1,9,10,25)         -177.6961         calculate D2E/DX2 analytically  !
 ! D44   D(22,9,10,11)        -179.8809         calculate D2E/DX2 analytically  !
 ! D45   D(22,9,10,25)           2.4631         calculate D2E/DX2 analytically  !
 ! D46   D(9,10,11,12)          -0.1231         calculate D2E/DX2 analytically  !
 ! D47   D(9,10,11,26)         179.7031         calculate D2E/DX2 analytically  !
 ! D48   D(25,10,11,12)        177.5043         calculate D2E/DX2 analytically  !
 ! D49   D(25,10,11,26)         -2.6695         calculate D2E/DX2 analytically  !
 ! D50   D(9,10,25,27)          77.4327         calculate D2E/DX2 analytically  !
 ! D51   D(9,10,25,28)        -162.8789         calculate D2E/DX2 analytically  !
 ! D52   D(9,10,25,29)         -42.1907         calculate D2E/DX2 analytically  !
 ! D53   D(11,10,25,27)       -100.2963         calculate D2E/DX2 analytically  !
 ! D54   D(11,10,25,28)         19.3921         calculate D2E/DX2 analytically  !
 ! D55   D(11,10,25,29)        140.0803         calculate D2E/DX2 analytically  !
 ! D56   D(10,11,12,13)         -0.0926         calculate D2E/DX2 analytically  !
 ! D57   D(10,11,12,23)       -179.8205         calculate D2E/DX2 analytically  !
 ! D58   D(26,11,12,13)       -179.9204         calculate D2E/DX2 analytically  !
 ! D59   D(26,11,12,23)          0.3518         calculate D2E/DX2 analytically  !
 ! D60   D(11,12,13,1)           0.4611         calculate D2E/DX2 analytically  !
 ! D61   D(11,12,13,24)       -178.0731         calculate D2E/DX2 analytically  !
 ! D62   D(23,12,13,1)        -179.8134         calculate D2E/DX2 analytically  !
 ! D63   D(23,12,13,24)          1.6524         calculate D2E/DX2 analytically  !
 ! D64   D(14,31,32,30)         -9.6295         calculate D2E/DX2 analytically  !
 ! D65   D(14,31,32,33)        170.8207         calculate D2E/DX2 analytically  !
 ! D66   D(30,32,33,34)        176.0481         calculate D2E/DX2 analytically  !
 ! D67   D(30,32,33,35)         52.152          calculate D2E/DX2 analytically  !
 ! D68   D(30,32,33,36)        -60.5805         calculate D2E/DX2 analytically  !
 ! D69   D(31,32,33,34)         -4.3552         calculate D2E/DX2 analytically  !
 ! D70   D(31,32,33,35)       -128.2513         calculate D2E/DX2 analytically  !
 ! D71   D(31,32,33,36)        119.0162         calculate D2E/DX2 analytically  !
 ! D72   D(32,33,34,37)        -59.2276         calculate D2E/DX2 analytically  !
 ! D73   D(32,33,34,38)        179.8214         calculate D2E/DX2 analytically  !
 ! D74   D(32,33,34,39)         58.7719         calculate D2E/DX2 analytically  !
 ! D75   D(35,33,34,37)         62.3798         calculate D2E/DX2 analytically  !
 ! D76   D(35,33,34,38)        -58.5712         calculate D2E/DX2 analytically  !
 ! D77   D(35,33,34,39)       -179.6207         calculate D2E/DX2 analytically  !
 ! D78   D(36,33,34,37)        179.6526         calculate D2E/DX2 analytically  !
 ! D79   D(36,33,34,38)         58.7016         calculate D2E/DX2 analytically  !
 ! D80   D(36,33,34,39)        -62.3478         calculate D2E/DX2 analytically  !
 --------------------------------------------------------------------------------
 Trust Radius=3.00D-01 FncErr=5.00D-06 GrdErr=5.00D-06 EigMax=2.50D+02 EigMin=1.00D-04
 Number of steps in this run=    196 maximum allowed number of steps=    234.
 GradGradGradGradGradGradGradGradGradGradGradGradGradGradGradGradGradGrad

                          Input orientation:                          
 ---------------------------------------------------------------------
 Center     Atomic      Atomic             Coordinates (Angstroms)
 Number     Number       Type             X           Y           Z
 ---------------------------------------------------------------------
      1          6           0       -6.021868    1.151123    0.266376
      2          7           0       -4.747343    0.603786    0.157800
      3          6           0       -3.599013    1.312787    0.035967
      4          8           0       -3.465714    2.519647   -0.015037
      5          8           0       -2.549028    0.464622   -0.033030
      6          6           0       -1.272132    1.074531   -0.147547
      7          6           0       -0.247123   -0.040090   -0.210971
      8          6           0        1.169441    0.514955   -0.327959
      9          6           0       -6.278155    2.517445    0.436867
     10          6           0       -7.594882    2.949441    0.559731
     11          6           0       -8.671141    2.075553    0.519069
     12          6           0       -8.385303    0.725699    0.345283
     13          6           0       -7.097926    0.244672    0.213933
     14          1           0       -4.660515   -0.453322    0.234170
     15          1           0       -1.098281    1.729356    0.712399
     16          1           0       -1.240415    1.699593   -1.045599
     17          1           0       -0.480735   -0.683342   -1.063397
     18          1           0       -0.347370   -0.660213    0.683525
     19          1           0        1.283245    1.124769   -1.228596
     20          1           0        1.907521   -0.288069   -0.376216
     21          1           0        1.420428    1.144815    0.530063
     22          1           0       -5.461692    3.222958    0.474555
     23         17           0       -9.723395   -0.400725    0.285192
     24          1           0       -6.909080   -0.818253    0.047453
     25          6           0       -7.846633    4.420541    0.688415
     26          1           0       -9.691114    2.420977    0.620283
     27          9           0       -7.748325    5.060784   -0.494420
     28          9           0       -9.076477    4.695993    1.161152
     29          9           0       -6.973016    5.024026    1.511628
     30          8           0       -6.358974   -2.747237   -0.449868
     31          8           0       -4.466818   -2.027080    0.512203
     32          6           0       -5.252086   -2.920888    0.087822
     33          6           0       -4.789205   -4.380136    0.266254
     34          6           0       -3.388071   -4.534649    0.842695
     35          1           0       -4.872023   -4.864702   -0.711521
     36          1           0       -5.531692   -4.872939    0.902737
     37          1           0       -2.650949   -4.047174    0.201735
     38          1           0       -3.112429   -5.589010    0.950805
     39          1           0       -3.319082   -4.053936    1.819679
 ---------------------------------------------------------------------
                    Distance matrix (angstroms):
                    1          2          3          4          5
     1  C    0.000000
     2  N    1.391324   0.000000
     3  C    2.439150   1.355060   0.000000
     4  O    2.913069   2.311486   1.215270   0.000000
     5  O    3.552682   2.210966   1.351522   2.250281   0.000000
     6  C    4.768353   3.520217   2.346234   2.630156   1.419707
     7  C    5.915618   4.560981   3.623040   4.117035   2.363295
     8  C    7.243816   5.937355   4.848415   5.059780   3.730486
     9  C    1.400566   2.466445   2.964747   2.848516   4.282671
    10  C    2.407151   3.711081   4.349706   4.191075   5.655646
    11  C    2.817281   4.206282   5.151863   5.251567   6.354540
    12  C    2.402714   3.644827   4.832072   5.248850   5.854347
    13  C    1.407943   2.378519   3.662640   4.291957   4.560903
    14  H    2.104415   1.063414   2.070076   3.213752   2.317843
    15  H    4.977450   3.858775   2.623881   2.599705   2.063949
    16  H    4.988426   3.866200   2.623430   2.585828   2.064684
    17  H    5.986461   4.620818   3.862225   4.502032   2.580177
    18  H    5.971171   4.608019   3.858139   4.508167   2.574102
    19  H    7.456562   6.209791   5.046871   5.096177   4.068352
    20  H    8.084517   6.735562   5.749308   6.073333   4.532676
    21  H    7.446968   6.202635   5.046496   5.105064   4.066487
    22  H    2.156301   2.733256   2.703829   2.172159   4.043473
    23  Cl   4.013712   5.078028   6.364456   6.912111   7.233369
    24  H    2.171063   2.589880   3.936751   4.796066   4.545580
    25  C    3.767888   4.945177   5.303406   4.827079   6.650895
    26  H    3.898864   5.287433   6.219583   6.258511   7.433945
    27  F    4.341073   5.412589   5.616546   5.002794   6.954874
    28  F    4.764174   6.041049   6.535652   6.131929   7.870080
    29  F    4.177883   5.130788   5.228267   4.572066   6.538027
    30  O    3.977921   3.767754   4.933276   6.024956   5.000548
    31  O    3.546771   2.669410   3.483475   4.685394   3.191203
    32  C    4.147978   3.561319   4.545255   5.727226   4.333913
    33  C    5.666947   4.985278   5.820564   7.031199   5.345994
    34  C    6.292618   5.359125   5.906590   7.106675   5.144278
    35  H    6.202304   5.538558   6.351429   7.549265   5.853063
    36  H    6.077381   5.582531   6.538329   7.730518   6.185588
    37  H    6.195931   5.101786   5.445684   6.620722   4.519049
    38  H    7.373105   6.453877   6.979147   8.173615   6.158881
    39  H    6.067162   5.147441   5.662306   6.826396   4.943974
                    6          7          8          9         10
     6  C    0.000000
     7  C    1.515601   0.000000
     8  C    2.511364   1.525914   0.000000
     9  C    5.242500   6.582858   7.749942   0.000000
    10  C    6.632699   7.969996   9.139369   1.391218   0.000000
    11  C    7.496116   8.716249   9.999499   2.434832   1.386963
    12  C    7.138751   8.193035   9.580751   2.767456   2.369764
    13  C    5.895694   6.869871   8.289514   2.426359   2.771699
    14  H    3.736467   4.454991   5.936492   3.388702   4.505030
    15  H    1.094772   2.169797   2.774829   5.246723   6.611939
    16  H    1.094627   2.170191   2.779529   5.314641   6.672215
    17  H    2.134293   1.093150   2.167917   6.790133   8.151241
    18  H    2.134292   1.093035   2.169064   6.732945   8.097614
    19  H    2.775093   2.175886   1.093604   7.866898   9.238435
    20  H    3.466866   2.175153   1.091760   8.691220  10.082318
    21  H    2.777404   2.175742   1.093581   7.820548   9.194203
    22  H    4.749228   6.189439   7.207582   1.079713   2.152339
    23  Cl   8.589964   9.496103  10.948438   4.517566   3.978637
    24  H    5.949440   6.712227   8.196394   3.417103   3.863712
    25  C    7.424196   8.857691   9.878067   2.478947   1.498024
    26  H    8.560475   9.794733  11.067237   3.419245   2.162667
    27  F    7.612596   9.075643  10.010935   3.081765   2.364858
    28  F    8.702613  10.112897  11.165902   3.619567   2.367968
    29  F    7.131020   8.593617   9.487645   2.814408   2.365741
    30  O    6.369715   6.688829   8.205716   5.339448   5.915987
    31  O    4.501253   4.719845   6.239810   4.892782   5.878163
    32  C    5.644360   5.782554   7.294786   5.545278   6.338150
    33  C    6.503417   6.300338   7.734369   7.058520   7.853703
    34  C    6.076239   5.583621   6.902162   7.632124   8.590048
    35  H    6.967909   6.702024   8.098587   7.602111   8.372029
    36  H    7.390490   7.247306   8.686150   7.442581   8.097162
    37  H    5.315542   4.690994   5.974025   7.503740   8.574570
    38  H    6.999704   6.352183   7.564922   8.717830   9.651449
    39  H    5.861839   5.447149   6.755291   7.338347   8.301640
                   11         12         13         14         15
    11  C    0.000000
    12  C    1.390688   0.000000
    13  C    2.433155   1.380572   0.000000
    14  H    4.749894   3.908513   2.535463   0.000000
    15  H    7.583235   7.364970   6.200685   4.205033   0.000000
    16  H    7.602975   7.343871   6.165521   4.239097   1.763986
    17  H    8.786265   8.151807   6.802940   4.382596   3.058745
    18  H    8.763368   8.163548   6.827103   4.341422   2.504943
    19  H   10.151262   9.803936   8.549823   6.321261   3.131237
    20  H   10.876412  10.367763   9.040473   6.598408   3.780202
    21  H   10.134404   9.816422   8.571612   6.294399   2.592070
    22  H    3.408677   3.847143   3.408133   3.770239   4.618092
    23  Cl   2.700721   1.750124   2.704571   5.063410   8.894512
    24  H    3.420731   2.156785   1.092331   2.285624   6.379487
    25  C    2.491477   3.749635   4.268909   5.840568   7.265213
    26  H    1.081622   2.157484   3.409700   5.806686   8.621114
    27  F    3.284867   4.461368   4.911183   6.361665   7.535112
    28  F    2.728236   4.111764   4.962474   6.846565   8.523727
    29  F    3.544333   4.672316   4.953972   6.081192   6.782782
    30  O    5.435464   4.098726   3.152491   2.935083   7.004687
    31  O    5.874349   4.791677   3.488918   1.609824   5.049548
    32  C    6.069624   4.814657   3.666578   2.541703   6.266495
    33  C    7.537193   6.245616   5.169312   3.929053   7.151773
    34  C    8.468196   7.272620   6.082785   4.318177   6.670673
    35  H    8.007171   6.686744   5.649496   4.516562   7.729830
    36  H    7.634454   6.308613   5.396062   4.554003   7.954977
    37  H    8.592508   7.462153   6.180266   4.117666   6.003320
    38  H    9.477933   8.248964   7.103451   5.411602   7.594216
    39  H    8.240556   7.119364   5.944419   4.156646   6.293210
                   16         17         18         19         20
    16  H    0.000000
    17  H    2.501161   0.000000
    18  H    3.058772   1.752158   0.000000
    19  H    2.594758   2.531438   3.082414   0.000000
    20  H    3.782641   2.516392   2.519143   1.764194   0.000000
    21  H    3.141747   3.081508   2.531163   1.764115   1.764018
    22  H    4.738216   6.514170   6.424871   7.266175   8.207096
    23  Cl   8.839869   9.344802   9.388069  11.214491  11.650252
    24  H    6.298260   6.525014   6.594361   8.515739   8.842683
    25  C    7.352040   9.130987   9.058313   9.894025  10.883381
    26  H    8.643487   9.864210   9.838865  11.204243  11.952417
    27  F    7.345359   9.280980   9.428229   9.879296  11.039002
    28  F    8.674793  10.381360  10.252530  11.215541  12.159465
    29  F    7.103097   9.019673   8.769008   9.533041  10.518852
    30  O    6.806529   6.260173   6.463716   8.602462   8.624840
    31  O    5.169576   4.491882   4.343677   6.784376   6.666757
    32  C    6.223102   5.394229   5.433392   7.798131   7.642450
    33  C    7.160864   5.830709   5.808773   8.331458   7.874257
    34  C    6.858852   5.188290   4.927722   7.624988   6.896556
    35  H    7.509337   6.073795   6.332169   8.603978   8.186587
    36  H    8.087599   6.850589   6.683734   9.325151   8.831685
    37  H    6.047378   4.198303   4.124330   6.653775   5.936712
    38  H    7.785487   5.920169   5.657741   8.315442   7.420301
    39  H    6.755278   5.265856   4.651803   7.569173   6.805960
                   21         22         23         24         25
    21  H    0.000000
    22  H    7.189251   0.000000
    23  Cl  11.253152   5.597235   0.000000
    24  H    8.571303   4.313784   2.855034   0.000000
    25  C    9.830253   2.677291   5.189357   5.360485   0.000000
    26  H   11.184949   4.307251   2.841713   4.308185   2.721214
    27  F   10.022495   3.089532   5.859759   5.963308   1.348583
    28  F   11.099285   3.963321   5.211751   6.028669   1.346056
    29  F    9.298475   2.569721   6.204567   6.023298   1.343533
    30  O    8.753709   6.107610   4.167225   2.066621   7.408499
    31  O    6.687369   5.343602   5.507101   2.764398   7.281897
    32  C    7.826108   6.159573   5.136417   2.677374   7.809543
    33  C    8.315902   7.635618   6.338952   4.150754   9.326201
    34  C    7.448202   8.038401   7.585280   5.180880  10.004900
    35  H    8.789241   8.195409   6.667559   4.593407   9.850069
    36  H    9.202403   8.107514   6.160555   4.366828   9.579857
    37  H    6.606108   7.799328   7.957577   5.346158   9.946566
    38  H    8.128236   9.132176   8.430078   6.163662  11.075769
    39  H    7.152138   7.704111   7.530991   5.147671   9.674464
                   26         27         28         29         30
    26  H    0.000000
    27  F    3.462018   0.000000
    28  F    2.417853   2.153596   0.000000
    29  F    3.867611   2.150973   2.157542   0.000000
    30  O    6.241700   7.930793   8.085906   8.038473   0.000000
    31  O    6.862227   7.875239   8.177395   7.549700   2.241530
    32  C    6.965917   8.383156   8.590394   8.252907   1.242765
    33  C    8.391019   9.923004  10.077583   9.734385   2.375577
    34  C    9.389279  10.624125  10.847310  10.230717   3.700247
    35  H    8.836202  10.336127  10.610901  10.351014   2.600604
    36  H    8.401297  10.273479  10.207681  10.019885   2.651895
    37  H    9.569539  10.460534  10.892697  10.133249   3.982947
    38  H   10.370547  11.704629  11.890980  11.307307   4.536256
    39  H    9.163288  10.394777  10.494881   9.790584   4.012387
                   31         32         33         34         35
    31  O    0.000000
    32  C    1.263186   0.000000
    33  C    2.387739   1.541267   0.000000
    34  C    2.749695   2.578491   1.522936   0.000000
    35  H    3.116695   2.135839   1.094398   2.174083   0.000000
    36  H    3.063558   2.133723   1.095104   2.170981   1.743864
    37  H    2.733962   2.836796   2.164986   1.091701   2.536839
    38  H    3.835895   3.527287   2.177513   1.095146   2.526682
    39  H    2.671131   2.831896   2.163515   1.091027   3.078301
                   36         37         38         39
    36  H    0.000000
    37  H    3.077657   0.000000
    38  H    2.523470   1.775199   0.000000
    39  H    2.531243   1.750483   1.775978   0.000000
 Stoichiometry    C14H16ClF3NO4(1-)
 Framework group  C1[X(C14H16ClF3NO4)]
 Deg. of freedom   111
 Full point group                 C1      NOp   1
 Largest Abelian subgroup         C1      NOp   1
 Largest concise Abelian subgroup C1      NOp   1
                         Standard orientation:                         
 ---------------------------------------------------------------------
 Center     Atomic      Atomic             Coordinates (Angstroms)
 Number     Number       Type             X           Y           Z
 ---------------------------------------------------------------------
      1          6           0        0.668287   -0.038198   -0.049001
      2          7           0       -0.684473   -0.363226   -0.062277
      3          6           0       -1.186664   -1.620294   -0.123696
      4          8           0       -0.575517   -2.668526   -0.191459
      5          8           0       -2.537099   -1.569151   -0.105803
      6          6           0       -3.200772   -2.823426   -0.149404
      7          6           0       -4.690070   -2.543636   -0.121932
      8          6           0       -5.498313   -3.837421   -0.157693
      9          6           0        1.700515   -0.976619    0.075321
     10          6           0        3.019029   -0.533600    0.102536
     11          6           0        3.354521    0.808994    0.010061
     12          6           0        2.308296    1.716488   -0.115963
     13          6           0        0.983395    1.330120   -0.152525
     14          1           0       -1.380442    0.434018    0.042024
     15          1           0       -2.892491   -3.433172    0.705990
     16          1           0       -2.911201   -3.363340   -1.056514
     17          1           0       -4.943181   -1.907300   -0.973982
     18          1           0       -4.922147   -1.966820    0.777039
     19          1           0       -5.283631   -4.414207   -1.061684
     20          1           0       -6.571133   -3.635675   -0.140484
     21          1           0       -5.266725   -4.473277    0.701361
     22          1           0        1.471887   -2.029103    0.151395
     23         17           0        2.700926    3.417514   -0.239602
     24          1           0        0.186590    2.065704   -0.283696
     25          6           0        4.107506   -1.559652    0.183223
     26          1           0        4.382716    1.143654    0.036939
     27          9           0        4.334368   -2.157825   -1.003958
     28          9           0        5.285847   -1.035296    0.568490
     29          9           0        3.823418   -2.547092    1.048867
     30          8           0       -1.437922    3.272414   -0.702902
     31          8           0       -2.457350    1.586054    0.365468
     32          6           0       -2.391340    2.762283   -0.090346
     33          6           0       -3.621479    3.659508    0.148924
     34          6           0       -4.796121    2.959112    0.818994
     35          1           0       -3.908479    4.075775   -0.821673
     36          1           0       -3.280976    4.512214    0.745752
     37          1           0       -5.135810    2.113783    0.217461
     38          1           0       -5.639295    3.642061    0.967262
     39          1           0       -4.500421    2.554178    1.787978
 ---------------------------------------------------------------------
 Rotational constants (GHZ):           0.2419992           0.1309433           0.0873092
 Standard basis: 6-311+G(d) (5D, 7F)
 There are   585 symmetry adapted cartesian basis functions of A   symmetry.
 There are   562 symmetry adapted basis functions of A   symmetry.
   562 basis functions,   925 primitive gaussians,   585 cartesian basis functions
    92 alpha electrons       92 beta electrons
       nuclear repulsion energy      2102.7940683297 Hartrees.
 NAtoms=   39 NActive=   39 NUniq=   39 SFac= 1.00D+00 NAtFMM=   60 NAOKFM=F Big=F
 Integral buffers will be    131072 words long.
 Raffenetti 2 integral format.
 Two-electron integral symmetry is turned on.
 Nuclear repulsion after empirical dispersion term =     2102.7916409479 Hartrees.
 Force inversion solution in PCM.
 ------------------------------------------------------------------------------
 Polarizable Continuum Model (PCM)
 =================================
 Model                : PCM.
 Atomic radii         : SMD-Coulomb.
 Polarization charges : Total charges.
 Charge compensation  : None.
 Solution method      : Matrix inversion.
 Cavity type          : VdW (van der Waals Surface) (Alpha=1.000).
 Cavity algorithm     : GePol (No added spheres)
                        Default sphere list used, NSphG=   39.
                        Lebedev-Laikov grids with approx.  5.0 points / Ang**2.
                        Smoothing algorithm: York/Karplus (Gamma=1.0000).
                        Polarization charges: spherical gaussians, with
                                              point-specific exponents (IZeta= 3).
                        Self-potential: point-specific (ISelfS= 7).
                        Self-field    : sphere-specific E.n sum rule (ISelfD= 2).
 1st derivatives      : Analytical E(r).r(x)/FMM algorithm (CHGder, D1EAlg=3).
                        Cavity 1st derivative terms included.
 2nd derivatives      : Analytical E(r).r(xy)/FMM algorithm (CHGder, D2EAlg=3).
                        Cavity 2nd derivative terms included.
 Solvent              : Water, Eps=  78.355300 Eps(inf)=   1.777849
 ------------------------------------------------------------------------------
 ------------------------------------------------------------------------------
 Atomic radii for non-electrostatic terms: SMD-CDS.
 ------------------------------------------------------------------------------
 Nuclear repulsion after PCM non-electrostatic terms =     2102.8090862819 Hartrees.
 One-electron integrals computed using PRISM.
 NBasis=   562 RedAO= T EigKep=  1.30D-06  NBF=   562
 NBsUse=   559 1.00D-06 EigRej=  9.06D-07 NBFU=   559
 ExpMin= 4.38D-02 ExpMax= 1.06D+05 ExpMxC= 3.62D+03 IAcc=3 IRadAn=         5 AccDes= 0.00D+00
 Harris functional with IExCor= 1009 and IRadAn=       5 diagonalized for initial guess.
 HarFok:  IExCor= 1009 AccDes= 0.00D+00 IRadAn=         5 IDoV= 1 UseB2=F ITyADJ=14
 ICtDFT=  3500011 ScaDFX=  1.000000  1.000000  1.000000  1.000000
 FoFCou: FMM=F IPFlag=           0 FMFlag=      100000 FMFlg1=           0
         NFxFlg=           0 DoJE=T BraDBF=F KetDBF=T FulRan=T
         wScrn=  0.000000 ICntrl=       500 IOpCl=  0 I1Cent=   200000004 NGrid=           0
         NMat0=    1 NMatS0=      1 NMatT0=    0 NMatD0=    1 NMtDS0=    0 NMtDT0=    0
 Petite list used in FoFCou.
 Requested convergence on RMS density matrix=1.00D-08 within 128 cycles.
 Requested convergence on MAX density matrix=1.00D-06.
 Requested convergence on             energy=1.00D-06.
 No special actions if energy rises.
 Inv3:  Mode=1 IEnd=    28755648.
 Iteration    1 A*A^-1 deviation from unit magnitude is 7.55D-15 for   3080.
 Iteration    1 A*A^-1 deviation from orthogonality  is 2.14D-15 for   1635    439.
 Iteration    1 A^-1*A deviation from unit magnitude is 7.99D-15 for   3080.
 Iteration    1 A^-1*A deviation from orthogonality  is 2.40D-14 for   2639   2550.
 Error on total polarization charges =  0.05735
 SCF Done:  E(RM062X) =  -1658.60651078     A.U. after   15 cycles
            NFock= 15  Conv=0.44D-08     -V/T= 2.0029
 SMD-CDS (non-electrostatic) energy       (kcal/mol) =      10.95
 (included in total energy above)
 DoSCS=F DFT=T ScalE2(SS,OS)=  1.000000  1.000000
 Range of M.O.s used for correlation:     1   559
 NBasis=   562 NAE=    92 NBE=    92 NFC=     0 NFV=     0
 NROrb=    559 NOA=    92 NOB=    92 NVA=   467 NVB=   467

 **** Warning!!: The largest alpha MO coefficient is  0.13046195D+03

 Symmetrizing basis deriv contribution to polar:
 IMax=3 JMax=2 DiffMx= 0.00D+00
 G2DrvN: will do    40 centers at a time, making    1 passes.
 Calling FoFCou, ICntrl=  3107 FMM=F I1Cent=   0 AccDes= 0.00D+00.
 NEqPCM:  Using equilibrium solvation (IEInf=0, Eps=  78.3553, EpsInf=   1.7778)
 G2PCM: DoFxE=T DoFxN=T DoGrad=T DoDP/DQ/DG/TGxP=FFFF NFrqRd=   0 IEInf=0 SqF1=F DoCFld=F IF1Alg=4.
 End of G2Drv F.D. properties file   721 does not exist.
 End of G2Drv F.D. properties file   722 does not exist.
 End of G2Drv F.D. properties file   788 does not exist.
          IDoAtm=111111111111111111111111111111111111111
 NEqPCM:  Using equilibrium solvation (IEInf=0, Eps=  78.3553, EpsInf=   1.7778)
          Differentiating once with respect to nuclear coordinates.
 CalDSu exits because no D1Ps are significant.
          There are   120 degrees of freedom in the 1st order CPHF.  IDoFFX=6 NUNeed=     0.
    114 vectors produced by pass  0 Test12= 4.30D-14 1.00D-09 XBig12= 6.60D-01 1.39D-01.
 AX will form    64 AO Fock derivatives at one time.
    114 vectors produced by pass  1 Test12= 4.30D-14 1.00D-09 XBig12= 3.40D-02 5.51D-02.
    114 vectors produced by pass  2 Test12= 4.30D-14 1.00D-09 XBig12= 1.42D-03 4.31D-03.
    114 vectors produced by pass  3 Test12= 4.30D-14 1.00D-09 XBig12= 1.38D-05 4.44D-04.
    114 vectors produced by pass  4 Test12= 4.30D-14 1.00D-09 XBig12= 1.23D-07 4.00D-05.
    114 vectors produced by pass  5 Test12= 4.30D-14 1.00D-09 XBig12= 9.59D-10 3.22D-06.
     95 vectors produced by pass  6 Test12= 4.30D-14 1.00D-09 XBig12= 4.75D-12 1.78D-07.
     38 vectors produced by pass  7 Test12= 4.30D-14 1.00D-09 XBig12= 1.85D-14 9.94D-09.
 InvSVY:  IOpt=1 It=  1 EMax= 6.66D-16
 Solved reduced A of dimension   817 with   120 vectors.
 End of Minotr F.D. properties file   721 does not exist.
 End of Minotr F.D. properties file   722 does not exist.
 End of Minotr F.D. properties file   788 does not exist.

 **********************************************************************

            Population analysis using the SCF Density.

 **********************************************************************

 Orbital symmetries:
       Occupied  (A) (A) (A) (A) (A) (A) (A) (A) (A) (A) (A) (A)
                 (A) (A) (A) (A) (A) (A) (A) (A) (A) (A) (A) (A)
                 (A) (A) (A) (A) (A) (A) (A) (A) (A) (A) (A) (A)
                 (A) (A) (A) (A) (A) (A) (A) (A) (A) (A) (A) (A)
                 (A) (A) (A) (A) (A) (A) (A) (A) (A) (A) (A) (A)
                 (A) (A) (A) (A) (A) (A) (A) (A) (A) (A) (A) (A)
                 (A) (A) (A) (A) (A) (A) (A) (A) (A) (A) (A) (A)
                 (A) (A) (A) (A) (A) (A) (A) (A)
       Virtual   (A) (A) (A) (A) (A) (A) (A) (A) (A) (A) (A) (A)
                 (A) (A) (A) (A) (A) (A) (A) (A) (A) (A) (A) (A)
                 (A) (A) (A) (A) (A) (A) (A) (A) (A) (A) (A) (A)
                 (A) (A) (A) (A) (A) (A) (A) (A) (A) (A) (A) (A)
                 (A) (A) (A) (A) (A) (A) (A) (A) (A) (A) (A) (A)
                 (A) (A) (A) (A) (A) (A) (A) (A) (A) (A) (A) (A)
                 (A) (A) (A) (A) (A) (A) (A) (A) (A) (A) (A) (A)
                 (A) (A) (A) (A) (A) (A) (A) (A) (A) (A) (A) (A)
                 (A) (A) (A) (A) (A) (A) (A) (A) (A) (A) (A) (A)
                 (A) (A) (A) (A) (A) (A) (A) (A) (A) (A) (A) (A)
                 (A) (A) (A) (A) (A) (A) (A) (A) (A) (A) (A) (A)
                 (A) (A) (A) (A) (A) (A) (A) (A) (A) (A) (A) (A)
                 (A) (A) (A) (A) (A) (A) (A) (A) (A) (A) (A) (A)
                 (A) (A) (A) (A) (A) (A) (A) (A) (A) (A) (A) (A)
                 (A) (A) (A) (A) (A) (A) (A) (A) (A) (A) (A) (A)
                 (A) (A) (A) (A) (A) (A) (A) (A) (A) (A) (A) (A)
                 (A) (A) (A) (A) (A) (A) (A) (A) (A) (A) (A) (A)
                 (A) (A) (A) (A) (A) (A) (A) (A) (A) (A) (A) (A)
                 (A) (A) (A) (A) (A) (A) (A) (A) (A) (A) (A) (A)
                 (A) (A) (A) (A) (A) (A) (A) (A) (A) (A) (A) (A)
                 (A) (A) (A) (A) (A) (A) (A) (A) (A) (A) (A) (A)
                 (A) (A) (A) (A) (A) (A) (A) (A) (A) (A) (A) (A)
                 (A) (A) (A) (A) (A) (A) (A) (A) (A) (A) (A) (A)
                 (A) (A) (A) (A) (A) (A) (A) (A) (A) (A) (A) (A)
                 (A) (A) (A) (A) (A) (A) (A) (A) (A) (A) (A) (A)
                 (A) (A) (A) (A) (A) (A) (A) (A) (A) (A) (A) (A)
                 (A) (A) (A) (A) (A) (A) (A) (A) (A) (A) (A) (A)
                 (A) (A) (A) (A) (A) (A) (A) (A) (A) (A) (A) (A)
                 (A) (A) (A) (A) (A) (A) (A) (A) (A) (A) (A) (A)
                 (A) (A) (A) (A) (A) (A) (A) (A) (A) (A) (A) (A)
                 (A) (A) (A) (A) (A) (A) (A) (A) (A) (A) (A) (A)
                 (A) (A) (A) (A) (A) (A) (A) (A) (A) (A) (A) (A)
                 (A) (A) (A) (A) (A) (A) (A) (A) (A) (A) (A) (A)
                 (A) (A) (A) (A) (A) (A) (A) (A) (A) (A) (A) (A)
                 (A) (A) (A) (A) (A) (A) (A) (A) (A) (A) (A) (A)
                 (A) (A) (A) (A) (A) (A) (A) (A) (A) (A) (A) (A)
                 (A) (A) (A) (A) (A) (A) (A) (A) (A) (A) (A) (A)
                 (A) (A) (A) (A) (A) (A) (A) (A) (A) (A) (A) (A)
                 (A) (A) (A) (A) (A) (A) (A) (A) (A) (A) (A)
 The electronic state is 1-A.
 Alpha  occ. eigenvalues -- -102.68288 -25.28393 -25.28370 -25.28128 -19.66758
 Alpha  occ. eigenvalues --  -19.61441 -19.58109 -19.57555 -14.77722 -10.80920
 Alpha  occ. eigenvalues --  -10.70621 -10.63822 -10.61867 -10.61118 -10.58412
 Alpha  occ. eigenvalues --  -10.58278 -10.56510 -10.55933 -10.55753 -10.52781
 Alpha  occ. eigenvalues --  -10.52211 -10.51761 -10.51235  -9.82558  -7.55062
 Alpha  occ. eigenvalues --   -7.54403  -7.54388  -1.47577  -1.38239  -1.37923
 Alpha  occ. eigenvalues --   -1.24943  -1.17095  -1.15115  -1.07740  -1.06258
 Alpha  occ. eigenvalues --   -1.00675  -0.95598  -0.90008  -0.87987  -0.85326
 Alpha  occ. eigenvalues --   -0.84648  -0.81786  -0.79181  -0.74051  -0.73074
 Alpha  occ. eigenvalues --   -0.71764  -0.70087  -0.69971  -0.67446  -0.66580
 Alpha  occ. eigenvalues --   -0.65900  -0.63119  -0.59870  -0.59355  -0.58663
 Alpha  occ. eigenvalues --   -0.58572  -0.58222  -0.57698  -0.55741  -0.54585
 Alpha  occ. eigenvalues --   -0.53967  -0.53356  -0.53087  -0.52865  -0.52511
 Alpha  occ. eigenvalues --   -0.52014  -0.51772  -0.50793  -0.50138  -0.48889
 Alpha  occ. eigenvalues --   -0.48584  -0.46463  -0.46329  -0.45957  -0.44897
 Alpha  occ. eigenvalues --   -0.44507  -0.43537  -0.42546  -0.42383  -0.41403
 Alpha  occ. eigenvalues --   -0.39720  -0.39683  -0.39372  -0.38757  -0.38650
 Alpha  occ. eigenvalues --   -0.37374  -0.37293  -0.34252  -0.33423  -0.31804
 Alpha  occ. eigenvalues --   -0.31594  -0.28565
 Alpha virt. eigenvalues --   -0.01025   0.00226   0.01179   0.02165   0.02567
 Alpha virt. eigenvalues --    0.03285   0.03413   0.03454   0.04115   0.04728
 Alpha virt. eigenvalues --    0.05000   0.05225   0.05505   0.05812   0.06183
 Alpha virt. eigenvalues --    0.06725   0.06945   0.07324   0.07385   0.07956
 Alpha virt. eigenvalues --    0.08168   0.08719   0.08749   0.08821   0.09537
 Alpha virt. eigenvalues --    0.09659   0.10130   0.10392   0.10741   0.11296
 Alpha virt. eigenvalues --    0.11403   0.11922   0.12189   0.12491   0.13094
 Alpha virt. eigenvalues --    0.13783   0.13950   0.14268   0.14509   0.15016
 Alpha virt. eigenvalues --    0.15516   0.16090   0.16452   0.16809   0.17228
 Alpha virt. eigenvalues --    0.17515   0.17851   0.18149   0.18524   0.19377
 Alpha virt. eigenvalues --    0.19739   0.19910   0.20495   0.20836   0.21244
 Alpha virt. eigenvalues --    0.21376   0.21596   0.21851   0.22017   0.22493
 Alpha virt. eigenvalues --    0.23005   0.23333   0.23861   0.23995   0.24399
 Alpha virt. eigenvalues --    0.24988   0.25200   0.25459   0.25761   0.26086
 Alpha virt. eigenvalues --    0.26215   0.26699   0.26929   0.26990   0.27480
 Alpha virt. eigenvalues --    0.27825   0.27946   0.28125   0.28274   0.28692
 Alpha virt. eigenvalues --    0.29003   0.29236   0.29590   0.29612   0.29756
 Alpha virt. eigenvalues --    0.30275   0.30532   0.31035   0.31633   0.31839
 Alpha virt. eigenvalues --    0.32125   0.32366   0.32785   0.32969   0.33698
 Alpha virt. eigenvalues --    0.34199   0.34293   0.34773   0.34991   0.35440
 Alpha virt. eigenvalues --    0.36083   0.36410   0.36697   0.37080   0.37555
 Alpha virt. eigenvalues --    0.38331   0.38429   0.39106   0.39666   0.40002
 Alpha virt. eigenvalues --    0.40374   0.41069   0.41203   0.41948   0.42288
 Alpha virt. eigenvalues --    0.42806   0.43616   0.44196   0.44789   0.45196
 Alpha virt. eigenvalues --    0.45252   0.46147   0.46779   0.47226   0.48163
 Alpha virt. eigenvalues --    0.48584   0.49312   0.49787   0.50357   0.50612
 Alpha virt. eigenvalues --    0.51169   0.51939   0.52183   0.53165   0.53741
 Alpha virt. eigenvalues --    0.54553   0.54823   0.55634   0.56399   0.56981
 Alpha virt. eigenvalues --    0.57467   0.58372   0.59030   0.60839   0.61679
 Alpha virt. eigenvalues --    0.61850   0.62420   0.63373   0.64348   0.64765
 Alpha virt. eigenvalues --    0.65405   0.66190   0.66492   0.67693   0.68130
 Alpha virt. eigenvalues --    0.68656   0.69487   0.69699   0.69885   0.70654
 Alpha virt. eigenvalues --    0.71201   0.71665   0.71901   0.73189   0.73287
 Alpha virt. eigenvalues --    0.74296   0.74464   0.74617   0.74866   0.75402
 Alpha virt. eigenvalues --    0.75562   0.76600   0.77075   0.77379   0.78267
 Alpha virt. eigenvalues --    0.79440   0.79697   0.80056   0.80474   0.81366
 Alpha virt. eigenvalues --    0.81921   0.82636   0.83387   0.84409   0.85847
 Alpha virt. eigenvalues --    0.86607   0.87367   0.90723   0.90968   0.91687
 Alpha virt. eigenvalues --    0.93389   0.93879   0.94543   0.95216   0.95836
 Alpha virt. eigenvalues --    0.96914   0.97625   0.98145   1.00245   1.00977
 Alpha virt. eigenvalues --    1.01404   1.03218   1.03786   1.04826   1.05420
 Alpha virt. eigenvalues --    1.06562   1.07519   1.08660   1.10282   1.10931
 Alpha virt. eigenvalues --    1.12043   1.12567   1.13858   1.15385   1.15911
 Alpha virt. eigenvalues --    1.17980   1.18596   1.19634   1.20659   1.21305
 Alpha virt. eigenvalues --    1.22897   1.23211   1.23911   1.24305   1.25095
 Alpha virt. eigenvalues --    1.25979   1.26632   1.27386   1.29351   1.31812
 Alpha virt. eigenvalues --    1.32512   1.33494   1.34165   1.36684   1.38040
 Alpha virt. eigenvalues --    1.38561   1.39098   1.40086   1.42253   1.43962
 Alpha virt. eigenvalues --    1.45013   1.46486   1.47096   1.47503   1.47943
 Alpha virt. eigenvalues --    1.48888   1.50251   1.51274   1.51619   1.53484
 Alpha virt. eigenvalues --    1.53839   1.54385   1.55557   1.56179   1.57823
 Alpha virt. eigenvalues --    1.58703   1.59157   1.59815   1.60923   1.62381
 Alpha virt. eigenvalues --    1.62580   1.63124   1.63312   1.64116   1.64671
 Alpha virt. eigenvalues --    1.66387   1.67820   1.69483   1.70362   1.71932
 Alpha virt. eigenvalues --    1.74602   1.74811   1.76525   1.77185   1.78115
 Alpha virt. eigenvalues --    1.79149   1.79779   1.79918   1.80516   1.81231
 Alpha virt. eigenvalues --    1.82686   1.85154   1.85725   1.86998   1.87427
 Alpha virt. eigenvalues --    1.88030   1.88573   1.89086   1.92174   1.93985
 Alpha virt. eigenvalues --    1.94587   1.95886   1.97771   1.99176   2.00464
 Alpha virt. eigenvalues --    2.00823   2.02389   2.06095   2.07949   2.09107
 Alpha virt. eigenvalues --    2.10678   2.11404   2.13660   2.17471   2.18285
 Alpha virt. eigenvalues --    2.19780   2.21934   2.23654   2.24510   2.27879
 Alpha virt. eigenvalues --    2.29941   2.30584   2.35379   2.36883   2.38868
 Alpha virt. eigenvalues --    2.45220   2.47981   2.50063   2.52152   2.54381
 Alpha virt. eigenvalues --    2.55915   2.56043   2.57381   2.57585   2.58057
 Alpha virt. eigenvalues --    2.59979   2.60755   2.61347   2.61758   2.63858
 Alpha virt. eigenvalues --    2.66790   2.68018   2.68718   2.71752   2.73374
 Alpha virt. eigenvalues --    2.76819   2.77561   2.78506   2.83264   2.84303
 Alpha virt. eigenvalues --    2.85244   2.87332   2.92579   2.94320   2.95003
 Alpha virt. eigenvalues --    2.95762   2.96443   2.96942   2.99625   3.01276
 Alpha virt. eigenvalues --    3.02127   3.02238   3.03231   3.04153   3.06324
 Alpha virt. eigenvalues --    3.08739   3.09691   3.10824   3.12819   3.13137
 Alpha virt. eigenvalues --    3.16092   3.19528   3.19996   3.22198   3.22423
 Alpha virt. eigenvalues --    3.24118   3.26101   3.26630   3.30435   3.30749
 Alpha virt. eigenvalues --    3.31221   3.32900   3.35359   3.37277   3.38463
 Alpha virt. eigenvalues --    3.38772   3.39948   3.43733   3.45405   3.46268
 Alpha virt. eigenvalues --    3.47371   3.48165   3.52998   3.56708   3.61670
 Alpha virt. eigenvalues --    3.67779   3.71474   3.75916   3.76389   3.77577
 Alpha virt. eigenvalues --    3.80484   3.83498   3.83996   3.84480   3.86487
 Alpha virt. eigenvalues --    3.87217   3.87618   3.87782   3.92446   3.97568
 Alpha virt. eigenvalues --    4.00539   4.01160   4.01540   4.04030   4.08747
 Alpha virt. eigenvalues --    4.12494   4.13535   4.15624   4.20950   4.21381
 Alpha virt. eigenvalues --    4.21696   4.26580   4.29928   4.67765   4.76354
 Alpha virt. eigenvalues --    4.80207   4.98149   5.00700   5.10318   5.11827
 Alpha virt. eigenvalues --    5.17683   5.20582   5.21549   5.36889   5.38129
 Alpha virt. eigenvalues --    5.41872   5.53269   5.74381   5.80812   5.97149
 Alpha virt. eigenvalues --    6.00854   6.45928   6.49381   6.50969   6.51552
 Alpha virt. eigenvalues --    6.52258   6.57384   6.61685   6.86727   6.88708
 Alpha virt. eigenvalues --    9.97256  23.46762  23.60072  23.63165  23.65292
 Alpha virt. eigenvalues --   23.74660  23.81194  23.83129  23.92468  23.94319
 Alpha virt. eigenvalues --   23.96617  23.98876  24.09290  24.12299  24.20213
 Alpha virt. eigenvalues --   25.93906  26.24927  26.72728  35.72231  50.03155
 Alpha virt. eigenvalues --   50.06896  50.13991  50.15896  66.88602  66.90646
 Alpha virt. eigenvalues --   66.95742 216.07536
          Condensed to atoms (all electrons):
               1          2          3          4          5          6
     1  C   35.267574  -0.586674   0.757453  -0.219054  -0.220977  -0.470561
     2  N   -0.586674   7.787127   0.403162  -0.058490  -0.161538  -0.290905
     3  C    0.757453   0.403162   9.278029   0.534323   0.246970  -0.616282
     4  O   -0.219054  -0.058490   0.534323   8.209317  -0.172486  -0.159323
     5  O   -0.220977  -0.161538   0.246970  -0.172486   8.416500   0.368405
     6  C   -0.470561  -0.290905  -0.616282  -0.159323   0.368405   8.525570
     7  C   -0.023435   0.033655   0.160834   0.038230  -0.165750  -1.012193
     8  C   -0.014684  -0.007717  -0.256852   0.000972   0.035990   0.346479
     9  C   -3.938725   0.172781  -0.973079   0.220848  -0.032378  -0.472965
    10  C  -14.605516   0.198876  -1.167782   0.081956   0.023130  -0.094994
    11  C   -3.103213   0.021258   0.226750  -0.001259  -0.002925   0.023383
    12  C   -7.790277   0.066874  -1.523513  -0.010601  -0.031456  -0.172961
    13  C    4.859037  -0.113565  -0.851015  -0.037651  -0.110104  -0.238377
    14  H    0.110141   0.066172  -0.009177   0.005343  -0.007530  -0.012937
    15  H    0.006743   0.003157   0.003080  -0.002041  -0.041085   0.408742
    16  H    0.007459   0.004738   0.042510  -0.000105  -0.048105   0.358292
    17  H   -0.000358  -0.001183  -0.001109  -0.000455   0.002320  -0.057935
    18  H   -0.000758  -0.001013   0.000264  -0.000382   0.001551  -0.052974
    19  H   -0.000151  -0.000079  -0.005076  -0.000079  -0.000300  -0.044353
    20  H    0.000130   0.000024   0.008150   0.000029  -0.000753   0.089241
    21  H   -0.000109  -0.000004  -0.000845  -0.000062  -0.000094  -0.045926
    22  H    0.098099  -0.023386   0.089730   0.000876   0.001746   0.009196
    23  Cl  -0.209015  -0.008554  -0.059768  -0.000019  -0.000155  -0.002595
    24  H    0.175032  -0.046188  -0.015480   0.000313  -0.000885  -0.001923
    25  C   -3.441356   0.040948  -0.416242  -0.004494  -0.001254  -0.037436
    26  H    0.008626   0.000655   0.003180  -0.000004   0.000001   0.000031
    27  F   -0.048061   0.000975   0.002481  -0.000207  -0.000008  -0.000058
    28  F    0.058794   0.000271   0.003367   0.000008   0.000001   0.000076
    29  F    0.159215  -0.001158   0.004694   0.000295  -0.000034  -0.000137
    30  O    0.062197   0.002177   0.013003  -0.000066   0.000590   0.001714
    31  O    0.116858   0.045098  -0.019602   0.000459  -0.009245  -0.011603
    32  C   -0.105029   0.005268   0.039912   0.001694   0.003390   0.013133
    33  C    0.065884  -0.023498   0.032003   0.000985   0.002639   0.008460
    34  C    0.000212   0.005235  -0.001504  -0.000044  -0.001756  -0.002577
    35  H    0.006353  -0.000268  -0.000076   0.000000   0.000070  -0.000120
    36  H   -0.005374   0.000502   0.000061  -0.000000  -0.000018   0.000015
    37  H   -0.001772   0.000626  -0.000417  -0.000003  -0.000137   0.000119
    38  H   -0.000369  -0.000107   0.000031  -0.000000  -0.000009  -0.000018
    39  H    0.005078  -0.000246  -0.000039   0.000001   0.000167   0.000045
               7          8          9         10         11         12
     1  C   -0.023435  -0.014684  -3.938725 -14.605516  -3.103213  -7.790277
     2  N    0.033655  -0.007717   0.172781   0.198876   0.021258   0.066874
     3  C    0.160834  -0.256852  -0.973079  -1.167782   0.226750  -1.523513
     4  O    0.038230   0.000972   0.220848   0.081956  -0.001259  -0.010601
     5  O   -0.165750   0.035990  -0.032378   0.023130  -0.002925  -0.031456
     6  C   -1.012193   0.346479  -0.472965  -0.094994   0.023383  -0.172961
     7  C    6.621025  -0.272386  -0.027632  -0.014148  -0.000198   0.007286
     8  C   -0.272386   6.327289  -0.012310  -0.000621   0.000211  -0.001503
     9  C   -0.027632  -0.012310  23.249545   5.895649  -2.977056  -4.906151
    10  C   -0.014148  -0.000621   5.895649  27.342598  -0.506752  -4.751123
    11  C   -0.000198   0.000211  -2.977056  -0.506752  13.542025   2.234285
    12  C    0.007286  -0.001503  -4.906151  -4.751123   2.234285  19.548796
    13  C    0.056107  -0.005191  -8.862210  -7.108458  -2.228073   3.489591
    14  H    0.000622  -0.000532   0.040667   0.012341  -0.002369  -0.039090
    15  H   -0.034495  -0.011083  -0.007222  -0.000516   0.000003   0.000161
    16  H   -0.023417  -0.017680   0.004177   0.000370   0.000033  -0.000048
    17  H    0.446806  -0.053902  -0.000333  -0.000003  -0.000001   0.000024
    18  H    0.443448  -0.057954   0.001051   0.000094  -0.000003  -0.000055
    19  H    0.014637   0.377351  -0.000078  -0.000005   0.000000  -0.000001
    20  H   -0.142327   0.395515   0.000058   0.000002  -0.000000   0.000000
    21  H    0.023589   0.366242  -0.000003  -0.000003  -0.000000   0.000001
    22  H   -0.000566   0.000054   0.295138  -0.159871   0.001308  -0.020486
    23  Cl   0.000058  -0.000002   0.115365  -0.050336   0.112656  -0.940664
    24  H    0.000111   0.000003   0.018550   0.016022   0.005811  -0.183988
    25  C   -0.000051  -0.000386  -1.361205   1.522111  -1.121381   0.375518
    26  H   -0.000000   0.000000  -0.027068  -0.070203   0.344032   0.025138
    27  F    0.000001  -0.000000  -0.087337   0.180905  -0.037323  -0.028436
    28  F   -0.000000   0.000000   0.129635  -0.275800   0.039894   0.053792
    29  F    0.000010  -0.000002   0.024921  -0.283036   0.080121  -0.001032
    30  O   -0.000347   0.000008  -0.011974  -0.002853  -0.002429  -0.102909
    31  O    0.003005   0.000635   0.057342   0.013239  -0.005436  -0.053262
    32  C   -0.000494  -0.001694  -0.164272  -0.097381   0.033720   0.016522
    33  C   -0.000198   0.003850  -0.061340  -0.032661   0.010048  -0.063953
    34  C    0.003592  -0.002667   0.001078  -0.000333  -0.000226  -0.003299
    35  H    0.000079   0.000002   0.000469  -0.000009  -0.000049  -0.002308
    36  H   -0.000022  -0.000005  -0.000263   0.000062   0.000010   0.002618
    37  H    0.001147   0.000220  -0.000318   0.000003   0.000001   0.000299
    38  H    0.000055   0.000010  -0.000025   0.000002   0.000001   0.000093
    39  H   -0.000441   0.000016   0.000719  -0.000013  -0.000011  -0.000989
              13         14         15         16         17         18
     1  C    4.859037   0.110141   0.006743   0.007459  -0.000358  -0.000758
     2  N   -0.113565   0.066172   0.003157   0.004738  -0.001183  -0.001013
     3  C   -0.851015  -0.009177   0.003080   0.042510  -0.001109   0.000264
     4  O   -0.037651   0.005343  -0.002041  -0.000105  -0.000455  -0.000382
     5  O   -0.110104  -0.007530  -0.041085  -0.048105   0.002320   0.001551
     6  C   -0.238377  -0.012937   0.408742   0.358292  -0.057935  -0.052974
     7  C    0.056107   0.000622  -0.034495  -0.023417   0.446806   0.443448
     8  C   -0.005191  -0.000532  -0.011083  -0.017680  -0.053902  -0.057954
     9  C   -8.862210   0.040667  -0.007222   0.004177  -0.000333   0.001051
    10  C   -7.108458   0.012341  -0.000516   0.000370  -0.000003   0.000094
    11  C   -2.228073  -0.002369   0.000003   0.000033  -0.000001  -0.000003
    12  C    3.489591  -0.039090   0.000161  -0.000048   0.000024  -0.000055
    13  C   18.555003  -0.129504   0.001667  -0.001790   0.000390  -0.000634
    14  H   -0.129504   0.300086  -0.000056   0.000063  -0.000084  -0.000088
    15  H    0.001667  -0.000056   0.434226  -0.043697   0.005117  -0.007673
    16  H   -0.001790   0.000063  -0.043697   0.441100  -0.007980   0.005174
    17  H    0.000390  -0.000084   0.005117  -0.007980   0.436069  -0.036695
    18  H   -0.000634  -0.000088  -0.007673   0.005174  -0.036695   0.439921
    19  H    0.000013  -0.000001  -0.000461   0.002937  -0.007107   0.005908
    20  H   -0.000014  -0.000000  -0.000126  -0.000160  -0.003360  -0.003404
    21  H    0.000040  -0.000001   0.002925  -0.000502   0.005962  -0.007143
    22  H    0.009989  -0.000949  -0.000028   0.000001  -0.000000   0.000000
    23  Cl   0.148100  -0.000627   0.000001   0.000000   0.000000  -0.000000
    24  H    0.263189   0.020712  -0.000001   0.000001  -0.000001  -0.000000
    25  C   -1.152119  -0.000402  -0.000009   0.000040   0.000001   0.000003
    26  H    0.000577  -0.000001  -0.000000   0.000000   0.000000   0.000000
    27  F   -0.002567   0.000001   0.000000   0.000000   0.000000  -0.000000
    28  F    0.017199   0.000000   0.000000  -0.000000   0.000000  -0.000000
    29  F    0.023783   0.000003   0.000000   0.000000  -0.000000   0.000000
    30  O    0.023700   0.013080   0.000001  -0.000002   0.000007  -0.000003
    31  O   -0.110325   0.047973   0.000086  -0.000178   0.000036  -0.000198
    32  C    0.241170  -0.001725   0.000014   0.000111   0.000743   0.000495
    33  C   -0.094749   0.031121  -0.000004  -0.000053  -0.000613  -0.001181
    34  C    0.006098  -0.002742   0.000007   0.000068   0.000040   0.001356
    35  H   -0.006429   0.000210   0.000000   0.000000   0.000000   0.000000
    36  H    0.006915  -0.000227  -0.000000  -0.000000  -0.000000   0.000000
    37  H    0.002532  -0.000882   0.000000  -0.000000  -0.000043  -0.000097
    38  H    0.000473   0.000068  -0.000000  -0.000000  -0.000001  -0.000000
    39  H   -0.006233  -0.000059   0.000000   0.000000   0.000007  -0.000021
              19         20         21         22         23         24
     1  C   -0.000151   0.000130  -0.000109   0.098099  -0.209015   0.175032
     2  N   -0.000079   0.000024  -0.000004  -0.023386  -0.008554  -0.046188
     3  C   -0.005076   0.008150  -0.000845   0.089730  -0.059768  -0.015480
     4  O   -0.000079   0.000029  -0.000062   0.000876  -0.000019   0.000313
     5  O   -0.000300  -0.000753  -0.000094   0.001746  -0.000155  -0.000885
     6  C   -0.044353   0.089241  -0.045926   0.009196  -0.002595  -0.001923
     7  C    0.014637  -0.142327   0.023589  -0.000566   0.000058   0.000111
     8  C    0.377351   0.395515   0.366242   0.000054  -0.000002   0.000003
     9  C   -0.000078   0.000058  -0.000003   0.295138   0.115365   0.018550
    10  C   -0.000005   0.000002  -0.000003  -0.159871  -0.050336   0.016022
    11  C    0.000000  -0.000000  -0.000000   0.001308   0.112656   0.005811
    12  C   -0.000001   0.000000   0.000001  -0.020486  -0.940664  -0.183988
    13  C    0.000013  -0.000014   0.000040   0.009989   0.148100   0.263189
    14  H   -0.000001  -0.000000  -0.000001  -0.000949  -0.000627   0.020712
    15  H   -0.000461  -0.000126   0.002925  -0.000028   0.000001  -0.000001
    16  H    0.002937  -0.000160  -0.000502   0.000001   0.000000   0.000001
    17  H   -0.007107  -0.003360   0.005962  -0.000000   0.000000  -0.000001
    18  H    0.005908  -0.003404  -0.007143   0.000000  -0.000000  -0.000000
    19  H    0.445524  -0.024263  -0.036516  -0.000000  -0.000000  -0.000000
    20  H   -0.024263   0.422094  -0.024191   0.000000  -0.000000   0.000000
    21  H   -0.036516  -0.024191   0.444951  -0.000000  -0.000000  -0.000000
    22  H   -0.000000   0.000000  -0.000000   0.346639  -0.000019  -0.000019
    23  Cl  -0.000000  -0.000000  -0.000000  -0.000019  17.575525  -0.012589
    24  H   -0.000000   0.000000  -0.000000  -0.000019  -0.012589   0.353522
    25  C   -0.000000   0.000000   0.000000   0.014660  -0.059810  -0.003018
    26  H    0.000000  -0.000000   0.000000  -0.000174  -0.009644  -0.000284
    27  F   -0.000000   0.000000   0.000000  -0.001409   0.000032  -0.000007
    28  F    0.000000  -0.000000   0.000000   0.000093   0.001927  -0.000005
    29  F    0.000000   0.000000   0.000000   0.003205  -0.000145  -0.000003
    30  O   -0.000000   0.000000   0.000000  -0.000010   0.002555  -0.002356
    31  O   -0.000001   0.000002   0.000002   0.000058  -0.001981   0.005132
    32  C    0.000009  -0.000016   0.000008   0.000138   0.010102   0.012392
    33  C   -0.000014   0.000022  -0.000019   0.000022  -0.003773   0.015818
    34  C    0.000017  -0.000047   0.000021  -0.000002  -0.000060  -0.000136
    35  H    0.000000  -0.000000   0.000000  -0.000000  -0.000005   0.000122
    36  H    0.000000   0.000000   0.000000  -0.000000   0.000028  -0.000373
    37  H    0.000000   0.000001   0.000000   0.000000   0.000000  -0.000023
    38  H   -0.000000  -0.000000  -0.000000  -0.000000   0.000001  -0.000000
    39  H   -0.000000   0.000000  -0.000000   0.000000  -0.000001   0.000027
              25         26         27         28         29         30
     1  C   -3.441356   0.008626  -0.048061   0.058794   0.159215   0.062197
     2  N    0.040948   0.000655   0.000975   0.000271  -0.001158   0.002177
     3  C   -0.416242   0.003180   0.002481   0.003367   0.004694   0.013003
     4  O   -0.004494  -0.000004  -0.000207   0.000008   0.000295  -0.000066
     5  O   -0.001254   0.000001  -0.000008   0.000001  -0.000034   0.000590
     6  C   -0.037436   0.000031  -0.000058   0.000076  -0.000137   0.001714
     7  C   -0.000051  -0.000000   0.000001  -0.000000   0.000010  -0.000347
     8  C   -0.000386   0.000000  -0.000000   0.000000  -0.000002   0.000008
     9  C   -1.361205  -0.027068  -0.087337   0.129635   0.024921  -0.011974
    10  C    1.522111  -0.070203   0.180905  -0.275800  -0.283036  -0.002853
    11  C   -1.121381   0.344032  -0.037323   0.039894   0.080121  -0.002429
    12  C    0.375518   0.025138  -0.028436   0.053792  -0.001032  -0.102909
    13  C   -1.152119   0.000577  -0.002567   0.017199   0.023783   0.023700
    14  H   -0.000402  -0.000001   0.000001   0.000000   0.000003   0.013080
    15  H   -0.000009  -0.000000   0.000000   0.000000   0.000000   0.000001
    16  H    0.000040   0.000000   0.000000  -0.000000   0.000000  -0.000002
    17  H    0.000001   0.000000   0.000000   0.000000  -0.000000   0.000007
    18  H    0.000003   0.000000  -0.000000  -0.000000   0.000000  -0.000003
    19  H   -0.000000   0.000000  -0.000000   0.000000   0.000000  -0.000000
    20  H    0.000000  -0.000000   0.000000  -0.000000   0.000000   0.000000
    21  H    0.000000   0.000000   0.000000   0.000000   0.000000   0.000000
    22  H    0.014660  -0.000174  -0.001409   0.000093   0.003205  -0.000010
    23  Cl  -0.059810  -0.009644   0.000032   0.001927  -0.000145   0.002555
    24  H   -0.003018  -0.000284  -0.000007  -0.000005  -0.000003  -0.002356
    25  C   10.343100   0.036967   0.196166   0.120511   0.162079   0.000066
    26  H    0.036967   0.346116  -0.000395   0.006250   0.000237  -0.000002
    27  F    0.196166  -0.000395   8.991496  -0.039788  -0.048263   0.000000
    28  F    0.120511   0.006250  -0.039788   9.046667  -0.018023  -0.000000
    29  F    0.162079   0.000237  -0.048263  -0.018023   8.995897  -0.000000
    30  O    0.000066  -0.000002   0.000000  -0.000000  -0.000000   8.506342
    31  O    0.000572   0.000002   0.000000   0.000000  -0.000001  -0.143534
    32  C   -0.018390  -0.000032  -0.000029   0.000025   0.000025   0.463275
    33  C   -0.002921  -0.000006  -0.000001   0.000001  -0.000000  -0.273836
    34  C    0.000022   0.000000  -0.000000   0.000000   0.000000   0.024761
    35  H   -0.000001   0.000000  -0.000000  -0.000000  -0.000000  -0.002152
    36  H    0.000003  -0.000000  -0.000000   0.000000   0.000000  -0.002510
    37  H    0.000001  -0.000000  -0.000000   0.000000  -0.000000  -0.000255
    38  H    0.000000   0.000000  -0.000000   0.000000  -0.000000  -0.000535
    39  H   -0.000003   0.000000   0.000000  -0.000000  -0.000000  -0.000231
              31         32         33         34         35         36
     1  C    0.116858  -0.105029   0.065884   0.000212   0.006353  -0.005374
     2  N    0.045098   0.005268  -0.023498   0.005235  -0.000268   0.000502
     3  C   -0.019602   0.039912   0.032003  -0.001504  -0.000076   0.000061
     4  O    0.000459   0.001694   0.000985  -0.000044   0.000000  -0.000000
     5  O   -0.009245   0.003390   0.002639  -0.001756   0.000070  -0.000018
     6  C   -0.011603   0.013133   0.008460  -0.002577  -0.000120   0.000015
     7  C    0.003005  -0.000494  -0.000198   0.003592   0.000079  -0.000022
     8  C    0.000635  -0.001694   0.003850  -0.002667   0.000002  -0.000005
     9  C    0.057342  -0.164272  -0.061340   0.001078   0.000469  -0.000263
    10  C    0.013239  -0.097381  -0.032661  -0.000333  -0.000009   0.000062
    11  C   -0.005436   0.033720   0.010048  -0.000226  -0.000049   0.000010
    12  C   -0.053262   0.016522  -0.063953  -0.003299  -0.002308   0.002618
    13  C   -0.110325   0.241170  -0.094749   0.006098  -0.006429   0.006915
    14  H    0.047973  -0.001725   0.031121  -0.002742   0.000210  -0.000227
    15  H    0.000086   0.000014  -0.000004   0.000007   0.000000  -0.000000
    16  H   -0.000178   0.000111  -0.000053   0.000068   0.000000  -0.000000
    17  H    0.000036   0.000743  -0.000613   0.000040   0.000000  -0.000000
    18  H   -0.000198   0.000495  -0.001181   0.001356   0.000000   0.000000
    19  H   -0.000001   0.000009  -0.000014   0.000017   0.000000   0.000000
    20  H    0.000002  -0.000016   0.000022  -0.000047  -0.000000   0.000000
    21  H    0.000002   0.000008  -0.000019   0.000021   0.000000   0.000000
    22  H    0.000058   0.000138   0.000022  -0.000002  -0.000000  -0.000000
    23  Cl  -0.001981   0.010102  -0.003773  -0.000060  -0.000005   0.000028
    24  H    0.005132   0.012392   0.015818  -0.000136   0.000122  -0.000373
    25  C    0.000572  -0.018390  -0.002921   0.000022  -0.000001   0.000003
    26  H    0.000002  -0.000032  -0.000006   0.000000   0.000000  -0.000000
    27  F    0.000000  -0.000029  -0.000001  -0.000000  -0.000000  -0.000000
    28  F    0.000000   0.000025   0.000001   0.000000  -0.000000   0.000000
    29  F   -0.000001   0.000025  -0.000000   0.000000  -0.000000   0.000000
    30  O   -0.143534   0.463275  -0.273836   0.024761  -0.002152  -0.002510
    31  O    8.540753   0.345855  -0.282872   0.034227   0.006773  -0.001013
    32  C    0.345855   5.695968  -0.828258   0.171149  -0.111798   0.039924
    33  C   -0.282872  -0.828258   7.541163  -0.313764   0.495122   0.320192
    34  C    0.034227   0.171149  -0.313764   5.966818  -0.052313  -0.031705
    35  H    0.006773  -0.111798   0.495122  -0.052313   0.420260  -0.031567
    36  H   -0.001013   0.039924   0.320192  -0.031705  -0.031567   0.422089
    37  H   -0.005716   0.001339  -0.029784   0.376048  -0.007071   0.005098
    38  H    0.002693   0.055564  -0.103131   0.398427  -0.002808  -0.002403
    39  H   -0.002610  -0.056672   0.012678   0.397783   0.005359  -0.007050
              37         38         39
     1  C   -0.001772  -0.000369   0.005078
     2  N    0.000626  -0.000107  -0.000246
     3  C   -0.000417   0.000031  -0.000039
     4  O   -0.000003  -0.000000   0.000001
     5  O   -0.000137  -0.000009   0.000167
     6  C    0.000119  -0.000018   0.000045
     7  C    0.001147   0.000055  -0.000441
     8  C    0.000220   0.000010   0.000016
     9  C   -0.000318  -0.000025   0.000719
    10  C    0.000003   0.000002  -0.000013
    11  C    0.000001   0.000001  -0.000011
    12  C    0.000299   0.000093  -0.000989
    13  C    0.002532   0.000473  -0.006233
    14  H   -0.000882   0.000068  -0.000059
    15  H    0.000000  -0.000000   0.000000
    16  H   -0.000000  -0.000000   0.000000
    17  H   -0.000043  -0.000001   0.000007
    18  H   -0.000097  -0.000000  -0.000021
    19  H    0.000000  -0.000000  -0.000000
    20  H    0.000001  -0.000000   0.000000
    21  H    0.000000  -0.000000  -0.000000
    22  H    0.000000  -0.000000   0.000000
    23  Cl   0.000000   0.000001  -0.000001
    24  H   -0.000023  -0.000000   0.000027
    25  C    0.000001   0.000000  -0.000003
    26  H   -0.000000   0.000000   0.000000
    27  F   -0.000000  -0.000000   0.000000
    28  F    0.000000   0.000000  -0.000000
    29  F   -0.000000  -0.000000  -0.000000
    30  O   -0.000255  -0.000535  -0.000231
    31  O   -0.005716   0.002693  -0.002610
    32  C    0.001339   0.055564  -0.056672
    33  C   -0.029784  -0.103131   0.012678
    34  C    0.376048   0.398427   0.397783
    35  H   -0.007071  -0.002808   0.005359
    36  H    0.005098  -0.002403  -0.007050
    37  H    0.452477  -0.025686  -0.034300
    38  H   -0.025686   0.429403  -0.026939
    39  H   -0.034300  -0.026939   0.445449
 Mulliken charges:
               1
     1  C   -0.979415
     2  N   -0.535007
     3  C    0.067870
     4  O   -0.428822
     5  O   -0.094488
     6  C   -0.353747
     7  C   -0.136198
     8  C   -1.137678
     9  C   -0.304050
    10  C   -0.064942
    11  C   -0.686845
    12  C    0.807106
    13  C   -0.646567
    14  H    0.560381
    15  H    0.282568
    16  H    0.276644
[...]
 .00006314,-0.00001463,0.00001274,-0.00003625,0.00015113,0.00010522,0.0
 0001289,0.00010148,0.00003454,-0.00020759,-0.00005836,-0.00011685,0.00
 000106,0.00000111,-0.00001434,0.00001887,-0.00001047,0.00000184,-0.000
 00477,-0.00000672,-0.00000120,0.00000609,-0.00000190,-0.00000238,-0.00
 000707,-0.00000249,0.00000653,0.00001182,0.00000965,-0.00000499,0.0000
 4927,0.00038727,-0.00003572,-0.00000408,-0.00000713,0.00001244,0.00001
 727,0.00000945,0.00003910,-0.00117408,-0.00099733,-0.00037908,-0.00000
 714,-0.00001861,-0.00002360,-0.00000098,0.00000010,0.00000404,0.000003
 48,0.00000046,-0.00000163,-0.00000630,-0.00000611,0.00000156,-0.000000
 46,0.00000041,-0.00000111,0.00000434,0.00000233,0.00000022,-0.00000700
 ,0.00000083,-0.00000116,0.00000163,0.00000720,0.00000006,0.00000004,-0
 .00000034,-0.00000031,-0.00000033,-0.00000209,0.00000158,0.00000166,-0
 .00000272,0.00000017,-0.00000086,-0.00000205,-0.00000074,-0.00138834,-
 0.00034547,-0.00069653,0.00195521,-0.00443505,-0.00208677,0.01406994,0
 .00944252,-0.01379640,-0.06460614,-0.08991904,0.08083366,-0.00214875,-
 0.00323831,0.00382300,0.06902904,0.09976053,-0.00002298,-0.00000821,0.
 00000765,-0.00006194,-0.00011131,0.00001471,0.00013653,-0.00005258,-0.
 00003810,-0.00003046,0.00000408,0.00001857,-0.00012224,0.00002732,0.00
 001291,0.00007375,-0.00008172,0.00001739,0.00004676,-0.00026289,-0.000
 06654,-0.00000878,0.00009164,0.00009175,0.00000616,-0.00000360,0.00000
 083,-0.00000144,-0.00000366,-0.00000020,0.00000311,0.00000035,0.000000
 70,-0.00000444,-0.00000305,-0.00000166,0.00000536,0.00001063,-0.000002
 35,0.00003394,0.00015307,-0.00000978,-0.00002644,0.00003884,-0.0000104
 3,-0.00002495,-0.00001569,-0.00003849,-0.00054061,-0.00026116,0.000068
 57,0.00003047,0.00008185,0.00004995,0.00000406,-0.00000035,-0.00001710
 ,0.00001064,-0.00000322,-0.00000530,0.00005421,0.00002259,-0.00002490,
 -0.00000024,-0.00000018,-0.00000061,0.00000188,0.00000052,0.00000018,-
 0.00000076,-0.00000580,-0.00000200,0.00000097,0.00000380,-0.00000274,0
 .00000009,-0.00000054,-0.00000034,-0.00000065,-0.00000141,0.00000153,0
 .00000057,-0.00000122,0.00000046,-0.00000028,-0.00000080,0.00000007,-0
 .00291100,0.00044857,0.00078847,0.00190871,-0.00188283,0.00029481,0.00
 339594,0.00209491,-0.00700139,0.10879902,0.08122283,-0.17827501,0.0148
 7919,0.01176798,-0.01846152,-0.11522359,-0.08856748,0.19514720,0.00000
 986,-0.00000605,0.00000612,-0.00000006,-0.00001532,0.00000117,-0.00002
 081,-0.00002025,0.00000716,0.00000312,0.00000998,-0.00000889,0.0000455
 4,0.00006305,0.00001181,-0.00004467,0.00001927,0.00000436,-0.00002279,
 0.00010875,-0.00002020,0.00000547,-0.00003303,-0.00002734,-0.00000104,
 0.00000148,-0.00000221,0.00000042,0.00000262,0.00000731,-0.00000424,0.
 00000148,-0.00000174,0.00000917,0.00000687,-0.00000110,-0.00001699,0.0
 0000885,-0.00000397,0.00001568,-0.00009715,-0.00002086,0.00001245,-0.0
 0000987,0.00000166,0.00000935,0.00000080,0.00000766,0.00004727,-0.0000
 0867,-0.00005080,-0.00002521,-0.00006177,0.00000928,-0.00000204,0.0000
 0199,0.00000714,-0.00000392,0.00000142,0.00000140,-0.00001762,-0.00000
 605,0.00000729,-0.00000029,0.00000037,-0.00000012,-0.00000239,-0.00000
 204,0.00000069,0.00001143,-0.00000463,-0.00000099,-0.00000067,-0.00000
 419,-0.00000198,0.,0.00000076,-0.00000065,-0.00000004,0.00000093,-0.00
 000056,-0.00000074,0.00000136,0.00000011,0.00000059,0.00000164,0.00000
 067,-0.00208326,-0.00226263,-0.00052865,-0.00503184,-0.00132673,0.0021
 6217,0.01273176,0.02546216,0.00869530,-0.07325630,-0.07219801,-0.03402
 387,-0.00666552,-0.01538594,-0.00683457,-0.00661191,-0.01707993,-0.007
 59604,0.08091027,-0.00004597,0.00001419,-0.00000714,0.00000973,-0.0000
 7730,0.00001548,-0.00003524,0.00008099,-0.00003410,-0.00000010,-0.0000
 5601,0.00003420,0.00001493,-0.00010456,-0.00002571,0.00002298,0.000004
 00,-0.00002113,0.00000173,0.00009714,0.00004177,0.00000091,-0.00002128
 ,-0.00002419,0.00000895,-0.00000777,0.00000316,-0.00000158,-0.00000357
 ,-0.00000243,0.00000802,-0.00000167,-0.00000089,-0.00001372,-0.0000072
 5,0.00000114,0.00002605,0.00000158,0.00000272,0.00000428,0.00019548,0.
 00000720,-0.00000360,-0.00000965,0.00000515,-0.00000420,0.00000234,0.0
 0000857,-0.00000832,-0.00005136,-0.00004227,-0.00000800,-0.00002136,-0
 .00001207,0.00000154,0.00000048,0.00000309,-0.00000389,0.00000137,0.00
 000048,-0.00001192,-0.00000421,0.00000575,-0.00000008,0.00000081,-0.00
 000014,0.00000542,0.00000301,-0.00000086,-0.00000823,-0.00000476,0.000
 00209,-0.00000050,0.00000857,-0.00000087,0.00000016,-0.00000090,0.0000
 0024,-0.00000032,-0.00000270,0.00000169,0.00000220,-0.00000273,0.00000
 015,-0.00000044,-0.00000227,-0.00000045,0.00263443,0.00222910,0.000729
 15,0.00365192,-0.00008837,-0.00093792,-0.01017168,-0.01771867,-0.00655
 165,-0.07655077,-0.24521763,-0.08820622,0.00293713,0.00772732,0.003629
 50,-0.00401499,-0.01173926,-0.00452340,0.08117383,0.26297895,0.0000123
 8,-0.00000143,0.00000449,-0.00001287,0.00002535,0.00003770,-0.00000538
 ,-0.00001239,0.00000093,0.00000154,0.00000634,0.00000099,-0.00002114,0
 .00000593,0.00000862,-0.00000135,-0.00002352,0.00000106,0.00002380,-0.
 00007943,-0.00001699,0.00000274,0.00001829,0.00003158,-0.00000211,0.00
 000180,-0.00000251,0.00000095,0.00000130,0.00000210,0.00000015,-0.0000
 0070,-0.00000419,-0.00000228,-0.00000246,0.00000763,0.00000618,-0.0000
 0410,-0.00000834,0.00000866,0.00004615,-0.00002187,-0.00000150,0.00000
 833,-0.00000411,-0.00000151,-0.00000481,-0.00000653,-0.00003046,0.0000
 2861,0.00001376,0.00001366,0.00002153,0.00003964,-0.00000343,-0.000001
 44,-0.00000108,0.00000296,-0.00000057,-0.00000142,0.00001254,0.0000046
 1,-0.00000532,-0.00000052,-0.00000003,-0.00000049,0.00000019,0.0000006
 3,0.00000004,-0.00000337,-0.00000153,-0.00000046,-0.00000078,-0.000001
 59,-0.00000133,0.00000010,-0.00000014,-0.00000004,-0.00000006,0.000000
 05,0.00000013,-0.00000016,0.00000040,0.00000010,0.00000052,0.00000068,
 0.00000061,-0.00094091,0.00160810,-0.00024317,0.00235554,0.00002000,-0
 .00022872,-0.00151669,-0.00658814,-0.00442024,-0.03521674,-0.08801186,
 -0.08181038,-0.00963721,-0.02398963,-0.01185358,0.00659960,0.02002915,
 0.00911766,0.04010763,0.09546431,0.09109865,-0.00000504,0.00000198,0.0
 0000230,0.00001302,-0.00001520,0.00001976,-0.00000364,0.00001522,-0.00
 001494,0.00000252,-0.00002401,0.00000850,-0.00014029,0.00010556,-0.000
 06131,-0.00000658,0.00000568,-0.00001236,-0.00026555,-0.00033375,0.000
 28707,0.00000686,-0.00007425,0.00002189,0.00000108,-0.00000229,0.00000
 211,-0.00000141,-0.00000028,0.00000129,0.00000148,-0.00000108,-0.00000
 371,-0.00000401,-0.00000068,0.00000681,0.00000053,0.00000297,-0.000007
 32,-0.00001358,0.00001282,0.00000057,-0.00000140,-0.00000521,-0.000001
 66,-0.00000186,-0.00000195,0.00000823,-0.00004504,-0.00005023,0.000028
 46,-0.00003004,-0.00006779,0.00007780,-0.00000989,-0.00000308,0.000011
 28,-0.00000305,0.00000522,-0.00000189,-0.00001071,-0.00000658,0.000002
 81,0.00000076,-0.00000046,-0.00000110,0.00000157,0.00000105,-0.0000005
 4,0.00000127,-0.00000004,-0.00000049,-0.00000053,0.00000361,-0.0000026
 6,-0.00000003,-0.00000010,-0.00000033,-0.00000031,-0.00000088,0.000001
 06,0.00000096,-0.00000098,0.00000035,0.00000043,-0.00000071,0.00000057
 ,-0.00004741,0.00027119,-0.00001047,-0.00009545,0.00002345,0.00016265,
 0.00052371,-0.00103535,-0.00006537,-0.00655989,-0.01504572,-0.00710237
 ,-0.07186532,-0.06960810,-0.03301491,0.00050846,0.00029969,0.00043031,
 -0.00125938,0.00110002,-0.00315637,0.07521004,-0.00001439,0.00000784,-
 0.00000341,0.00003739,0.00000432,-0.00001037,-0.00029961,0.00016945,0.
 00001592,0.00002966,-0.00007855,0.00002469,0.00053442,-0.00067386,0.00
 016789,-0.00007192,0.00004634,-0.00002911,-0.00049103,-0.00062743,0.00
 044767,0.00004832,-0.00016696,0.00004132,0.00000478,-0.00000691,0.0000
 0245,-0.00000072,0.00000022,0.00000073,0.00000338,-0.00000035,-0.00000
 042,-0.00000460,0.00000010,0.00000020,0.00000129,0.00000266,0.00000025
 ,-0.00002513,0.00000509,-0.00001159,0.00000055,-0.00002521,0.00000027,
 0.00001439,-0.00000856,0.00002438,-0.00010568,-0.00008119,-0.00008107,
 -0.00006503,-0.00003662,0.00021972,-0.00002528,-0.00001176,0.00003118,
 0.00000158,0.00001356,-0.00000583,-0.00003470,-0.00002052,0.00001016,-
 0.00000077,0.00000173,0.00000028,0.00000265,0.00000064,-0.00000034,-0.
 00000313,0.00000009,-0.00000012,-0.00000172,0.00000407,-0.00000171,-0.
 00000007,0.00000006,-0.00000031,-0.00000012,-0.00000118,0.00000130,0.0
 0000139,-0.00000134,0.00000018,0.00000019,-0.00000071,0.00000029,-0.00
 047499,0.00014906,0.00020704,0.00050143,0.00015384,0.00105956,0.000817
 82,-0.00005388,-0.00135960,0.00213181,0.00727755,0.00278071,-0.0710336
 3,-0.24718636,-0.09745808,-0.00050558,0.00032876,-0.00066015,0.0012846
 0,0.00087728,0.00129512,0.07640920,0.26681403,0.00000831,-0.00000089,-
 0.00000646,0.00001672,0.00002632,0.00000214,-0.00006492,0.00004443,0.0
 0000050,0.00000702,-0.00000628,-0.00000466,-0.00007149,0.00017384,-0.0
 0014164,-0.00005462,0.00004571,0.00001840,-0.00002590,-0.00005073,-0.0
 0009872,0.00003329,-0.00002224,0.00002575,-0.00000068,-0.00000050,0.00
 000165,-0.00000006,0.00000088,-0.00000208,0.00000007,-0.00000022,0.000
 00211,0.00000046,0.00000054,-0.00000313,-0.00000430,0.00000061,0.00000
 509,-0.00001689,-0.00003890,-0.00000038,0.00000674,-0.00000740,-0.0000
 0450,0.00001286,-0.00001357,0.00000496,0.00011826,0.00014041,-0.000234
 75,0.00001780,0.00000341,0.00012514,-0.00001709,-0.00000965,0.00001393
 ,-0.00000098,0.00000290,-0.00000215,-0.00000982,-0.00000959,0.00000707
 ,0.00000008,0.00000003,0.00000034,-0.00000051,-0.00000009,-0.00000017,
 0.00000134,0.00000138,-0.00000116,-0.00000057,-0.00000122,0.00000058,-
 0.00000007,0.00000017,-0.00000002,0.00000044,0.00000043,-0.00000018,-0
 .00000012,0.00000027,-0.00000016,0.00000007,0.00000030,0.00000023,-0.0
 0022677,0.00041454,-0.00003725,-0.00001710,0.00045489,0.00093933,0.001
 73397,-0.00112679,0.00001446,-0.00902328,-0.02432047,-0.01176432,-0.03
 326740,-0.09606984,-0.09396539,0.00092046,-0.00006885,0.00081316,-0.00
 322971,0.00165010,-0.00410152,0.03957081,0.10490819,0.10188003,0.00004
 941,-0.00000776,-0.00000212,0.00000265,0.00011890,0.00000351,-0.000048
 70,-0.00004894,0.00003028,0.00001576,0.00003610,-0.00002488,0.00001719
 ,0.00004231,0.00000083,0.00002115,0.00001136,-0.00000312,0.00001387,0.
 00003446,-0.00007261,-0.00001169,0.00003043,0.00001496,-0.00001114,0.0
 0000774,-0.00000136,0.00000308,0.00000465,-0.00000014,-0.00000618,0.00
 000143,-0.00000023,0.00000796,0.00000408,-0.00000065,-0.00001300,-0.00
 000661,0.00000259,0.00001037,-0.00020921,-0.00001648,-0.00000074,0.000
 00740,-0.00000062,-0.00000423,0.00000352,-0.00000378,0.00005134,0.0001
 6060,0.00003486,0.00000330,0.00003086,-0.00005107,0.00000419,0.0000006
 3,-0.00000429,0.00000371,0.00000320,-0.00000108,0.00001048,0.00000493,
 -0.00000609,0.00000003,-0.00000069,-0.00000010,-0.00000357,-0.00000250
 ,-0.00000032,0.00000395,0.00000117,-0.00000051,-0.00000008,-0.00001007
 ,-0.00000002,-0.00000011,0.00000048,-0.00000023,0.00000038,0.00000289,
 -0.00000142,-0.00000228,0.00000302,0.00000007,0.00000090,0.00000299,0.
 00000115,-0.00207700,0.00175854,-0.00127054,-0.00071462,0.00075322,0.0
 0000193,0.00203391,-0.00187653,-0.00236844,-0.01350584,0.00870823,0.00
 529273,-0.22425332,0.11902032,0.04770463,0.00086654,-0.00003287,-0.000
 05660,0.00019782,-0.00049339,0.00039241,0.00981455,-0.00537763,-0.0019
 3794,0.24100538,-0.00003008,0.00000319,0.00000192,-0.00000059,-0.00007
 354,0.00000124,0.00000417,0.00004035,-0.00002904,-0.00000780,-0.000037
 60,0.00001998,-0.00000301,0.00001362,0.00000148,0.00005574,0.00001947,
 -0.00001338,-0.00005449,0.00001033,-0.00003741,-0.00000236,-0.00000763
 ,0.00001656,0.00000691,-0.00000531,0.00000152,-0.00000088,-0.00000294,
 0.00000181,0.00000355,-0.00000060,-0.00000130,-0.00000595,-0.00000101,
 0.00000179,0.00000755,0.00000428,0.00000004,-0.00001704,0.00011819,0.0
 0000596,-0.00000815,0.00000277,0.00000217,-0.00000544,0.00000212,0.000
 00068,0.00002905,0.00002559,0.00000438,0.00000014,-0.00000562,-0.00000
 394,-0.00000371,-0.00000162,0.00000164,-0.00000523,-0.00000235,0.00000
 078,0.00000003,0.00000219,-0.00000263,-0.00000008,0.00000068,-0.000000
 03,0.00000275,0.00000143,-0.00000030,-0.00000216,-0.00000068,0.0000000
 7,-0.00000036,0.00000680,-0.00000201,0.00000007,-0.00000018,-0.0000002
 2,-0.00000050,-0.00000196,0.00000130,0.00000149,-0.00000198,0.00000002
 ,-0.00000048,-0.00000199,-0.00000037,0.00086328,-0.00061965,0.00054462
 ,0.00054853,-0.00016167,0.00005298,-0.00069129,0.00166226,0.00058665,0
 .00335550,-0.00359999,-0.00136738,0.11941851,-0.12921084,-0.03256702,-
 0.00014632,0.00000439,-0.00013214,-0.00008747,0.00035591,0.00033781,0.
 02280429,-0.01390025,-0.00531894,-0.13201660,0.13497766,0.00003154,-0.
 00000290,0.00000317,0.00001181,0.00008427,0.00001814,-0.00005243,-0.00
 002120,0.00002054,0.00001305,0.00001964,-0.00001483,0.00003176,0.00001
 585,0.00000369,-0.00000614,0.00000276,-0.00000389,-0.00000723,0.000018
 95,0.00002063,0.00000069,-0.00000775,-0.00000341,-0.00000697,0.0000038
 3,-0.00000403,0.00000207,0.00000324,0.00000288,-0.00000387,0.00000072,
 -0.00000476,0.00000527,0.00000377,0.00001014,-0.00001052,-0.00000657,-
 0.00001360,0.00001304,-0.00012195,-0.00001091,0.00000336,-0.00000030,-
 0.00000122,0.00000002,-0.00000172,-0.00000064,-0.00003185,-0.00003700,
 -0.00001219,0.00000121,-0.00000348,0.00000212,-0.00000319,-0.00000130,
 0.00000090,0.00000051,-0.00000094,0.00000150,-0.00000289,-0.00000234,0
 .00000170,0.00000008,-0.00000025,-0.00000003,-0.00000200,-0.00000174,0
 .00000029,0.00000113,0.00000220,-0.00000256,-0.00000053,-0.00000536,-0
 .00000055,-0.00000002,0.00000033,-0.00000020,0.00000021,0.00000135,-0.
 00000046,-0.00000105,0.00000166,0.00000020,0.00000076,0.00000168,0.000
 00109,-0.00269541,0.00230278,-0.00104352,0.00025816,0.00014027,0.00152
 678,0.00058037,-0.00220037,-0.00555086,-0.02506852,0.01728830,0.006918
 30,0.04921949,-0.03347115,-0.06050914,0.00096887,-0.00007982,0.0012292
 7,0.00078077,-0.00058506,0.00111876,0.01088680,-0.00554259,-0.00378270
 ,-0.05071232,0.03533542,0.06475241,0.00000101,-0.00000074,-0.00000295,
 0.00001240,-0.00000071,0.00000095,-0.00002011,0.00001025,0.00000022,0.
 00000527,-0.00000560,0.00000109,0.00001550,-0.00001242,0.00000203,-0.0
 0004308,-0.00001228,0.00000152,-0.00000892,-0.00003239,0.00007379,0.00
 001645,-0.00002186,-0.00000553,0.00000081,0.,-0.00000013,-0.00000016,-
 0.00000043,0.00000083,0.00000019,-0.00000035,-0.00000019,0.00000064,0.
 00000089,0.00000101,-0.00000366,-0.00000011,-0.00000072,-0.00001138,-0
 .00001184,-0.00000568,0.00000792,-0.00000725,0.00000105,0.00000370,-0.
 00000495,0.00000258,-0.00004058,-0.00007081,-0.00003884,0.00000436,0.0
 0001597,0.00003956,-0.00000472,-0.00000154,0.00000407,0.00000162,0.000
 00514,-0.00000116,-0.00000899,-0.00000435,0.00000377,0.00000006,-0.000
 00015,-0.00000002,-0.00000047,-0.00000012,0.00000032,0.00000165,0.0000
 0056,-0.00000099,-0.00000010,0.00000113,-0.00000013,0.00000012,0.00000
 005,0.00000009,-0.00000014,-0.00000012,0.00000020,0.00000020,-0.000000
 12,0.00000013,-0.00000008,-0.00000029,-0.00000015,-0.00004057,-0.00029
 728,0.00000772,-0.00067667,0.00064281,-0.00077661,0.00035534,0.0005809
 4,0.00096140,0.01131730,0.00999296,-0.01323160,-0.12900876,-0.07617429
 ,0.10105925,-0.00152907,0.00119494,-0.00318821,0.00106153,-0.00022728,
 0.00101331,-0.00571679,-0.00328912,0.00552150,-0.01348542,-0.01401155,
 0.01579398,0.13779358,-0.00000035,0.00000372,-0.00000103,0.00001620,0.
 00001721,-0.00001259,-0.00005998,0.00002623,0.00001132,0.00001158,-0.0
 0001482,0.00000086,0.00005222,0.00000598,-0.00001235,-0.00005784,0.000
 00742,0.00000036,-0.00009732,-0.00008949,0.00010326,0.00003286,-0.0000
 6082,-0.00000055,0.00000014,-0.00000103,0.00000099,-0.00000058,0.00000
 108,-0.00000225,0.00000033,0.00000038,0.00000151,0.00000031,0.00000040
 ,-0.00000391,-0.00000045,-0.00000021,0.00000325,-0.00000004,-0.0000344
 7,0.00000849,0.00000845,-0.00001337,0.00000214,0.00000788,-0.00000443,
 0.00000569,-0.00001247,-0.00007503,-0.00004265,-0.00000903,-0.00001104
 ,0.00009048,-0.00001179,-0.00000406,0.00001054,-0.00000112,0.00000511,
 -0.00000151,-0.00002016,-0.00000935,0.00000769,-0.00000019,0.00000039,
 0.00000059,0.00000058,-0.00000002,0.00000008,0.00000066,-0.00000045,0.
 00000231,-0.00000029,-0.00000189,0.00000250,0.00000002,0.00000012,0.00
 000015,0.00000048,0.00000069,-0.00000129,-0.00000018,0.00000037,-0.000
 00044,-0.00000009,0.00000029,-0.00000049,0.00028205,-0.00013091,-0.000
 18653,-0.00012154,0.00022299,-0.00057413,-0.00073772,0.00011367,0.0007
 9284,-0.00228906,-0.00289957,0.00250167,-0.07448711,-0.11667056,0.0910
 9937,0.00074759,0.00088677,0.00061440,0.00045754,0.00056476,-0.0002007
 1,-0.01478320,-0.01297504,0.01919679,0.00932934,0.01038619,-0.01313321
 ,0.08174231,0.12075280,0.00001208,-0.00000371,-0.00000147,-0.00000303,
 0.00001851,0.00000533,0.00000120,-0.00001042,0.00000107,0.00000042,0.0
 0000597,-0.00000409,0.00000608,0.00002281,0.00000340,-0.00002590,-0.00
 000263,0.00000484,-0.00005468,-0.00009356,0.00006080,0.00001009,-0.000
 02012,0.00000537,-0.00000298,0.00000215,0.00000006,0.00000157,0.000000
 51,-0.00000101,-0.00000173,-0.00000012,0.00000088,0.00000250,0.0000012
 5,-0.00000244,-0.00000419,0.00000117,0.00000308,0.00000546,-0.00001726
 ,0.00000309,0.00000351,-0.00000375,0.00000096,0.00000250,-0.00000479,0
 .00000089,-0.00006242,-0.00007001,-0.00002232,0.00000575,0.00001514,0.
 00004122,-0.00000500,-0.00000210,0.00000411,0.00000017,0.00000237,-0.0
 0000140,-0.00000538,-0.00000188,0.00000144,-0.00000002,-0.00000040,-0.
 00000032,-0.00000146,-0.00000097,-0.00000004,0.00000074,0.00000089,0.0
 0000029,0.00000042,-0.00000135,-0.00000087,-0.00000010,0.00000004,-0.0
 0000024,-0.00000038,0.00000022,0.00000041,-0.00000074,0.00000066,0.000
 00015,0.00000006,0.00000052,0.00000044,-0.00076256,0.00032373,0.000220
 86,-0.00006380,-0.00040150,0.00141517,0.00172869,-0.00107387,-0.000844
 05,0.01553889,0.01387407,-0.01954493,0.09930434,0.09090653,-0.16899374
 ,-0.00391066,0.00096448,-0.00371739,0.00053459,-0.00062942,0.00124786,
 -0.00807363,-0.00607481,0.01029647,0.00305705,0.00255530,-0.00467299,-
 0.10723748,-0.10028365,0.18448911\\-0.00000135,0.00000081,0.00000399,0
 .00000084,0.00000085,-0.00000087,-0.00000025,-0.00000070,-0.00000069,-
 0.00000037,0.00000012,-0.00000095,0.00000004,0.00000081,-0.00000214,-0
 .00000085,-0.00000033,-0.00000324,0.00000006,0.00000017,-0.00000381,-0
 .00000084,0.00000023,-0.00000561,-0.00000066,-0.00000065,0.00000125,0.
 00000013,0.00000024,0.00000343,-0.00000040,-0.00000010,0.00000407,0.00
 000167,0.00000049,0.00000470,-0.00000069,0.00000127,0.00000294,0.00000
 258,-0.00000192,0.00000199,-0.00000011,0.00000051,-0.00000394,-0.00000
 195,0.,-0.00000338,-0.00000133,-0.00000014,-0.00000278,0.00000109,0.00
 000075,-0.00000411,-0.00000213,-0.00000020,-0.00000582,-0.00000058,0.0
 0000035,-0.00000630,-0.00000033,0.00000045,-0.00000652,0.00000051,0.00
 000016,0.00000024,0.00000040,-0.00000058,0.00000701,0.00000144,-0.0000
 0148,0.00000376,-0.00000039,-0.00000155,0.00000226,0.00000042,-0.00000
 025,0.00000548,-0.00000131,-0.00000004,0.00000224,0.00000064,-0.000000
 20,0.00000375,0.00000079,0.00000059,0.00000014,-0.00000216,-0.00000092
 ,0.00000016,0.00000075,0.00000071,0.00000302,-0.00000046,0.00000108,0.
 00000142,-0.00000061,-0.00000182,-0.00000066,0.00000138,0.00000015,0.0
 0000029,-0.00000120,0.00000029,-0.00000043,-0.00000043,-0.00000061,0.0
 0000135,0.00000202,-0.00000002,-0.00000125,0.00000141,0.00000043,-0.00
 000120,0.00000222,0.00000104,0.00000020\\\@


 THERE ARE PEOPLE SO ADDICTED TO EXAGERATING THEY
 CAN'T TELL THE TRUTH WITHOUT LYING. -- FORTUNE COOKIE
 Job cpu time:       0 days  8 hours 21 minutes  5.0 seconds.
 Elapsed time:       0 days  8 hours 22 minutes 10.5 seconds.
 File lengths (MBytes):  RWF=   1404 Int=      0 D2E=      0 Chk=     45 Scr=      1
 Normal termination of Gaussian 16 at Thu Apr  1 12:59:15 2021.
