 Entering Gaussian System, Link 0=/apps/gaussian/g16c01/g16/g16
 Initial command:
 /apps/gaussian/g16c01/g16/l1.exe "/jobfs/21661563.gadi-pbs/Gau-1731120.inp" -scrdir="/jobfs/21661563.gadi-pbs/"
 Entering Link 1 = /apps/gaussian/g16c01/g16/l1.exe PID=   1731121.
  
 Copyright (c) 1988-2019, Gaussian, Inc.  All Rights Reserved.
  
 This is part of the Gaussian(R) 16 program.  It is based on
 the Gaussian(R) 09 system (copyright 2009, Gaussian, Inc.),
 the Gaussian(R) 03 system (copyright 2003, Gaussian, Inc.),
 the Gaussian(R) 98 system (copyright 1998, Gaussian, Inc.),
 the Gaussian(R) 94 system (copyright 1995, Gaussian, Inc.),
 the Gaussian 92(TM) system (copyright 1992, Gaussian, Inc.),
 the Gaussian 90(TM) system (copyright 1990, Gaussian, Inc.),
 the Gaussian 88(TM) system (copyright 1988, Gaussian, Inc.),
 the Gaussian 86(TM) system (copyright 1986, Carnegie Mellon
 University), and the Gaussian 82(TM) system (copyright 1983,
 Carnegie Mellon University). Gaussian is a federally registered
 trademark of Gaussian, Inc.
  
 This software contains proprietary and confidential information,
 including trade secrets, belonging to Gaussian, Inc.
  
 This software is provided under written license and may be
 used, copied, transmitted, or stored only in accord with that
 written license.
  
 The following legend is applicable only to US Government
 contracts under FAR:
  
                    RESTRICTED RIGHTS LEGEND
  
 Use, reproduction and disclosure by the US Government is
 subject to restrictions as set forth in subparagraphs (a)
 and (c) of the Commercial Computer Software - Restricted
 Rights clause in FAR 52.227-19.
  
 Gaussian, Inc.
 340 Quinnipiac St., Bldg. 40, Wallingford CT 06492
  
  
 ---------------------------------------------------------------
 Warning -- This program may not be used in any manner that
 competes with the business of Gaussian, Inc. or will provide
 assistance to any competitor of Gaussian, Inc.  The licensee
 of this program is prohibited from giving any competitor of
 Gaussian, Inc. access to this program.  By using this program,
 the user acknowledges that Gaussian, Inc. is engaged in the
 business of creating and licensing software in the field of
 computational chemistry and represents and warrants to the
 licensee that it is not a competitor of Gaussian, Inc. and that
 it will not use this program in any manner prohibited above.
 ---------------------------------------------------------------
  

 Cite this work as:
 Gaussian 16, Revision C.01,
 M. J. Frisch, G. W. Trucks, H. B. Schlegel, G. E. Scuseria, 
 M. A. Robb, J. R. Cheeseman, G. Scalmani, V. Barone, 
 G. A. Petersson, H. Nakatsuji, X. Li, M. Caricato, A. V. Marenich, 
 J. Bloino, B. G. Janesko, R. Gomperts, B. Mennucci, H. P. Hratchian, 
 J. V. Ortiz, A. F. Izmaylov, J. L. Sonnenberg, D. Williams-Young, 
 F. Ding, F. Lipparini, F. Egidi, J. Goings, B. Peng, A. Petrone, 
 T. Henderson, D. Ranasinghe, V. G. Zakrzewski, J. Gao, N. Rega, 
 G. Zheng, W. Liang, M. Hada, M. Ehara, K. Toyota, R. Fukuda, 
 J. Hasegawa, M. Ishida, T. Nakajima, Y. Honda, O. Kitao, H. Nakai, 
 T. Vreven, K. Throssell, J. A. Montgomery, Jr., J. E. Peralta, 
 F. Ogliaro, M. J. Bearpark, J. J. Heyd, E. N. Brothers, K. N. Kudin, 
 V. N. Staroverov, T. A. Keith, R. Kobayashi, J. Normand, 
 K. Raghavachari, A. P. Rendell, J. C. Burant, S. S. Iyengar, 
 J. Tomasi, M. Cossi, J. M. Millam, M. Klene, C. Adamo, R. Cammi, 
 J. W. Ochterski, R. L. Martin, K. Morokuma, O. Farkas, 
 J. B. Foresman, and D. J. Fox, Gaussian, Inc., Wallingford CT, 2019.
 
 ******************************************
 Gaussian 16:  ES64L-G16RevC.01  3-Jul-2019
                28-Apr-2021 
 ******************************************
 %NprocShared=32
 Will use up to   32 processors via shared memory.
 %Mem=1194000MB
 %chk=NM3CA_carboxy_c2.DSDPBEP86_AUG-cc-PVTZ.chk
 ----------------------------------------------------------------------
 # DSDPBEP86/AUG-cc-PVTZ SCF=Tight INT(grid=ultrafine) Pop=NBO MaxDisk=
 1400000MB
 ----------------------------------------------------------------------
 1/38=1,172=1/1;
 2/12=2,17=6,18=5,40=1/2;
 3/5=16,6=1,7=10,11=9,25=1,30=1,74=-77,75=-5/1,2,3;
 4//1;
 5/5=2,32=2,38=5/2;
 8/10=1/1;
 9/16=-3/6;
 6/7=2,8=2,9=2,10=2,40=1/1,7;
 99/5=1,9=1/99;
 --------------------------------------
 NM3CA_carboxy_c2.DSDPBEP86_AUG-cc-PVTZ
 --------------------------------------
 Symbolic Z-matrix:
 Charge = -1 Multiplicity = 1
 C                    -5.94117   1.28819   0.3701 
 N                    -4.68697   0.70424   0.23111 
 C                    -3.52217   1.37802   0.07789 
 O                    -3.35362   2.5805    0.0176 
 O                    -2.49936   0.49869  -0.01254 
 C                    -1.20868   1.06931  -0.16627 
 C                    -0.21913  -0.07585  -0.24738 
 C                     1.20952   0.43544  -0.40834 
 C                    -7.04853   0.42021   0.33318 
 C                    -8.31963   0.9384    0.50169 
 C                    -8.55108   2.30109   0.69474 
 C                    -7.44522   3.12881   0.7129 
 C                    -6.14768   2.66162   0.55823 
 H                    -4.63194  -0.3582    0.31716 
 H                    -0.99201   1.72544   0.68291 
 H                    -1.18273   1.68588  -1.07037 
 H                    -0.4951   -0.71923  -1.08693 
 H                    -0.31271  -0.68476   0.65553 
 H                     1.31693   1.03242  -1.3183 
 H                     1.92189  -0.38977  -0.46763 
 H                     1.50217   1.06605   0.43582 
 H                    -6.88962  -0.64124   0.138 
 Cl                   -7.68903   4.85078   0.95616 
 H                    -5.31262   3.34452   0.58108 
 C                    -9.50688   0.02493   0.40883 
 H                    -9.54988   2.69539   0.82727 
 F                    -10.52413   0.44745   1.19444 
 F                    -10.00907  -0.02256  -0.84149 
 F                    -9.23334  -1.2278    0.76743 
 O                    -6.27143  -2.49496  -0.63091 
 O                    -4.51131  -1.9181    0.62886 
 C                    -5.26392  -2.75199   0.04824 
 C                    -4.89594  -4.23879   0.21469 
 C                    -3.58272  -4.48848   0.9444 
 H                    -4.8856   -4.68105  -0.78615 
 H                    -5.73148  -4.71494   0.7387 
 H                    -2.75157  -4.01731   0.41596 
 H                    -3.37277  -5.5592    1.0381 
 H                    -3.60813  -4.04882   1.94249 
 
                          Input orientation:                          
 ---------------------------------------------------------------------
 Center     Atomic      Atomic             Coordinates (Angstroms)
 Number     Number       Type             X           Y           Z
 ---------------------------------------------------------------------
      1          6           0       -5.941167    1.288185    0.370101
      2          7           0       -4.686974    0.704241    0.231109
      3          6           0       -3.522171    1.378023    0.077888
      4          8           0       -3.353618    2.580505    0.017600
      5          8           0       -2.499365    0.498692   -0.012537
      6          6           0       -1.208683    1.069312   -0.166265
      7          6           0       -0.219127   -0.075846   -0.247379
      8          6           0        1.209523    0.435437   -0.408336
      9          6           0       -7.048525    0.420214    0.333180
     10          6           0       -8.319632    0.938403    0.501686
     11          6           0       -8.551078    2.301086    0.694738
     12          6           0       -7.445222    3.128809    0.712903
     13          6           0       -6.147681    2.661620    0.558227
     14          1           0       -4.631938   -0.358203    0.317164
     15          1           0       -0.992012    1.725443    0.682908
     16          1           0       -1.182733    1.685885   -1.070372
     17          1           0       -0.495104   -0.719225   -1.086928
     18          1           0       -0.312708   -0.684761    0.655530
     19          1           0        1.316930    1.032417   -1.318299
     20          1           0        1.921890   -0.389767   -0.467628
     21          1           0        1.502165    1.066053    0.435825
     22          1           0       -6.889615   -0.641239    0.137995
     23         17           0       -7.689027    4.850780    0.956164
     24          1           0       -5.312615    3.344525    0.581082
     25          6           0       -9.506884    0.024931    0.408825
     26          1           0       -9.549880    2.695389    0.827269
     27          9           0      -10.524130    0.447445    1.194440
     28          9           0      -10.009072   -0.022559   -0.841493
     29          9           0       -9.233337   -1.227799    0.767433
     30          8           0       -6.271429   -2.494960   -0.630913
     31          8           0       -4.511307   -1.918102    0.628857
     32          6           0       -5.263919   -2.751986    0.048237
     33          6           0       -4.895937   -4.238792    0.214689
     34          6           0       -3.582723   -4.488479    0.944404
     35          1           0       -4.885600   -4.681046   -0.786152
     36          1           0       -5.731482   -4.714944    0.738701
     37          1           0       -2.751567   -4.017307    0.415964
     38          1           0       -3.372769   -5.559199    1.038098
     39          1           0       -3.608134   -4.048822    1.942487
 ---------------------------------------------------------------------
                    Distance matrix (angstroms):
                    1          2          3          4          5
     1  C    0.000000
     2  N    1.390435   0.000000
     3  C    2.438237   1.354335   0.000000
     4  O    2.913719   2.311664   1.215733   0.000000
     5  O    3.551861   2.210712   1.351863   2.250467   0.000000
     6  C    4.767809   3.519899   2.346730   2.630258   1.419542
     7  C    5.914694   4.560608   3.623484   4.117214   2.363203
     8  C    7.243308   5.937156   4.849105   5.060138   3.730484
     9  C    1.407472   2.380759   3.663024   4.291711   4.562953
    10  C    2.407645   3.650239   4.836165   5.252821   5.859460
    11  C    2.818331   4.206680   5.149995   5.248826   6.353903
    12  C    2.401581   3.703861   4.342675   4.186324   5.648476
    13  C    1.401557   2.464144   2.961697   2.847042   4.279514
    14  H    2.104157   1.067343   2.074443   3.218671   2.321818
    15  H    4.978271   3.860016   2.624587   2.598259   2.064140
    16  H    4.987567   3.864865   2.624167   2.587812   2.064452
    17  H    5.984332   4.619010   3.862432   4.503255   2.579671
    18  H    5.971059   4.609086   3.858680   4.507333   2.574557
    19  H    7.456278   6.209286   5.048335   5.098551   4.068659
    20  H    8.083624   6.735145   5.749824   6.073627   4.532545
    21  H    7.446936   6.203085   5.046722   5.103637   4.066346
    22  H    2.162430   2.582753   3.926921   4.785123   4.538326
    23  Cl   4.011304   5.170281   5.494915   4.983053   6.841903
    24  H    2.160584   2.735873   2.706662   2.176903   4.045433
    25  C    3.783074   4.870788   6.144686   6.674331   7.036144
    26  H    3.900261   5.288471   6.215328   6.249994   7.432396
    27  F    4.731799   5.921683   7.151229   7.573053   8.115187
    28  F    4.442281   5.477540   6.699759   7.197851   7.573280
    29  F    4.162503   4.968887   6.315315   7.045319   6.995392
    30  O    3.927250   3.672665   4.802168   5.890207   4.855184
    31  O    3.520190   2.658148   3.485169   4.685226   3.209391
    32  C    4.109166   3.508819   4.482359   5.664419   4.267711
    33  C    5.627089   4.947475   5.783991   6.994312   5.314032
    34  C    6.265935   5.356539   5.930461   7.133161   5.192425
    35  H    6.171131   5.484121   6.270392   7.464791   5.755196
    36  H    6.018089   5.542221   6.514751   7.706997   6.180043
    37  H    6.190630   5.106172   5.460560   6.637189   4.543288
    38  H    7.343675   6.450507   7.004953   8.203448   6.210049
    39  H    6.033166   5.165687   5.738883   6.907818   5.072610
                    6          7          8          9         10
     6  C    0.000000
     7  C    1.515647   0.000000
     8  C    2.511596   1.525896   0.000000
     9  C    5.896993   6.871957   8.291287   0.000000
    10  C    7.143451   8.198047   9.585714   1.382977   0.000000
    11  C    7.494621   8.715434   9.998337   2.434352   1.395616
    12  C    6.626378   7.962939   9.133239   2.763701   2.367929
    13  C    5.239660   6.579550   7.747167   2.426122   2.773093
    14  H    3.740344   4.457727   5.939603   2.538914   3.913352
    15  H    1.094783   2.169661   2.775191   6.205424   7.371993
    16  H    1.094644   2.170150   2.779353   6.162742   7.346116
    17  H    2.134404   1.093134   2.167829   6.801644   8.154426
    18  H    2.134219   1.093060   2.168834   6.833456   8.171240
    19  H    2.776196   2.175911   1.093597   8.548860   9.807370
    20  H    3.467018   2.175088   1.091761   9.042439  10.372674
    21  H    2.776909   2.175672   1.093583   8.575660   9.822847
    22  H    5.940669   6.705490   8.188636   1.090886   2.161593
    23  Cl   7.586449   9.028818  10.027029   4.519763   3.988848
    24  H    4.751566   6.191034   7.209718   3.409755   3.851996
    25  C    8.383413   9.311455  10.755355   2.491085   1.500874
    26  H    8.556098   9.792730  11.063402   3.417210   2.169451
    27  F    9.434817  10.418529  11.842620   3.580829   2.362363
    28  F    8.893535   9.808101  11.236292   3.215703   2.362581
    29  F    8.399023   9.144005  10.639649   2.770907   2.365990
    30  O    6.208972   6.529133   8.037501   3.167270   4.155225
    31  O    4.523736   4.752316   6.272385   3.463037   4.762261
    32  C    5.576133   5.718307   7.230047   3.650872   4.812688
    33  C    6.474328   6.278230   7.714481   5.133616   6.213485
    34  C    6.144811   5.674985   7.002891   6.039921   7.217018
    35  H    6.853509   6.578305   7.966910   5.652787   6.710388
    36  H    7.398127   7.271838   8.718926   5.316851   6.222140
    37  H    5.347258   4.731637   6.016364   6.177564   7.454512
    38  H    7.076080   6.454848   7.682788   7.054181   8.184009
    39  H    6.033200   5.662633   6.988903   5.865019   7.010459
                   11         12         13         14         15
    11  C    0.000000
    12  C    1.381438   0.000000
    13  C    2.434118   1.387733   0.000000
    14  H    4.751214   4.497825   3.387465   0.000000
    15  H    7.580961   6.604109   5.241460   4.210037   0.000000
    16  H    7.601749   6.669398   5.315553   4.242707   1.764067
    17  H    8.786087   8.145606   6.788835   4.383515   3.058699
    18  H    8.762851   8.088225   6.727158   4.344753   2.504255
    19  H   10.150833   9.235581   7.867406   6.324365   3.133102
    20  H   10.875423  10.075555   8.687999   6.600723   3.780036
    21  H   10.132129   9.186266   7.815432   6.298397   2.591672
    22  H    3.424572   3.853891   3.411149   2.282393   6.378075
    23  Cl   2.704147   1.756075   2.706754   6.073517   7.395432
    24  H    3.404309   2.147539   1.078989   3.774012   4.615128
    25  C    2.485195   3.738579   4.273020   4.890838   8.687342
    26  H    1.081964   2.151864   3.412987   5.811264   8.613869
    27  F    2.752930   4.111115   4.945770   6.011373   9.631003
    28  F    3.144055   4.349781   4.906565   5.510782   9.310569
    29  F    3.594968   4.709603   4.969167   4.704447   8.754897
    30  O    5.473226   5.900035   5.293363   2.855261   6.885505
    31  O    5.841715   5.838342   4.863802   1.595303   5.065944
    32  C    6.062748   6.307425   5.508925   2.490365   6.220882
    33  C    7.507363   7.812081   7.021436   3.890908   7.143666
    34  C    8.416952   8.543745   7.606055   4.307373   6.737433
    35  H    8.023648   8.354201   7.570664   4.468626   7.639454
    36  H    7.561530   8.028826   7.390501   4.513079   7.996516
    37  H    8.581033   8.554855   7.494124   4.115167   6.012194
    38  H    9.418962   9.600631   8.689780   5.399593   7.672038
    39  H    8.143151   8.231253   7.307224   4.160592   6.463186
                   16         17         18         19         20
    16  H    0.000000
    17  H    2.501532   0.000000
    18  H    3.058700   1.752317   0.000000
    19  H    2.595536   2.530859   3.082275   0.000000
    20  H    3.782898   2.516731   2.518319   1.764150   0.000000
    21  H    3.140303   3.081409   2.531282   1.764198   1.764032
    22  H    6.280458   6.511244   6.597382   8.501135   8.835872
    23  Cl   7.513672   9.324790   9.227279  10.042925  11.039032
    24  H    4.747032   6.519565   6.421819   7.273538   8.208702
    25  C    8.616164   9.165328   9.224826  11.006950  11.469831
    26  H    8.638824   9.864720   9.837696  11.200737  11.949747
    27  F    9.691480  10.351189  10.288122  12.118859  12.584387
    28  F    8.993076   9.542598   9.833569  11.385018  11.942465
    29  F    8.756672   8.947292   8.937844  10.989404  11.254633
    30  O    6.600562   6.060290   6.359097   8.396314   8.461027
    31  O    5.191869   4.528920   4.376081   6.816548   6.702545
    32  C    6.132051   5.306817   5.399696   7.713410   7.581691
    33  C    7.109223   5.783501   5.816482   8.290682   7.858964
    34  C    6.924020   5.278919   5.024413   7.720539   7.006714
    35  H    7.370875   5.921397   6.241800   8.449746   8.053474
    36  H    8.058192   6.835082   6.753695   9.324350   8.873358
    37  H    6.098920   4.269386   4.136579   6.712678   5.981720
    38  H    7.857043   6.018474   5.768056   8.425870   7.551400
    39  H    6.917135   5.473073   4.881905   7.791532   7.055388
                   21         22         23         24         25
    21  H    0.000000
    22  H    8.568870   0.000000
    23  Cl   9.953538   5.609877   0.000000
    24  H    7.187056   4.309242   2.838455   0.000000
    25  C   11.058203   2.714264   5.185846   5.351754   0.000000
    26  H   11.178357   4.322637   2.850456   4.293763   2.703385
    27  F   12.066066   3.938401   5.242512   5.994094   1.352958
    28  F   11.632937   3.327638   5.688903   5.951276   1.348237
    29  F   10.982839   2.496653   6.274522   6.026021   1.331450
    30  O    8.616700   2.099919   7.647764   6.040517   4.230730
    31  O    6.715974   2.743661   7.484838   5.323497   5.364660
    32  C    7.778660   2.665745   8.031657   6.119946   5.083704
    33  C    8.314204   4.113760   9.537895   7.603588   6.283140
    34  C    7.547687   5.136837  10.202138   8.029974   7.466820
    35  H    8.679050   4.603278  10.087148   8.152389   6.703019
    36  H    9.264843   4.277522   9.766389   8.071885   6.068682
    37  H    6.628362   5.347761  10.164314   7.796332   7.872360
    38  H    8.247526   6.112669  11.269625   9.124043   8.319006
    39  H    7.385604   5.063195   9.840195   7.708454   7.330951
                   26         27         28         29         30
    26  H    0.000000
    27  F    2.477343   0.000000
    28  F    3.222246   2.152025   0.000000
    29  F    3.936392   2.157526   2.154765   0.000000
    30  O    6.309854   5.484079   4.486322   3.511975   0.000000
    31  O    6.834536   6.486118   5.998369   4.774232   2.240048
    32  C    6.974973   6.262584   5.545978   4.312386   1.241928
    33  C    8.373607   7.388997   6.710908   5.308922   2.376546
    34  C    9.339628   8.521091   8.026944   6.526316   3.699308
    35  H    8.875270   7.875099   6.924921   5.765533   2.592989
    36  H    8.336729   7.058855   6.543185   4.942065   2.663778
    37  H    9.562767   8.997375   8.379176   7.065284   3.975289
    38  H   10.312098   9.340566   8.844646   7.292499   4.536230
    39  H    9.057176   8.282934   8.058123   6.401706   4.016220
                   31         32         33         34         35
    31  O    0.000000
    32  C    1.264478   0.000000
    33  C    2.388529   1.540685   0.000000
    34  C    2.751123   2.577779   1.522944   0.000000
    35  H    3.126691   2.135557   1.094248   2.174716   0.000000
    36  H    3.053394   2.132736   1.095191   2.170429   1.744087
    37  H    2.747484   2.836930   2.165153   1.091821   2.537662
    38  H    3.836838   3.526573   2.177502   1.095125   2.527389
    39  H    2.661074   2.830476   2.163287   1.090923   3.078489
                   36         37         38         39
    36  H    0.000000
    37  H    3.077458   0.000000
    38  H    2.523079   1.774929   0.000000
    39  H    2.530104   1.750706   1.776106   0.000000
 Stoichiometry    C14H16ClF3NO4(1-)
 Framework group  C1[X(C14H16ClF3NO4)]
 Deg. of freedom   111
 Full point group                 C1      NOp   1
 Largest Abelian subgroup         C1      NOp   1
 Largest concise Abelian subgroup C1      NOp   1
                         Standard orientation:                         
 ---------------------------------------------------------------------
 Center     Atomic      Atomic             Coordinates (Angstroms)
 Number     Number       Type             X           Y           Z
 ---------------------------------------------------------------------
      1          6           0       -0.548898   -0.797574   -0.015567
      2          7           0        0.825077   -0.586519    0.015368
      3          6           0        1.764509   -1.557518    0.109460
      4          8           0        1.595835   -2.758188    0.198602
      5          8           0        2.995437   -0.998750    0.098143
      6          6           0        4.084139   -1.905974    0.180425
      7          6           0        5.356503   -1.082851    0.153125
      8          6           0        6.594368   -1.971668    0.230940
      9          6           0       -1.364698    0.346213    0.069290
     10          6           0       -2.738830    0.202629    0.007882
     11          6           0       -3.354493   -1.043086   -0.122105
     12          6           0       -2.527491   -2.147574   -0.189525
     13          6           0       -1.143306   -2.060527   -0.142022
     14          1           0        1.166869    0.416772   -0.110360
     15          1           0        4.043828   -2.607537   -0.659060
     16          1           0        4.006735   -2.493303    1.100913
     17          1           0        5.335747   -0.377045    0.987600
     18          1           0        5.367117   -0.483915   -0.761173
     19          1           0        6.600855   -2.562928    1.150898
     20          1           0        7.510622   -1.378313    0.212156
     21          1           0        6.634279   -2.669951   -0.609734
     22          1           0       -0.902157    1.323124    0.216711
     23         17           0       -3.258836   -3.735356   -0.356501
     24          1           0       -0.535616   -2.950223   -0.200079
     25          6           0       -3.614167    1.413198    0.152557
     26          1           0       -4.430676   -1.143552   -0.170919
     27          9           0       -4.765959    1.282307   -0.545111
     28          9           0       -3.985840    1.615727    1.432629
     29          9           0       -3.031117    2.534389   -0.266657
     30          8           0        0.264620    2.939364    0.877057
     31          8           0        1.692605    1.876253   -0.482527
     32          6           0        1.248667    2.895045    0.120703
     33          6           0        2.002020    4.216978   -0.121499
     34          6           0        3.272832    4.079335   -0.949417
     35          1           0        2.211782    4.651637    0.860565
     36          1           0        1.294378    4.901225   -0.601596
     37          1           0        3.977998    3.401156   -0.464766
     38          1           0        3.764662    5.047080   -1.093887
     39          1           0        3.049573    3.651427   -1.927764
 ---------------------------------------------------------------------
 Rotational constants (GHZ):           0.2455572           0.1364425           0.0906106
 Standard basis: Aug-CC-pVTZ (5D, 7F)
 There are  1669 symmetry adapted cartesian basis functions of A   symmetry.
 There are  1430 symmetry adapted basis functions of A   symmetry.
  1430 basis functions,  2130 primitive gaussians,  1669 cartesian basis functions
    92 alpha electrons       92 beta electrons
       nuclear repulsion energy      2117.8122922797 Hartrees.
 NAtoms=   39 NActive=   39 NUniq=   39 SFac= 1.00D+00 NAtFMM=   60 NAOKFM=F Big=F
 Integral buffers will be    131072 words long.
 Regular integral format.
 Two-electron integral symmetry is turned on.
 Nuclear repulsion after empirical dispersion term =     2117.7841439172 Hartrees.
 One-electron integrals computed using PRISM.
 NBasis=  1430 RedAO= T EigKep=  1.31D-06  NBF=  1430
 NBsUse=  1426 1.00D-06 EigRej=  9.57D-07 NBFU=  1426
 ExpMin= 2.53D-02 ExpMax= 4.56D+05 ExpMxC= 1.44D+03 IAcc=3 IRadAn=         5 AccDes= 0.00D+00
 Harris functional with IExCor= 1004 and IRadAn=       5 diagonalized for initial guess.
 HarFok:  IExCor= 1004 AccDes= 0.00D+00 IRadAn=         5 IDoV= 1 UseB2=F ITyADJ=14
 ICtDFT=  3500011 ScaDFX=  1.000000  1.000000  1.000000  1.000000
 FoFCou: FMM=F IPFlag=           0 FMFlag=      100000 FMFlg1=           0
         NFxFlg=           0 DoJE=T BraDBF=F KetDBF=T FulRan=T
         wScrn=  0.000000 ICntrl=       500 IOpCl=  0 I1Cent=   200000004 NGrid=           0
         NMat0=    1 NMatS0=      1 NMatT0=    0 NMatD0=    1 NMtDS0=    0 NMtDT0=    0
 Petite list used in FoFCou.
 Requested convergence on RMS density matrix=1.00D-08 within 128 cycles.
 Requested convergence on MAX density matrix=1.00D-06.
 Requested convergence on             energy=1.00D-06.
 No special actions if energy rises.
 SCF Done:  E(RDSDPBEP86) =  -1654.65737003     A.U. after   14 cycles
            NFock= 14  Conv=0.28D-08     -V/T= 2.0027
 DoSCS=T DFT=T ScalE2(SS,OS)=  0.220000  0.520000
 ExpMin= 2.53D-02 ExpMax= 4.56D+05 ExpMxC= 1.44D+03 IAcc=3 IRadAn=         5 AccDes= 0.00D+00
 HarFok:  IExCor=  205 AccDes= 0.00D+00 IRadAn=         5 IDoV=-2 UseB2=F ITyADJ=14
 ICtDFT= 12500011 ScaDFX=  1.000000  1.000000  1.000000  1.000000
 GSVD:  LWork=        -945 too small for GESVD, short by        4050 words or        4050 for optimal perf.
 Range of M.O.s used for correlation:    28  1426
 NBasis=  1430 NAE=    92 NBE=    92 NFC=    27 NFV=     0
 NROrb=   1399 NOA=    65 NOB=    65 NVA=  1334 NVB=  1334

 **** Warning!!: The largest alpha MO coefficient is  0.12081152D+03

 DoSCS=T DFT=T ScalE2(SS,OS)=  0.220000  0.520000
 Fully direct method using O(OVN) memory.
 JobTyp=1 Pass  1:  I=   1 to  59 NPSUse= 32 ParTrn=T ParDer=T DoDerP=F.
 JobTyp=1 Pass  2:  I=  60 to  65 NPSUse= 32 ParTrn=T ParDer=T DoDerP=F.
 Spin components of T(2) and E(2):
     alpha-alpha T2 =       0.2265579049D+00 E2=     -0.1433135224D+00
     alpha-beta  T2 =       0.1180722181D+01 E2=     -0.1931443379D+01
     beta-beta   T2 =       0.2265579049D+00 E2=     -0.1433135224D+00
 E2(DSDPBEP86) =    -0.2218070424D+01 E(DSDPBEP86) =    -0.16568754404541D+04

 **********************************************************************

            Population analysis using the SCF Density.

 **********************************************************************

 Orbital symmetries:
       Occupied  (A) (A) (A) (A) (A) (A) (A) (A) (A) (A) (A) (A)
                 (A) (A) (A) (A) (A) (A) (A) (A) (A) (A) (A) (A)
                 (A) (A) (A) (A) (A) (A) (A) (A) (A) (A) (A) (A)
                 (A) (A) (A) (A) (A) (A) (A) (A) (A) (A) (A) (A)
                 (A) (A) (A) (A) (A) (A) (A) (A) (A) (A) (A) (A)
                 (A) (A) (A) (A) (A) (A) (A) (A) (A) (A) (A) (A)
                 (A) (A) (A) (A) (A) (A) (A) (A) (A) (A) (A) (A)
                 (A) (A) (A) (A) (A) (A) (A) (A)
       Virtual   (A) (A) (A) (A) (A) (A) (A) (A) (A) (A) (A) (A)
                 (A) (A) (A) (A) (A) (A) (A) (A) (A) (A) (A) (A)
                 (A) (A) (A) (A) (A) (A) (A) (A) (A) (A) (A) (A)
                 (A) (A) (A) (A) (A) (A) (A) (A) (A) (A) (A) (A)
                 (A) (A) (A) (A) (A) (A) (A) (A) (A) (A) (A) (A)
                 (A) (A) (A) (A) (A) (A) (A) (A) (A) (A) (A) (A)
                 (A) (A) (A) (A) (A) (A) (A) (A) (A) (A) (A) (A)
                 (A) (A) (A) (A) (A) (A) (A) (A) (A) (A) (A) (A)
                 (A) (A) (A) (A) (A) (A) (A) (A) (A) (A) (A) (A)
                 (A) (A) (A) (A) (A) (A) (A) (A) (A) (A) (A) (A)
                 (A) (A) (A) (A) (A) (A) (A) (A) (A) (A) (A) (A)
                 (A) (A) (A) (A) (A) (A) (A) (A) (A) (A) (A) (A)
                 (A) (A) (A) (A) (A) (A) (A) (A) (A) (A) (A) (A)
                 (A) (A) (A) (A) (A) (A) (A) (A) (A) (A) (A) (A)
                 (A) (A) (A) (A) (A) (A) (A) (A) (A) (A) (A) (A)
                 (A) (A) (A) (A) (A) (A) (A) (A) (A) (A) (A) (A)
                 (A) (A) (A) (A) (A) (A) (A) (A) (A) (A) (A) (A)
                 (A) (A) (A) (A) (A) (A) (A) (A) (A) (A) (A) (A)
                 (A) (A) (A) (A) (A) (A) (A) (A) (A) (A) (A) (A)
                 (A) (A) (A) (A) (A) (A) (A) (A) (A) (A) (A) (A)
                 (A) (A) (A) (A) (A) (A) (A) (A) (A) (A) (A) (A)
                 (A) (A) (A) (A) (A) (A) (A) (A) (A) (A) (A) (A)
                 (A) (A) (A) (A) (A) (A) (A) (A) (A) (A) (A) (A)
                 (A) (A) (A) (A) (A) (A) (A) (A) (A) (A) (A) (A)
                 (A) (A) (A) (A) (A) (A) (A) (A) (A) (A) (A) (A)
                 (A) (A) (A) (A) (A) (A) (A) (A) (A) (A) (A) (A)
                 (A) (A) (A) (A) (A) (A) (A) (A) (A) (A) (A) (A)
                 (A) (A) (A) (A) (A) (A) (A) (A) (A) (A) (A) (A)
                 (A) (A) (A) (A) (A) (A) (A) (A) (A) (A) (A) (A)
                 (A) (A) (A) (A) (A) (A) (A) (A) (A) (A) (A) (A)
                 (A) (A) (A) (A) (A) (A) (A) (A) (A) (A) (A) (A)
                 (A) (A) (A) (A) (A) (A) (A) (A) (A) (A) (A) (A)
                 (A) (A) (A) (A) (A) (A) (A) (A) (A) (A) (A) (A)
                 (A) (A) (A) (A) (A) (A) (A) (A) (A) (A) (A) (A)
                 (A) (A) (A) (A) (A) (A) (A) (A) (A) (A) (A) (A)
                 (A) (A) (A) (A) (A) (A) (A) (A) (A) (A) (A) (A)
                 (A) (A) (A) (A) (A) (A) (A) (A) (A) (A) (A) (A)
                 (A) (A) (A) (A) (A) (A) (A) (A) (A) (A) (A) (A)
                 (A) (A) (A) (A) (A) (A) (A) (A) (A) (A) (A) (A)
                 (A) (A) (A) (A) (A) (A) (A) (A) (A) (A) (A) (A)
                 (A) (A) (A) (A) (A) (A) (A) (A) (A) (A) (A) (A)
                 (A) (A) (A) (A) (A) (A) (A) (A) (A) (A) (A) (A)
                 (A) (A) (A) (A) (A) (A) (A) (A) (A) (A) (A) (A)
                 (A) (A) (A) (A) (A) (A) (A) (A) (A) (A) (A) (A)
                 (A) (A) (A) (A) (A) (A) (A) (A) (A) (A) (A) (A)
                 (A) (A) (A) (A) (A) (A) (A) (A) (A) (A) (A) (A)
                 (A) (A) (A) (A) (A) (A) (A) (A) (A) (A) (A) (A)
                 (A) (A) (A) (A) (A) (A) (A) (A) (A) (A) (A) (A)
                 (A) (A) (A) (A) (A) (A) (A) (A) (A) (A) (A) (A)
                 (A) (A) (A) (A) (A) (A) (A) (A) (A) (A) (A) (A)
                 (A) (A) (A) (A) (A) (A) (A) (A) (A) (A) (A) (A)
                 (A) (A) (A) (A) (A) (A) (A) (A) (A) (A) (A) (A)
                 (A) (A) (A) (A) (A) (A) (A) (A) (A) (A) (A) (A)
                 (A) (A) (A) (A) (A) (A) (A) (A) (A) (A) (A) (A)
                 (A) (A) (A) (A) (A) (A) (A) (A) (A) (A) (A) (A)
                 (A) (A) (A) (A) (A) (A) (A) (A) (A) (A) (A) (A)
                 (A) (A) (A) (A) (A) (A) (A) (A) (A) (A) (A) (A)
                 (A) (A) (A) (A) (A) (A) (A) (A) (A) (A) (A) (A)
                 (A) (A) (A) (A) (A) (A) (A) (A) (A) (A) (A) (A)
                 (A) (A) (A) (A) (A) (A) (A) (A) (A) (A) (A) (A)
                 (A) (A) (A) (A) (A) (A) (A) (A) (A) (A) (A) (A)
                 (A) (A) (A) (A) (A) (A) (A) (A) (A) (A) (A) (A)
                 (A) (A) (A) (A) (A) (A) (A) (A) (A) (A) (A) (A)
                 (A) (A) (A) (A) (A) (A) (A) (A) (A) (A) (A) (A)
                 (A) (A) (A) (A) (A) (A) (A) (A) (A) (A) (A) (A)
                 (A) (A) (A) (A) (A) (A) (A) (A) (A) (A) (A) (A)
                 (A) (A) (A) (A) (A) (A) (A) (A) (A) (A) (A) (A)
                 (A) (A) (A) (A) (A) (A) (A) (A) (A) (A) (A) (A)
                 (A) (A) (A) (A) (A) (A) (A) (A) (A) (A) (A) (A)
                 (A) (A) (A) (A) (A) (A) (A) (A) (A) (A) (A) (A)
                 (A) (A) (A) (A) (A) (A) (A) (A) (A) (A) (A) (A)
                 (A) (A) (A) (A) (A) (A) (A) (A) (A) (A) (A) (A)
                 (A) (A) (A) (A) (A) (A) (A) (A) (A) (A) (A) (A)
                 (A) (A) (A) (A) (A) (A) (A) (A) (A) (A) (A) (A)
                 (A) (A) (A) (A) (A) (A) (A) (A) (A) (A) (A) (A)
                 (A) (A) (A) (A) (A) (A) (A) (A) (A) (A) (A) (A)
                 (A) (A) (A) (A) (A) (A) (A) (A) (A) (A) (A) (A)
                 (A) (A) (A) (A) (A) (A) (A) (A) (A) (A) (A) (A)
                 (A) (A) (A) (A) (A) (A) (A) (A) (A) (A) (A) (A)
                 (A) (A) (A) (A) (A) (A) (A) (A) (A) (A) (A) (A)
                 (A) (A) (A) (A) (A) (A) (A) (A) (A) (A) (A) (A)
                 (A) (A) (A) (A) (A) (A) (A) (A) (A) (A) (A) (A)
                 (A) (A) (A) (A) (A) (A) (A) (A) (A) (A) (A) (A)
                 (A) (A) (A) (A) (A) (A) (A) (A) (A) (A) (A) (A)
                 (A) (A) (A) (A) (A) (A) (A) (A) (A) (A) (A) (A)
                 (A) (A) (A) (A) (A) (A) (A) (A) (A) (A) (A) (A)
                 (A) (A) (A) (A) (A) (A) (A) (A) (A) (A) (A) (A)
                 (A) (A) (A) (A) (A) (A) (A) (A) (A) (A) (A) (A)
                 (A) (A) (A) (A) (A) (A) (A) (A) (A) (A) (A) (A)
                 (A) (A) (A) (A) (A) (A) (A) (A) (A) (A) (A) (A)
                 (A) (A) (A) (A) (A) (A) (A) (A) (A) (A) (A) (A)
                 (A) (A) (A) (A) (A) (A) (A) (A) (A) (A) (A) (A)
                 (A) (A) (A) (A) (A) (A) (A) (A) (A) (A) (A) (A)
                 (A) (A) (A) (A) (A) (A) (A) (A) (A) (A) (A) (A)
                 (A) (A) (A) (A) (A) (A) (A) (A) (A) (A) (A) (A)
                 (A) (A) (A) (A) (A) (A) (A) (A) (A) (A) (A) (A)
                 (A) (A) (A) (A) (A) (A) (A) (A) (A) (A) (A) (A)
                 (A) (A) (A) (A) (A) (A) (A) (A) (A) (A) (A) (A)
                 (A) (A) (A) (A) (A) (A) (A) (A) (A) (A) (A) (A)
                 (A) (A) (A) (A) (A) (A) (A) (A) (A) (A) (A) (A)
                 (A) (A) (A) (A) (A) (A) (A) (A) (A) (A) (A) (A)
                 (A) (A) (A) (A) (A) (A) (A) (A) (A) (A) (A) (A)
                 (A) (A) (A) (A) (A) (A) (A) (A) (A) (A) (A) (A)
                 (A) (A) (A) (A) (A) (A) (A) (A) (A) (A) (A) (A)
                 (A) (A) (A) (A) (A) (A) (A) (A) (A) (A) (A) (A)
                 (A) (A) (A) (A) (A) (A) (A) (A) (A) (A) (A) (A)
                 (A) (A) (A) (A) (A) (A) (A) (A) (A) (A) (A) (A)
                 (A) (A) (A) (A) (A) (A) (A) (A) (A) (A) (A) (A)
                 (A) (A) (A) (A) (A) (A) (A) (A) (A) (A) (A) (A)
                 (A) (A) (A) (A) (A) (A) (A) (A) (A) (A) (A) (A)
                 (A) (A) (A) (A) (A) (A) (A) (A) (A) (A) (A) (A)
                 (A) (A)
 The electronic state is 1-A.
 Alpha  occ. eigenvalues -- -103.48024 -25.60941 -25.60548 -25.60456 -19.93956
 Alpha  occ. eigenvalues --  -19.87248 -19.80545 -19.79618 -14.98667 -10.98189
 Alpha  occ. eigenvalues --  -10.87130 -10.79489 -10.77873 -10.77801 -10.77016
 Alpha  occ. eigenvalues --  -10.75024 -10.73801 -10.73634 -10.73166 -10.72797
 Alpha  occ. eigenvalues --  -10.72007 -10.68500 -10.68309 -10.05523  -7.63189
 Alpha  occ. eigenvalues --   -7.62743  -7.62734  -1.47186  -1.37886  -1.37500
 Alpha  occ. eigenvalues --   -1.22983  -1.12504  -1.10764  -1.03158  -1.00718
 Alpha  occ. eigenvalues --   -0.98085  -0.92462  -0.88457  -0.84960  -0.81126
 Alpha  occ. eigenvalues --   -0.80897  -0.76709  -0.76602  -0.69210  -0.67118
 Alpha  occ. eigenvalues --   -0.65914  -0.64825  -0.63345  -0.63038  -0.61705
 Alpha  occ. eigenvalues --   -0.58383  -0.56351  -0.52843  -0.52650  -0.51971
 Alpha  occ. eigenvalues --   -0.51847  -0.51347  -0.49785  -0.48824  -0.47329
 Alpha  occ. eigenvalues --   -0.47033  -0.46750  -0.46386  -0.45531  -0.44691
 Alpha  occ. eigenvalues --   -0.43919  -0.43453  -0.42992  -0.42055  -0.41707
 Alpha  occ. eigenvalues --   -0.39967  -0.39648  -0.39027  -0.38476  -0.37940
 Alpha  occ. eigenvalues --   -0.36168  -0.35654  -0.35399  -0.34984  -0.34500
 Alpha  occ. eigenvalues --   -0.33759  -0.32733  -0.31585  -0.30290  -0.30157
 Alpha  occ. eigenvalues --   -0.29005  -0.28522  -0.21970  -0.21078  -0.20564
 Alpha  occ. eigenvalues --   -0.19587  -0.17821
 Alpha virt. eigenvalues --    0.07484   0.09109   0.09519   0.09682   0.09768
 Alpha virt. eigenvalues --    0.10797   0.11403   0.11518   0.11788   0.12445
 Alpha virt. eigenvalues --    0.12754   0.13064   0.13243   0.13676   0.13943
 Alpha virt. eigenvalues --    0.14335   0.14391   0.14727   0.15074   0.15427
 Alpha virt. eigenvalues --    0.15691   0.16138   0.16932   0.17445   0.17776
 Alpha virt. eigenvalues --    0.17857   0.18235   0.18457   0.18484   0.18700
 Alpha virt. eigenvalues --    0.18733   0.19106   0.19234   0.19457   0.19961
 Alpha virt. eigenvalues --    0.20471   0.20630   0.20960   0.21188   0.21461
 Alpha virt. eigenvalues --    0.21621   0.21756   0.22170   0.22460   0.22698
 Alpha virt. eigenvalues --    0.22747   0.23038   0.23491   0.23650   0.23825
 Alpha virt. eigenvalues --    0.24074   0.24576   0.24906   0.25010   0.25378
 Alpha virt. eigenvalues --    0.25724   0.25798   0.26361   0.26615   0.26789
 Alpha virt. eigenvalues --    0.27068   0.27433   0.27908   0.28442   0.28501
 Alpha virt. eigenvalues --    0.28719   0.28975   0.29400   0.29441   0.29887
 Alpha virt. eigenvalues --    0.30013   0.30352   0.30660   0.30966   0.31606
 Alpha virt. eigenvalues --    0.31884   0.32148   0.32371   0.32553   0.32655
 Alpha virt. eigenvalues --    0.32988   0.33504   0.33772   0.33987   0.34373
 Alpha virt. eigenvalues --    0.34570   0.34730   0.34937   0.35498   0.35545
 Alpha virt. eigenvalues --    0.35849   0.36104   0.36420   0.36628   0.36780
 Alpha virt. eigenvalues --    0.37017   0.37177   0.37624   0.37663   0.37987
 Alpha virt. eigenvalues --    0.38097   0.38408   0.38626   0.38737   0.38908
 Alpha virt. eigenvalues --    0.39200   0.39416   0.39580   0.39994   0.40175
 Alpha virt. eigenvalues --    0.40430   0.40531   0.40951   0.41107   0.41333
 Alpha virt. eigenvalues --    0.41426   0.41746   0.42151   0.42248   0.42555
 Alpha virt. eigenvalues --    0.42727   0.42924   0.43124   0.43434   0.43511
 Alpha virt. eigenvalues --    0.43750   0.44215   0.44291   0.44677   0.44888
 Alpha virt. eigenvalues --    0.44965   0.45106   0.45526   0.45803   0.45870
 Alpha virt. eigenvalues --    0.46188   0.46332   0.46666   0.46717   0.47295
 Alpha virt. eigenvalues --    0.47366   0.47675   0.48157   0.48194   0.48414
 Alpha virt. eigenvalues --    0.48453   0.48750   0.49391   0.49672   0.49716
 Alpha virt. eigenvalues --    0.50186   0.50503   0.50695   0.50824   0.51050
 Alpha virt. eigenvalues --    0.51099   0.51286   0.51701   0.52097   0.52175
 Alpha virt. eigenvalues --    0.52743   0.52993   0.53047   0.53337   0.53625
 Alpha virt. eigenvalues --    0.53901   0.53940   0.54282   0.54370   0.54461
 Alpha virt. eigenvalues --    0.54672   0.55070   0.55184   0.55532   0.55604
 Alpha virt. eigenvalues --    0.55848   0.56121   0.56223   0.56497   0.56724
 Alpha virt. eigenvalues --    0.56897   0.57159   0.57330   0.57560   0.57764
 Alpha virt. eigenvalues --    0.57897   0.58332   0.58639   0.58862   0.59011
 Alpha virt. eigenvalues --    0.59064   0.59265   0.59315   0.59977   0.60066
 Alpha virt. eigenvalues --    0.60505   0.60697   0.61030   0.61579   0.62006
 Alpha virt. eigenvalues --    0.62065   0.62457   0.62938   0.63235   0.63627
 Alpha virt. eigenvalues --    0.63695   0.64062   0.64207   0.64396   0.64914
 Alpha virt. eigenvalues --    0.65085   0.65344   0.65754   0.65912   0.66206
 Alpha virt. eigenvalues --    0.66385   0.66751   0.67108   0.67449   0.67773
 Alpha virt. eigenvalues --    0.68266   0.68304   0.68687   0.69118   0.69408
 Alpha virt. eigenvalues --    0.69601   0.70056   0.70177   0.70416   0.71152
 Alpha virt. eigenvalues --    0.71525   0.72060   0.72311   0.72493   0.73314
 Alpha virt. eigenvalues --    0.73686   0.73808   0.74185   0.74422   0.74779
 Alpha virt. eigenvalues --    0.74905   0.75177   0.75370   0.76016   0.76185
 Alpha virt. eigenvalues --    0.76620   0.76907   0.77194   0.77556   0.78138
 Alpha virt. eigenvalues --    0.78501   0.78849   0.79445   0.79623   0.79698
 Alpha virt. eigenvalues --    0.80508   0.81089   0.81421   0.81810   0.81966
 Alpha virt. eigenvalues --    0.82770   0.83388   0.83533   0.83808   0.83932
 Alpha virt. eigenvalues --    0.84313   0.84499   0.84840   0.85164   0.85755
 Alpha virt. eigenvalues --    0.85947   0.86154   0.86292   0.86566   0.86892
 Alpha virt. eigenvalues --    0.87750   0.87854   0.88088   0.88303   0.88814
 Alpha virt. eigenvalues --    0.89231   0.89650   0.90062   0.90203   0.90663
 Alpha virt. eigenvalues --    0.91295   0.91422   0.91643   0.92138   0.92592
 Alpha virt. eigenvalues --    0.92808   0.92900   0.93324   0.93535   0.93900
 Alpha virt. eigenvalues --    0.94227   0.94339   0.94479   0.94794   0.95045
 Alpha virt. eigenvalues --    0.95372   0.95576   0.95903   0.96239   0.96439
 Alpha virt. eigenvalues --    0.96729   0.96786   0.97234   0.97356   0.97527
 Alpha virt. eigenvalues --    0.97605   0.97750   0.98244   0.98368   0.98598
 Alpha virt. eigenvalues --    0.98823   0.99249   0.99610   1.00057   1.00610
 Alpha virt. eigenvalues --    1.00730   1.00979   1.01404   1.01781   1.01859
 Alpha virt. eigenvalues --    1.02369   1.02460   1.02797   1.03124   1.03186
 Alpha virt. eigenvalues --    1.03656   1.04010   1.04087   1.04468   1.04772
 Alpha virt. eigenvalues --    1.04969   1.05360   1.05849   1.06010   1.06271
 Alpha virt. eigenvalues --    1.06739   1.06823   1.07256   1.07792   1.08251
 Alpha virt. eigenvalues --    1.08443   1.08787   1.08928   1.09434   1.09886
 Alpha virt. eigenvalues --    1.10119   1.10375   1.10733   1.10947   1.11132
 Alpha virt. eigenvalues --    1.11505   1.11907   1.12467   1.12629   1.12697
 Alpha virt. eigenvalues --    1.12851   1.13253   1.13776   1.13899   1.14282
 Alpha virt. eigenvalues --    1.14502   1.14726   1.15131   1.15541   1.15550
 Alpha virt. eigenvalues --    1.15850   1.16146   1.16397   1.16705   1.17127
 Alpha virt. eigenvalues --    1.17289   1.17550   1.17893   1.18151   1.18458
 Alpha virt. eigenvalues --    1.18561   1.18710   1.19058   1.19494   1.19837
 Alpha virt. eigenvalues --    1.20124   1.20482   1.20829   1.20991   1.21134
 Alpha virt. eigenvalues --    1.21379   1.22054   1.22238   1.22506   1.22693
 Alpha virt. eigenvalues --    1.23341   1.23637   1.23994   1.24147   1.24236
 Alpha virt. eigenvalues --    1.24444   1.24749   1.25402   1.25775   1.25925
 Alpha virt. eigenvalues --    1.26328   1.26804   1.27052   1.27388   1.27693
 Alpha virt. eigenvalues --    1.28076   1.28138   1.28720   1.28982   1.29258
 Alpha virt. eigenvalues --    1.29430   1.29851   1.29979   1.30465   1.30788
 Alpha virt. eigenvalues --    1.31239   1.31650   1.31758   1.32031   1.32203
 Alpha virt. eigenvalues --    1.32703   1.32937   1.33293   1.33811   1.34060
 Alpha virt. eigenvalues --    1.34416   1.34831   1.35208   1.35357   1.36092
 Alpha virt. eigenvalues --    1.36322   1.36689   1.37245   1.37287   1.37962
 Alpha virt. eigenvalues --    1.38151   1.38420   1.38576   1.39204   1.39623
 Alpha virt. eigenvalues --    1.39881   1.40591   1.41061   1.41290   1.41554
 Alpha virt. eigenvalues --    1.42380   1.42566   1.42878   1.43041   1.43943
 Alpha virt. eigenvalues --    1.44066   1.44296   1.44682   1.44875   1.45363
 Alpha virt. eigenvalues --    1.45693   1.46104   1.46549   1.47262   1.47482
 Alpha virt. eigenvalues --    1.48104   1.48266   1.49470   1.49629   1.49945
 Alpha virt. eigenvalues --    1.50548   1.50894   1.51338   1.52151   1.52496
 Alpha virt. eigenvalues --    1.52731   1.52903   1.53852   1.53955   1.54285
 Alpha virt. eigenvalues --    1.54513   1.54927   1.55245   1.55504   1.55827
 Alpha virt. eigenvalues --    1.56038   1.56752   1.57053   1.57594   1.58355
 Alpha virt. eigenvalues --    1.59227   1.59298   1.59741   1.60171   1.60523
 Alpha virt. eigenvalues --    1.60679   1.61310   1.61725   1.61910   1.62673
 Alpha virt. eigenvalues --    1.62836   1.63155   1.63752   1.64142   1.64668
 Alpha virt. eigenvalues --    1.65020   1.65370   1.65541   1.66194   1.66536
 Alpha virt. eigenvalues --    1.66765   1.67061   1.67485   1.67815   1.68241
 Alpha virt. eigenvalues --    1.68371   1.68602   1.69509   1.69674   1.70171
 Alpha virt. eigenvalues --    1.70452   1.70582   1.70934   1.71249   1.71420
 Alpha virt. eigenvalues --    1.72082   1.72542   1.72734   1.72970   1.73771
 Alpha virt. eigenvalues --    1.74219   1.74542   1.74803   1.75119   1.75753
 Alpha virt. eigenvalues --    1.75946   1.76364   1.76437   1.76784   1.77103
 Alpha virt. eigenvalues --    1.77384   1.78041   1.78149   1.78331   1.79159
 Alpha virt. eigenvalues --    1.79335   1.79444   1.79897   1.80121   1.80396
 Alpha virt. eigenvalues --    1.80863   1.81139   1.81508   1.81807   1.82430
 Alpha virt. eigenvalues --    1.83129   1.83305   1.83661   1.83849   1.84323
 Alpha virt. eigenvalues --    1.84940   1.85380   1.85704   1.86070   1.86424
 Alpha virt. eigenvalues --    1.86826   1.87089   1.87659   1.88434   1.88491
 Alpha virt. eigenvalues --    1.88881   1.89370   1.89636   1.89951   1.90201
 Alpha virt. eigenvalues --    1.90375   1.90748   1.91449   1.91739   1.91982
 Alpha virt. eigenvalues --    1.92260   1.92816   1.93843   1.94497   1.94651
 Alpha virt. eigenvalues --    1.95114   1.95577   1.95942   1.96334   1.96534
 Alpha virt. eigenvalues --    1.96813   1.97489   1.97623   1.98204   1.98648
 Alpha virt. eigenvalues --    1.99150   1.99545   1.99679   2.00385   2.01054
 Alpha virt. eigenvalues --    2.01414   2.01878   2.02072   2.02426   2.03429
 Alpha virt. eigenvalues --    2.03653   2.03919   2.04231   2.04760   2.05584
 Alpha virt. eigenvalues --    2.05976   2.06141   2.07073   2.07396   2.07491
 Alpha virt. eigenvalues --    2.07905   2.08498   2.09043   2.09652   2.10257
 Alpha virt. eigenvalues --    2.10379   2.10799   2.11461   2.11750   2.12781
 Alpha virt. eigenvalues --    2.13324   2.14102   2.14495   2.14794   2.15123
 Alpha virt. eigenvalues --    2.15716   2.16667   2.16906   2.17432   2.18400
 Alpha virt. eigenvalues --    2.18990   2.19842   2.20236   2.20643   2.21103
 Alpha virt. eigenvalues --    2.21890   2.22335   2.22678   2.22904   2.23558
 Alpha virt. eigenvalues --    2.24071   2.24670   2.25215   2.26114   2.26780
 Alpha virt. eigenvalues --    2.27045   2.27675   2.28577   2.29188   2.29326
 Alpha virt. eigenvalues --    2.29561   2.30096   2.30875   2.31389   2.31843
 Alpha virt. eigenvalues --    2.32751   2.33408   2.33731   2.34213   2.34593
 Alpha virt. eigenvalues --    2.35305   2.36032   2.36541   2.37456   2.37746
 Alpha virt. eigenvalues --    2.38816   2.39198   2.40694   2.41290   2.41475
 Alpha virt. eigenvalues --    2.42421   2.42581   2.43336   2.44238   2.45058
 Alpha virt. eigenvalues --    2.45189   2.45531   2.46116   2.46551   2.47306
 Alpha virt. eigenvalues --    2.48241   2.48758   2.49398   2.49709   2.50961
 Alpha virt. eigenvalues --    2.51309   2.52239   2.52405   2.53952   2.54266
 Alpha virt. eigenvalues --    2.54476   2.54837   2.56430   2.56997   2.57834
 Alpha virt. eigenvalues --    2.58909   2.60669   2.60683   2.61201   2.61344
 Alpha virt. eigenvalues --    2.61522   2.62653   2.63133   2.63809   2.64024
 Alpha virt. eigenvalues --    2.65310   2.66333   2.66818   2.67944   2.68150
 Alpha virt. eigenvalues --    2.69245   2.69678   2.69975   2.70778   2.72188
 Alpha virt. eigenvalues --    2.72468   2.73088   2.74177   2.74778   2.75532
 Alpha virt. eigenvalues --    2.76262   2.77498   2.77573   2.78319   2.78565
 Alpha virt. eigenvalues --    2.79646   2.80103   2.81160   2.83105   2.83917
 Alpha virt. eigenvalues --    2.84344   2.84925   2.85116   2.85710   2.86444
 Alpha virt. eigenvalues --    2.87541   2.88317   2.89414   2.89760   2.90134
 Alpha virt. eigenvalues --    2.91190   2.91604   2.92663   2.93100   2.94138
 Alpha virt. eigenvalues --    2.94886   2.95029   2.96874   2.97419   2.97763
 Alpha virt. eigenvalues --    2.98296   3.00115   3.00207   3.00519   3.01492
 Alpha virt. eigenvalues --    3.02450   3.02992   3.03712   3.04149   3.04306
 Alpha virt. eigenvalues --    3.05063   3.05754   3.06463   3.07231   3.07984
 Alpha virt. eigenvalues --    3.08454   3.08989   3.10183   3.10318   3.10942
 Alpha virt. eigenvalues --    3.11465   3.12084   3.12522   3.13063   3.14243
 Alpha virt. eigenvalues --    3.14893   3.15276   3.16530   3.17028   3.17882
 Alpha virt. eigenvalues --    3.18087   3.19172   3.20383   3.20668   3.21189
 Alpha virt. eigenvalues --    3.21420   3.21845   3.22403   3.23371   3.23957
 Alpha virt. eigenvalues --    3.24811   3.25599   3.26474   3.26995   3.28201
 Alpha virt. eigenvalues --    3.28606   3.28964   3.29888   3.30762   3.31705
 Alpha virt. eigenvalues --    3.32022   3.32436   3.32816   3.34501   3.35519
 Alpha virt. eigenvalues --    3.36166   3.37038   3.37181   3.38017   3.38598
 Alpha virt. eigenvalues --    3.38912   3.39170   3.40602   3.40705   3.41348
 Alpha virt. eigenvalues --    3.41842   3.42145   3.42650   3.43231   3.43494
 Alpha virt. eigenvalues --    3.44441   3.44529   3.45496   3.45996   3.46678
 Alpha virt. eigenvalues --    3.47199   3.47431   3.47810   3.48816   3.49069
 Alpha virt. eigenvalues --    3.49783   3.50305   3.50882   3.51898   3.52583
 Alpha virt. eigenvalues --    3.52926   3.53547   3.53806   3.54722   3.55389
 Alpha virt. eigenvalues --    3.56526   3.57103   3.57600   3.58315   3.58665
 Alpha virt. eigenvalues --    3.59462   3.59961   3.60517   3.60661   3.61079
 Alpha virt. eigenvalues --    3.61727   3.63381   3.63721   3.64163   3.64574
 Alpha virt. eigenvalues --    3.65194   3.66124   3.67006   3.67400   3.67575
 Alpha virt. eigenvalues --    3.68098   3.68387   3.68727   3.69035   3.69968
 Alpha virt. eigenvalues --    3.70503   3.71035   3.71391   3.72279   3.72478
 Alpha virt. eigenvalues --    3.73065   3.73203   3.73962   3.74640   3.75118
 Alpha virt. eigenvalues --    3.75823   3.75874   3.76064   3.76658   3.76830
 Alpha virt. eigenvalues --    3.77938   3.78383   3.78629   3.79036   3.79257
 Alpha virt. eigenvalues --    3.80145   3.80394   3.81083   3.81569   3.81902
 Alpha virt. eigenvalues --    3.82319   3.83675   3.84087   3.84928   3.85438
 Alpha virt. eigenvalues --    3.86689   3.86889   3.87501   3.87751   3.88136
 Alpha virt. eigenvalues --    3.88485   3.88697   3.88994   3.90086   3.91042
 Alpha virt. eigenvalues --    3.91567   3.91691   3.91882   3.92279   3.92733
 Alpha virt. eigenvalues --    3.92902   3.94016   3.94504   3.94787   3.95518
 Alpha virt. eigenvalues --    3.95649   3.95816   3.96513   3.97096   3.97731
 Alpha virt. eigenvalues --    3.98349   3.99303   3.99587   3.99986   4.00245
 Alpha virt. eigenvalues --    4.00993   4.01845   4.02913   4.03445   4.04239
 Alpha virt. eigenvalues --    4.04743   4.05143   4.05441   4.05952   4.06519
 Alpha virt. eigenvalues --    4.07148   4.08106   4.09092   4.09655   4.09904
 Alpha virt. eigenvalues --    4.10399   4.11619   4.12336   4.12851   4.12949
 Alpha virt. eigenvalues --    4.14023   4.14574   4.15408   4.15794   4.16489
 Alpha virt. eigenvalues --    4.17185   4.17755   4.18228   4.18603   4.19551
 Alpha virt. eigenvalues --    4.19827   4.20139   4.20594   4.20927   4.22072
 Alpha virt. eigenvalues --    4.22418   4.22670   4.22769   4.23494   4.23956
 Alpha virt. eigenvalues --    4.24569   4.24791   4.25901   4.26068   4.26941
 Alpha virt. eigenvalues --    4.27106   4.27747   4.28337   4.28842   4.29050
 Alpha virt. eigenvalues --    4.29408   4.30279   4.31190   4.31896   4.32486
 Alpha virt. eigenvalues --    4.33022   4.33651   4.34034   4.34401   4.35150
 Alpha virt. eigenvalues --    4.36376   4.37454   4.38329   4.39739   4.39923
 Alpha virt. eigenvalues --    4.40627   4.42255   4.42490   4.42586   4.43883
 Alpha virt. eigenvalues --    4.44153   4.45511   4.46562   4.47111   4.47734
 Alpha virt. eigenvalues --    4.48213   4.48734   4.48860   4.49713   4.50228
 Alpha virt. eigenvalues --    4.51030   4.51399   4.52044   4.52698   4.53432
 Alpha virt. eigenvalues --    4.54149   4.54483   4.55367   4.56011   4.56697
 Alpha virt. eigenvalues --    4.58049   4.58509   4.58822   4.59374   4.60261
 Alpha virt. eigenvalues --    4.61535   4.62470   4.63038   4.64236   4.64531
 Alpha virt. eigenvalues --    4.65551   4.65925   4.66138   4.66967   4.67354
 Alpha virt. eigenvalues --    4.69086   4.69443   4.70025   4.70368   4.70879
 Alpha virt. eigenvalues --    4.71615   4.72782   4.73580   4.74299   4.74971
 Alpha virt. eigenvalues --    4.75687   4.76455   4.76688   4.77522   4.78218
 Alpha virt. eigenvalues --    4.79167   4.79762   4.80356   4.81082   4.82480
 Alpha virt. eigenvalues --    4.83195   4.84137   4.84623   4.85308   4.85854
 Alpha virt. eigenvalues --    4.86844   4.87139   4.87967   4.88602   4.89585
 Alpha virt. eigenvalues --    4.89895   4.90989   4.91422   4.92681   4.92815
 Alpha virt. eigenvalues --    4.94098   4.94991   4.96014   4.96459   4.97621
 Alpha virt. eigenvalues --    4.98433   4.99768   5.00357   5.01673   5.04269
 Alpha virt. eigenvalues --    5.04526   5.05012   5.05926   5.06645   5.07531
 Alpha virt. eigenvalues --    5.07973   5.09273   5.10306   5.11056   5.11204
 Alpha virt. eigenvalues --    5.11969   5.12384   5.13246   5.13368   5.13774
 Alpha virt. eigenvalues --    5.14607   5.15439   5.16652   5.17474   5.17969
 Alpha virt. eigenvalues --    5.18984   5.19707   5.20642   5.21536   5.22008
 Alpha virt. eigenvalues --    5.22565   5.23118   5.23396   5.23945   5.24441
 Alpha virt. eigenvalues --    5.26277   5.26624   5.28476   5.29068   5.29568
 Alpha virt. eigenvalues --    5.30670   5.31659   5.31889   5.32372   5.32702
 Alpha virt. eigenvalues --    5.34141   5.34630   5.35020   5.35704   5.35765
 Alpha virt. eigenvalues --    5.38584   5.40024   5.41335   5.44161   5.45121
 Alpha virt. eigenvalues --    5.47816   5.48636   5.49525   5.49776   5.51663
 Alpha virt. eigenvalues --    5.51802   5.52878   5.54560   5.55006   5.56072
 Alpha virt. eigenvalues --    5.57756   5.59467   5.60270   5.60855   5.62977
 Alpha virt. eigenvalues --    5.64656   5.65039   5.65837   5.66575   5.67626
 Alpha virt. eigenvalues --    5.68193   5.68645   5.69262   5.70287   5.71527
 Alpha virt. eigenvalues --    5.72869   5.74877   5.76671   5.77659   5.78708
 Alpha virt. eigenvalues --    5.79379   5.80353   5.82593   5.83092   5.83514
 Alpha virt. eigenvalues --    5.85489   5.86912   5.88666   5.91049   5.92915
 Alpha virt. eigenvalues --    5.93862   5.94954   5.97107   5.97414   5.98584
 Alpha virt. eigenvalues --    5.99344   5.99619   6.01669   6.02613   6.05915
 Alpha virt. eigenvalues --    6.07430   6.09039   6.10669   6.11434   6.11896
 Alpha virt. eigenvalues --    6.12184   6.16865   6.17557   6.18968   6.20465
 Alpha virt. eigenvalues --    6.20934   6.23207   6.24547   6.25050   6.30731
 Alpha virt. eigenvalues --    6.32427   6.34433   6.36424   6.37694   6.38098
 Alpha virt. eigenvalues --    6.42063   6.43919   6.46361   6.51705   6.56282
 Alpha virt. eigenvalues --    6.58778   6.65834   6.67100   6.67626   6.70819
 Alpha virt. eigenvalues --    6.72735   6.73335   6.74647   6.75560   6.76828
 Alpha virt. eigenvalues --    6.79429   6.81221   6.86059   6.87715   6.88343
 Alpha virt. eigenvalues --    6.89203   6.89788   6.90727   6.92873   6.94178
 Alpha virt. eigenvalues --    6.95206   6.98021   6.99142   7.01397   7.02525
 Alpha virt. eigenvalues --    7.05370   7.07262   7.09580   7.11613   7.14535
 Alpha virt. eigenvalues --    7.15124   7.19121   7.20177   7.22951   7.24508
 Alpha virt. eigenvalues --    7.25916   7.27291   7.28489   7.29180   7.32625
 Alpha virt. eigenvalues --    7.33768   7.37968   7.38384   7.39478   7.41007
 Alpha virt. eigenvalues --    7.44809   7.46095   7.48896   7.54535   7.56645
 Alpha virt. eigenvalues --    7.58951   7.62198   7.63167   7.68549   7.72877
 Alpha virt. eigenvalues --    7.75042   7.75913   7.83092   7.85331   7.85924
 Alpha virt. eigenvalues --    7.89555   7.93545   7.98746   8.00592   8.06467
 Alpha virt. eigenvalues --    8.06994   8.20152   8.38421   8.46962   8.55362
 Alpha virt. eigenvalues --    8.64988   8.84435   8.86839   8.89364   8.91037
 Alpha virt. eigenvalues --    8.92366   8.96385   9.05227   9.06906   9.19081
 Alpha virt. eigenvalues --    9.20476   9.20941   9.24757   9.26057   9.27510
 Alpha virt. eigenvalues --    9.29518   9.33718   9.35105   9.36590   9.38493
 Alpha virt. eigenvalues --    9.39559   9.40070   9.41182   9.44479   9.46753
 Alpha virt. eigenvalues --    9.51010   9.51811   9.55413   9.59613   9.60869
 Alpha virt. eigenvalues --    9.62544   9.68510   9.80904   9.83011   9.89791
 Alpha virt. eigenvalues --   10.06860  10.07358  14.93595  15.48490  15.71387
 Alpha virt. eigenvalues --   16.01045  16.11756  16.34656  16.59898  16.71003
 Alpha virt. eigenvalues --   17.10729  17.33589  17.68380  17.98467  18.24356
 Alpha virt. eigenvalues --   18.57462  18.68190  18.81918  19.52506  19.86770
 Alpha virt. eigenvalues --   20.31877  20.83759  21.43555  21.66307
          Condensed to atoms (all electrons):
               1          2          3          4          5          6
     1  C    9.295991  -0.027645  -0.682425   0.072512   0.006991  -0.014998
     2  N   -0.027645   8.497005   0.271102  -0.161039  -0.397412  -0.045030
     3  C   -0.682425   0.271102   6.174037   0.321753   0.342592  -0.178053
     4  O    0.072512  -0.161039   0.321753   9.086375  -0.172420   0.021172
     5  O    0.006991  -0.397412   0.342592  -0.172420   8.652322   0.162318
     6  C   -0.014998  -0.045030  -0.178053   0.021172   0.162318   5.826688
     7  C   -0.015214  -0.013469   0.028910  -0.028255  -0.108201  -0.014888
     8  C    0.000722   0.004121  -0.000384  -0.001930   0.005055  -0.038059
     9  C   -1.130822  -0.151665  -0.167632   0.033245  -0.055775  -0.010086
    10  C   -0.175652  -0.017771  -0.104307   0.004595   0.002025  -0.006022
    11  C   -0.258306   0.054130   0.096304  -0.003815   0.004706   0.000862
    12  C    0.057376   0.048376  -0.075528   0.029853   0.003311  -0.001927
    13  C   -0.671905  -0.466839   0.065147  -0.117857  -0.048848  -0.031852
    14  H   -0.154704  -0.171544  -0.294149  -0.034501   0.054166  -0.050719
    15  H   -0.004307   0.016892  -0.006926  -0.000022  -0.051922   0.312503
    16  H   -0.003960   0.005656  -0.018860  -0.006327  -0.020196   0.303480
    17  H   -0.002171  -0.003820  -0.007957   0.005495  -0.054725   0.070423
    18  H   -0.000766  -0.002970  -0.014352   0.002444  -0.040136   0.065321
    19  H    0.000366   0.000105   0.004249   0.000324   0.002041  -0.006068
    20  H    0.000120  -0.000334   0.001669  -0.000141  -0.000507  -0.006267
    21  H    0.000435  -0.000381   0.004512   0.000083   0.001130  -0.005652
    22  H   -0.623511   0.113619  -0.038287   0.004852   0.002289   0.000601
    23  Cl   0.017225  -0.017013   0.020305  -0.006194  -0.000201  -0.001854
    24  H   -0.305938  -0.147989   0.100183  -0.129006   0.008892  -0.015418
    25  C   -0.010529  -0.003047  -0.006131  -0.000326   0.000058   0.000182
    26  H   -0.033909  -0.003780  -0.004103  -0.000038  -0.000140  -0.000144
    27  F   -0.001940   0.003840   0.001010  -0.000028   0.000022  -0.000003
    28  F    0.007552  -0.004641   0.000034   0.000058   0.000020   0.000017
    29  F   -0.000733   0.006508   0.000571   0.000002   0.000194   0.000117
    30  O   -0.009318  -0.007762   0.002845   0.000188  -0.006566  -0.004562
    31  O   -0.014274  -0.185199  -0.029457  -0.007459  -0.002170   0.011432
    32  C   -0.055034  -0.026576  -0.040237   0.000641  -0.018452  -0.002739
    33  C    0.004616  -0.010935   0.002469  -0.000117   0.003737   0.004811
    34  C   -0.002075  -0.006733  -0.000744   0.000017   0.001055   0.000620
    35  H    0.000744  -0.001292  -0.000147  -0.000022   0.000861   0.000786
    36  H   -0.001118   0.000381   0.000203   0.000005   0.000315   0.000272
    37  H   -0.001859   0.001001  -0.001658   0.000005  -0.000199  -0.001450
    38  H    0.000719  -0.000759  -0.000256  -0.000017   0.000035   0.000222
    39  H    0.000330  -0.000784   0.001104   0.000053  -0.000354  -0.000482
               7          8          9         10         11         12
     1  C   -0.015214   0.000722  -1.130822  -0.175652  -0.258306   0.057376
     2  N   -0.013469   0.004121  -0.151665  -0.017771   0.054130   0.048376
     3  C    0.028910  -0.000384  -0.167632  -0.104307   0.096304  -0.075528
     4  O   -0.028255  -0.001930   0.033245   0.004595  -0.003815   0.029853
     5  O   -0.108201   0.005055  -0.055775   0.002025   0.004706   0.003311
     6  C   -0.014888  -0.038059  -0.010086  -0.006022   0.000862  -0.001927
     7  C    5.732000   0.083442   0.005468  -0.000575   0.000336   0.000410
     8  C    0.083442   5.830487   0.000110   0.000136  -0.000044  -0.000022
     9  C    0.005468   0.000110  10.135492  -0.670959  -0.155528   0.028168
    10  C   -0.000575   0.000136  -0.670959   8.330266  -1.058282  -0.054784
    11  C    0.000336  -0.000044  -0.155528  -1.058282   8.517047  -0.444865
    12  C    0.000410  -0.000022   0.028168  -0.054784  -0.444865   6.777657
    13  C   -0.002402   0.000356  -0.069650  -0.351506   0.177697  -0.336180
    14  H    0.006438  -0.001857  -0.050463  -0.034710   0.015759  -0.012887
    15  H    0.010477  -0.009720   0.000621  -0.000946   0.000336  -0.000718
    16  H    0.009463  -0.003854  -0.002263  -0.000052   0.000178  -0.000399
    17  H    0.382205  -0.042527   0.000553  -0.000191   0.000106  -0.000020
    18  H    0.380763  -0.036094   0.000254  -0.000072  -0.000023   0.000064
    19  H    0.027272   0.372141   0.000090   0.000009  -0.000012   0.000012
    20  H   -0.034852   0.454043  -0.000037   0.000007   0.000002  -0.000008
    21  H    0.027850   0.368960   0.000028   0.000017  -0.000008   0.000046
    22  H   -0.001373   0.000231  -0.321231  -0.350381   0.072546   0.038322
    23  Cl   0.000000  -0.000011  -0.042951   0.012476  -0.079604  -0.164963
    24  H   -0.000766  -0.000329  -0.122477   0.045455   0.054663  -0.379681
    25  C   -0.000053   0.000009  -0.214958  -0.313440  -0.159582  -0.000909
    26  H    0.000011  -0.000000   0.019119  -0.036769   0.158087  -0.227613
    27  F   -0.000001  -0.000000  -0.008699   0.052116   0.018309  -0.006533
    28  F    0.000002  -0.000000  -0.030947  -0.047933   0.010447   0.008630
    29  F   -0.000014   0.000000   0.061318   0.032654  -0.005324  -0.004285
    30  O    0.001598   0.000005   0.050099   0.017420  -0.011366   0.002627
    31  O   -0.000772  -0.000572   0.103637   0.016298  -0.004466   0.007237
    32  C    0.001936   0.000619   0.059846   0.045004  -0.011536   0.010378
    33  C   -0.001667  -0.000193  -0.019643  -0.002292  -0.000122  -0.000284
    34  C   -0.001009  -0.000025  -0.000413  -0.000016  -0.000406   0.000333
    35  H   -0.000374  -0.000013  -0.002261  -0.000069   0.000132  -0.000027
    36  H   -0.000080  -0.000002   0.003681  -0.000766   0.000110  -0.000061
    37  H    0.000146   0.000118   0.001766  -0.000037  -0.000112   0.000061
    38  H    0.000031  -0.000006  -0.000093  -0.000021  -0.000032   0.000028
    39  H    0.000333   0.000053  -0.002411   0.000108   0.000110  -0.000089
              13         14         15         16         17         18
     1  C   -0.671905  -0.154704  -0.004307  -0.003960  -0.002171  -0.000766
     2  N   -0.466839  -0.171544   0.016892   0.005656  -0.003820  -0.002970
     3  C    0.065147  -0.294149  -0.006926  -0.018860  -0.007957  -0.014352
     4  O   -0.117857  -0.034501  -0.000022  -0.006327   0.005495   0.002444
     5  O   -0.048848   0.054166  -0.051922  -0.020196  -0.054725  -0.040136
     6  C   -0.031852  -0.050719   0.312503   0.303480   0.070423   0.065321
     7  C   -0.002402   0.006438   0.010477   0.009463   0.382205   0.380763
     8  C    0.000356  -0.001857  -0.009720  -0.003854  -0.042527  -0.036094
     9  C   -0.069650  -0.050463   0.000621  -0.002263   0.000553   0.000254
    10  C   -0.351506  -0.034710  -0.000946  -0.000052  -0.000191  -0.000072
    11  C    0.177697   0.015759   0.000336   0.000178   0.000106  -0.000023
    12  C   -0.336180  -0.012887  -0.000718  -0.000399  -0.000020   0.000064
    13  C    8.586982   0.028263  -0.002720   0.003839  -0.000425  -0.000509
    14  H    0.028263   1.305147   0.001626  -0.000256  -0.000769  -0.002194
    15  H   -0.002720   0.001626   0.434237  -0.004533   0.026062  -0.024844
    16  H    0.003839  -0.000256  -0.004533   0.419528  -0.025802   0.023894
    17  H   -0.000425  -0.000769   0.026062  -0.025802   0.437874  -0.001507
    18  H   -0.000509  -0.002194  -0.024844   0.023894  -0.001507   0.425952
    19  H   -0.000076   0.000187  -0.007040  -0.008339  -0.000159   0.000316
    20  H    0.000015  -0.000114  -0.001133   0.000294  -0.002997  -0.002239
    21  H    0.000079  -0.000084  -0.007479  -0.008001   0.001147  -0.001998
    22  H   -0.022381  -0.092062  -0.000378  -0.000447  -0.000476   0.000057
    23  Cl   0.075551   0.002400   0.000024  -0.000004  -0.000002  -0.000012
    24  H    0.100707   0.016700  -0.001943   0.001024  -0.000120  -0.000266
    25  C    0.022459  -0.007662   0.000040   0.000004  -0.000020   0.000012
    26  H    0.003185  -0.001413   0.000011  -0.000011   0.000001  -0.000000
    27  F    0.003766  -0.000025   0.000003   0.000001  -0.000001  -0.000000
    28  F   -0.003567   0.001050   0.000002  -0.000008   0.000004  -0.000002
    29  F   -0.001754  -0.000778   0.000004   0.000006  -0.000004   0.000004
    30  O    0.002021  -0.051760  -0.000093  -0.000055   0.000323   0.000040
    31  O   -0.020955  -0.153555  -0.000419   0.000849  -0.000579  -0.000587
    32  C   -0.009096  -0.058324  -0.000037  -0.001215  -0.000064  -0.000067
    33  C    0.001168   0.014926   0.000503  -0.000112   0.000021  -0.000430
    34  C   -0.000967  -0.006609   0.000246  -0.000144   0.001115  -0.000261
    35  H   -0.000079  -0.000740   0.000034   0.000030  -0.000025   0.000004
    36  H    0.000112   0.003673   0.000024  -0.000009   0.000028  -0.000010
    37  H   -0.000170   0.000949   0.000192  -0.000346   0.000113  -0.000534
    38  H   -0.000053   0.000735   0.000024  -0.000003   0.000145  -0.000236
    39  H    0.000249  -0.004258  -0.000114   0.000077  -0.000040   0.000134
              19         20         21         22         23         24
     1  C    0.000366   0.000120   0.000435  -0.623511   0.017225  -0.305938
     2  N    0.000105  -0.000334  -0.000381   0.113619  -0.017013  -0.147989
     3  C    0.004249   0.001669   0.004512  -0.038287   0.020305   0.100183
     4  O    0.000324  -0.000141   0.000083   0.004852  -0.006194  -0.129006
     5  O    0.002041  -0.000507   0.001130   0.002289  -0.000201   0.008892
     6  C   -0.006068  -0.006267  -0.005652   0.000601  -0.001854  -0.015418
     7  C    0.027272  -0.034852   0.027850  -0.001373   0.000000  -0.000766
     8  C    0.372141   0.454043   0.368960   0.000231  -0.000011  -0.000329
     9  C    0.000090  -0.000037   0.000028  -0.321231  -0.042951  -0.122477
    10  C    0.000009   0.000007   0.000017  -0.350381   0.012476   0.045455
    11  C   -0.000012   0.000002  -0.000008   0.072546  -0.079604   0.054663
    12  C    0.000012  -0.000008   0.000046   0.038322  -0.164963  -0.379681
    13  C   -0.000076   0.000015   0.000079  -0.022381   0.075551   0.100707
    14  H    0.000187  -0.000114  -0.000084  -0.092062   0.002400   0.016700
    15  H   -0.007040  -0.001133  -0.007479  -0.000378   0.000024  -0.001943
    16  H   -0.008339   0.000294  -0.008001  -0.000447  -0.000004   0.001024
    17  H   -0.000159  -0.002997   0.001147  -0.000476  -0.000002  -0.000120
    18  H    0.000316  -0.002239  -0.001998   0.000057  -0.000012  -0.000266
    19  H    0.319874   0.000844   0.018682   0.000050  -0.000002  -0.000098
    20  H    0.000844   0.311551   0.000843   0.000004  -0.000000   0.000007
    21  H    0.018682   0.000843   0.323065   0.000018  -0.000003   0.000045
    22  H    0.000050   0.000004   0.000018   1.822305  -0.006358  -0.002179
    23  Cl  -0.000002  -0.000000  -0.000003  -0.006358  17.688470   0.031037
    24  H   -0.000098   0.000007   0.000045  -0.002179   0.031037   1.201272
    25  C    0.000002   0.000001  -0.000002  -0.127497  -0.005830   0.000462
    26  H    0.000000   0.000000  -0.000000  -0.011121  -0.040631  -0.012415
    27  F    0.000000  -0.000000  -0.000000  -0.003994   0.000174   0.000411
    28  F   -0.000000  -0.000000   0.000000   0.032251  -0.000308  -0.000479
    29  F    0.000000   0.000000  -0.000000  -0.048850   0.000110   0.000323
    30  O   -0.000006   0.000004  -0.000003  -0.166571  -0.000115   0.000693
    31  O   -0.000003  -0.000127   0.000072  -0.000030  -0.000302   0.000664
    32  C   -0.000014   0.000070   0.000067  -0.036944  -0.000627  -0.006201
    33  C    0.000011  -0.000033  -0.000011  -0.025849   0.000003  -0.000244
    34  C   -0.000027   0.000038  -0.000039   0.005813  -0.000006   0.000036
    35  H   -0.000006   0.000009  -0.000003   0.003134   0.000002  -0.000006
    36  H    0.000002  -0.000002   0.000001  -0.005435   0.000001  -0.000095
    37  H    0.000087  -0.000056  -0.000007   0.001116  -0.000003  -0.000078
    38  H   -0.000008  -0.000001  -0.000003  -0.000249  -0.000000   0.000007
    39  H   -0.000014   0.000013   0.000011   0.003156   0.000002   0.000078
              25         26         27         28         29         30
     1  C   -0.010529  -0.033909  -0.001940   0.007552  -0.000733  -0.009318
     2  N   -0.003047  -0.003780   0.003840  -0.004641   0.006508  -0.007762
     3  C   -0.006131  -0.004103   0.001010   0.000034   0.000571   0.002845
     4  O   -0.000326  -0.000038  -0.000028   0.000058   0.000002   0.000188
     5  O    0.000058  -0.000140   0.000022   0.000020   0.000194  -0.006566
     6  C    0.000182  -0.000144  -0.000003   0.000017   0.000117  -0.004562
     7  C   -0.000053   0.000011  -0.000001   0.000002  -0.000014   0.001598
     8  C    0.000009  -0.000000  -0.000000  -0.000000   0.000000   0.000005
     9  C   -0.214958   0.019119  -0.008699  -0.030947   0.061318   0.050099
    10  C   -0.313440  -0.036769   0.052116  -0.047933   0.032654   0.017420
    11  C   -0.159582   0.158087   0.018309   0.010447  -0.005324  -0.011366
    12  C   -0.000909  -0.227613  -0.006533   0.008630  -0.004285   0.002627
    13  C    0.022459   0.003185   0.003766  -0.003567  -0.001754   0.002021
    14  H   -0.007662  -0.001413  -0.000025   0.001050  -0.000778  -0.051760
    15  H    0.000040   0.000011   0.000003   0.000002   0.000004  -0.000093
    16  H    0.000004  -0.000011   0.000001  -0.000008   0.000006  -0.000055
    17  H   -0.000020   0.000001  -0.000001   0.000004  -0.000004   0.000323
    18  H    0.000012  -0.000000  -0.000000  -0.000002   0.000004   0.000040
    19  H    0.000002   0.000000   0.000000  -0.000000   0.000000  -0.000006
    20  H    0.000001   0.000000  -0.000000  -0.000000   0.000000   0.000004
    21  H   -0.000002  -0.000000  -0.000000   0.000000  -0.000000  -0.000003
    22  H   -0.127497  -0.011121  -0.003994   0.032251  -0.048850  -0.166571
    23  Cl  -0.005830  -0.040631   0.000174  -0.000308   0.000110  -0.000115
    24  H    0.000462  -0.012415   0.000411  -0.000479   0.000323   0.000693
    25  C    5.071198   0.003884   0.131241   0.168852   0.160947   0.000571
    26  H    0.003884   0.749971  -0.002086   0.008305   0.001451  -0.000386
    27  F    0.131241  -0.002086   9.338881  -0.038968  -0.059131  -0.000426
    28  F    0.168852   0.008305  -0.038968   9.330210  -0.043914   0.001420
    29  F    0.160947   0.001451  -0.059131  -0.043914   9.266599  -0.001962
    30  O    0.000571  -0.000386  -0.000426   0.001420  -0.001962   8.951845
    31  O    0.001471  -0.000029  -0.000215   0.000222   0.001120  -0.048291
    32  C   -0.003696   0.000212  -0.000384   0.002905   0.002024   0.389763
    33  C    0.000852   0.000020  -0.000092   0.000127   0.000639  -0.154570
    34  C    0.000236  -0.000027   0.000001   0.000025  -0.000001  -0.013379
    35  H    0.000176   0.000004   0.000003  -0.000014   0.000127  -0.004545
    36  H    0.000189   0.000028   0.000038   0.000046   0.000169   0.013579
    37  H    0.000002  -0.000004   0.000001   0.000011  -0.000033   0.003098
    38  H   -0.000014  -0.000001  -0.000002   0.000004  -0.000007  -0.004726
    39  H    0.000111   0.000001   0.000002  -0.000017   0.000093   0.002706
              31         32         33         34         35         36
     1  C   -0.014274  -0.055034   0.004616  -0.002075   0.000744  -0.001118
     2  N   -0.185199  -0.026576  -0.010935  -0.006733  -0.001292   0.000381
     3  C   -0.029457  -0.040237   0.002469  -0.000744  -0.000147   0.000203
     4  O   -0.007459   0.000641  -0.000117   0.000017  -0.000022   0.000005
     5  O   -0.002170  -0.018452   0.003737   0.001055   0.000861   0.000315
     6  C    0.011432  -0.002739   0.004811   0.000620   0.000786   0.000272
     7  C   -0.000772   0.001936  -0.001667  -0.001009  -0.000374  -0.000080
     8  C   -0.000572   0.000619  -0.000193  -0.000025  -0.000013  -0.000002
     9  C    0.103637   0.059846  -0.019643  -0.000413  -0.002261   0.003681
    10  C    0.016298   0.045004  -0.002292  -0.000016  -0.000069  -0.000766
    11  C   -0.004466  -0.011536  -0.000122  -0.000406   0.000132   0.000110
    12  C    0.007237   0.010378  -0.000284   0.000333  -0.000027  -0.000061
    13  C   -0.020955  -0.009096   0.001168  -0.000967  -0.000079   0.000112
    14  H   -0.153555  -0.058324   0.014926  -0.006609  -0.000740   0.003673
    15  H   -0.000419  -0.000037   0.000503   0.000246   0.000034   0.000024
    16  H    0.000849  -0.001215  -0.000112  -0.000144   0.000030  -0.000009
    17  H   -0.000579  -0.000064   0.000021   0.001115  -0.000025   0.000028
    18  H   -0.000587  -0.000067  -0.000430  -0.000261   0.000004  -0.000010
    19  H   -0.000003  -0.000014   0.000011  -0.000027  -0.000006   0.000002
    20  H   -0.000127   0.000070  -0.000033   0.000038   0.000009  -0.000002
    21  H    0.000072   0.000067  -0.000011  -0.000039  -0.000003   0.000001
    22  H   -0.000030  -0.036944  -0.025849   0.005813   0.003134  -0.005435
    23  Cl  -0.000302  -0.000627   0.000003  -0.000006   0.000002   0.000001
    24  H    0.000664  -0.006201  -0.000244   0.000036  -0.000006  -0.000095
    25  C    0.001471  -0.003696   0.000852   0.000236   0.000176   0.000189
    26  H   -0.000029   0.000212   0.000020  -0.000027   0.000004   0.000028
    27  F   -0.000215  -0.000384  -0.000092   0.000001   0.000003   0.000038
    28  F    0.000222   0.002905   0.000127   0.000025  -0.000014   0.000046
    29  F    0.001120   0.002024   0.000639  -0.000001   0.000127   0.000169
    30  O   -0.048291   0.389763  -0.154570  -0.013379  -0.004545   0.013579
    31  O    8.905553   0.373827  -0.083376  -0.050398  -0.027699  -0.006351
    32  C    0.373827   5.394196  -0.462208   0.110389  -0.093115  -0.077219
    33  C   -0.083376  -0.462208   5.843987   0.070389   0.495988   0.496927
    34  C   -0.050398   0.110389   0.070389   5.761135  -0.019705  -0.032824
    35  H   -0.027699  -0.093115   0.495988  -0.019705   0.407268   0.021134
    36  H   -0.006351  -0.077219   0.496927  -0.032824   0.021134   0.403684
    37  H    0.010393  -0.022106   0.038418   0.322977  -0.006013   0.001756
    38  H   -0.007721   0.027786  -0.065294   0.454541  -0.012928  -0.012781
    39  H   -0.002539  -0.005939   0.028439   0.370462   0.003403  -0.002628
              37         38         39
     1  C   -0.001859   0.000719   0.000330
     2  N    0.001001  -0.000759  -0.000784
     3  C   -0.001658  -0.000256   0.001104
     4  O    0.000005  -0.000017   0.000053
     5  O   -0.000199   0.000035  -0.000354
     6  C   -0.001450   0.000222  -0.000482
     7  C    0.000146   0.000031   0.000333
     8  C    0.000118  -0.000006   0.000053
     9  C    0.001766  -0.000093  -0.002411
    10  C   -0.000037  -0.000021   0.000108
    11  C   -0.000112  -0.000032   0.000110
    12  C    0.000061   0.000028  -0.000089
    13  C   -0.000170  -0.000053   0.000249
    14  H    0.000949   0.000735  -0.004258
    15  H    0.000192   0.000024  -0.000114
    16  H   -0.000346  -0.000003   0.000077
    17  H    0.000113   0.000145  -0.000040
    18  H   -0.000534  -0.000236   0.000134
    19  H    0.000087  -0.000008  -0.000014
    20  H   -0.000056  -0.000001   0.000013
    21  H   -0.000007  -0.000003   0.000011
    22  H    0.001116  -0.000249   0.003156
    23  Cl  -0.000003  -0.000000   0.000002
    24  H   -0.000078   0.000007   0.000078
    25  C    0.000002  -0.000014   0.000111
    26  H   -0.000004  -0.000001   0.000001
    27  F    0.000001  -0.000002   0.000002
    28  F    0.000011   0.000004  -0.000017
    29  F   -0.000033  -0.000007   0.000093
    30  O    0.003098  -0.004726   0.002706
    31  O    0.010393  -0.007721  -0.002539
    32  C   -0.022106   0.027786  -0.005939
    33  C    0.038418  -0.065294   0.028439
    34  C    0.322977   0.454541   0.370462
    35  H   -0.006013  -0.012928   0.003403
    36  H    0.001756  -0.012781  -0.002628
    37  H    0.313121  -0.008591   0.018544
    38  H   -0.008591   0.379468  -0.010787
    39  H    0.018544  -0.010787   0.335701
 Mulliken charges:
               1
     1  C    0.737414
     2  N   -0.146308
     3  C    0.232593
     4  O   -0.914162
     5  O   -0.275912
     6  C   -0.345553
     7  C   -0.475122
     8  C   -0.984970
     9  C   -1.272529
    10  C    0.668966
    11  C   -0.988433
    12  C    0.698892
    13  C   -0.911805
    14  H    0.734114
    15  H    0.321432
    16  H    0.336877
    17  H    0.218788
    18  H    0.230852
    19  H    0.275212
    20  H    0.279315
    21  H    0.276586
    22  H    0.785239
    23  Cl  -0.480786
    24  H    0.563072
    25  C    1.290739
    26  H    0.430332
    27  F   -0.427293
    28  F   -0.401396
    29  F   -0.368189
    30  O   -0.954385
    31  O   -0.785229
    32  C    0.512168
    33  C   -0.180576
    34  C   -0.963621
    35  H    0.235243
    36  H    0.193024
    37  H    0.329383
    38  H    0.260843
    39  H    0.265182
 Sum of Mulliken charges =  -1.00000
 Mulliken charges with hydrogens summed into heavy atoms:
               1
     1  C    0.737414
     2  N    0.587806
     3  C    0.232593
     4  O   -0.914162
     5  O   -0.275912
     6  C    0.312756
     7  C   -0.025482
     8  C   -0.153857
     9  C   -0.487290
    10  C    0.668966
    11  C   -0.558101
    12  C    0.698892
    13  C   -0.348732
    23  Cl  -0.480786
    25  C    1.290739
    27  F   -0.427293
    28  F   -0.401396
    29  F   -0.368189
    30  O   -0.954385
    31  O   -0.785229
    32  C    0.512168
    33  C    0.247691
    34  C   -0.108213
 Electronic spatial extent (au):  <R**2>=          11166.7145
 Charge=             -1.0000 electrons
 Dipole moment (field-independent basis, Debye):
    X=              1.7425    Y=             -4.0292    Z=             -1.0183  Tot=              4.5064
 Quadrupole moment (field-independent basis, Debye-Ang):
   XX=           -169.2422   YY=           -187.9663   ZZ=           -149.1973
[...]
  1304. RY*(  17) H  36                  0.00000     3.38291   
  1305. RY*(  18) H  36                  0.00000     4.26864   
  1306. RY*(  19) H  36                  0.00000     2.50434   
  1307. RY*(  20) H  36                  0.00000    -0.56405   
  1308. RY*(  21) H  36                  0.00000     2.56827   
  1309. RY*(  22) H  36                  0.00000     3.67266   
  1310. RY*(   1) H  37                  0.00091     0.83235   
  1311. RY*(   2) H  37                  0.00036     1.12319   
  1312. RY*(   3) H  37                  0.00023     1.78056   
  1313. RY*(   4) H  37                  0.00020     1.31609   
  1314. RY*(   5) H  37                  0.00008     2.14552   
  1315. RY*(   6) H  37                  0.00007     2.00746   
  1316. RY*(   7) H  37                  0.00003     1.82994   
  1317. RY*(   8) H  37                  0.00000     4.56921   
  1318. RY*(   9) H  37                  0.00000     2.61491   
  1319. RY*(  10) H  37                  0.00001     2.88878   
  1320. RY*(  11) H  37                  0.00001     3.84878   
  1321. RY*(  12) H  37                  0.00000     3.14514   
  1322. RY*(  13) H  37                  0.00000     3.35561   
  1323. RY*(  14) H  37                  0.00000     4.75053   
  1324. RY*(  15) H  37                  0.00001     1.79876   
  1325. RY*(  16) H  37                  0.00000     4.47411   
  1326. RY*(  17) H  37                  0.00000     2.22496   
  1327. RY*(  18) H  37                  0.00000     4.23878   
  1328. RY*(  19) H  37                  0.00001     2.25721   
  1329. RY*(  20) H  37                  0.00000     3.98855   
  1330. RY*(  21) H  37                  0.00001     1.82687   
  1331. RY*(  22) H  37                  0.00000     4.30491   
  1332. RY*(   1) H  38                  0.00096     0.72015   
  1333. RY*(   2) H  38                  0.00032    -1.44718   
  1334. RY*(   3) H  38                  0.00017    -5.43862   
  1335. RY*(   4) H  38                  0.00014     2.01692   
  1336. RY*(   5) H  38                  0.00007     0.76820   
  1337. RY*(   6) H  38                  0.00003     1.76966   
  1338. RY*(   7) H  38                  0.00003     0.45360   
  1339. RY*(   8) H  38                  0.00000     5.62785   
  1340. RY*(   9) H  38                  0.00000     3.87361   
  1341. RY*(  10) H  38                  0.00000     2.74742   
  1342. RY*(  11) H  38                  0.00001   -43.69503   
  1343. RY*(  12) H  38                  0.00000     3.48346   
  1344. RY*(  13) H  38                  0.00000     2.14527   
  1345. RY*(  14) H  38                  0.00000     4.86457   
  1346. RY*(  15) H  38                  0.00000     1.08763   
  1347. RY*(  16) H  38                  0.00000     3.94157   
  1348. RY*(  17) H  38                  0.00000     1.70111   
  1349. RY*(  18) H  38                  0.00000     4.39727   
  1350. RY*(  19) H  38                  0.00000     0.66357   
  1351. RY*(  20) H  38                  0.00000     4.33605   
  1352. RY*(  21) H  38                  0.00000    -2.08574   
  1353. RY*(  22) H  38                  0.00000     4.46250   
  1354. RY*(   1) H  39                  0.00097    -0.57746   
  1355. RY*(   2) H  39                  0.00034     1.15455   
  1356. RY*(   3) H  39                  0.00022    -2.04572   
  1357. RY*(   4) H  39                  0.00019   -16.40927   
  1358. RY*(   5) H  39                  0.00010   -10.96486   
  1359. RY*(   6) H  39                  0.00007    -8.05730   
  1360. RY*(   7) H  39                  0.00003   -16.02721   
  1361. RY*(   8) H  39                  0.00000     2.82216   
  1362. RY*(   9) H  39                  0.00000     0.60560   
  1363. RY*(  10) H  39                  0.00001   -18.74515   
  1364. RY*(  11) H  39                  0.00000     1.70420   
  1365. RY*(  12) H  39                  0.00001     4.45096   
  1366. RY*(  13) H  39                  0.00001    -3.93869   
  1367. RY*(  14) H  39                  0.00000     1.63332   
  1368. RY*(  15) H  39                  0.00001     3.81803   
  1369. RY*(  16) H  39                  0.00000   -20.22964   
  1370. RY*(  17) H  39                  0.00000   -33.80814   
  1371. RY*(  18) H  39                  0.00000    -7.24187   
  1372. RY*(  19) H  39                  0.00000   -19.67834   
  1373. RY*(  20) H  39                  0.00000     2.45844   
  1374. RY*(  21) H  39                  0.00000   -62.13302   
  1375. RY*(  22) H  39                  0.00000     3.61446   
  1409. BD*(   1) O  30 - C  32          0.04783     7.55924   
  1410. BD*(   2) O  30 - C  32          0.30929     6.17725  1418(r),1405(r),1132(v)
                                                    1252(r),1409(g),1361(r)
                                                    1254(r),1301(r),1263(r)
                                                    1293(r),1402(r),1295(r)
                                                    1366(r),1367(r),1412(g)
                                                    1255(r),1414(v),1362(r)
                                                    1253(r),1291(r),1349(r)
                                                    1292(r),1239(r),293(r)
                                                    1299(r),1411(g),1290(r)
                                                    1209(v),1193(v),246(r)
                                                    1262(r),1273(r),1368(r)
                                                    1277(r),1297(r),1247(r)
                                                    1212(v),1265(r),280(r)
                                                    1416(r),1260(r),1259(r)
                                                    1353(r),1261(r),1235(r)
                                                    1249(r),1258(r),1276(r)
                                                    1355(r),1224(v),1234(r)
                                                    1257(r),1345(r),1095(g)
                                                    1322(r),1138(v),1214(v)
                                                    1303(r),1336(r),1339(r)
                                                    1417(r),1110(v),1089(g)
                                                    1365(r),1385(r),1240(r)
                                                    1331(r),1408(r),1225(r)
                                                    1220(v),1307(r),1232(r)
                                                    1243(r),1384(r),1135(v)
                                                    1160(g),1215(v),1333(r)
                                                    1363(r),1343(r),1242(r)
                                                    1190(v),1391(r),1373(r)
                                                    1248(r),1296(r),1334(r)
                                                    1315(r),1286(r),1201(v)
                                                    1274(r),250(r),1195(v)
                                                    1374(r),1376(r),1272(r)
                                                    1319(r),1342(r),1118(v)
                                                    1337(r),1318(r),289(r)
                                                    1117(v),1210(v),285(r)
                                                    1370(r),1130(v),1174(g)
                                                    1390(r),1321(r),1325(r)
                                                    1323(r),1306(r),1161(g)
                                                    1270(r),1413(v),1251(r)
                                                    1317(r),1097(g),1218(v)
                                                    1216(v),1231(r),1204(v)
                                                    612(r),634(r),1105(v)
                                                    1420(r),594(r),1298(r)
                                                    1173(g),1081(g),1178(g)
                                                    1124(v),1228(r),1341(r)
                                                    1151(g),1199(v),1101(g)
                                                    1398(r),630(r),239(r)
                                                    1168(g),1093(g),1236(r)
                                                    1399(r),1205(v),1077(g)
                                                    1177(g),1356(r),1285(r)
                                                    1226(r),1131(v),1351(r)
                                                    357(r),1348(r),1127(v)
                                                    377(r),1169(g),1426(r)
                                                    1144(g),1320(r),629(r)
                                                    1308(r),1288(r),1197(v)
                                                    1401(r),1114(v),1181(g)
                                                    1032(r),1245(r),1283(r)
                                                    385(r),1126(v),1203(v)
                                                    326(r),1354(r),351(r)
                                                    1280(r),1078(g),1300(r)
                                                    1071(g),1187(v),355(r)
                                                    1326(r),1340(r),1137(v)
                                                    1121(v),1428(r),1123(v)
                                                    281(r),327(r),1176(g)
                                                    1238(r),1350(r),1115(v)
                                                    1372(r),1125(v),1344(r)
                                                    1421(r),1030(r),1281(r)
                                                    353(r),1328(r),1241(r)
                                                    1378(r),456(r),638(r)
                                                    1167(g),395(r),608(r)
                                                    1156(g),606(r),1379(r)
                                                    1164(g),1357(r),1230(r)
                                                    636(r),1196(v),1140(v)
                                                    1360(r),1099(g),1269(r)
                                                    1139(v),1183(g),1166(g)
                                                    1122(v),631(r),1208(v)
                                                    1393(r),1423(r),1314(r)
                                                    119(r),1330(r),1069(g)
                                                    1387(r),1159(g),600(r)
                                                    1309(r),1082(g),1171(g)
                                                    1250(r),288(r),549(r)
                                                    1109(v),1079(g),1142(v)
                                                    617(r),610(r),389(r),1066(g)
                                                    1191(v),1289(r),1233(r)
                                                    1346(r),1369(r),1217(v)
                                                    1222(v),1185(v),1075(g)
                                                    1392(r),1147(g),1364(r)
                                                    1136(v),1358(r),1419(r)
                                                    1316(r),157(r),632(r),130(r)
                                                    803(r),331(r),440(r),1165(g)
                                                    1244(r),360(r),599(r)
                                                    1415(v),115(r),637(r)
                                                    1237(r),1076(g),1092(g)
                                                    627(r),1155(g),1406(r)
                                                    112(r),810(r),1154(g)
                                                    1170(g),962(r),1088(g)
                                                    1338(r),473(r),1072(g)
                                                    1162(g),1111(v),436(r)
                                                    792(r),1112(v),316(r)
                                                    1098(g),1067(g),443(r)
                                                    1213(v),111(r),1386(r)
                                                    1198(v),348(r),419(r)
                                                    1395(r),663(r),439(r)
                                                    1404(r),386(r),431(r),201(r)
                                                    452(r),118(r),120(r),373(r)
                                                    283(r),196(r),235(r),117(r)
                                                    363(r),698(r),322(r),234(r)
                                                    445(r),1422(r),530(r),270(r)
                                                    422(r),1403(r),1388(r)
                                                    192(r),238(r),984(r),1427(r)
                                                    194(r),518(r),804(r),200(r)
                                                    152(r),392(r),278(r),628(r)
                                                    626(r),148(r),616(r),659(r)
                                                    889(r),125(r),287(r),267(r)
                                                    444(r),732(r),108(r),915(r)
                                                    476(r),256(r),253(r),495(r)
                                                    485(r),446(r),486(r),1407(r)
                                                    482(r),1039(r),620(r),625(r)
                                                    1023(r),302(r),557(r),313(r)
                                                    596(r),603(r),150(r),350(r)
                                                    658(r),394(r),167(r),172(r)
                                                    173(r),796(r),651(r),602(r)
                                                    437(r),156(r),756(r),126(r)
                                                    388(r),100(r),105(r),573(r)
                                                    460(r),158(r),97(r),104(r)
                                                    646(r),520(r),661(r),295(r)
                                                    346(r),247(r),349(r),516(r)
                                                    299(r),132(r),469(r),611(r)
                                                    806(r),801(r),593(r),657(r)
                                                    284(r),997(r),277(r),155(r)
                                                    643(r),365(r),75(r),109(r)
                                                    788(r),1027(r),317(r)
                                                    1430(r),465(r),197(r),441(r)
                                                    1031(r),883(r),427(r),319(r)
                                                    882(r),447(r),1049(r),778(r)
                                                    1397(r),163(r),807(r),99(r)
                                                    916(r),686(r),715(r),561(r)
                                                    403(r),501(r),491(r),938(r)
                                                    147(r),755(r),272(r),418(r)
                                                    652(r),815(r),391(r),1026(r)
                                                    96(r),514(r),613(r),451(r)
                                                    899(r),1033(r),989(r),310(r)
                                                    945(r),480(r),690(r),786(r)
                                                    847(r),113(r),423(r),296(r)
                                                    802(r),103(r),380(r),1425(r)
                                                    887(r),1043(r),541(r),597(r)
                                                    242(r),428(r),794(r),811(r)
                                                    754(r),879(r),262(r),492(r)
                                                    1041(r),397(r),1052(r)
                                                    800(r),321(r),344(r),426(r)
                                                    478(r),584(r),1010(r),424(r)
                                                    269(r),339(r),782(r),401(r)
                                                    781(r),493(r),622(r),188(r)
                                                    957(r)
  1411. BD*(   1) O  31 - C  32          0.07148     7.76283   
  1412. BD*(   1) C  32 - C  33          0.08166     9.77368   
  1413. BD*(   1) C  33 - C  34          0.00679    -4.02821   
  1414. BD*(   1) C  33 - H  35          0.01138     6.53319   
  1415. BD*(   1) C  33 - H  36          0.01142     5.57669   
  1416. BD*(   1) C  34 - H  37          0.00783     5.92267   
  1417. BD*(   1) C  34 - H  38          0.00765   -11.38869   
  1418. BD*(   1) C  34 - H  39          0.00772     6.14846   
       -------------------------------
              Total Lewis   39.26125  ( 98.4064%)
        Valence non-Lewis    0.56305  (  1.4112%)
        Rydberg non-Lewis    0.07275  (  0.1823%)
       -------------------------------
            Total unit  2   39.89705  (100.0000%)
           Charge unit  2   -0.89705
 Unable to Open any file for archive entry.
 1\1\GINC-GADI-HMEM-CLX-0047\SP\RDSDPBEP86-FC\Aug-CC-pVTZ\C14H16Cl1F3N1
 O4(1-)\HIO507\28-Apr-2021\0\\# DSDPBEP86/AUG-cc-PVTZ SCF=Tight INT(gri
 d=ultrafine) Pop=NBO MaxDisk=1400000MB\\NM3CA_carboxy_c2.DSDPBEP86_AUG
 -cc-PVTZ\\-1,1\C,0,-5.9411671802,1.2881854088,0.3701009816\N,0,-4.6869
 742524,0.7042414007,0.2311090496\C,0,-3.522171498,1.3780233728,0.07788
 80327\O,0,-3.3536182306,2.5805048395,0.0175999589\O,0,-2.4993648686,0.
 498691989,-0.0125365952\C,0,-1.2086831185,1.0693118244,-0.1662654602\C
 ,0,-0.219127232,-0.0758461316,-0.247378752\C,0,1.2095230793,0.43543685
 4,-0.408336094\C,0,-7.0485250254,0.4202142222,0.3331802611\C,0,-8.3196
 31705,0.9384026146,0.5016859354\C,0,-8.5510775232,2.3010862253,0.69473
 78567\C,0,-7.4452221795,3.1288093052,0.7129028784\C,0,-6.1476814698,2.
 6616204456,0.5582265018\H,0,-4.6319376583,-0.3582026482,0.3171642354\H
 ,0,-0.9920119868,1.7254433298,0.6829080246\H,0,-1.1827334181,1.6858846
 304,-1.0703723958\H,0,-0.4951040038,-0.7192250224,-1.0869278329\H,0,-0
 .312707714,-0.68476143,0.6555298449\H,0,1.3169299296,1.0324168242,-1.3
 182994233\H,0,1.9218897525,-0.3897668939,-0.4676282798\H,0,1.502165425
 9,1.0660532165,0.4358249936\H,0,-6.8896154639,-0.6412385374,0.13799517
 95\Cl,0,-7.6890272392,4.8507795558,0.9561638933\H,0,-5.3126152109,3.34
 45247459,0.5810817394\C,0,-9.5068844108,0.0249307445,0.4088252998\H,0,
 -9.5498802353,2.6953887722,0.8272691568\F,0,-10.5241295814,0.447445085
 6,1.1944398137\F,0,-10.0090723018,-0.0225593902,-0.8414930457\F,0,-9.2
 333374875,-1.2277987387,0.7674334432\O,0,-6.2714293766,-2.4949601671,-
 0.6309134893\O,0,-4.5113073545,-1.9181024934,0.6288566054\C,0,-5.26391
 90407,-2.7519856109,0.0482369672\C,0,-4.8959369782,-4.2387916035,0.214
 6890963\C,0,-3.5827234697,-4.4884793748,0.9444039214\H,0,-4.8855995097
 ,-4.6810456456,-0.7861517383\H,0,-5.731481598,-4.7149441418,0.73870059
 94\H,0,-2.75156707,-4.0173067572,0.4159640644\H,0,-3.3727690302,-5.559
 1985491,1.0380977157\H,0,-3.6081337646,-4.0488222713,1.9424870565\\Ver
 sion=ES64L-G16RevC.01\State=1-A\HF=-1654.65737\MP2=-1656.8754405\RMSD=
 2.762e-09\PG=C01 [X(C14H16Cl1F3N1O4)]\\@
 The archive entry for this job was punched.


 MODELS ARE TO BE USED, NOT BELIEVED.

    -- PARAPHRASED BY H. THIEL IN "PRINCIPLES OF ECONOMETRICS"
 Job cpu time:       7 days  1 hours 39 minutes  6.6 seconds.
 Elapsed time:       0 days  5 hours 19 minutes 42.0 seconds.
 File lengths (MBytes):  RWF=   1053 Int=      0 D2E=      0 Chk=    134 Scr=      1
 Normal termination of Gaussian 16 at Wed Apr 28 17:28:51 2021.
