 Entering Gaussian System, Link 0=/apps/gaussian/g16c01/g16/g16
 Initial command:
 /apps/gaussian/g16c01/g16/l1.exe "/jobfs/19478665.gadi-pbs/Gau-1129334.inp" -scrdir="/jobfs/19478665.gadi-pbs/"
 Entering Link 1 = /apps/gaussian/g16c01/g16/l1.exe PID=   1129335.
  
 Copyright (c) 1988-2019, Gaussian, Inc.  All Rights Reserved.
  
 This is part of the Gaussian(R) 16 program.  It is based on
 the Gaussian(R) 09 system (copyright 2009, Gaussian, Inc.),
 the Gaussian(R) 03 system (copyright 2003, Gaussian, Inc.),
 the Gaussian(R) 98 system (copyright 1998, Gaussian, Inc.),
 the Gaussian(R) 94 system (copyright 1995, Gaussian, Inc.),
 the Gaussian 92(TM) system (copyright 1992, Gaussian, Inc.),
 the Gaussian 90(TM) system (copyright 1990, Gaussian, Inc.),
 the Gaussian 88(TM) system (copyright 1988, Gaussian, Inc.),
 the Gaussian 86(TM) system (copyright 1986, Carnegie Mellon
 University), and the Gaussian 82(TM) system (copyright 1983,
 Carnegie Mellon University). Gaussian is a federally registered
 trademark of Gaussian, Inc.
  
 This software contains proprietary and confidential information,
 including trade secrets, belonging to Gaussian, Inc.
  
 This software is provided under written license and may be
 used, copied, transmitted, or stored only in accord with that
 written license.
  
 The following legend is applicable only to US Government
 contracts under FAR:
  
                    RESTRICTED RIGHTS LEGEND
  
 Use, reproduction and disclosure by the US Government is
 subject to restrictions as set forth in subparagraphs (a)
 and (c) of the Commercial Computer Software - Restricted
 Rights clause in FAR 52.227-19.
  
 Gaussian, Inc.
 340 Quinnipiac St., Bldg. 40, Wallingford CT 06492
  
  
 ---------------------------------------------------------------
 Warning -- This program may not be used in any manner that
 competes with the business of Gaussian, Inc. or will provide
 assistance to any competitor of Gaussian, Inc.  The licensee
 of this program is prohibited from giving any competitor of
 Gaussian, Inc. access to this program.  By using this program,
 the user acknowledges that Gaussian, Inc. is engaged in the
 business of creating and licensing software in the field of
 computational chemistry and represents and warrants to the
 licensee that it is not a competitor of Gaussian, Inc. and that
 it will not use this program in any manner prohibited above.
 ---------------------------------------------------------------
  

 Cite this work as:
 Gaussian 16, Revision C.01,
 M. J. Frisch, G. W. Trucks, H. B. Schlegel, G. E. Scuseria, 
 M. A. Robb, J. R. Cheeseman, G. Scalmani, V. Barone, 
 G. A. Petersson, H. Nakatsuji, X. Li, M. Caricato, A. V. Marenich, 
 J. Bloino, B. G. Janesko, R. Gomperts, B. Mennucci, H. P. Hratchian, 
 J. V. Ortiz, A. F. Izmaylov, J. L. Sonnenberg, D. Williams-Young, 
 F. Ding, F. Lipparini, F. Egidi, J. Goings, B. Peng, A. Petrone, 
 T. Henderson, D. Ranasinghe, V. G. Zakrzewski, J. Gao, N. Rega, 
 G. Zheng, W. Liang, M. Hada, M. Ehara, K. Toyota, R. Fukuda, 
 J. Hasegawa, M. Ishida, T. Nakajima, Y. Honda, O. Kitao, H. Nakai, 
 T. Vreven, K. Throssell, J. A. Montgomery, Jr., J. E. Peralta, 
 F. Ogliaro, M. J. Bearpark, J. J. Heyd, E. N. Brothers, K. N. Kudin, 
 V. N. Staroverov, T. A. Keith, R. Kobayashi, J. Normand, 
 K. Raghavachari, A. P. Rendell, J. C. Burant, S. S. Iyengar, 
 J. Tomasi, M. Cossi, J. M. Millam, M. Klene, C. Adamo, R. Cammi, 
 J. W. Ochterski, R. L. Martin, K. Morokuma, O. Farkas, 
 J. B. Foresman, and D. J. Fox, Gaussian, Inc., Wallingford CT, 2019.
 
 ******************************************
 Gaussian 16:  ES64L-G16RevC.01  3-Jul-2019
                22-Mar-2021 
 ******************************************
 %NprocShared=32
 Will use up to   32 processors via shared memory.
 %Mem=10000MB
 %chk=29CA_carboxy_c2.M062X_6-311pGd_opt_water_GD3.chk
 ----------------------------------------------------------------------
 # M062X/6-311+G* SCF=Tight INT(grid=ultrafine) OPT=CalcFC IOP(2/17=4) 
 EmpiricalDispersion=GD3 SCRF=(SMD,Solvent=h2o) MaxDisk=10000MB
 ----------------------------------------------------------------------
 1/10=4,18=20,19=15,26=6,38=1/1,3;
 2/9=110,12=2,17=4,18=5,40=1/2;
 3/5=4,6=6,7=11,11=2,25=1,30=1,70=32201,71=2,72=1,74=-55,75=-5,124=31,140=1/1,2,3;
 4//1;
 5/5=2,32=2,38=5,53=1/2;
 8/6=4,10=90,11=11/1;
 11/6=1,8=1,9=11,15=111,16=1/1,2,10;
 10/6=1,13=1/2;
 6/7=2,8=2,9=2,10=2,28=1/1;
 7/10=1,25=1/1,2,3,16;
 1/10=4,18=20,19=15,26=6/3(2);
 2/9=110,17=4/2;
 99//99;
 2/9=110,17=4/2;
 3/5=4,6=6,7=11,11=2,25=1,30=1,70=32205,71=1,72=1,74=-55,75=-5,124=31/1,2,3;
 4/5=5,16=3,69=1/1;
 5/5=2,32=2,38=5,53=1/2;
 7//1,2,3,16;
 1/18=20,19=15,26=6/3(-5);
 2/9=110,17=4/2;
 6/7=2,8=2,9=2,10=2,19=2,28=1/1;
 99/9=1/99;
 --------------------------------------------
 29CA_carboxy_c2.M062X_6-311pGd_opt_water_GD3
 --------------------------------------------
 Symbolic Z-matrix:
 Charge = -1 Multiplicity = 1
 C                    -6.28739   1.36986  -0.05085 
 N                    -4.9497    0.83543  -0.03747 
 C                    -3.76993   1.5242   -0.03273 
 O                    -3.73774   2.74465  -0.04043 
 O                    -2.60606   0.8238   -0.01982 
 C                    -1.35601   1.41091  -0.0163 
 C                    -0.27908   0.32812  -0.00032 
 C                     1.11819   0.94258   0.00317 
 C                    -7.4633    0.59309  -0.17669 
 C                    -8.74388   1.18466  -0.18221 
 C                    -8.84614   2.59326  -0.05801 
 C                    -7.68664   3.36056   0.06608 
 C                    -6.43042   2.76001   0.06952 
 H                    -4.85594  -0.30613  -0.03052 
 H                    -1.24961   2.05325   0.88617 
 H                    -1.23776   2.03833  -0.92775 
 H                    -0.38994  -0.31672  -0.89908 
 H                    -0.40135  -0.30129   0.90785 
 H                     1.27004   1.5621   -0.90652 
 H                     1.88076   0.13574   0.01495 
 H                     1.25867   1.57786   0.90377 
 H                    -7.43246  -0.47616  -0.2734 
 C                    -9.93166   0.24849  -0.32334 
 Cl                   -10.37216   3.47393  -0.04839 
 H                    -7.75447   4.43696   0.16142 
 H                    -5.46561   3.45469   0.17798 
 F                    -9.92433  -0.65468   0.72462 
 F                    -11.15222   0.89221  -0.32121 
 F                    -9.82009  -0.44963  -1.51253 
 O                    -6.53182  -3.22013  -0.03243 
 O                    -4.33186  -2.82768  -0.01031 
 C                    -5.2483   -3.64313  -0.0157 
 C                    -4.97378  -5.12355  -0.00394 
 C                    -3.4834   -5.461     0.01496 
 H                    -5.43209  -5.57669  -0.90887 
 H                    -5.4525   -5.56613   0.89563 
 H                    -2.98329  -5.05081  -0.88828 
 H                    -3.35285  -6.56377   0.02287 
 H                    -3.00394  -5.04026   0.92452 
 
 Add virtual bond connecting atoms O31        and H14        Dist= 4.87D+00.

 GradGradGradGradGradGradGradGradGradGradGradGradGradGradGradGradGradGrad
 Berny optimization.
 Initialization pass.
                           ----------------------------
                           !    Initial Parameters    !
                           ! (Angstroms and Degrees)  !
 --------------------------                            --------------------------
 ! Name  Definition              Value          Derivative Info.                !
 --------------------------------------------------------------------------------
 ! R1    R(1,2)                  1.4406         calculate D2E/DX2 analytically  !
 ! R2    R(1,9)                  1.4149         calculate D2E/DX2 analytically  !
 ! R3    R(1,13)                 1.4027         calculate D2E/DX2 analytically  !
 ! R4    R(2,3)                  1.3661         calculate D2E/DX2 analytically  !
 ! R5    R(2,14)                 1.1454         calculate D2E/DX2 analytically  !
 ! R6    R(3,4)                  1.2209         calculate D2E/DX2 analytically  !
 ! R7    R(3,5)                  1.3584         calculate D2E/DX2 analytically  !
 ! R8    R(5,6)                  1.3811         calculate D2E/DX2 analytically  !
 ! R9    R(6,7)                  1.5272         calculate D2E/DX2 analytically  !
 ! R10   R(6,15)                 1.1128         calculate D2E/DX2 analytically  !
 ! R11   R(6,16)                 1.1128         calculate D2E/DX2 analytically  !
 ! R12   R(7,8)                  1.5264         calculate D2E/DX2 analytically  !
 ! R13   R(7,17)                 1.1117         calculate D2E/DX2 analytically  !
 ! R14   R(7,18)                 1.1117         calculate D2E/DX2 analytically  !
 ! R15   R(8,19)                 1.111          calculate D2E/DX2 analytically  !
 ! R16   R(8,20)                 1.1102         calculate D2E/DX2 analytically  !
 ! R17   R(8,21)                 1.111          calculate D2E/DX2 analytically  !
 ! R18   R(9,10)                 1.4106         calculate D2E/DX2 analytically  !
 ! R19   R(9,22)                 1.0741         calculate D2E/DX2 analytically  !
 ! R20   R(10,11)                1.4178         calculate D2E/DX2 analytically  !
 ! R21   R(10,23)                1.5189         calculate D2E/DX2 analytically  !
 ! R22   R(11,12)                1.3959         calculate D2E/DX2 analytically  !
 ! R23   R(11,24)                1.7619         calculate D2E/DX2 analytically  !
 ! R24   R(12,13)                1.3924         calculate D2E/DX2 analytically  !
 ! R25   R(12,25)                1.0827         calculate D2E/DX2 analytically  !
 ! R26   R(13,26)                1.1938         calculate D2E/DX2 analytically  !
 ! R27   R(14,31)                2.5755         calculate D2E/DX2 analytically  !
 ! R28   R(23,27)                1.3835         calculate D2E/DX2 analytically  !
 ! R29   R(23,28)                1.3799         calculate D2E/DX2 analytically  !
 ! R30   R(23,29)                1.3835         calculate D2E/DX2 analytically  !
 ! R31   R(30,32)                1.3515         calculate D2E/DX2 analytically  !
 ! R32   R(31,32)                1.2267         calculate D2E/DX2 analytically  !
 ! R33   R(32,33)                1.5057         calculate D2E/DX2 analytically  !
 ! R34   R(33,34)                1.5282         calculate D2E/DX2 analytically  !
 ! R35   R(33,35)                1.111          calculate D2E/DX2 analytically  !
 ! R36   R(33,36)                1.111          calculate D2E/DX2 analytically  !
 ! R37   R(34,37)                1.1109         calculate D2E/DX2 analytically  !
 ! R38   R(34,38)                1.1105         calculate D2E/DX2 analytically  !
 ! R39   R(34,39)                1.1109         calculate D2E/DX2 analytically  !
 ! A1    A(2,1,9)              124.6732         calculate D2E/DX2 analytically  !
 ! A2    A(2,1,13)             117.4885         calculate D2E/DX2 analytically  !
 ! A3    A(9,1,13)             117.8383         calculate D2E/DX2 analytically  !
 ! A4    A(1,2,3)              127.9455         calculate D2E/DX2 analytically  !
 ! A5    A(1,2,14)             116.4748         calculate D2E/DX2 analytically  !
 ! A6    A(3,2,14)             115.5798         calculate D2E/DX2 analytically  !
 ! A7    A(2,3,4)              121.7856         calculate D2E/DX2 analytically  !
 ! A8    A(2,3,5)              118.6845         calculate D2E/DX2 analytically  !
 ! A9    A(4,3,5)              119.5299         calculate D2E/DX2 analytically  !
 ! A10   A(3,5,6)              123.8029         calculate D2E/DX2 analytically  !
 ! A11   A(5,6,7)              109.687          calculate D2E/DX2 analytically  !
 ! A12   A(5,6,15)             109.5113         calculate D2E/DX2 analytically  !
 ! A13   A(5,6,16)             109.4981         calculate D2E/DX2 analytically  !
 ! A14   A(7,6,15)             109.4711         calculate D2E/DX2 analytically  !
 ! A15   A(7,6,16)             109.4735         calculate D2E/DX2 analytically  !
 ! A16   A(15,6,16)            109.1851         calculate D2E/DX2 analytically  !
 ! A17   A(6,7,8)              111.1069         calculate D2E/DX2 analytically  !
 ! A18   A(6,7,17)             109.4186         calculate D2E/DX2 analytically  !
 ! A19   A(6,7,18)             109.4143         calculate D2E/DX2 analytically  !
 ! A20   A(8,7,17)             109.0645         calculate D2E/DX2 analytically  !
 ! A21   A(8,7,18)             109.07           calculate D2E/DX2 analytically  !
 ! A22   A(17,7,18)            108.7276         calculate D2E/DX2 analytically  !
 ! A23   A(7,8,19)             110.347          calculate D2E/DX2 analytically  !
 ! A24   A(7,8,20)             109.6466         calculate D2E/DX2 analytically  !
 ! A25   A(7,8,21)             110.3511         calculate D2E/DX2 analytically  !
 ! A26   A(19,8,20)            108.6652         calculate D2E/DX2 analytically  !
 ! A27   A(19,8,21)            109.1221         calculate D2E/DX2 analytically  !
 ! A28   A(20,8,21)            108.6682         calculate D2E/DX2 analytically  !
 ! A29   A(1,9,10)             121.6404         calculate D2E/DX2 analytically  !
 ! A30   A(1,9,22)             122.0512         calculate D2E/DX2 analytically  !
 ! A31   A(10,9,22)            116.3085         calculate D2E/DX2 analytically  !
 ! A32   A(9,10,11)            118.8026         calculate D2E/DX2 analytically  !
 ! A33   A(9,10,23)            116.8583         calculate D2E/DX2 analytically  !
 ! A34   A(11,10,23)           124.3391         calculate D2E/DX2 analytically  !
 ! A35   A(10,11,12)           119.6038         calculate D2E/DX2 analytically  !
 ! A36   A(10,11,24)           124.0248         calculate D2E/DX2 analytically  !
 ! A37   A(12,11,24)           116.3714         calculate D2E/DX2 analytically  !
 ! A38   A(11,12,13)           120.8333         calculate D2E/DX2 analytically  !
 ! A39   A(11,12,25)           120.1487         calculate D2E/DX2 analytically  !
 ! A40   A(13,12,25)           119.018          calculate D2E/DX2 analytically  !
 ! A41   A(1,13,12)            121.2817         calculate D2E/DX2 analytically  !
 ! A42   A(1,13,26)            120.1386         calculate D2E/DX2 analytically  !
 ! A43   A(12,13,26)           118.5797         calculate D2E/DX2 analytically  !
 ! A44   A(10,23,27)           109.1375         calculate D2E/DX2 analytically  !
 ! A45   A(10,23,28)           113.8299         calculate D2E/DX2 analytically  !
 ! A46   A(10,23,29)           109.1362         calculate D2E/DX2 analytically  !
 ! A47   A(27,23,28)           107.9423         calculate D2E/DX2 analytically  !
 ! A48   A(27,23,29)           108.739          calculate D2E/DX2 analytically  !
 ! A49   A(28,23,29)           107.9423         calculate D2E/DX2 analytically  !
 ! A50   A(14,31,32)           119.9179         calculate D2E/DX2 analytically  !
 ! A51   A(30,32,31)           120.0977         calculate D2E/DX2 analytically  !
 ! A52   A(30,32,33)           118.7485         calculate D2E/DX2 analytically  !
 ! A53   A(31,32,33)           121.1538         calculate D2E/DX2 analytically  !
 ! A54   A(32,33,34)           113.2664         calculate D2E/DX2 analytically  !
 ! A55   A(32,33,35)           108.6297         calculate D2E/DX2 analytically  !
 ! A56   A(32,33,36)           108.6292         calculate D2E/DX2 analytically  !
 ! A57   A(34,33,35)           108.8034         calculate D2E/DX2 analytically  !
 ! A58   A(34,33,36)           108.7991         calculate D2E/DX2 analytically  !
 ! A59   A(35,33,36)           108.6201         calculate D2E/DX2 analytically  !
 ! A60   A(33,34,37)           110.3304         calculate D2E/DX2 analytically  !
 ! A61   A(33,34,38)           109.5125         calculate D2E/DX2 analytically  !
 ! A62   A(33,34,39)           110.3278         calculate D2E/DX2 analytically  !
 ! A63   A(37,34,38)           108.6342         calculate D2E/DX2 analytically  !
 ! A64   A(37,34,39)           109.3621         calculate D2E/DX2 analytically  !
 ! A65   A(38,34,39)           108.6338         calculate D2E/DX2 analytically  !
 ! A66   L(2,14,31,5,-1)       172.9538         calculate D2E/DX2 analytically  !
 ! A67   L(2,14,31,5,-2)       179.9429         calculate D2E/DX2 analytically  !
 ! D1    D(9,1,2,3)            173.9987         calculate D2E/DX2 analytically  !
 ! D2    D(9,1,2,14)            -5.9618         calculate D2E/DX2 analytically  !
 ! D3    D(13,1,2,3)            -5.9927         calculate D2E/DX2 analytically  !
 ! D4    D(13,1,2,14)          174.0469         calculate D2E/DX2 analytically  !
 ! D5    D(2,1,9,10)          -179.9987         calculate D2E/DX2 analytically  !
 ! D6    D(2,1,9,22)            -0.0185         calculate D2E/DX2 analytically  !
 ! D7    D(13,1,9,10)           -0.0073         calculate D2E/DX2 analytically  !
 ! D8    D(13,1,9,22)          179.9729         calculate D2E/DX2 analytically  !
 ! D9    D(2,1,13,12)         -179.9948         calculate D2E/DX2 analytically  !
 ! D10   D(2,1,13,26)           -0.0063         calculate D2E/DX2 analytically  !
 ! D11   D(9,1,13,12)            0.0133         calculate D2E/DX2 analytically  !
 ! D12   D(9,1,13,26)         -179.9983         calculate D2E/DX2 analytically  !
 ! D13   D(1,2,3,4)             -0.0285         calculate D2E/DX2 analytically  !
 ! D14   D(1,2,3,5)           -179.9921         calculate D2E/DX2 analytically  !
 ! D15   D(14,2,3,4)           179.9323         calculate D2E/DX2 analytically  !
 ! D16   D(14,2,3,5)            -0.0313         calculate D2E/DX2 analytically  !
 ! D17   D(1,2,31,32)            0.1918         calculate D2E/DX2 analytically  !
 ! D18   D(3,2,31,32)         -179.811          calculate D2E/DX2 analytically  !
 ! D19   D(2,3,5,6)            179.8825         calculate D2E/DX2 analytically  !
 ! D20   D(4,3,5,6)             -0.082          calculate D2E/DX2 analytically  !
 ! D21   D(3,5,6,7)            179.973          calculate D2E/DX2 analytically  !
 ! D22   D(3,5,6,15)            59.8158         calculate D2E/DX2 analytically  !
 ! D23   D(3,5,6,16)           -59.8749         calculate D2E/DX2 analytically  !
 ! D24   D(5,6,7,8)            179.9684         calculate D2E/DX2 analytically  !
 ! D25   D(5,6,7,17)            59.4833         calculate D2E/DX2 analytically  !
 ! D26   D(5,6,7,18)           -59.5424         calculate D2E/DX2 analytically  !
 ! D27   D(15,6,7,8)           -59.8499         calculate D2E/DX2 analytically  !
 ! D28   D(15,6,7,17)          179.665          calculate D2E/DX2 analytically  !
 ! D29   D(15,6,7,18)           60.6393         calculate D2E/DX2 analytically  !
 ! D30   D(16,6,7,8)            59.8014         calculate D2E/DX2 analytically  !
 ! D31   D(16,6,7,17)          -60.6838         calculate D2E/DX2 analytically  !
 ! D32   D(16,6,7,18)         -179.7094         calculate D2E/DX2 analytically  !
 ! D33   D(6,7,8,19)           -60.3484         calculate D2E/DX2 analytically  !
 ! D34   D(6,7,8,20)           179.9933         calculate D2E/DX2 analytically  !
 ! D35   D(6,7,8,21)            60.3287         calculate D2E/DX2 analytically  !
 ! D36   D(17,7,8,19)           60.3459         calculate D2E/DX2 analytically  !
 ! D37   D(17,7,8,20)          -59.3124         calculate D2E/DX2 analytically  !
 ! D38   D(17,7,8,21)         -178.9771         calculate D2E/DX2 analytically  !
 ! D39   D(18,7,8,19)          178.9592         calculate D2E/DX2 analytically  !
 ! D40   D(18,7,8,20)           59.3008         calculate D2E/DX2 analytically  !
 ! D41   D(18,7,8,21)          -60.3638         calculate D2E/DX2 analytically  !
 ! D42   D(1,9,10,11)           -0.0039         calculate D2E/DX2 analytically  !
 ! D43   D(1,9,10,23)          179.9936         calculate D2E/DX2 analytically  !
 ! D44   D(22,9,10,11)        -179.9851         calculate D2E/DX2 analytically  !
 ! D45   D(22,9,10,23)           0.0123         calculate D2E/DX2 analytically  !
 ! D46   D(9,10,11,12)           0.0094         calculate D2E/DX2 analytically  !
 ! D47   D(9,10,11,24)        -179.9957         calculate D2E/DX2 analytically  !
 ! D48   D(23,10,11,12)       -179.9878         calculate D2E/DX2 analytically  !
 ! D49   D(23,10,11,24)          0.0071         calculate D2E/DX2 analytically  !
 ! D50   D(9,10,23,27)          59.3503         calculate D2E/DX2 analytically  !
 ! D51   D(9,10,23,28)         179.9966         calculate D2E/DX2 analytically  !
 ! D52   D(9,10,23,29)         -59.358          calculate D2E/DX2 analytically  !
 ! D53   D(11,10,23,27)       -120.6524         calculate D2E/DX2 analytically  !
 ! D54   D(11,10,23,28)         -0.0061         calculate D2E/DX2 analytically  !
 ! D55   D(11,10,23,29)        120.6393         calculate D2E/DX2 analytically  !
 ! D56   D(10,11,12,13)         -0.0037         calculate D2E/DX2 analytically  !
 ! D57   D(10,11,12,25)        179.9971         calculate D2E/DX2 analytically  !
 ! D58   D(24,11,12,13)       -179.999          calculate D2E/DX2 analytically  !
 ! D59   D(24,11,12,25)          0.0018         calculate D2E/DX2 analytically  !
 ! D60   D(11,12,13,1)          -0.008          calculate D2E/DX2 analytically  !
 ! D61   D(11,12,13,26)       -179.9966         calculate D2E/DX2 analytically  !
 ! D62   D(25,12,13,1)         179.9913         calculate D2E/DX2 analytically  !
 ! D63   D(25,12,13,26)          0.0027         calculate D2E/DX2 analytically  !
 ! D64   D(14,31,32,30)          0.0103         calculate D2E/DX2 analytically  !
 ! D65   D(14,31,32,33)       -179.9885         calculate D2E/DX2 analytically  !
 ! D66   D(30,32,33,34)       -179.9846         calculate D2E/DX2 analytically  !
 ! D67   D(30,32,33,35)         59.0044         calculate D2E/DX2 analytically  !
 ! D68   D(30,32,33,36)        -58.9793         calculate D2E/DX2 analytically  !
 ! D69   D(31,32,33,34)          0.0142         calculate D2E/DX2 analytically  !
 ! D70   D(31,32,33,35)       -120.9969         calculate D2E/DX2 analytically  !
 ! D71   D(31,32,33,36)        121.0195         calculate D2E/DX2 analytically  !
 ! D72   D(32,33,34,37)        -60.4739         calculate D2E/DX2 analytically  !
 ! D73   D(32,33,34,38)       -179.9994         calculate D2E/DX2 analytically  !
 ! D74   D(32,33,34,39)         60.4772         calculate D2E/DX2 analytically  !
 ! D75   D(35,33,34,37)         60.4391         calculate D2E/DX2 analytically  !
 ! D76   D(35,33,34,38)        -59.0864         calculate D2E/DX2 analytically  !
 ! D77   D(35,33,34,39)       -178.6098         calculate D2E/DX2 analytically  !
 ! D78   D(36,33,34,37)        178.6168         calculate D2E/DX2 analytically  !
 ! D79   D(36,33,34,38)         59.0912         calculate D2E/DX2 analytically  !
 ! D80   D(36,33,34,39)        -60.4322         calculate D2E/DX2 analytically  !
 --------------------------------------------------------------------------------
 Trust Radius=3.00D-01 FncErr=5.00D-06 GrdErr=5.00D-06 EigMax=2.50D+02 EigMin=1.00D-04
 Number of steps in this run=    196 maximum allowed number of steps=    234.
 GradGradGradGradGradGradGradGradGradGradGradGradGradGradGradGradGradGrad

                          Input orientation:                          
 ---------------------------------------------------------------------
 Center     Atomic      Atomic             Coordinates (Angstroms)
 Number     Number       Type             X           Y           Z
 ---------------------------------------------------------------------
      1          6           0       -6.287390    1.369860   -0.050850
      2          7           0       -4.949700    0.835430   -0.037470
      3          6           0       -3.769930    1.524200   -0.032730
      4          8           0       -3.737740    2.744650   -0.040430
      5          8           0       -2.606060    0.823800   -0.019820
      6          6           0       -1.356010    1.410910   -0.016300
      7          6           0       -0.279080    0.328120   -0.000320
      8          6           0        1.118190    0.942580    0.003170
      9          6           0       -7.463300    0.593090   -0.176690
     10          6           0       -8.743880    1.184660   -0.182210
     11          6           0       -8.846140    2.593260   -0.058010
     12          6           0       -7.686640    3.360560    0.066080
     13          6           0       -6.430420    2.760010    0.069520
     14          1           0       -4.855940   -0.306130   -0.030520
     15          1           0       -1.249610    2.053250    0.886170
     16          1           0       -1.237760    2.038330   -0.927750
     17          1           0       -0.389940   -0.316720   -0.899080
     18          1           0       -0.401350   -0.301290    0.907850
     19          1           0        1.270040    1.562100   -0.906520
     20          1           0        1.880760    0.135740    0.014950
     21          1           0        1.258670    1.577860    0.903770
     22          1           0       -7.432460   -0.476160   -0.273400
     23          6           0       -9.931660    0.248490   -0.323340
     24         17           0      -10.372160    3.473930   -0.048390
     25          1           0       -7.754470    4.436960    0.161420
     26          1           0       -5.465610    3.454690    0.177980
     27          9           0       -9.924330   -0.654680    0.724620
     28          9           0      -11.152220    0.892210   -0.321210
     29          9           0       -9.820090   -0.449630   -1.512530
     30          8           0       -6.531820   -3.220130   -0.032430
     31          8           0       -4.331860   -2.827680   -0.010310
     32          6           0       -5.248300   -3.643130   -0.015700
     33          6           0       -4.973780   -5.123550   -0.003940
     34          6           0       -3.483400   -5.461000    0.014960
     35          1           0       -5.432090   -5.576690   -0.908870
     36          1           0       -5.452500   -5.566130    0.895630
     37          1           0       -2.983290   -5.050810   -0.888280
     38          1           0       -3.352850   -6.563770    0.022870
     39          1           0       -3.003940   -5.040260    0.924520
 ---------------------------------------------------------------------
                    Distance matrix (angstroms):
                    1          2          3          4          5
     1  C    0.000000
     2  N    1.440559   0.000000
     3  C    2.522252   1.366120   0.000000
     4  O    2.896700   2.261410   1.220899   0.000000
     5  O    3.721738   2.343735   1.358426   2.229527   0.000000
     6  C    4.931672   3.639538   2.416633   2.729850   1.381063
     7  C    6.098161   4.698237   3.690216   4.219426   2.379268
     8  C    7.418093   6.068972   4.922732   5.179712   3.726215
     9  C    1.414910   2.529090   3.811650   4.304367   4.865246
    10  C    2.466961   3.812966   4.987766   5.245485   6.150563
    11  C    2.836188   4.274650   5.187623   5.110673   6.486220
    12  C    2.436075   3.725298   4.326962   3.998062   5.679333
    13  C    1.402663   2.430635   2.935283   2.694968   4.287496
    14  H    2.204179   1.145425   2.128269   3.249266   2.517701
    15  H    5.169551   4.003356   2.734279   2.743613   2.042626
    16  H    5.168614   4.002258   2.734461   2.745200   2.042465
    17  H    6.192250   4.781342   3.945109   4.617037   2.642929
    18  H    6.193328   4.782599   3.945179   4.616111   2.643321
    19  H    7.608145   6.322062   5.115295   5.217892   4.044190
    20  H    8.261117   6.866404   5.818968   6.194919   4.539404
    21  H    7.609046   6.323053   5.115343   5.216994   4.044473
    22  H    2.183690   2.817806   4.180130   4.907020   5.004831
    23  C    3.822620   5.024554   6.299112   6.683973   7.354422
    24  Cl   4.594830   6.030330   6.884122   6.674387   8.205871
    25  H    3.406536   4.569170   4.939476   4.363345   6.292368
    26  H    2.252599   2.678265   2.578085   1.880796   3.890724
    27  F    4.234082   5.248633   6.572498   7.100327   7.503144
    28  F    4.895694   6.209266   7.414906   7.647541   8.551746
    29  F    4.234031   5.248607   6.533778   7.026058   7.476098
    30  O    4.596531   4.353240   5.489691   6.586771   5.636055
    31  O    4.630884   3.714948   4.388066   5.603994   4.038785
    32  C    5.119669   4.488556   5.374678   6.564003   5.189886
    33  C    6.625115   5.959123   6.755935   7.964779   6.401353
    34  C    7.384263   6.465123   6.991237   8.209778   6.345837
    35  H    7.051404   6.489015   7.345273   8.536376   7.052881
    36  H    7.049881   6.488717   7.346133   8.537311   7.054890
    37  H    7.269344   6.264062   6.676940   7.877642   5.950426
    38  H    8.459282   7.569791   8.098908   9.316589   7.425342
    39  H    7.267877   6.263796   6.677964   7.878732   5.952922
                    6          7          8          9         10
     6  C    0.000000
     7  C    1.527242   0.000000
     8  C    2.518209   1.526413   0.000000
     9  C    6.163890   7.191268   8.590487   0.000000
    10  C    7.393195   8.509970   9.866782   1.410628   0.000000
    11  C    7.582990   8.861642  10.100315   2.434545   1.417758
    12  C    6.624560   8.004502   9.131025   2.787061   2.431860
    13  C    5.251388   6.614979   7.764597   2.413090   2.810194
    14  H    3.898453   4.620696   6.103330   2.761936   4.166718
    15  H    1.112822   2.168840   2.760390   6.470833   7.619709
    16  H    1.112825   2.168873   2.760033   6.435072   7.591207
    17  H    2.167325   1.111701   2.162024   7.168126   8.518002
    18  H    2.167270   1.111701   2.162096   7.200506   8.543658
    19  H    2.776957   2.177999   1.111035   8.817191  10.047173
    20  H    3.479039   2.168445   1.110244   9.357209  10.678112
    21  H    2.776860   2.178050   1.111034   8.843638  10.069010
    22  H    6.367918   7.203630   8.671962   1.074057   2.118127
    23  C    8.659519   9.658312  11.076441   2.496609   1.518932
    24  Cl   9.249218  10.572071  11.765991   4.095994   2.812465
    25  H    7.080173   8.531716   9.537286   3.869682   3.416792
    26  H    4.593865   6.058657   7.048949   3.507893   4.003727
    27  F    8.844870   9.722257  11.180741   2.902750   2.366215
    28  F    9.814670  10.892490  12.274800   3.703848   2.430010
    29  F    8.794371   9.691365  11.130210   2.902790   2.366196
    30  O    6.945200   7.189427   8.709310   3.927991   4.931310
    31  O    5.178935   5.136555   6.627072   4.640611   5.966099
    32  C    6.379125   6.361149   7.846100   4.783064   5.962748
    33  C    7.469108   7.194507   8.597097   6.237590   7.351119
    34  C    7.193741   6.616782   7.885468   7.247644   8.477990
    35  H    8.138652   7.889598   9.286488   6.536672   7.563851
    36  H    8.141986   7.893617   9.291596   6.567281   7.587364
    37  H    6.720284   6.085566   7.316935   7.240888   8.518452
    38  H    8.220975   7.546307   8.737041   8.255681   9.441580
    39  H    6.724464   6.090952   7.323607   7.268644   8.539402
                   11         12         13         14         15
    11  C    0.000000
    12  C    1.395918   0.000000
    13  C    2.424824   1.392394   0.000000
    14  H    4.932435   4.633229   3.448218   0.000000
    15  H    7.674005   6.619438   5.292185   4.405974   0.000000
    16  H    7.678010   6.657630   5.336580   4.403719   1.814020
    17  H    8.982355   8.227743   6.847763   4.549688   3.089160
    18  H    8.979186   8.197144   6.813519   4.552355   2.502773
    19  H   10.203938   9.187085   7.853962   6.464154   3.131070
    20  H   11.005049  10.096396   8.715818   6.751329   3.772941
    21  H   10.201139   9.159602   7.824037   6.466125   2.552993
    22  H    3.386181   3.860087   3.405066   2.593522   6.780129
    23  C    2.597441   3.857038   4.326749   5.114321   8.949752
    24  Cl   1.761933   2.690348   4.007605   6.687141   9.279690
    25  H    2.153862   1.082741   2.138625   5.561944   6.965669
    26  H    3.496532   2.225838   1.193818   3.815617   4.498914
    27  F    3.510572   4.643607   4.929165   5.136176   9.088991
    28  F    2.877647   4.272352   5.092813   6.415891  10.043280
    29  F    3.510468   4.643400   4.928949   5.182637   9.245069
    30  O    6.257175   6.681975   5.981868   3.361543   7.520246
    31  O    7.054615   7.039510   5.969305   2.575516   5.841868
    32  C    7.199917   7.416459   6.511902   3.360020   7.017951
    33  C    8.634075   8.907561   8.017338   4.818934   8.134384
    34  C    9.676539   9.771886   8.733436   5.334662   7.887508
    35  H    8.895380   9.268655   8.453075   5.374221   8.884328
    36  H    8.888299   9.239336   8.423977   5.374127   8.701685
    37  H    9.669238   9.684186   8.591216   5.172481   7.524758
    38  H   10.678669  10.829401   9.818681   6.435852   8.911899
    39  H    9.662675   9.656002   8.562476   5.172426   7.307327
                   16         17         18         19         20
    16  H    0.000000
    17  H    2.503174   0.000000
    18  H    3.089147   1.807032   0.000000
    19  H    2.552706   2.507101   3.091554   0.000000
    20  H    3.772757   2.489227   2.489235   1.804602   0.000000
    21  H    3.130281   3.091539   2.507367   1.810394   1.804635
    22  H    6.717525   7.072057   7.131791   8.960405   9.337753
    23  C    8.896782   9.575769   9.625222  11.293527  11.817801
    24  Cl   9.288244  10.711555  10.704379  11.829298  12.699668
    25  H    7.029027   8.829407   8.779325   9.531374  10.552706
    26  H    4.593847   6.414516   6.347190   7.080044   8.062950
    27  F    9.243329   9.677562   9.531296  11.527734  11.852786
    28  F    9.998900  10.845373  10.886516  12.454071  13.059243
    29  F    8.954792   9.451017   9.725889  11.287395  11.814641
    30  O    7.515322   6.848618   6.854664   9.192539   9.057351
    31  O    5.838939   4.757475   4.761783   7.173189   6.883251
    32  C    7.013933   5.953908   5.959343   8.389084   8.068723
    33  C    8.130424   6.702125   6.707657   9.192271   8.639746
    34  C    7.884894   6.071950   6.076092   8.530431   7.752271
    35  H    8.693750   7.286334   7.512567   9.791878   9.325399
    36  H    8.883499   7.510446   7.296082   9.962527   9.330789
    37  H    7.300982   5.397887   5.696529   7.862679   7.167643
    38  H    8.909176   6.975275   6.979484   9.394926   8.501422
    39  H    7.527067   5.698275   5.406625   8.075319   7.174858
                   21         22         23         24         25
    21  H    0.000000
    22  H    9.007800   0.000000
    23  C   11.335630   2.602616   0.000000
    24  Cl  11.822770   4.929064   3.266971   0.000000
    25  H    9.484842   4.942824   4.745359   2.797096   0.000000
    26  H    7.018918   4.418577   5.520565   4.911807   2.490785
    27  F   11.405079   2.690229   1.383470   4.224159   5.563298
    28  F   12.490031   3.963753   1.379908   2.710757   4.933851
    29  F   11.519034   2.690153   1.383471   4.224075   5.563062
    30  O    9.197223   2.898032   4.865682   7.717442   7.756512
    31  O    7.176235   3.900331   6.396762   8.729087   8.032356
    32  C    8.393141   3.855731   6.096984   8.769695   8.461685
    33  C    9.196536   5.264594   7.317199  10.151904   9.958059
    34  C    8.533625   6.366071   8.619326  11.282376  10.781146
    35  H    9.961903   5.515497   7.383881  10.346905  10.334997
    36  H    9.801860   5.585219   7.440334  10.335227  10.290770
    37  H    8.071241   6.410976   8.756802  11.312471  10.671636
    38  H    9.398311   7.334166   9.476681  12.248723  11.849452
    39  H    7.872089   6.471307   8.804620  11.301710  10.628620
                   26         27         28         29         30
    26  H    0.000000
    27  F    6.088179   0.000000
    28  F    6.257238   2.234803   0.000000
    29  F    6.087942   2.248945   2.234804   0.000000
    30  O    6.762714   4.320160   6.192159   4.547426   0.000000
    31  O    6.386628   6.044648   7.775060   6.167046   2.234800
    32  C    7.103787   5.598586   7.451102   5.774098   1.351530
    33  C    8.594253   6.708915   8.629203   6.899862   2.459941
    34  C    9.134838   8.067832   9.964291   8.221964   3.783729
    35  H    9.096603   6.861100   8.655166   6.775374   2.744254
    36  H    9.049331   6.644460   8.699291   7.145184   2.744074
    37  H    8.924256   8.372899  10.117928   8.264525   4.083618
    38  H   10.239988   8.865334  10.795379   9.031354   4.613983
    39  H    8.875884   8.195430  10.155812   8.571639   4.083450
                   31         32         33         34         35
    31  O    0.000000
    32  C    1.226723   0.000000
    33  C    2.383930   1.505703   0.000000
    34  C    2.766748   2.533863   1.528222   0.000000
    35  H    3.094345   2.137799   1.110983   2.159685   0.000000
    36  H    3.094458   2.137791   1.110980   2.159627   1.804646
    37  H    2.744409   2.805928   2.179312   1.110949   2.504715
    38  H    3.862374   3.482005   2.168494   1.110499   2.483084
    39  H    2.744593   2.805911   2.179276   1.110947   3.089496
                   36         37         38         39
    36  H    0.000000
    37  H    3.089480   0.000000
    38  H    2.483048   1.804388   0.000000
    39  H    2.504560   1.812948   1.804382   0.000000
 Stoichiometry    C14H16ClF3NO4(1-)
 Framework group  C1[X(C14H16ClF3NO4)]
 Deg. of freedom   111
 Full point group                 C1      NOp   1
 Largest Abelian subgroup         C1      NOp   1
 Largest concise Abelian subgroup C1      NOp   1
                         Standard orientation:                         
 ---------------------------------------------------------------------
 Center     Atomic      Atomic             Coordinates (Angstroms)
 Number     Number       Type             X           Y           Z
 ---------------------------------------------------------------------
      1          6           0       -0.557504   -1.018972   -0.034272
      2          7           0        0.880077   -0.928026   -0.016969
      3          6           0        1.786143   -1.949980    0.013646
      4          8           0        1.436094   -3.119494    0.030903
      5          8           0        3.110339   -1.647194    0.025749
      6          6           0        4.114828   -2.594429    0.058669
      7          6           0        5.475711   -1.901284    0.062726
      8          6           0        6.611519   -2.920358    0.099669
      9          6           0       -1.435168    0.087189    0.055639
     10          6           0       -2.836137   -0.075952    0.032361
     11          6           0       -3.369616   -1.384315   -0.084357
     12          6           0       -2.504626   -2.476341   -0.173010
     13          6           0       -1.124044   -2.297049   -0.148345
     14          1           0        1.325158    0.127313   -0.029663
     15          1           0        4.035764   -3.251270   -0.836139
     16          1           0        4.011262   -3.213877    0.977330
     17          1           0        5.551401   -1.240734    0.953693
     18          1           0        5.576006   -1.278644   -0.852774
     19          1           0        6.542372   -3.542792    1.017380
     20          1           0        7.587673   -2.391432    0.101790
     21          1           0        6.566987   -3.581078   -0.792442
     22          1           0       -1.074706    1.094958    0.145463
     23          6           0       -3.675727    1.185586    0.136111
     24         17           0       -5.093515   -1.745921   -0.127033
     25          1           0       -2.902485   -3.479362   -0.262367
     26          1           0       -0.421702   -3.259206   -0.226914
     27          9           0       -3.363870    2.025898   -0.917744
     28          9           0       -5.035769    0.954088    0.107106
     29          9           0       -3.378611    1.831790    1.322759
     30          8           0        0.641575    3.418031   -0.091818
     31          8           0        2.609489    2.359614   -0.054384
     32          6           0        1.993038    3.419924   -0.078464
     33          6           0        2.715566    4.740857   -0.093728
     34          6           0        4.236905    4.597005   -0.076596
     35          1           0        2.401312    5.327575    0.795817
     36          1           0        2.418833    5.297131   -1.008487
     37          1           0        4.563972    4.064899    0.842153
     38          1           0        4.704863    5.604015   -0.089023
     39          1           0        4.581452    4.034416   -0.970455
 ---------------------------------------------------------------------
 Rotational constants (GHZ):           0.2362393           0.1123277           0.0775349
 Standard basis: 6-311+G(d) (5D, 7F)
 There are   585 symmetry adapted cartesian basis functions of A   symmetry.
 There are   562 symmetry adapted basis functions of A   symmetry.
   562 basis functions,   925 primitive gaussians,   585 cartesian basis functions
    92 alpha electrons       92 beta electrons
       nuclear repulsion energy      2034.4274962290 Hartrees.
 NAtoms=   39 NActive=   39 NUniq=   39 SFac= 1.00D+00 NAtFMM=   60 NAOKFM=F Big=F
 Integral buffers will be    131072 words long.
 Raffenetti 2 integral format.
 Two-electron integral symmetry is turned on.
 Nuclear repulsion after empirical dispersion term =     2034.4254231714 Hartrees.
 Force inversion solution in PCM.
 ------------------------------------------------------------------------------
 Polarizable Continuum Model (PCM)
 =================================
 Model                : PCM.
 Atomic radii         : SMD-Coulomb.
 Polarization charges : Total charges.
 Charge compensation  : None.
 Solution method      : Matrix inversion.
 Cavity type          : VdW (van der Waals Surface) (Alpha=1.000).
 Cavity algorithm     : GePol (No added spheres)
                        Default sphere list used, NSphG=   39.
                        Lebedev-Laikov grids with approx.  5.0 points / Ang**2.
                        Smoothing algorithm: York/Karplus (Gamma=1.0000).
                        Polarization charges: spherical gaussians, with
                                              point-specific exponents (IZeta= 3).
                        Self-potential: point-specific (ISelfS= 7).
                        Self-field    : sphere-specific E.n sum rule (ISelfD= 2).
 1st derivatives      : Analytical E(r).r(x)/FMM algorithm (CHGder, D1EAlg=3).
                        Cavity 1st derivative terms included.
 2nd derivatives      : Analytical E(r).r(xy)/FMM algorithm (CHGder, D2EAlg=3).
                        Cavity 2nd derivative terms included.
 Solvent              : Water, Eps=  78.355300 Eps(inf)=   1.777849
 ------------------------------------------------------------------------------
 ------------------------------------------------------------------------------
 Atomic radii for non-electrostatic terms: SMD-CDS.
 ------------------------------------------------------------------------------
 Nuclear repulsion after PCM non-electrostatic terms =     2034.4435151806 Hartrees.
 One-electron integrals computed using PRISM.
 NBasis=   562 RedAO= T EigKep=  2.39D-06  NBF=   562
 NBsUse=   559 1.00D-06 EigRej=  9.65D-07 NBFU=   559
 ExpMin= 4.38D-02 ExpMax= 1.06D+05 ExpMxC= 3.62D+03 IAcc=3 IRadAn=         5 AccDes= 0.00D+00
 Harris functional with IExCor= 1009 and IRadAn=       5 diagonalized for initial guess.
 HarFok:  IExCor= 1009 AccDes= 0.00D+00 IRadAn=         5 IDoV= 1 UseB2=F ITyADJ=14
 ICtDFT=  3500011 ScaDFX=  1.000000  1.000000  1.000000  1.000000
 FoFCou: FMM=F IPFlag=           0 FMFlag=      100000 FMFlg1=           0
         NFxFlg=           0 DoJE=T BraDBF=F KetDBF=T FulRan=T
         wScrn=  0.000000 ICntrl=       500 IOpCl=  0 I1Cent=   200000004 NGrid=           0
         NMat0=    1 NMatS0=      1 NMatT0=    0 NMatD0=    1 NMtDS0=    0 NMtDT0=    0
 Petite list used in FoFCou.
 Requested convergence on RMS density matrix=1.00D-08 within 128 cycles.
 Requested convergence on MAX density matrix=1.00D-06.
 Requested convergence on             energy=1.00D-06.
 No special actions if energy rises.
 Inv3:  Mode=1 IEnd=    30394467.
 Iteration    1 A*A^-1 deviation from unit magnitude is 4.66D-15 for   3153.
 Iteration    1 A*A^-1 deviation from orthogonality  is 2.44D-15 for   2514    846.
 Iteration    1 A^-1*A deviation from unit magnitude is 5.77D-15 for   3153.
 Iteration    1 A^-1*A deviation from orthogonality  is 3.60D-14 for   2577   2524.
 Error on total polarization charges =  0.06375
 SCF Done:  E(RM062X) =  -1658.53871766     A.U. after   15 cycles
            NFock= 15  Conv=0.68D-08     -V/T= 2.0037
 SMD-CDS (non-electrostatic) energy       (kcal/mol) =      11.35
 (included in total energy above)
 DoSCS=F DFT=T ScalE2(SS,OS)=  1.000000  1.000000
 Range of M.O.s used for correlation:     1   559
 NBasis=   562 NAE=    92 NBE=    92 NFC=     0 NFV=     0
 NROrb=    559 NOA=    92 NOB=    92 NVA=   467 NVB=   467

 **** Warning!!: The largest alpha MO coefficient is  0.10902565D+03

 Symmetrizing basis deriv contribution to polar:
 IMax=3 JMax=2 DiffMx= 0.00D+00
 G2DrvN: will do    40 centers at a time, making    1 passes.
 Calling FoFCou, ICntrl=  3107 FMM=F I1Cent=   0 AccDes= 0.00D+00.
 NEqPCM:  Using equilibrium solvation (IEInf=0, Eps=  78.3553, EpsInf=   1.7778)
 G2PCM: DoFxE=T DoFxN=T DoGrad=T DoDP/DQ/DG/TGxP=FFFF NFrqRd=   0 IEInf=0 SqF1=F DoCFld=F IF1Alg=4.
 End of G2Drv F.D. properties file   721 does not exist.
 End of G2Drv F.D. properties file   722 does not exist.
 End of G2Drv F.D. properties file   788 does not exist.
          IDoAtm=111111111111111111111111111111111111111
 NEqPCM:  Using equilibrium solvation (IEInf=0, Eps=  78.3553, EpsInf=   1.7778)
          Differentiating once with respect to nuclear coordinates.
 CalDSu exits because no D1Ps are significant.
          There are   120 degrees of freedom in the 1st order CPHF.  IDoFFX=6 NUNeed=     0.
    114 vectors produced by pass  0 Test12= 4.30D-14 1.00D-09 XBig12= 3.02D-01 1.67D-01.
 AX will form    64 AO Fock derivatives at one time.
    114 vectors produced by pass  1 Test12= 4.30D-14 1.00D-09 XBig12= 2.10D-02 4.10D-02.
    114 vectors produced by pass  2 Test12= 4.30D-14 1.00D-09 XBig12= 1.18D-03 4.72D-03.
    114 vectors produced by pass  3 Test12= 4.30D-14 1.00D-09 XBig12= 1.09D-05 3.66D-04.
    114 vectors produced by pass  4 Test12= 4.30D-14 1.00D-09 XBig12= 6.34D-08 2.43D-05.
    114 vectors produced by pass  5 Test12= 4.30D-14 1.00D-09 XBig12= 4.22D-10 1.99D-06.
     95 vectors produced by pass  6 Test12= 4.30D-14 1.00D-09 XBig12= 2.05D-12 1.52D-07.
     36 vectors produced by pass  7 Test12= 4.30D-14 1.00D-09 XBig12= 8.07D-15 8.37D-09.
 InvSVY:  IOpt=1 It=  1 EMax= 6.66D-16
 Solved reduced A of dimension   815 with   120 vectors.
 End of Minotr F.D. properties file   721 does not exist.
 End of Minotr F.D. properties file   722 does not exist.
 End of Minotr F.D. properties file   788 does not exist.

 **********************************************************************

            Population analysis using the SCF Density.

 **********************************************************************

 Orbital symmetries:
       Occupied  (A) (A) (A) (A) (A) (A) (A) (A) (A) (A) (A) (A)
                 (A) (A) (A) (A) (A) (A) (A) (A) (A) (A) (A) (A)
                 (A) (A) (A) (A) (A) (A) (A) (A) (A) (A) (A) (A)
                 (A) (A) (A) (A) (A) (A) (A) (A) (A) (A) (A) (A)
                 (A) (A) (A) (A) (A) (A) (A) (A) (A) (A) (A) (A)
                 (A) (A) (A) (A) (A) (A) (A) (A) (A) (A) (A) (A)
                 (A) (A) (A) (A) (A) (A) (A) (A) (A) (A) (A) (A)
                 (A) (A) (A) (A) (A) (A) (A) (A)
       Virtual   (A) (A) (A) (A) (A) (A) (A) (A) (A) (A) (A) (A)
                 (A) (A) (A) (A) (A) (A) (A) (A) (A) (A) (A) (A)
                 (A) (A) (A) (A) (A) (A) (A) (A) (A) (A) (A) (A)
                 (A) (A) (A) (A) (A) (A) (A) (A) (A) (A) (A) (A)
                 (A) (A) (A) (A) (A) (A) (A) (A) (A) (A) (A) (A)
                 (A) (A) (A) (A) (A) (A) (A) (A) (A) (A) (A) (A)
                 (A) (A) (A) (A) (A) (A) (A) (A) (A) (A) (A) (A)
                 (A) (A) (A) (A) (A) (A) (A) (A) (A) (A) (A) (A)
                 (A) (A) (A) (A) (A) (A) (A) (A) (A) (A) (A) (A)
                 (A) (A) (A) (A) (A) (A) (A) (A) (A) (A) (A) (A)
                 (A) (A) (A) (A) (A) (A) (A) (A) (A) (A) (A) (A)
                 (A) (A) (A) (A) (A) (A) (A) (A) (A) (A) (A) (A)
                 (A) (A) (A) (A) (A) (A) (A) (A) (A) (A) (A) (A)
                 (A) (A) (A) (A) (A) (A) (A) (A) (A) (A) (A) (A)
                 (A) (A) (A) (A) (A) (A) (A) (A) (A) (A) (A) (A)
                 (A) (A) (A) (A) (A) (A) (A) (A) (A) (A) (A) (A)
                 (A) (A) (A) (A) (A) (A) (A) (A) (A) (A) (A) (A)
                 (A) (A) (A) (A) (A) (A) (A) (A) (A) (A) (A) (A)
                 (A) (A) (A) (A) (A) (A) (A) (A) (A) (A) (A) (A)
                 (A) (A) (A) (A) (A) (A) (A) (A) (A) (A) (A) (A)
                 (A) (A) (A) (A) (A) (A) (A) (A) (A) (A) (A) (A)
                 (A) (A) (A) (A) (A) (A) (A) (A) (A) (A) (A) (A)
                 (A) (A) (A) (A) (A) (A) (A) (A) (A) (A) (A) (A)
                 (A) (A) (A) (A) (A) (A) (A) (A) (A) (A) (A) (A)
                 (A) (A) (A) (A) (A) (A) (A) (A) (A) (A) (A) (A)
                 (A) (A) (A) (A) (A) (A) (A) (A) (A) (A) (A) (A)
                 (A) (A) (A) (A) (A) (A) (A) (A) (A) (A) (A) (A)
                 (A) (A) (A) (A) (A) (A) (A) (A) (A) (A) (A) (A)
                 (A) (A) (A) (A) (A) (A) (A) (A) (A) (A) (A) (A)
                 (A) (A) (A) (A) (A) (A) (A) (A) (A) (A) (A) (A)
                 (A) (A) (A) (A) (A) (A) (A) (A) (A) (A) (A) (A)
                 (A) (A) (A) (A) (A) (A) (A) (A) (A) (A) (A) (A)
                 (A) (A) (A) (A) (A) (A) (A) (A) (A) (A) (A) (A)
                 (A) (A) (A) (A) (A) (A) (A) (A) (A) (A) (A) (A)
                 (A) (A) (A) (A) (A) (A) (A) (A) (A) (A) (A) (A)
                 (A) (A) (A) (A) (A) (A) (A) (A) (A) (A) (A) (A)
                 (A) (A) (A) (A) (A) (A) (A) (A) (A) (A) (A) (A)
                 (A) (A) (A) (A) (A) (A) (A) (A) (A) (A) (A) (A)
                 (A) (A) (A) (A) (A) (A) (A) (A) (A) (A) (A)
 The electronic state is 1-A.
 Alpha  occ. eigenvalues -- -102.68527 -25.29077 -25.28852 -25.28851 -19.67338
 Alpha  occ. eigenvalues --  -19.61245 -19.58300 -19.56042 -14.81204 -10.82727
 Alpha  occ. eigenvalues --  -10.72196 -10.63800 -10.63090 -10.62474 -10.60149
 Alpha  occ. eigenvalues --  -10.59267 -10.58000 -10.56642 -10.56517 -10.53394
 Alpha  occ. eigenvalues --  -10.53143 -10.52403 -10.52040  -9.82786  -7.55306
 Alpha  occ. eigenvalues --   -7.54625  -7.54594  -1.45637  -1.37789  -1.37638
 Alpha  occ. eigenvalues --   -1.25329  -1.16019  -1.15738  -1.05504  -1.03351
 Alpha  occ. eigenvalues --   -1.00790  -0.94798  -0.90231  -0.88737  -0.85803
 Alpha  occ. eigenvalues --   -0.85027  -0.81446  -0.79173  -0.73300  -0.72527
 Alpha  occ. eigenvalues --   -0.71675  -0.69721  -0.69296  -0.68267  -0.66646
 Alpha  occ. eigenvalues --   -0.64938  -0.62863  -0.59087  -0.58948  -0.58692
 Alpha  occ. eigenvalues --   -0.58326  -0.58106  -0.57948  -0.55700  -0.54526
 Alpha  occ. eigenvalues --   -0.54371  -0.53105  -0.52932  -0.52830  -0.52769
 Alpha  occ. eigenvalues --   -0.52667  -0.51697  -0.50717  -0.49756  -0.48845
 Alpha  occ. eigenvalues --   -0.48582  -0.46882  -0.45611  -0.45570  -0.44632
 Alpha  occ. eigenvalues --   -0.44002  -0.43550  -0.42844  -0.42125  -0.40845
 Alpha  occ. eigenvalues --   -0.39780  -0.39653  -0.39154  -0.38417  -0.37667
 Alpha  occ. eigenvalues --   -0.36993  -0.35794  -0.33370  -0.32906  -0.32542
 Alpha  occ. eigenvalues --   -0.31426  -0.28975
 Alpha virt. eigenvalues --   -0.01606  -0.00527   0.01246   0.01851   0.02671
 Alpha virt. eigenvalues --    0.02829   0.03509   0.03600   0.03798   0.04198
 Alpha virt. eigenvalues --    0.04958   0.05052   0.05436   0.05696   0.06380
 Alpha virt. eigenvalues --    0.06488   0.06805   0.07012   0.07297   0.07389
 Alpha virt. eigenvalues --    0.07712   0.07829   0.08343   0.08631   0.08939
 Alpha virt. eigenvalues --    0.09308   0.09330   0.09586   0.09814   0.09999
 Alpha virt. eigenvalues --    0.11118   0.11214   0.11508   0.12493   0.12684
 Alpha virt. eigenvalues --    0.12853   0.13002   0.13419   0.13579   0.14187
 Alpha virt. eigenvalues --    0.14368   0.14700   0.15059   0.15208   0.15609
 Alpha virt. eigenvalues --    0.16409   0.16523   0.17243   0.17332   0.17831
 Alpha virt. eigenvalues --    0.18566   0.18877   0.19225   0.19678   0.20012
 Alpha virt. eigenvalues --    0.20408   0.20599   0.20993   0.21092   0.21396
 Alpha virt. eigenvalues --    0.21501   0.21569   0.22516   0.22719   0.23239
 Alpha virt. eigenvalues --    0.23433   0.23827   0.23960   0.24204   0.24534
 Alpha virt. eigenvalues --    0.25134   0.25486   0.25776   0.26239   0.26515
 Alpha virt. eigenvalues --    0.26889   0.26903   0.27359   0.27495   0.27894
 Alpha virt. eigenvalues --    0.28162   0.28303   0.28510   0.28776   0.28970
 Alpha virt. eigenvalues --    0.29071   0.29585   0.29936   0.30570   0.30689
 Alpha virt. eigenvalues --    0.31037   0.31291   0.31917   0.32193   0.32393
 Alpha virt. eigenvalues --    0.32743   0.33407   0.33835   0.34230   0.34647
 Alpha virt. eigenvalues --    0.34815   0.35295   0.35904   0.36263   0.36555
 Alpha virt. eigenvalues --    0.37098   0.37437   0.37911   0.38223   0.39188
 Alpha virt. eigenvalues --    0.39431   0.39817   0.40301   0.41432   0.42437
 Alpha virt. eigenvalues --    0.42900   0.43080   0.43802   0.44388   0.44847
 Alpha virt. eigenvalues --    0.45040   0.45272   0.45952   0.46462   0.47038
 Alpha virt. eigenvalues --    0.47790   0.48189   0.48470   0.49097   0.49694
 Alpha virt. eigenvalues --    0.50003   0.51123   0.51906   0.52477   0.53262
 Alpha virt. eigenvalues --    0.53877   0.54541   0.54816   0.55138   0.56314
 Alpha virt. eigenvalues --    0.56786   0.58273   0.58783   0.59724   0.60079
 Alpha virt. eigenvalues --    0.60809   0.61453   0.61925   0.62359   0.62824
 Alpha virt. eigenvalues --    0.63420   0.63783   0.64785   0.65412   0.66216
 Alpha virt. eigenvalues --    0.66689   0.68089   0.68445   0.68851   0.69703
 Alpha virt. eigenvalues --    0.70176   0.70431   0.70938   0.71090   0.71525
 Alpha virt. eigenvalues --    0.71800   0.71898   0.72778   0.73255   0.73352
 Alpha virt. eigenvalues --    0.74106   0.74860   0.75438   0.75914   0.76824
 Alpha virt. eigenvalues --    0.77600   0.77754   0.78203   0.78746   0.78807
 Alpha virt. eigenvalues --    0.80054   0.81976   0.83266   0.83705   0.85481
 Alpha virt. eigenvalues --    0.87778   0.87822   0.89245   0.90980   0.91749
 Alpha virt. eigenvalues --    0.92373   0.92629   0.93192   0.94130   0.94558
 Alpha virt. eigenvalues --    0.94823   0.96025   0.97163   0.98695   0.99085
 Alpha virt. eigenvalues --    1.00759   1.02350   1.02618   1.03895   1.04415
 Alpha virt. eigenvalues --    1.05226   1.07588   1.08005   1.08573   1.09912
 Alpha virt. eigenvalues --    1.10313   1.11505   1.12544   1.13603   1.14210
 Alpha virt. eigenvalues --    1.15532   1.17191   1.18385   1.19728   1.20445
 Alpha virt. eigenvalues --    1.21676   1.22321   1.23499   1.23706   1.24219
 Alpha virt. eigenvalues --    1.24788   1.25186   1.26628   1.26744   1.30004
 Alpha virt. eigenvalues --    1.31156   1.33010   1.33978   1.35071   1.37371
 Alpha virt. eigenvalues --    1.37956   1.38523   1.39554   1.40524   1.41884
 Alpha virt. eigenvalues --    1.42344   1.44115   1.44695   1.45216   1.45628
 Alpha virt. eigenvalues --    1.46698   1.48562   1.51512   1.51641   1.52614
 Alpha virt. eigenvalues --    1.53000   1.53718   1.54054   1.55064   1.57121
 Alpha virt. eigenvalues --    1.58281   1.58723   1.59189   1.60136   1.60947
 Alpha virt. eigenvalues --    1.61754   1.62801   1.63195   1.63941   1.64340
 Alpha virt. eigenvalues --    1.64914   1.66333   1.67857   1.69200   1.69356
 Alpha virt. eigenvalues --    1.70701   1.72230   1.73918   1.75679   1.77117
 Alpha virt. eigenvalues --    1.77549   1.78351   1.78799   1.78978   1.79825
 Alpha virt. eigenvalues --    1.80547   1.82321   1.85185   1.85407   1.86262
 Alpha virt. eigenvalues --    1.87040   1.87914   1.88362   1.90135   1.91120
 Alpha virt. eigenvalues --    1.91742   1.93182   1.94313   1.94891   1.98009
 Alpha virt. eigenvalues --    1.99802   2.00490   2.01915   2.03269   2.04988
 Alpha virt. eigenvalues --    2.10165   2.10970   2.12749   2.15895   2.17848
 Alpha virt. eigenvalues --    2.18803   2.20312   2.21374   2.22136   2.24132
 Alpha virt. eigenvalues --    2.30550   2.34092   2.35867   2.36320   2.38915
 Alpha virt. eigenvalues --    2.40730   2.46015   2.46885   2.50123   2.52759
 Alpha virt. eigenvalues --    2.53015   2.53226   2.55175   2.55651   2.56693
 Alpha virt. eigenvalues --    2.57279   2.58563   2.58910   2.59579   2.60910
 Alpha virt. eigenvalues --    2.62828   2.65911   2.66499   2.68162   2.69779
 Alpha virt. eigenvalues --    2.72986   2.73682   2.76087   2.77790   2.81489
 Alpha virt. eigenvalues --    2.83343   2.84345   2.89094   2.93301   2.94027
 Alpha virt. eigenvalues --    2.95286   2.96294   2.96616   2.97429   2.97573
 Alpha virt. eigenvalues --    2.98074   2.98509   2.99259   3.02366   3.03715
 Alpha virt. eigenvalues --    3.04617   3.06995   3.07822   3.08282   3.10522
 Alpha virt. eigenvalues --    3.11272   3.17471   3.17798   3.17956   3.19685
 Alpha virt. eigenvalues --    3.19843   3.21610   3.22321   3.24025   3.27130
 Alpha virt. eigenvalues --    3.27396   3.27977   3.29196   3.31303   3.31975
 Alpha virt. eigenvalues --    3.33710   3.35863   3.36342   3.40012   3.41571
 Alpha virt. eigenvalues --    3.42196   3.43836   3.45949   3.51827   3.59570
 Alpha virt. eigenvalues --    3.65371   3.68527   3.71806   3.72413   3.72823
 Alpha virt. eigenvalues --    3.78451   3.80035   3.83634   3.84025   3.85376
 Alpha virt. eigenvalues --    3.85911   3.86032   3.86697   3.88800   3.93897
 Alpha virt. eigenvalues --    3.97689   3.97988   4.00562   4.02080   4.06149
 Alpha virt. eigenvalues --    4.07052   4.15800   4.16394   4.17759   4.18405
 Alpha virt. eigenvalues --    4.19618   4.20409   4.23791   4.44916   4.70234
 Alpha virt. eigenvalues --    4.79541   4.92161   4.95075   5.05295   5.10578
 Alpha virt. eigenvalues --    5.15992   5.16698   5.20788   5.31288   5.36364
 Alpha virt. eigenvalues --    5.38116   5.45937   5.65733   5.80555   5.95955
 Alpha virt. eigenvalues --    6.00068   6.43882   6.47966   6.49377   6.50937
 Alpha virt. eigenvalues --    6.52522   6.58894   6.60941   6.80572   6.83939
 Alpha virt. eigenvalues --    9.97666  23.41742  23.58692  23.59326  23.61719
 Alpha virt. eigenvalues --   23.74204  23.80518  23.81130  23.87980  23.89889
 Alpha virt. eigenvalues --   23.91367  23.91869  24.02586  24.06179  24.15752
 Alpha virt. eigenvalues --   25.93917  26.28371  26.74991  35.63937  50.01887
 Alpha virt. eigenvalues --   50.04054  50.13230  50.13672  66.86579  66.90075
 Alpha virt. eigenvalues --   66.95511 216.08094
          Condensed to atoms (all electrons):
               1          2          3          4          5          6
     1  C   20.163052  -0.287710  -1.156451  -0.171553  -0.154973  -0.619746
     2  N   -0.287710   7.465699   0.332175  -0.031280  -0.183649  -0.284595
     3  C   -1.156451   0.332175   8.421983   0.498379   0.266819  -0.566514
     4  O   -0.171553  -0.031280   0.498379   8.214596  -0.192829  -0.174656
     5  O   -0.154973  -0.183649   0.266819  -0.192829   8.403956   0.264288
     6  C   -0.619746  -0.284595  -0.566514  -0.174656   0.264288   8.108130
     7  C   -0.005924   0.033364   0.178622   0.026779  -0.151734  -0.874659
     8  C   -0.013890  -0.008772  -0.230452  -0.000942   0.023964   0.313541
     9  C    0.056020   0.080774   0.915228  -0.062192  -0.035476   0.188296
    10  C   -4.829584  -0.072219  -0.006175  -0.029854   0.003982  -0.008320
    11  C   -0.397543   0.058301  -0.848682  -0.006723  -0.013982  -0.056254
    12  C   -2.633051   0.217159  -1.064236   0.110523  -0.014344  -0.144774
    13  C   -1.490580  -0.035183  -0.889200   0.248979  -0.037388  -0.465308
    14  H   -0.074902   0.195181   0.007619  -0.000208   0.033114   0.008924
    15  H    0.006749   0.003262   0.021323   0.000984  -0.049821   0.383360
    16  H    0.008100   0.002730   0.032801   0.002030  -0.049198   0.370000
    17  H    0.000024  -0.000883   0.001264  -0.000292   0.002125  -0.063671
    18  H   -0.000084  -0.000833   0.002652  -0.000248   0.001967  -0.061374
    19  H   -0.000064  -0.000053  -0.001928  -0.000066  -0.000343  -0.043930
    20  H    0.000087   0.000032   0.007073   0.000024  -0.000751   0.084152
    21  H   -0.000129  -0.000030  -0.001591  -0.000055  -0.000299  -0.045717
    22  H   -0.117442  -0.010450   0.000899  -0.000071  -0.000134  -0.000003
    23  C   -2.377028  -0.007455  -0.056845  -0.002621   0.001933  -0.001241
    24  Cl  -0.063681   0.001023  -0.037862  -0.000300   0.000021  -0.001078
    25  H    0.009473  -0.001965   0.002725   0.000224   0.000034   0.000061
    26  H    0.020919  -0.016756   0.105667  -0.009694   0.001737   0.012929
    27  F   -0.002967   0.000526  -0.001112  -0.000005  -0.000003   0.000005
    28  F    0.050635   0.000430   0.000176   0.000002   0.000001  -0.000003
    29  F    0.048099   0.001290   0.001266   0.000000  -0.000000   0.000028
    30  O    0.017960  -0.011239   0.002194  -0.000023   0.000208  -0.000854
    31  O    0.009644  -0.002649  -0.004519   0.000114   0.004550  -0.005432
    32  C   -0.052700  -0.002713   0.014919   0.000125  -0.001330   0.002892
    33  C    0.037349  -0.004659   0.006976   0.000118   0.000545   0.003418
    34  C    0.001713   0.000263  -0.001819  -0.000042  -0.000403  -0.000754
    35  H   -0.000265   0.000005   0.000023  -0.000000  -0.000000  -0.000015
    36  H   -0.000004   0.000006  -0.000009   0.000000   0.000000  -0.000011
    37  H    0.000038   0.000050  -0.000059   0.000000  -0.000001   0.000073
    38  H    0.000029  -0.000013   0.000011  -0.000000   0.000000  -0.000011
    39  H   -0.000300   0.000066   0.000033   0.000000  -0.000003   0.000031
               7          8          9         10         11         12
     1  C   -0.005924  -0.013890   0.056020  -4.829584  -0.397543  -2.633051
     2  N    0.033364  -0.008772   0.080774  -0.072219   0.058301   0.217159
     3  C    0.178622  -0.230452   0.915228  -0.006175  -0.848682  -1.064236
     4  O    0.026779  -0.000942  -0.062192  -0.029854  -0.006723   0.110523
     5  O   -0.151734   0.023964  -0.035476   0.003982  -0.013982  -0.014344
     6  C   -0.874659   0.313541   0.188296  -0.008320  -0.056254  -0.144774
     7  C    6.411416  -0.215712   0.010070  -0.001038   0.001675   0.001416
     8  C   -0.215712   6.248027   0.002939  -0.000004  -0.000539  -0.002538
     9  C    0.010070   0.002939  11.134535  -2.429215   1.000508   0.825081
    10  C   -0.001038  -0.000004  -2.429215  21.896640  -1.250054  -5.896868
    11  C    0.001675  -0.000539   1.000508  -1.250054  12.756394   0.838935
    12  C    0.001416  -0.002538   0.825081  -5.896868   0.838935  15.801961
    13  C    0.011095  -0.016429  -2.649396   1.377835  -5.348149  -1.136130
    14  H   -0.001372  -0.000063  -0.015988   0.029013  -0.008535   0.000632
    15  H   -0.026035  -0.013396   0.000861   0.000171   0.000022  -0.000560
    16  H   -0.023996  -0.017022  -0.000401   0.000020   0.000040  -0.000153
    17  H    0.451528  -0.058232   0.000075   0.000012   0.000001  -0.000005
    18  H    0.448402  -0.058801  -0.000076   0.000005   0.000002   0.000028
    19  H    0.013100   0.372274   0.000006  -0.000000   0.000000  -0.000000
    20  H   -0.131935   0.387822  -0.000009   0.000000   0.000000   0.000002
    21  H    0.017357   0.369479   0.000006  -0.000000   0.000000   0.000002
    22  H    0.000001   0.000002   0.286461   0.059917  -0.028386  -0.037467
    23  C   -0.000335  -0.000003  -3.132190  -1.912791  -0.434794  -1.342314
    24  Cl  -0.000011  -0.000003   0.057600  -0.095388  -0.366738   0.254593
    25  H   -0.000001   0.000000  -0.030467   0.108045  -0.051699   0.209836
    26  H   -0.000849   0.000098   0.003878  -0.026722  -0.026853  -0.078530
    27  F    0.000000   0.000000   0.002606   0.054138  -0.021717   0.002417
    28  F   -0.000000  -0.000000   0.186848  -0.201769  -0.048354   0.105253
    29  F    0.000000   0.000000   0.081887  -0.023032  -0.025054   0.002498
    30  O    0.000265  -0.000005  -0.004968  -0.017967  -0.000795  -0.001551
    31  O    0.003510   0.000355  -0.024475   0.000613   0.000362   0.002216
    32  C   -0.000894  -0.000556   0.037044   0.021312  -0.002925   0.001520
    33  C   -0.000298   0.001010  -0.030482  -0.022228  -0.001406   0.000596
    34  C    0.000273  -0.000715  -0.000980   0.001008   0.000083   0.000067
    35  H    0.000012  -0.000000   0.000272   0.000120  -0.000002  -0.000001
    36  H    0.000010   0.000000  -0.000014   0.000010   0.000001  -0.000001
    37  H    0.000047   0.000051  -0.000133  -0.000024   0.000000   0.000001
    38  H   -0.000007  -0.000003   0.000002   0.000002  -0.000000   0.000000
    39  H    0.000091   0.000047   0.000170   0.000005  -0.000000  -0.000000
              13         14         15         16         17         18
     1  C   -1.490580  -0.074902   0.006749   0.008100   0.000024  -0.000084
     2  N   -0.035183   0.195181   0.003262   0.002730  -0.000883  -0.000833
     3  C   -0.889200   0.007619   0.021323   0.032801   0.001264   0.002652
     4  O    0.248979  -0.000208   0.000984   0.002030  -0.000292  -0.000248
     5  O   -0.037388   0.033114  -0.049821  -0.049198   0.002125   0.001967
     6  C   -0.465308   0.008924   0.383360   0.370000  -0.063671  -0.061374
     7  C    0.011095  -0.001372  -0.026035  -0.023996   0.451528   0.448402
     8  C   -0.016429  -0.000063  -0.013396  -0.017022  -0.058232  -0.058801
     9  C   -2.649396  -0.015988   0.000861  -0.000401   0.000075  -0.000076
    10  C    1.377835   0.029013   0.000171   0.000020   0.000012   0.000005
    11  C   -5.348149  -0.008535   0.000022   0.000040   0.000001   0.000002
    12  C   -1.136130   0.000632  -0.000560  -0.000153  -0.000005   0.000028
    13  C   15.624022   0.040425  -0.004324  -0.001438  -0.000124   0.000260
    14  H    0.040425   0.261260   0.000001   0.000004   0.000002  -0.000001
    15  H   -0.004324   0.000001   0.445126  -0.040060   0.005095  -0.007875
    16  H   -0.001438   0.000004  -0.040060   0.445028  -0.007832   0.005075
    17  H   -0.000124   0.000002   0.005095  -0.007832   0.439591  -0.033417
    18  H    0.000260  -0.000001  -0.007875   0.005075  -0.033417   0.439563
    19  H   -0.000017  -0.000000  -0.000590   0.003631  -0.007676   0.006074
    20  H    0.000050   0.000000  -0.000147  -0.000158  -0.003539  -0.003568
    21  H    0.000033   0.000000   0.003655  -0.000553   0.006078  -0.007712
    22  H    0.016788   0.003236  -0.000000  -0.000000  -0.000000  -0.000000
    23  C    1.404446   0.009085   0.000003  -0.000001   0.000000   0.000001
    24  Cl  -0.639241   0.000050   0.000000   0.000000   0.000000   0.000000
    25  H    0.071193   0.000001   0.000000  -0.000000   0.000000   0.000000
    26  H    0.324435  -0.000058  -0.000068  -0.000026  -0.000001  -0.000000
    27  F   -0.006833   0.000006   0.000000   0.000000  -0.000000   0.000000
    28  F    0.024165   0.000002  -0.000000  -0.000000   0.000000   0.000000
    29  F   -0.012975   0.000016   0.000000  -0.000000   0.000000  -0.000000
    30  O   -0.004764   0.010604  -0.000000   0.000000  -0.000000   0.000000
    31  O    0.015788   0.019302   0.000011   0.000007  -0.000013  -0.000018
    32  C   -0.013731  -0.003451  -0.000010   0.000009   0.000139   0.000116
    33  C   -0.006195   0.001433  -0.000012   0.000001  -0.000211  -0.000193
    34  C    0.000493   0.000057   0.000005   0.000006   0.000154   0.000162
    35  H    0.000001   0.000002   0.000000   0.000000  -0.000000  -0.000000
    36  H   -0.000017   0.000003   0.000000   0.000000  -0.000000  -0.000000
    37  H   -0.000011  -0.000021  -0.000000  -0.000000  -0.000007  -0.000003
    38  H    0.000003   0.000004   0.000000  -0.000000   0.000000   0.000000
    39  H   -0.000008  -0.000025   0.000000  -0.000000  -0.000003  -0.000008
              19         20         21         22         23         24
     1  C   -0.000064   0.000087  -0.000129  -0.117442  -2.377028  -0.063681
     2  N   -0.000053   0.000032  -0.000030  -0.010450  -0.007455   0.001023
     3  C   -0.001928   0.007073  -0.001591   0.000899  -0.056845  -0.037862
     4  O   -0.000066   0.000024  -0.000055  -0.000071  -0.002621  -0.000300
     5  O   -0.000343  -0.000751  -0.000299  -0.000134   0.001933   0.000021
     6  C   -0.043930   0.084152  -0.045717  -0.000003  -0.001241  -0.001078
     7  C    0.013100  -0.131935   0.017357   0.000001  -0.000335  -0.000011
     8  C    0.372274   0.387822   0.369479   0.000002  -0.000003  -0.000003
     9  C    0.000006  -0.000009   0.000006   0.286461  -3.132190   0.057600
    10  C   -0.000000   0.000000  -0.000000   0.059917  -1.912791  -0.095388
    11  C    0.000000   0.000000   0.000000  -0.028386  -0.434794  -0.366738
    12  C   -0.000000   0.000002   0.000002  -0.037467  -1.342314   0.254593
    13  C   -0.000017   0.000050   0.000033   0.016788   1.404446  -0.639241
    14  H   -0.000000   0.000000   0.000000   0.003236   0.009085   0.000050
    15  H   -0.000590  -0.000147   0.003655  -0.000000   0.000003   0.000000
    16  H    0.003631  -0.000158  -0.000553  -0.000000  -0.000001   0.000000
    17  H   -0.007676  -0.003539   0.006078  -0.000000   0.000000   0.000000
    18  H    0.006074  -0.003568  -0.007712  -0.000000   0.000001   0.000000
    19  H    0.449636  -0.023158  -0.034403  -0.000000  -0.000000  -0.000000
    20  H   -0.023158   0.426103  -0.023221   0.000000   0.000000   0.000000
    21  H   -0.034403  -0.023221   0.449710  -0.000000  -0.000000  -0.000000
    22  H   -0.000000   0.000000  -0.000000   0.341281   0.126424  -0.000683
    23  C   -0.000000   0.000000  -0.000000   0.126424  13.417278  -0.164081
    24  Cl  -0.000000   0.000000  -0.000000  -0.000683  -0.164081  17.687894
    25  H    0.000000  -0.000000  -0.000000   0.000046   0.025753  -0.025362
    26  H   -0.000000   0.000000  -0.000000  -0.000058  -0.000730   0.000905
    27  F    0.000000  -0.000000   0.000000  -0.000440   0.139875   0.004115
    28  F   -0.000000   0.000000  -0.000000   0.000168  -0.016075  -0.027094
    29  F    0.000000  -0.000000   0.000000   0.000148   0.097865   0.003735
    30  O    0.000000   0.000000   0.000000   0.007967   0.019258   0.000007
    31  O    0.000000   0.000001   0.000000   0.000507   0.001621   0.000011
    32  C    0.000001  -0.000003   0.000000  -0.000803  -0.018889  -0.000211
    33  C   -0.000002   0.000004  -0.000002   0.002299  -0.003246  -0.000099
    34  C    0.000002  -0.000008   0.000003  -0.000046  -0.000250   0.000003
    35  H    0.000000  -0.000000   0.000000  -0.000005  -0.000041   0.000000
    36  H    0.000000  -0.000000   0.000000   0.000005  -0.000034   0.000000
    37  H   -0.000000   0.000000  -0.000000   0.000001  -0.000005  -0.000000
    38  H    0.000000  -0.000000   0.000000  -0.000000   0.000002   0.000000
    39  H   -0.000000   0.000000  -0.000000  -0.000000  -0.000004  -0.000000
              25         26         27         28         29         30
     1  C    0.009473   0.020919  -0.002967   0.050635   0.048099   0.017960
     2  N   -0.001965  -0.016756   0.000526   0.000430   0.001290  -0.011239
     3  C    0.002725   0.105667  -0.001112   0.000176   0.001266   0.002194
     4  O    0.000224  -0.009694  -0.000005   0.000002   0.000000  -0.000023
     5  O    0.000034   0.001737  -0.000003   0.000001  -0.000000   0.000208
     6  C    0.000061   0.012929   0.000005  -0.000003   0.000028  -0.000854
     7  C   -0.000001  -0.000849   0.000000  -0.000000   0.000000   0.000265
     8  C    0.000000   0.000098   0.000000  -0.000000   0.000000  -0.000005
     9  C   -0.030467   0.003878   0.002606   0.186848   0.081887  -0.004968
    10  C    0.108045  -0.026722   0.054138  -0.201769  -0.023032  -0.017967
    11  C   -0.051699  -0.026853  -0.021717  -0.048354  -0.025054  -0.000795
    12  C    0.209836  -0.078530   0.002417   0.105253   0.002498  -0.001551
    13  C    0.071193   0.324435  -0.006833   0.024165  -0.012975  -0.004764
    14  H    0.000001  -0.000058   0.000006   0.000002   0.000016   0.010604
    15  H    0.000000  -0.000068   0.000000  -0.000000   0.000000  -0.000000
    16  H   -0.000000  -0.000026   0.000000  -0.000000  -0.000000   0.000000
    17  H    0.000000  -0.000001  -0.000000   0.000000   0.000000  -0.000000
    18  H    0.000000  -0.000000   0.000000   0.000000  -0.000000   0.000000
    19  H    0.000000  -0.000000   0.000000  -0.000000   0.000000   0.000000
    20  H   -0.000000   0.000000  -0.000000   0.000000  -0.000000   0.000000
    21  H   -0.000000  -0.000000   0.000000  -0.000000   0.000000   0.000000
    22  H    0.000046  -0.000058  -0.000440   0.000168   0.000148   0.007967
    23  C    0.025753  -0.000730   0.139875  -0.016075   0.097865   0.019258
    24  Cl  -0.025362   0.000905   0.004115  -0.027094   0.003735   0.000007
    25  H    0.366605  -0.003265   0.000015   0.000018   0.000017  -0.000000
    26  H   -0.003265   0.353495   0.000002  -0.000002  -0.000002  -0.000004
    27  F    0.000015   0.000002   8.976809  -0.024182  -0.050771  -0.000083
    28  F    0.000018  -0.000002  -0.024182   9.080122  -0.024318  -0.000019
    29  F    0.000017  -0.000002  -0.050771  -0.024318   8.970150  -0.001047
    30  O   -0.000000  -0.000004  -0.000083  -0.000019  -0.001047   8.720658
    31  O   -0.000000   0.000001   0.000019  -0.000000  -0.000004  -0.163980
    32  C   -0.000005   0.000031  -0.000005  -0.000035   0.000248   0.360011
    33  C   -0.000000   0.000005  -0.000114   0.000022   0.000463  -0.206127
    34  C   -0.000000   0.000000  -0.000008  -0.000000  -0.000003   0.016581
    35  H    0.000000  -0.000000   0.000000  -0.000000   0.000000  -0.003236
    36  H   -0.000000   0.000000  -0.000000  -0.000000  -0.000000  -0.002262
    37  H   -0.000000   0.000000  -0.000000  -0.000000  -0.000000  -0.000275
    38  H    0.000000  -0.000000   0.000000   0.000000   0.000000  -0.000338
    39  H    0.000000   0.000000   0.000000   0.000000   0.000000  -0.000495
              31         32         33         34         35         36
     1  C    0.009644  -0.052700   0.037349   0.001713  -0.000265  -0.000004
     2  N   -0.002649  -0.002713  -0.004659   0.000263   0.000005   0.000006
     3  C   -0.004519   0.014919   0.006976  -0.001819   0.000023  -0.000009
     4  O    0.000114   0.000125   0.000118  -0.000042  -0.000000   0.000000
     5  O    0.004550  -0.001330   0.000545  -0.000403  -0.000000   0.000000
     6  C   -0.005432   0.002892   0.003418  -0.000754  -0.000015  -0.000011
     7  C    0.003510  -0.000894  -0.000298   0.000273   0.000012   0.000010
     8  C    0.000355  -0.000556   0.001010  -0.000715  -0.000000   0.000000
     9  C   -0.024475   0.037044  -0.030482  -0.000980   0.000272  -0.000014
    10  C    0.000613   0.021312  -0.022228   0.001008   0.000120   0.000010
    11  C    0.000362  -0.002925  -0.001406   0.000083  -0.000002   0.000001
    12  C    0.002216   0.001520   0.000596   0.000067  -0.000001  -0.000001
    13  C    0.015788  -0.013731  -0.006195   0.000493   0.000001  -0.000017
    14  H    0.019302  -0.003451   0.001433   0.000057   0.000002   0.000003
    15  H    0.000011  -0.000010  -0.000012   0.000005   0.000000   0.000000
    16  H    0.000007   0.000009   0.000001   0.000006   0.000000   0.000000
    17  H   -0.000013   0.000139  -0.000211   0.000154  -0.000000  -0.000000
    18  H   -0.000018   0.000116  -0.000193   0.000162  -0.000000  -0.000000
    19  H    0.000000   0.000001  -0.000002   0.000002   0.000000   0.000000
    20  H    0.000001  -0.000003   0.000004  -0.000008  -0.000000  -0.000000
    21  H    0.000000   0.000000  -0.000002   0.000003   0.000000   0.000000
    22  H    0.000507  -0.000803   0.002299  -0.000046  -0.000005   0.000005
    23  C    0.001621  -0.018889  -0.003246  -0.000250  -0.000041  -0.000034
    24  Cl   0.000011  -0.000211  -0.000099   0.000003   0.000000   0.000000
    25  H   -0.000000  -0.000005  -0.000000  -0.000000   0.000000  -0.000000
    26  H    0.000001   0.000031   0.000005   0.000000  -0.000000   0.000000
    27  F    0.000019  -0.000005  -0.000114  -0.000008   0.000000  -0.000000
    28  F   -0.000000  -0.000035   0.000022  -0.000000  -0.000000  -0.000000
    29  F   -0.000004   0.000248   0.000463  -0.000003   0.000000  -0.000000
    30  O   -0.163980   0.360011  -0.206127   0.016581  -0.003236  -0.002262
    31  O    8.507858   0.304693  -0.136690   0.009590   0.001547   0.001322
    32  C    0.304693   5.592635  -0.538775   0.170994  -0.039636  -0.056864
    33  C   -0.136690  -0.538775   6.790838  -0.273801   0.418095   0.435873
    34  C    0.009590   0.170994  -0.273801   5.967914  -0.051551  -0.052207
    35  H    0.001547  -0.039636   0.418095  -0.051551   0.419146  -0.026958
    36  H    0.001322  -0.056864   0.435873  -0.052207  -0.026958   0.418544
    37  H   -0.003116  -0.031702  -0.004223   0.382214  -0.007425   0.005610
    38  H    0.002104   0.060750  -0.118412   0.404387  -0.002986  -0.002941
    39  H   -0.003133  -0.019714  -0.016715   0.382622   0.005636  -0.007338
              37         38         39
     1  C    0.000038   0.000029  -0.000300
     2  N    0.000050  -0.000013   0.000066
     3  C   -0.000059   0.000011   0.000033
     4  O    0.000000  -0.000000   0.000000
     5  O   -0.000001   0.000000  -0.000003
     6  C    0.000073  -0.000011   0.000031
     7  C    0.000047  -0.000007   0.000091
     8  C    0.000051  -0.000003   0.000047
     9  C   -0.000133   0.000002   0.000170
    10  C   -0.000024   0.000002   0.000005
    11  C    0.000000  -0.000000  -0.000000
    12  C    0.000001   0.000000  -0.000000
    13  C   -0.000011   0.000003  -0.000008
    14  H   -0.000021   0.000004  -0.000025
    15  H   -0.000000   0.000000   0.000000
    16  H   -0.000000  -0.000000  -0.000000
    17  H   -0.000007   0.000000  -0.000003
    18  H   -0.000003   0.000000  -0.000008
    19  H   -0.000000   0.000000  -0.000000
    20  H    0.000000  -0.000000   0.000000
    21  H   -0.000000   0.000000  -0.000000
    22  H    0.000001  -0.000000  -0.000000
    23  C   -0.000005   0.000002  -0.000004
    24  Cl  -0.000000   0.000000  -0.000000
    25  H   -0.000000   0.000000   0.000000
    26  H    0.000000  -0.000000   0.000000
    27  F   -0.000000   0.000000   0.000000
    28  F   -0.000000   0.000000   0.000000
    29  F   -0.000000   0.000000   0.000000
    30  O   -0.000275  -0.000338  -0.000495
    31  O   -0.003116   0.002104  -0.003133
    32  C   -0.031702   0.060750  -0.019714
    33  C   -0.004223  -0.118412  -0.016715
    34  C    0.382214   0.404387   0.382622
    35  H   -0.007425  -0.002986   0.005636
    36  H    0.005610  -0.002941  -0.007338
    37  H    0.453266  -0.026358  -0.032574
    38  H   -0.026358   0.438912  -0.026372
    39  H   -0.032574  -0.026372   0.453020
 Mulliken charges:
               1
     1  C    0.020682
     2  N   -0.429229
     3  C    0.046626
     4  O   -0.419223
     5  O   -0.122584
     6  C   -0.321207
     7  C   -0.174234
     8  C   -1.081531
     9  C   -0.454707
    10  C   -0.729596
    11  C    0.282860
    12  C   -0.022209
    13  C   -0.402568
    14  H    0.484646
    15  H    0.272269
[...]
 87,0.01193358,0.02292719,0.00252397,-0.01107734,-0.02809707,0.05281684
 ,-0.00016980,-0.00001408,-0.00000313,0.00004594,-0.00057963,-0.0000272
 1,0.00024451,0.00007527,-0.00002968,-0.00007643,-0.00011128,0.00002065
 ,-0.00007559,0.00000386,0.00000392,0.00002685,0.00000684,-0.00000370,-
 0.00000234,-0.00000927,-0.00000269,-0.00000088,0.00000388,0.00000098,0
 .00001922,0.00003061,-0.00000158,0.00000059,0.00000873,0.00000181,-0.0
 0000149,-0.00000059,0.00000218,-0.00000461,-0.00000827,-0.00000403,0.0
 0004635,-0.00001940,0.00000485,-0.00016110,0.00092592,0.00006874,-0.00
 000576,-0.00000154,0.00000077,-0.00000521,-0.00000268,0.00000078,0.000
 00033,0.00000271,0.00000206,0.00000173,0.00000210,-0.00000044,-0.00000
 010,-0.00000041,0.00000036,-0.00000173,-0.00000018,-0.00000012,0.00000
 031,0.00000021,-0.00000008,-0.00001586,0.00000881,-0.00000331,-0.00000
 915,-0.00001185,-0.00000625,0.00001017,-0.00000303,-0.00000011,0.00000
 433,-0.00000143,-0.00000073,-0.00000163,0.00000290,0.00000063,0.000005
 11,0.00000544,0.00000144,0.00000391,0.00000190,-0.00000102,0.00000390,
 0.00000154,0.00000444,-0.00199072,0.00095118,0.00320951,-0.00146245,-0
 .00749033,0.00315969,0.00494523,-0.01013641,-0.03357821,0.01293319,-0.
 08316270,-0.09574013,-0.00051835,0.00156772,0.00576583,-0.01323559,0.0
 9010579,-0.00002327,0.00000211,0.00000051,-0.00001356,-0.00004393,0.00
 001665,0.00002955,0.00000767,-0.00000538,-0.00000920,-0.00001578,0.000
 00250,-0.00000781,-0.00000594,-0.00000054,0.00000394,0.00000367,-0.000
 00027,-0.00000235,-0.00000275,-0.00000119,0.00000061,0.00000044,-0.000
 00024,0.00000711,0.00000360,-0.00000037,-0.00000038,0.00000291,-0.0000
 0062,-0.00000016,0.00000116,0.00000045,-0.00000160,-0.00000008,-0.0000
 0006,0.00000578,-0.00000346,-0.00000160,0.00002010,0.00006768,-0.00003
 568,-0.00000107,-0.00000032,0.,-0.00000053,-0.00000105,0.00000059,0.00
 000086,0.00000210,0.00000123,0.00000136,0.00000115,0.00000084,-0.00000
 038,-0.00000056,0.00000064,-0.00000042,0.00000030,-0.00000033,-0.00000
 004,0.00000019,-0.00000010,0.00000159,-0.00001833,-0.00000267,-0.00000
 023,-0.00000397,-0.00000594,0.00000160,-0.00000052,0.00000007,0.000000
 50,-0.00000015,-0.00000011,-0.00000034,0.00000052,-0.00000053,-0.00000
 042,0.00000206,0.00000283,-0.00000082,0.00000012,0.00000175,0.00000082
 ,0.00000029,0.00000200,-0.00018079,0.00094441,0.00095029,0.00117639,-0
 .00004151,-0.00010447,-0.00227308,0.00144541,0.00227059,0.02281115,-0.
 09381821,-0.27254042,0.00115709,-0.00493346,-0.01428511,-0.02153907,0.
 10099757,0.29609035,-0.00000261,0.00000067,-0.00000010,0.00001074,0.00
 002057,-0.00002925,-0.00001797,-0.00000017,-0.00000111,0.00000506,0.00
 000136,0.00000205,0.00000690,-0.00000903,-0.00000548,-0.00000045,0.000
 00428,0.00000018,-0.00000277,-0.00000302,0.00000364,0.00000044,0.00000
 003,-0.00000079,-0.00000083,0.00000963,-0.00000393,0.00000121,0.000001
 86,0.00000232,0.00000067,-0.00000005,-0.00000135,-0.00000075,0.0000006
 4,-0.00000035,0.00000225,0.00000022,0.00000361,-0.00001902,-0.00005182
 ,0.00005489,-0.00000037,-0.00000127,-0.00000015,0.00000028,-0.00000039
 ,0.00000050,0.00000229,0.00000393,-0.00000175,0.00000204,0.00000247,0.
 00000095,-0.00000025,-0.00000019,0.00000041,0.00000066,0.00000020,0.,-
 0.00000033,-0.00000040,-0.00000040,0.00001076,-0.00003619,0.00000301,0
 .00000394,-0.00000395,0.00000026,-0.00000124,0.00000089,0.00000042,-0.
 00000006,0.,-0.00000020,-0.00000033,0.00000054,0.,-0.00000229,0.000001
 55,0.00000160,-0.00000134,0.00000013,0.00000110,-0.00000169,0.00000016
 ,-0.00000163,-0.00043928,0.00131329,0.00002429,0.00013276,0.00081071,0
 .00169949,0.00599871,0.00305914,-0.00662481,-0.19356502,-0.09904692,0.
 08723306,-0.02125010,-0.01308189,0.01211756,-0.00272755,-0.00124589,0.
 00184922,0.21335375,-0.00012779,-0.00000621,-0.00000236,-0.00003332,-0
 .00049057,0.00009795,0.00021300,0.00006432,-0.00000993,-0.00006865,-0.
 00010005,0.00000509,-0.00005470,0.00001453,0.00000794,0.00002110,0.000
 00820,-0.00000225,-0.00000299,-0.00000405,-0.00000013,0.00000008,0.000
 00263,-0.00000006,0.00002914,0.00000311,0.00001168,-0.00000344,-0.0000
 0484,-0.00000035,0.00000062,0.00000256,-0.00000183,-0.00000233,-0.0000
 0648,-0.00000218,0.00002828,-0.00001854,-0.00001110,0.00000533,0.00078
 280,-0.00018680,-0.00000295,-0.00000068,-0.00000030,-0.00000346,-0.000
 00143,0.00000001,0.00000035,-0.00000070,0.00000022,0.00000050,0.000000
 50,-0.00000019,-0.00000015,-0.00000020,0.00000024,-0.00000136,-0.00000
 008,0.00000014,-0.00000030,-0.00000044,-0.00000030,-0.00000688,0.00000
 627,0.00000593,-0.00001504,-0.00002325,0.00000239,0.00001273,-0.000006
 68,-0.00000009,0.00000323,-0.00000168,0.00000114,-0.00000038,0.0000001
 7,0.00000026,0.00001046,0.00000368,-0.00000124,0.00000770,0.00000522,-
 0.00000646,0.00000668,0.00000348,0.00000310,0.00231439,0.00151044,-0.0
 0310960,0.00290911,-0.00638607,-0.00364148,-0.02690664,-0.01464862,0.0
 1781635,-0.10097494,-0.11344237,0.06334469,0.00492942,0.00262968,-0.00
 299446,0.01012174,0.00692201,-0.00542359,0.10705467,0.12216561,0.00001
 331,0.00000635,0.00000596,0.00000011,0.00003642,0.00001002,-0.00002841
 ,-0.00001633,0.00000357,0.00000821,0.00001585,-0.00000255,0.00001077,0
 .00000154,-0.00000030,-0.00000496,0.00000171,0.00000016,-0.00000274,-0
 .00000526,0.00000010,-0.00000008,0.00000093,-0.00000004,-0.00000852,0.
 00000871,-0.00000423,0.00000213,0.00000290,-0.00000009,0.00000141,0.00
 000121,0.00000220,-0.00000193,0.00000169,-0.00000139,-0.00000158,0.000
 00202,-0.00000103,0.00001835,-0.00007980,-0.00001758,0.00000042,0.0000
 0012,0.00000037,0.00000108,-0.00000046,-0.00000025,0.00000143,0.000003
 91,0.00000103,0.00000113,0.00000174,-0.00000004,0.00000025,0.00000001,
 -0.00000016,0.00000051,-0.00000020,-0.00000004,0.00000030,0.00000022,0
 .00000021,0.00000621,-0.00001465,-0.00000578,0.00000817,0.00000636,0.0
 0000374,-0.00000371,0.00000210,-0.00000020,-0.00000059,0.00000028,0.00
 000023,0.00000003,0.00000030,0.00000055,-0.00000710,0.00000039,-0.0000
 0094,-0.00000321,-0.00000155,0.00000085,-0.00000341,-0.00000111,-0.000
 00264,-0.00155639,0.00099395,0.00005906,0.00029411,0.00012199,-0.00026
 399,0.00158936,-0.00226833,-0.00161806,0.08746253,0.06135011,-0.096396
 25,-0.01454395,-0.00981245,0.00827997,0.02164360,0.01594570,-0.0134341
 1,-0.09309702,-0.06622512,0.10294358,-0.00000813,0.00000768,-0.0000040
 7,0.00000122,0.00000867,-0.00000218,-0.00001486,0.00000454,-0.00000029
 ,0.00000330,-0.00000425,-0.00000113,0.00000710,-0.00000901,-0.00000114
 ,0.00001200,0.00003184,0.00000089,-0.00003265,-0.00006302,-0.00000072,
 -0.00000089,0.00001507,0.00000003,-0.00000364,0.00000843,-0.00000203,-
 0.00000047,0.00000242,0.00000314,0.00000063,-0.00000009,-0.00000009,-0
 .00000155,0.00000088,-0.00000100,0.00000262,-0.00000078,0.00000399,0.0
 0000455,-0.00000896,0.00000602,-0.00000092,0.00000034,-0.00000038,-0.0
 0000063,0.00000067,-0.00000041,0.00004481,0.00006892,0.00001347,0.0000
 1151,0.00001900,-0.00001566,0.00000187,0.00000056,-0.00000070,0.000001
 18,-0.00000097,0.00000005,0.00000209,0.00000027,0.00000010,0.00000178,
 -0.00000392,0.00000050,0.00000165,-0.00000627,0.00000130,-0.00000073,0
 .00000015,0.00000012,0.,0.00000013,0.00000014,0.,0.00000049,0.00000019
 ,-0.00000122,0.00000304,0.00000058,-0.00000038,0.00000158,-0.00000062,
 -0.00000096,0.00000133,-0.00000179,0.00002160,0.00069568,-0.00022348,0
 .00114824,0.00055697,0.00032066,0.00014510,-0.00226409,0.00023158,-0.0
 2178183,-0.01319422,0.01283853,-0.20142940,-0.09794041,0.09131895,0.00
 132160,-0.00011049,-0.00002507,-0.00398127,0.00130820,-0.00365508,0.21
 949389,0.00000978,0.00000121,0.00000676,-0.00000350,0.00003499,-0.0000
 0639,-0.00000074,-0.00001258,-0.00000112,0.00000219,0.00001307,-0.0000
 0037,-0.00000274,0.00000955,0.00000027,0.00000109,0.00001782,0.0000020
 6,-0.00002098,-0.00004258,-0.00000350,-0.00000222,0.00001103,0.0000000
 3,-0.00000538,-0.00000004,0.00000231,0.00000244,0.00000125,-0.00000317
 ,0.,0.00000037,-0.00000155,-0.00000044,0.00000058,0.00000200,-0.000002
 49,0.00000095,-0.00000288,-0.00000054,-0.00005543,0.00001470,-0.000000
 04,0.00000201,0.00000055,0.00000002,0.00000140,-0.00000119,0.00004503,
 0.00006725,0.00001030,0.00001344,0.00001850,-0.00001143,0.00000213,0.0
 0000104,-0.00000084,0.00000204,-0.00000117,0.00000002,0.00000293,0.000
 00105,0.00000013,0.00000184,-0.00000277,-0.00000105,0.00000246,0.00000
 034,0.00000197,-0.00000099,0.00000086,-0.00000013,-0.00000036,0.000000
 14,-0.00000004,0.,0.00000011,0.00000026,-0.00000031,0.00000082,-0.0000
 0032,-0.00000071,-0.00000048,0.00000052,-0.00000102,0.00000010,-0.0000
 0099,-0.00014071,0.00031909,0.00016369,0.00109288,0.00016819,0.0001847
 9,0.00002886,-0.00085218,-0.00090042,0.00376539,0.00209860,-0.00282452
 ,-0.09971130,-0.11081408,0.05839790,-0.00040927,0.00008031,-0.00021007
 ,0.00101914,0.00059092,0.00027145,0.10799538,0.11604079,0.00001092,-0.
 00000065,-0.00000011,-0.00000238,0.00002259,0.00000016,-0.00000460,-0.
 00000870,0.00000256,0.00000193,0.00000965,-0.00000224,-0.00000266,0.00
 000424,-0.00000416,-0.00000559,-0.00002251,-0.00000053,0.00002120,0.00
 004646,0.00001473,-0.00000018,-0.00000893,-0.00000435,-0.00000316,-0.0
 0000149,-0.00000037,-0.00000050,0.00000053,0.00000035,0.00000049,0.000
 00019,-0.00000007,0.00000004,0.00000016,0.00000124,-0.00000182,0.00000
 168,-0.00000127,0.00000490,-0.00004510,-0.00000559,0.00000113,-0.00000
 043,-0.00000012,-0.00000069,0.00000161,-0.00000048,-0.00002565,-0.0000
 4081,-0.00001058,-0.00000585,-0.00000668,0.00000258,-0.00000010,0.0000
 0056,-0.00000047,-0.00000118,0.00000052,0.00000065,-0.00000184,-0.0000
 0077,0.00000041,0.00000109,0.00000110,-0.00000009,0.00000167,0.0000015
 6,0.00000017,-0.00000111,0.00000023,-0.00000020,-0.00000016,0.00000015
 ,0.00000006,0.00000009,-0.00000021,0.00000011,-0.00000040,-0.00000140,
 0.00000012,-0.00000067,-0.00000010,0.00000010,-0.00000044,-0.00000052,
 -0.00000046,0.00007378,-0.00011791,-0.00023854,-0.00051648,0.00033460,
 -0.00010792,0.00073261,0.00006167,0.00076275,-0.01464856,-0.00981117,0
 .00869193,0.09293174,0.05807655,-0.10251289,0.00092626,-0.00044840,0.0
 0093598,-0.00359359,0.00083834,-0.00095034,-0.09735713,-0.06458215,0.1
 0715010,0.00001761,0.00001589,0.00000087,0.00000795,0.00011447,-0.0000
 1085,-0.00006274,-0.00002628,0.00000530,0.00001880,0.00002832,-0.00000
 302,0.00002107,-0.00000416,0.00000034,-0.00000498,0.00000895,-0.000000
 06,-0.00000877,-0.00002175,0.00000013,-0.00000029,0.00000393,-0.000000
 28,-0.00001789,0.00001746,0.00001216,0.00000557,0.00000773,0.00000174,
 0.00000240,0.00000188,-0.00000179,-0.00000451,0.00000294,0.00000272,-0
 .00000053,0.00000426,-0.00000103,0.00002425,-0.00019918,0.00001287,0.0
 0000114,0.00000071,0.00000013,0.00000088,0.00000021,-0.00000032,0.0000
 0839,0.00001170,0.00000343,0.00000397,0.00000390,-0.00000389,0.0000006
 0,0.00000025,-0.00000018,0.00000065,-0.00000026,-0.00000006,0.00000066
 ,0.00000029,0.00000014,0.00001306,-0.00003767,-0.00001867,0.00001625,0
 .00000192,0.00000051,-0.00000722,0.00000458,0.00000038,-0.00000102,0.0
 0000061,0.00000002,-0.00000019,0.00000139,0.00000019,-0.00000993,0.000
 00462,0.00000261,-0.00000732,-0.00000127,0.00000445,-0.00000617,0.0000
 0045,-0.00000429,-0.00253552,0.00296462,-0.00141396,0.00076408,0.00082
 918,0.00040135,-0.00265663,-0.00457376,-0.00257130,-0.00668629,0.02982
 460,-0.00047186,-0.06217613,0.05986745,-0.00246503,0.00119365,-0.00055
 357,0.00021866,0.00101400,-0.00032042,0.00098809,0.00709204,-0.0238583
 5,-0.00045319,0.06602803,-0.00003211,-0.00000364,0.00000102,-0.0000073
 5,-0.00011091,0.00000098,0.00004853,0.00002758,-0.00000721,-0.00001648
 ,-0.00003289,0.00000436,-0.00001551,-0.00000691,0.00000092,0.00001162,
 0.00000856,-0.00000088,-0.00000572,-0.00000989,0.00000026,0.00000214,0
 .00000128,0.00000019,0.00001007,0.00000017,-0.00000361,-0.00000183,-0.
 00000165,-0.00000063,-0.00000211,-0.00000075,0.00000043,0.00000159,-0.
 00000175,-0.00000074,0.00000593,-0.00000432,-0.00000083,-0.00000737,0.
 00020828,-0.00000638,-0.00000171,-0.00000090,-0.00000052,-0.00000160,-
 0.00000087,0.00000073,0.00000474,0.00000617,0.00000006,0.00000336,0.00
 000304,-0.00000060,-0.00000064,-0.00000039,0.00000068,-0.00000162,0.00
 000107,-0.00000005,-0.00000050,-0.00000042,-0.00000063,-0.00000860,0.0
 0001760,0.00000740,-0.00001064,-0.00000062,-0.00000105,0.00000500,-0.0
 0000267,-0.00000017,0.00000105,-0.00000059,0.,-0.00000018,-0.00000001,
 -0.00000007,0.00000453,-0.00000200,-0.00000146,0.00000410,0.00000066,-
 0.00000198,0.00000394,-0.00000023,0.00000288,0.00098859,-0.00061365,0.
 00056806,0.00098097,-0.00076080,0.00052970,-0.00104759,0.00176384,-0.0
 0058214,-0.00081085,-0.00175475,-0.00054773,0.06139474,-0.30402178,0.0
 1337034,0.00011722,0.00028278,0.00041953,0.00043219,0.00036341,-0.0000
 3651,0.00330978,-0.01348169,0.00001302,-0.06695757,0.32753067,0.000009
 68,0.00000949,0.00000051,0.00000342,0.00005834,0.00000198,-0.00003576,
 -0.00001134,0.00000135,0.00001028,0.00001466,-0.00000144,0.00001325,0.
 00000279,0.00000198,-0.00000459,-0.00000486,-0.00000028,0.00000410,0.0
 0001076,-0.00000007,0.00000005,-0.00000255,0.00000018,-0.00000961,0.00
 001129,0.00000682,0.00000288,0.00000352,0.00000379,0.00000111,0.000000
 48,-0.00000310,-0.00000243,0.00000202,0.00000106,0.00000005,0.00000219
 ,0.00000075,0.00001354,-0.00010103,-0.00000355,0.00000119,0.00000043,0
 .,0.00000093,0.00000016,0.00000016,-0.00000521,-0.00000732,-0.00000152
 ,-0.00000050,-0.00000141,0.00000166,-0.00000047,-0.00000010,0.00000015
 ,0.00000024,-0.00000002,0.00000009,-0.00000018,0.00000002,0.00000002,0
 .00000831,-0.00002423,-0.00000849,0.00000787,0.00000056,-0.00000029,-0
 .00000369,0.00000234,0.00000049,-0.00000059,0.00000037,-0.00000008,-0.
 00000013,0.00000091,0.,-0.00000484,0.00000236,0.00000150,-0.00000369,-
 0.00000050,0.00000256,-0.00000312,0.00000025,-0.00000228,-0.00151203,0
 .00176132,-0.00073132,0.00044736,0.00041400,0.00056004,-0.00228159,-0.
 00277166,-0.00078345,-0.00349235,0.01835218,-0.00166048,-0.00230966,0.
 01246562,-0.04911297,0.00089672,0.00001641,0.00038780,0.00044916,-0.00
 050870,0.00051138,-0.00460226,0.01423345,-0.00133480,0.00578024,-0.014
 28676,0.04849267,0.00000696,0.00000302,-0.00000237,-0.00000346,0.00002
 288,-0.00000230,-0.00000573,-0.00000785,0.00000521,0.00000249,0.000006
 93,-0.00000136,0.00000112,0.00000386,-0.00000341,-0.00000081,-0.000000
 82,-0.00000064,0.00000039,-0.00000224,0.00000616,-0.00000167,0.0000002
 9,0.00000003,-0.00000457,0.00000331,0.00000182,0.00000040,0.00000093,0
 .00000194,-0.00000004,0.00000014,-0.00000177,-0.00000047,0.00000042,0.
 00000120,-0.00000067,0.00000167,0.00000045,0.00000870,-0.00004157,0.00
 000374,0.00000009,-0.00000014,-0.00000010,-0.00000061,-0.00000003,-0.0
 0000081,0.00000226,0.00000324,-0.00000073,0.00000079,0.00000136,-0.000
 00364,0.00000069,0.00000023,-0.00000085,0.00000038,0.00000041,0.000000
 29,0.00000036,-0.00000059,-0.00000005,0.00000245,-0.00000373,-0.000001
 78,0.00000144,0.00000263,-0.00000302,-0.00000129,0.00000074,0.00000026
 ,-0.00000019,0.00000013,-0.00000007,-0.00000004,0.00000012,-0.00000011
 ,-0.00000184,-0.00000037,0.00000060,-0.00000115,-0.00000068,0.00000178
 ,-0.00000039,-0.00000015,0.00000041,-0.00026644,0.00017459,0.00023238,
 -0.00006615,0.00056301,0.00004592,0.00110595,-0.00085762,0.00017573,0.
 00307384,-0.01091356,-0.02873242,-0.05018705,0.00871962,0.02594707,-0.
 00463954,0.00135710,-0.00320577,0.00146907,-0.00045097,0.00086715,-0.0
 0205923,0.01017501,0.02192007,-0.00204890,0.00159989,0.00662231,0.0536
 1284,0.00001393,-0.00000074,-0.00000163,-0.00000258,0.00004189,0.00000
 318,-0.00001118,-0.00001182,0.00000350,0.00000504,0.00001235,-0.000002
 67,0.00000414,0.00000550,-0.00000227,-0.00000304,-0.00000067,-0.000000
 08,0.00000159,-0.00000318,0.00000600,-0.00000062,0.00000241,-0.0000016
 4,-0.00000482,-0.00000028,0.00000404,0.00000005,0.00000032,-0.00000120
 ,0.00000143,0.00000028,-0.00000221,-0.00000055,0.00000027,0.00000256,-
 0.00000278,0.00000168,-0.00000247,-0.00000106,-0.00006658,0.00000621,0
 .00000038,0.00000065,0.00000019,0.00000014,0.00000110,-0.00000127,0.00
 000224,0.00000305,0.00000028,0.00000149,0.00000371,-0.00000540,0.00000
 102,0.00000044,-0.00000053,0.00000044,-0.00000013,-0.00000011,0.000000
 45,0.00000015,0.00000014,0.00000141,-0.00000219,-0.00000221,0.00000330
 ,0.00000175,0.00000119,-0.00000191,0.00000098,0.00000024,-0.00000043,0
 .00000022,0.00000009,-0.00000004,-0.00000006,0.00000054,-0.00000051,-0
 .00000073,0.00000060,-0.00000154,-0.00000044,0.00000034,-0.00000129,-0
 .00000040,-0.00000091,0.00001654,0.00026284,-0.00015462,0.00060211,0.0
 0008526,0.00071968,-0.00057405,-0.00074046,0.00029147,-0.00094123,0.00
 115401,0.00457227,0.00840489,-0.08097448,-0.08927284,0.00070894,0.0005
 6255,0.00062075,-0.00025708,0.00006336,-0.00031620,-0.00043554,0.00578
 064,0.01568252,0.00283193,-0.00940103,-0.02964542,-0.01036120,0.083217
 78,-0.00000418,0.00000467,-0.00000282,-0.00000159,0.00000181,0.,-0.000
 00785,0.00000781,-0.00000397,0.00000123,-0.00000396,0.00000231,0.00000
 505,-0.00000313,0.00000603,0.00000158,-0.00000093,-0.00000353,0.000001
 14,0.00000825,-0.00000440,-0.00000015,-0.00000128,0.00000140,-0.000002
 87,0.00000739,0.00000179,-0.00000015,0.00000226,0.00000233,-0.00000065
 ,0.00000059,-0.00000107,-0.00000047,0.00000034,0.00000025,0.00000142,0
 .00000013,0.00000226,0.00001029,-0.00000323,-0.00000462,-0.00000021,0.
 00000088,0.00000067,-0.00000003,-0.00000189,0.00000094,-0.00000398,-0.
 00000665,-0.00000040,0.00000442,0.00000247,0.00000018,-0.00000061,-0.0
 0000082,0.00000056,0.00000023,-0.00000066,-0.00000049,0.00000015,0.000
 00066,0.00000068,0.00000270,-0.00000727,-0.00000452,0.00000008,-0.0000
 0141,-0.00000644,-0.00000030,0.00000006,0.00000015,0.00000003,0.000000
 23,-0.00000024,0.00000011,0.00000074,-0.00000080,-0.00000228,0.0000024
 0,0.00000131,-0.00000124,0.00000007,0.00000243,0.00000057,0.00000049,0
 .00000179,-0.00014787,0.00071631,0.00009533,0.00092659,0.00025186,0.00
 118758,-0.00012347,-0.00215341,-0.00035263,0.00137308,-0.00500273,-0.0
 1514391,0.02414405,-0.08777384,-0.28417061,-0.00335417,0.00064245,-0.0
 0024537,-0.00008578,-0.00000697,0.00087701,0.00115498,-0.00474104,-0.0
 1238843,-0.00001655,0.00055943,0.00366714,-0.02387331,0.09749791,0.306
 48211\\-0.00000093,0.00000352,0.00000465,-0.00000428,0.00000861,-0.000
 00853,0.00000511,0.00000339,0.00000009,-0.00001160,0.00000024,0.000004
 39,-0.00001056,-0.00000818,0.00000034,0.00000436,0.00000307,0.00000154
 ,-0.00000087,0.00000020,0.00000567,0.00000037,-0.00000015,0.00000638,-
 0.00000267,-0.00000262,-0.00001314,-0.00000760,-0.00000522,-0.00000516
 ,-0.00000019,0.00000211,-0.00000434,0.00000129,0.00000306,-0.00000203,
 -0.00001011,-0.00001664,-0.00000240,0.00000119,-0.00001231,0.00000367,
 0.00000017,0.00000090,0.00000354,0.00000058,-0.00000035,0.00000606,0.0
 0000068,-0.00000095,0.00000474,-0.00000079,-0.00000025,0.00000339,0.00
 000124,-0.00000068,0.00000693,0.,0.00000014,0.00000684,-0.00000051,-0.
 00000021,0.00000589,0.00001152,0.00000637,0.00000317,0.00000249,0.0000
 0500,-0.00000862,0.00000243,0.00000188,-0.00000687,0.00000075,-0.00000
 019,-0.00000409,0.00002106,0.00001368,-0.00000070,0.00000314,-0.000002
 99,-0.00000045,-0.00000488,-0.00000541,-0.00000849,0.00000029,0.000005
 17,-0.00000332,0.00000098,0.00000140,-0.00000134,-0.00000103,0.0000009
 7,0.00000158,-0.00000138,0.00000166,-0.00000504,0.00000183,-0.00000249
 ,0.00000144,0.00000035,-0.00000182,0.00000333,0.00000084,0.00000010,0.
 00000063,-0.00000066,0.00000044,-0.00000228,-0.00000049,-0.00000001,0.
 00000149,-0.00000097,0.00000007,0.00000111,-0.00000116,-0.00000153,-0.
 00000009\\\@


 LIVE PURE, SPEAK TRUE, RIGHT WRONG, FOLLOW THE KING...
 ELSE, WHEREFORE BORN......
           IDYLLS OF THE KING, TENNYSON
 Job cpu time:       0 days  7 hours 56 minutes 37.5 seconds.
 Elapsed time:       0 days  7 hours 57 minutes 23.1 seconds.
 File lengths (MBytes):  RWF=   1397 Int=      0 D2E=      0 Chk=     42 Scr=      1
 Normal termination of Gaussian 16 at Mon Mar 22 22:32:34 2021.
