 Entering Gaussian System, Link 0=/apps/gaussian/g16c01/g16/g16
 Initial command:
 /apps/gaussian/g16c01/g16/l1.exe "/jobfs/19478556.gadi-pbs/Gau-335983.inp" -scrdir="/jobfs/19478556.gadi-pbs/"
 Entering Link 1 = /apps/gaussian/g16c01/g16/l1.exe PID=    335984.
  
 Copyright (c) 1988-2019, Gaussian, Inc.  All Rights Reserved.
  
 This is part of the Gaussian(R) 16 program.  It is based on
 the Gaussian(R) 09 system (copyright 2009, Gaussian, Inc.),
 the Gaussian(R) 03 system (copyright 2003, Gaussian, Inc.),
 the Gaussian(R) 98 system (copyright 1998, Gaussian, Inc.),
 the Gaussian(R) 94 system (copyright 1995, Gaussian, Inc.),
 the Gaussian 92(TM) system (copyright 1992, Gaussian, Inc.),
 the Gaussian 90(TM) system (copyright 1990, Gaussian, Inc.),
 the Gaussian 88(TM) system (copyright 1988, Gaussian, Inc.),
 the Gaussian 86(TM) system (copyright 1986, Carnegie Mellon
 University), and the Gaussian 82(TM) system (copyright 1983,
 Carnegie Mellon University). Gaussian is a federally registered
 trademark of Gaussian, Inc.
  
 This software contains proprietary and confidential information,
 including trade secrets, belonging to Gaussian, Inc.
  
 This software is provided under written license and may be
 used, copied, transmitted, or stored only in accord with that
 written license.
  
 The following legend is applicable only to US Government
 contracts under FAR:
  
                    RESTRICTED RIGHTS LEGEND
  
 Use, reproduction and disclosure by the US Government is
 subject to restrictions as set forth in subparagraphs (a)
 and (c) of the Commercial Computer Software - Restricted
 Rights clause in FAR 52.227-19.
  
 Gaussian, Inc.
 340 Quinnipiac St., Bldg. 40, Wallingford CT 06492
  
  
 ---------------------------------------------------------------
 Warning -- This program may not be used in any manner that
 competes with the business of Gaussian, Inc. or will provide
 assistance to any competitor of Gaussian, Inc.  The licensee
 of this program is prohibited from giving any competitor of
 Gaussian, Inc. access to this program.  By using this program,
 the user acknowledges that Gaussian, Inc. is engaged in the
 business of creating and licensing software in the field of
 computational chemistry and represents and warrants to the
 licensee that it is not a competitor of Gaussian, Inc. and that
 it will not use this program in any manner prohibited above.
 ---------------------------------------------------------------
  

 Cite this work as:
 Gaussian 16, Revision C.01,
 M. J. Frisch, G. W. Trucks, H. B. Schlegel, G. E. Scuseria, 
 M. A. Robb, J. R. Cheeseman, G. Scalmani, V. Barone, 
 G. A. Petersson, H. Nakatsuji, X. Li, M. Caricato, A. V. Marenich, 
 J. Bloino, B. G. Janesko, R. Gomperts, B. Mennucci, H. P. Hratchian, 
 J. V. Ortiz, A. F. Izmaylov, J. L. Sonnenberg, D. Williams-Young, 
 F. Ding, F. Lipparini, F. Egidi, J. Goings, B. Peng, A. Petrone, 
 T. Henderson, D. Ranasinghe, V. G. Zakrzewski, J. Gao, N. Rega, 
 G. Zheng, W. Liang, M. Hada, M. Ehara, K. Toyota, R. Fukuda, 
 J. Hasegawa, M. Ishida, T. Nakajima, Y. Honda, O. Kitao, H. Nakai, 
 T. Vreven, K. Throssell, J. A. Montgomery, Jr., J. E. Peralta, 
 F. Ogliaro, M. J. Bearpark, J. J. Heyd, E. N. Brothers, K. N. Kudin, 
 V. N. Staroverov, T. A. Keith, R. Kobayashi, J. Normand, 
 K. Raghavachari, A. P. Rendell, J. C. Burant, S. S. Iyengar, 
 J. Tomasi, M. Cossi, J. M. Millam, M. Klene, C. Adamo, R. Cammi, 
 J. W. Ochterski, R. L. Martin, K. Morokuma, O. Farkas, 
 J. B. Foresman, and D. J. Fox, Gaussian, Inc., Wallingford CT, 2019.
 
 ******************************************
 Gaussian 16:  ES64L-G16RevC.01  3-Jul-2019
                22-Mar-2021 
 ******************************************
 %NprocShared=32
 Will use up to   32 processors via shared memory.
 %Mem=10000MB
 %chk=29CA_carboxy.M062X_6-311pGd_opt_GD3.chk
 ----------------------------------------------------------------------
 # M062X/6-311+G* SCF=Tight INT(grid=ultrafine) OPT=CalcFC IOP(2/17=4) 
 EmpiricalDispersion=GD3 MaxDisk=10000MB
 ----------------------------------------------------------------------
 1/10=4,18=20,19=15,26=4,38=1/1,3;
 2/9=110,12=2,17=4,18=5,40=1/2;
 3/5=4,6=6,7=11,11=2,25=1,30=1,71=2,74=-55,75=-5,124=31,140=1/1,2,3;
 4//1;
 5/5=2,32=2,38=5/2;
 8/6=4,10=90,11=11/1;
 11/6=1,8=1,9=11,15=111,16=1/1,2,10;
 10/6=1,13=1/2;
 6/7=2,8=2,9=2,10=2,28=1/1;
 7/10=1,25=1/1,2,3,16;
 1/10=4,18=20,19=15,26=4/3(2);
 2/9=110,17=4/2;
 99//99;
 2/9=110,17=4/2;
 3/5=4,6=6,7=11,11=2,25=1,30=1,71=1,74=-55,75=-5,124=31/1,2,3;
 4/5=5,16=3,69=1/1;
 5/5=2,32=2,38=5/2;
 7//1,2,3,16;
 1/18=20,19=15,26=4/3(-5);
 2/9=110,17=4/2;
 6/7=2,8=2,9=2,10=2,19=2,28=1/1;
 99/9=1/99;
 -----------------------------------
 29CA_carboxy.M062X_6-311pGd_opt_GD3
 -----------------------------------
 Symbolic Z-matrix:
 Charge = -1 Multiplicity = 1
 C                    -6.28739   1.36986  -0.05085 
 N                    -4.9497    0.83543  -0.03747 
 C                    -3.76993   1.5242   -0.03273 
 O                    -3.73774   2.74465  -0.04043 
 O                    -2.60606   0.8238   -0.01982 
 C                    -1.35601   1.41091  -0.0163 
 C                    -0.27908   0.32812  -0.00032 
 C                     1.11819   0.94258   0.00317 
 C                    -6.60314   2.74908  -0.05716 
 C                    -7.9389    3.20235  -0.07029 
 C                    -8.98493   2.24538  -0.07733 
 C                    -8.67452   0.88443  -0.071 
 C                    -7.35022   0.45454  -0.05791 
 H                    -4.85594  -0.30613  -0.03052 
 H                    -1.24961   2.05325   0.88617 
 H                    -1.23776   2.03833  -0.92775 
 H                    -0.38994  -0.31672  -0.89908 
 H                    -0.40135  -0.30129   0.90785 
 H                     1.27004   1.5621   -0.90652 
 H                     1.88076   0.13574   0.01495 
 H                     1.25867   1.57786   0.90377 
 H                    -5.84299   3.50785  -0.05195 
 C                    -8.15325   4.70608  -0.07586 
 Cl                   -10.69795   2.65734  -0.09385 
 H                    -9.4664    0.14602  -0.07624 
 H                    -7.13072  -0.71892  -0.05294 
 F                    -7.54754   5.24641  -1.19618 
 F                    -9.48152   5.07984  -0.08879 
 F                    -7.56793   5.2518    1.05266 
 O                    -6.53182  -3.22013  -0.03243 
 O                    -4.33186  -2.82768  -0.01031 
 C                    -5.2483   -3.64313  -0.0157 
 C                    -4.97378  -5.12355  -0.00394 
 C                    -3.4834   -5.461     0.01496 
 H                    -5.43209  -5.57669  -0.90887 
 H                    -5.4525   -5.56613   0.89563 
 H                    -2.98329  -5.05081  -0.88828 
 H                    -3.35285  -6.56377   0.02287 
 H                    -3.00394  -5.04026   0.92452 
 
 Add virtual bond connecting atoms O30        and H26        Dist= 4.86D+00.
 Add virtual bond connecting atoms O31        and H14        Dist= 4.87D+00.

 GradGradGradGradGradGradGradGradGradGradGradGradGradGradGradGradGradGrad
 Berny optimization.
 Initialization pass.
                           ----------------------------
                           !    Initial Parameters    !
                           ! (Angstroms and Degrees)  !
 --------------------------                            --------------------------
 ! Name  Definition              Value          Derivative Info.                !
 --------------------------------------------------------------------------------
 ! R1    R(1,2)                  1.4406         calculate D2E/DX2 analytically  !
 ! R2    R(1,9)                  1.4149         calculate D2E/DX2 analytically  !
 ! R3    R(1,13)                 1.4027         calculate D2E/DX2 analytically  !
 ! R4    R(2,3)                  1.3661         calculate D2E/DX2 analytically  !
 ! R5    R(2,14)                 1.1454         calculate D2E/DX2 analytically  !
 ! R6    R(3,4)                  1.2209         calculate D2E/DX2 analytically  !
 ! R7    R(3,5)                  1.3584         calculate D2E/DX2 analytically  !
 ! R8    R(5,6)                  1.3811         calculate D2E/DX2 analytically  !
 ! R9    R(6,7)                  1.5272         calculate D2E/DX2 analytically  !
 ! R10   R(6,15)                 1.1128         calculate D2E/DX2 analytically  !
 ! R11   R(6,16)                 1.1128         calculate D2E/DX2 analytically  !
 ! R12   R(7,8)                  1.5264         calculate D2E/DX2 analytically  !
 ! R13   R(7,17)                 1.1117         calculate D2E/DX2 analytically  !
 ! R14   R(7,18)                 1.1117         calculate D2E/DX2 analytically  !
 ! R15   R(8,19)                 1.111          calculate D2E/DX2 analytically  !
 ! R16   R(8,20)                 1.1102         calculate D2E/DX2 analytically  !
 ! R17   R(8,21)                 1.111          calculate D2E/DX2 analytically  !
 ! R18   R(9,10)                 1.4106         calculate D2E/DX2 analytically  !
 ! R19   R(9,22)                 1.0741         calculate D2E/DX2 analytically  !
 ! R20   R(10,11)                1.4178         calculate D2E/DX2 analytically  !
 ! R21   R(10,23)                1.5189         calculate D2E/DX2 analytically  !
 ! R22   R(11,12)                1.3959         calculate D2E/DX2 analytically  !
 ! R23   R(11,24)                1.7619         calculate D2E/DX2 analytically  !
 ! R24   R(12,13)                1.3924         calculate D2E/DX2 analytically  !
 ! R25   R(12,25)                1.0828         calculate D2E/DX2 analytically  !
 ! R26   R(13,26)                1.1938         calculate D2E/DX2 analytically  !
 ! R27   R(14,31)                2.5755         calculate D2E/DX2 analytically  !
 ! R28   R(23,27)                1.3835         calculate D2E/DX2 analytically  !
 ! R29   R(23,28)                1.3799         calculate D2E/DX2 analytically  !
 ! R30   R(23,29)                1.3835         calculate D2E/DX2 analytically  !
 ! R31   R(26,30)                2.572          calculate D2E/DX2 analytically  !
 ! R32   R(30,32)                1.3515         calculate D2E/DX2 analytically  !
 ! R33   R(31,32)                1.2267         calculate D2E/DX2 analytically  !
 ! R34   R(32,33)                1.5057         calculate D2E/DX2 analytically  !
 ! R35   R(33,34)                1.5282         calculate D2E/DX2 analytically  !
 ! R36   R(33,35)                1.111          calculate D2E/DX2 analytically  !
 ! R37   R(33,36)                1.111          calculate D2E/DX2 analytically  !
 ! R38   R(34,37)                1.1109         calculate D2E/DX2 analytically  !
 ! R39   R(34,38)                1.1105         calculate D2E/DX2 analytically  !
 ! R40   R(34,39)                1.1109         calculate D2E/DX2 analytically  !
 ! A1    A(2,1,9)              124.6731         calculate D2E/DX2 analytically  !
 ! A2    A(2,1,13)             117.4884         calculate D2E/DX2 analytically  !
 ! A3    A(9,1,13)             117.8385         calculate D2E/DX2 analytically  !
 ! A4    A(1,2,3)              127.9455         calculate D2E/DX2 analytically  !
 ! A5    A(1,2,14)             116.4748         calculate D2E/DX2 analytically  !
 ! A6    A(3,2,14)             115.5798         calculate D2E/DX2 analytically  !
 ! A7    A(2,3,4)              121.7856         calculate D2E/DX2 analytically  !
 ! A8    A(2,3,5)              118.6845         calculate D2E/DX2 analytically  !
 ! A9    A(4,3,5)              119.5299         calculate D2E/DX2 analytically  !
 ! A10   A(3,5,6)              123.8029         calculate D2E/DX2 analytically  !
 ! A11   A(5,6,7)              109.687          calculate D2E/DX2 analytically  !
 ! A12   A(5,6,15)             109.5113         calculate D2E/DX2 analytically  !
 ! A13   A(5,6,16)             109.4981         calculate D2E/DX2 analytically  !
 ! A14   A(7,6,15)             109.4711         calculate D2E/DX2 analytically  !
 ! A15   A(7,6,16)             109.4735         calculate D2E/DX2 analytically  !
 ! A16   A(15,6,16)            109.1851         calculate D2E/DX2 analytically  !
 ! A17   A(6,7,8)              111.1069         calculate D2E/DX2 analytically  !
 ! A18   A(6,7,17)             109.4186         calculate D2E/DX2 analytically  !
 ! A19   A(6,7,18)             109.4143         calculate D2E/DX2 analytically  !
 ! A20   A(8,7,17)             109.0645         calculate D2E/DX2 analytically  !
 ! A21   A(8,7,18)             109.07           calculate D2E/DX2 analytically  !
 ! A22   A(17,7,18)            108.7276         calculate D2E/DX2 analytically  !
 ! A23   A(7,8,19)             110.347          calculate D2E/DX2 analytically  !
 ! A24   A(7,8,20)             109.6466         calculate D2E/DX2 analytically  !
 ! A25   A(7,8,21)             110.3511         calculate D2E/DX2 analytically  !
 ! A26   A(19,8,20)            108.6652         calculate D2E/DX2 analytically  !
 ! A27   A(19,8,21)            109.1221         calculate D2E/DX2 analytically  !
 ! A28   A(20,8,21)            108.6682         calculate D2E/DX2 analytically  !
 ! A29   A(1,9,10)             121.6395         calculate D2E/DX2 analytically  !
 ! A30   A(1,9,22)             122.051          calculate D2E/DX2 analytically  !
 ! A31   A(10,9,22)            116.3095         calculate D2E/DX2 analytically  !
 ! A32   A(9,10,11)            118.8033         calculate D2E/DX2 analytically  !
 ! A33   A(9,10,23)            116.8572         calculate D2E/DX2 analytically  !
 ! A34   A(11,10,23)           124.3395         calculate D2E/DX2 analytically  !
 ! A35   A(10,11,12)           119.6035         calculate D2E/DX2 analytically  !
 ! A36   A(10,11,24)           124.0248         calculate D2E/DX2 analytically  !
 ! A37   A(12,11,24)           116.3717         calculate D2E/DX2 analytically  !
 ! A38   A(11,12,13)           120.8337         calculate D2E/DX2 analytically  !
 ! A39   A(11,12,25)           120.1482         calculate D2E/DX2 analytically  !
 ! A40   A(13,12,25)           119.0181         calculate D2E/DX2 analytically  !
 ! A41   A(1,13,12)            121.2815         calculate D2E/DX2 analytically  !
 ! A42   A(1,13,26)            120.1383         calculate D2E/DX2 analytically  !
 ! A43   A(12,13,26)           118.5802         calculate D2E/DX2 analytically  !
 ! A44   A(10,23,27)           109.1376         calculate D2E/DX2 analytically  !
 ! A45   A(10,23,28)           113.8295         calculate D2E/DX2 analytically  !
 ! A46   A(10,23,29)           109.1361         calculate D2E/DX2 analytically  !
 ! A47   A(27,23,28)           107.9425         calculate D2E/DX2 analytically  !
 ! A48   A(27,23,29)           108.7398         calculate D2E/DX2 analytically  !
 ! A49   A(28,23,29)           107.9418         calculate D2E/DX2 analytically  !
 ! A50   A(26,30,32)           121.7087         calculate D2E/DX2 analytically  !
 ! A51   A(14,31,32)           119.9179         calculate D2E/DX2 analytically  !
 ! A52   A(30,32,31)           120.0977         calculate D2E/DX2 analytically  !
 ! A53   A(30,32,33)           118.7485         calculate D2E/DX2 analytically  !
 ! A54   A(31,32,33)           121.1538         calculate D2E/DX2 analytically  !
 ! A55   A(32,33,34)           113.2664         calculate D2E/DX2 analytically  !
 ! A56   A(32,33,35)           108.6297         calculate D2E/DX2 analytically  !
 ! A57   A(32,33,36)           108.6292         calculate D2E/DX2 analytically  !
 ! A58   A(34,33,35)           108.8034         calculate D2E/DX2 analytically  !
 ! A59   A(34,33,36)           108.7991         calculate D2E/DX2 analytically  !
 ! A60   A(35,33,36)           108.6201         calculate D2E/DX2 analytically  !
 ! A61   A(33,34,37)           110.3304         calculate D2E/DX2 analytically  !
 ! A62   A(33,34,38)           109.5125         calculate D2E/DX2 analytically  !
 ! A63   A(33,34,39)           110.3278         calculate D2E/DX2 analytically  !
 ! A64   A(37,34,38)           108.6342         calculate D2E/DX2 analytically  !
 ! A65   A(37,34,39)           109.3621         calculate D2E/DX2 analytically  !
 ! A66   A(38,34,39)           108.6338         calculate D2E/DX2 analytically  !
 ! A67   L(2,14,31,5,-1)       172.9538         calculate D2E/DX2 analytically  !
 ! A68   L(13,26,30,5,-1)      177.1278         calculate D2E/DX2 analytically  !
 ! A69   L(2,14,31,5,-2)       179.9429         calculate D2E/DX2 analytically  !
 ! A70   L(13,26,30,5,-2)      179.8023         calculate D2E/DX2 analytically  !
 ! D1    D(9,1,2,3)             -0.2203         calculate D2E/DX2 analytically  !
 ! D2    D(9,1,2,14)           179.8192         calculate D2E/DX2 analytically  !
 ! D3    D(13,1,2,3)           179.7889         calculate D2E/DX2 analytically  !
 ! D4    D(13,1,2,14)           -0.1715         calculate D2E/DX2 analytically  !
 ! D5    D(2,1,9,10)          -179.9986         calculate D2E/DX2 analytically  !
 ! D6    D(2,1,9,22)            -0.0176         calculate D2E/DX2 analytically  !
 ! D7    D(13,1,9,10)           -0.0079         calculate D2E/DX2 analytically  !
 ! D8    D(13,1,9,22)          179.9732         calculate D2E/DX2 analytically  !
 ! D9    D(2,1,13,12)         -179.9948         calculate D2E/DX2 analytically  !
 ! D10   D(2,1,13,26)           -0.0066         calculate D2E/DX2 analytically  !
 ! D11   D(9,1,13,12)            0.0138         calculate D2E/DX2 analytically  !
 ! D12   D(9,1,13,26)         -179.998          calculate D2E/DX2 analytically  !
 ! D13   D(1,2,3,4)             -0.0285         calculate D2E/DX2 analytically  !
 ! D14   D(1,2,3,5)           -179.9921         calculate D2E/DX2 analytically  !
 ! D15   D(14,2,3,4)           179.9323         calculate D2E/DX2 analytically  !
 ! D16   D(14,2,3,5)            -0.0313         calculate D2E/DX2 analytically  !
 ! D17   D(1,2,31,32)            0.1918         calculate D2E/DX2 analytically  !
 ! D18   D(3,2,31,32)         -179.811          calculate D2E/DX2 analytically  !
 ! D19   D(2,3,5,6)            179.8825         calculate D2E/DX2 analytically  !
 ! D20   D(4,3,5,6)             -0.082          calculate D2E/DX2 analytically  !
 ! D21   D(3,5,6,7)            179.973          calculate D2E/DX2 analytically  !
 ! D22   D(3,5,6,15)            59.8158         calculate D2E/DX2 analytically  !
 ! D23   D(3,5,6,16)           -59.8749         calculate D2E/DX2 analytically  !
 ! D24   D(5,6,7,8)            179.9684         calculate D2E/DX2 analytically  !
 ! D25   D(5,6,7,17)            59.4833         calculate D2E/DX2 analytically  !
 ! D26   D(5,6,7,18)           -59.5424         calculate D2E/DX2 analytically  !
 ! D27   D(15,6,7,8)           -59.8499         calculate D2E/DX2 analytically  !
 ! D28   D(15,6,7,17)          179.665          calculate D2E/DX2 analytically  !
 ! D29   D(15,6,7,18)           60.6393         calculate D2E/DX2 analytically  !
 ! D30   D(16,6,7,8)            59.8014         calculate D2E/DX2 analytically  !
 ! D31   D(16,6,7,17)          -60.6838         calculate D2E/DX2 analytically  !
 ! D32   D(16,6,7,18)         -179.7094         calculate D2E/DX2 analytically  !
 ! D33   D(6,7,8,19)           -60.3484         calculate D2E/DX2 analytically  !
 ! D34   D(6,7,8,20)           179.9933         calculate D2E/DX2 analytically  !
 ! D35   D(6,7,8,21)            60.3287         calculate D2E/DX2 analytically  !
 ! D36   D(17,7,8,19)           60.3459         calculate D2E/DX2 analytically  !
 ! D37   D(17,7,8,20)          -59.3124         calculate D2E/DX2 analytically  !
 ! D38   D(17,7,8,21)         -178.9771         calculate D2E/DX2 analytically  !
 ! D39   D(18,7,8,19)          178.9592         calculate D2E/DX2 analytically  !
 ! D40   D(18,7,8,20)           59.3008         calculate D2E/DX2 analytically  !
 ! D41   D(18,7,8,21)          -60.3638         calculate D2E/DX2 analytically  !
 ! D42   D(1,9,10,11)           -0.003          calculate D2E/DX2 analytically  !
 ! D43   D(1,9,10,23)          179.9939         calculate D2E/DX2 analytically  !
 ! D44   D(22,9,10,11)        -179.9851         calculate D2E/DX2 analytically  !
 ! D45   D(22,9,10,23)           0.0118         calculate D2E/DX2 analytically  !
 ! D46   D(9,10,11,12)           0.0083         calculate D2E/DX2 analytically  !
 ! D47   D(9,10,11,24)        -179.9961         calculate D2E/DX2 analytically  !
 ! D48   D(23,10,11,12)       -179.9883         calculate D2E/DX2 analytically  !
 ! D49   D(23,10,11,24)          0.0073         calculate D2E/DX2 analytically  !
 ! D50   D(9,10,23,27)          59.3509         calculate D2E/DX2 analytically  !
 ! D51   D(9,10,23,28)         179.9973         calculate D2E/DX2 analytically  !
 ! D52   D(9,10,23,29)         -59.3583         calculate D2E/DX2 analytically  !
 ! D53   D(11,10,23,27)       -120.6523         calculate D2E/DX2 analytically  !
 ! D54   D(11,10,23,28)         -0.006          calculate D2E/DX2 analytically  !
 ! D55   D(11,10,23,29)        120.6384         calculate D2E/DX2 analytically  !
 ! D56   D(10,11,12,13)         -0.0026         calculate D2E/DX2 analytically  !
 ! D57   D(10,11,12,25)        179.9967         calculate D2E/DX2 analytically  !
 ! D58   D(24,11,12,13)       -179.9986         calculate D2E/DX2 analytically  !
 ! D59   D(24,11,12,25)          0.0008         calculate D2E/DX2 analytically  !
 ! D60   D(11,12,13,1)          -0.0088         calculate D2E/DX2 analytically  !
 ! D61   D(11,12,13,26)       -179.9971         calculate D2E/DX2 analytically  !
 ! D62   D(25,12,13,1)         179.9919         calculate D2E/DX2 analytically  !
 ! D63   D(25,12,13,26)          0.0035         calculate D2E/DX2 analytically  !
 ! D64   D(1,13,30,32)           0.0597         calculate D2E/DX2 analytically  !
 ! D65   D(12,13,30,32)       -179.8021         calculate D2E/DX2 analytically  !
 ! D66   D(26,30,32,31)         -0.0212         calculate D2E/DX2 analytically  !
 ! D67   D(26,30,32,33)        179.9775         calculate D2E/DX2 analytically  !
 ! D68   D(14,31,32,30)          0.0103         calculate D2E/DX2 analytically  !
 ! D69   D(14,31,32,33)       -179.9885         calculate D2E/DX2 analytically  !
 ! D70   D(30,32,33,34)       -179.9846         calculate D2E/DX2 analytically  !
 ! D71   D(30,32,33,35)         59.0044         calculate D2E/DX2 analytically  !
 ! D72   D(30,32,33,36)        -58.9793         calculate D2E/DX2 analytically  !
 ! D73   D(31,32,33,34)          0.0142         calculate D2E/DX2 analytically  !
 ! D74   D(31,32,33,35)       -120.9969         calculate D2E/DX2 analytically  !
 ! D75   D(31,32,33,36)        121.0195         calculate D2E/DX2 analytically  !
 ! D76   D(32,33,34,37)        -60.4739         calculate D2E/DX2 analytically  !
 ! D77   D(32,33,34,38)       -179.9994         calculate D2E/DX2 analytically  !
 ! D78   D(32,33,34,39)         60.4772         calculate D2E/DX2 analytically  !
 ! D79   D(35,33,34,37)         60.4391         calculate D2E/DX2 analytically  !
 ! D80   D(35,33,34,38)        -59.0864         calculate D2E/DX2 analytically  !
 ! D81   D(35,33,34,39)       -178.6098         calculate D2E/DX2 analytically  !
 ! D82   D(36,33,34,37)        178.6168         calculate D2E/DX2 analytically  !
 ! D83   D(36,33,34,38)         59.0912         calculate D2E/DX2 analytically  !
 ! D84   D(36,33,34,39)        -60.4322         calculate D2E/DX2 analytically  !
 --------------------------------------------------------------------------------
 Trust Radius=3.00D-01 FncErr=1.00D-07 GrdErr=1.00D-06 EigMax=2.50D+02 EigMin=1.00D-04
 Number of steps in this run=    204 maximum allowed number of steps=    234.
 GradGradGradGradGradGradGradGradGradGradGradGradGradGradGradGradGradGrad

                          Input orientation:                          
 ---------------------------------------------------------------------
 Center     Atomic      Atomic             Coordinates (Angstroms)
 Number     Number       Type             X           Y           Z
 ---------------------------------------------------------------------
      1          6           0       -6.287390    1.369860   -0.050850
      2          7           0       -4.949700    0.835430   -0.037470
      3          6           0       -3.769930    1.524200   -0.032730
      4          8           0       -3.737740    2.744650   -0.040430
      5          8           0       -2.606060    0.823800   -0.019820
      6          6           0       -1.356010    1.410910   -0.016300
      7          6           0       -0.279080    0.328120   -0.000320
      8          6           0        1.118190    0.942580    0.003170
      9          6           0       -6.603140    2.749080   -0.057160
     10          6           0       -7.938900    3.202350   -0.070290
     11          6           0       -8.984930    2.245380   -0.077330
     12          6           0       -8.674520    0.884430   -0.071000
     13          6           0       -7.350220    0.454540   -0.057910
     14          1           0       -4.855940   -0.306130   -0.030520
     15          1           0       -1.249610    2.053250    0.886170
     16          1           0       -1.237760    2.038330   -0.927750
     17          1           0       -0.389940   -0.316720   -0.899080
     18          1           0       -0.401350   -0.301290    0.907850
     19          1           0        1.270040    1.562100   -0.906520
     20          1           0        1.880760    0.135740    0.014950
     21          1           0        1.258670    1.577860    0.903770
     22          1           0       -5.842990    3.507850   -0.051950
     23          6           0       -8.153250    4.706080   -0.075860
     24         17           0      -10.697950    2.657340   -0.093850
     25          1           0       -9.466400    0.146020   -0.076240
     26          1           0       -7.130720   -0.718920   -0.052940
     27          9           0       -7.547540    5.246410   -1.196180
     28          9           0       -9.481520    5.079840   -0.088790
     29          9           0       -7.567930    5.251800    1.052660
     30          8           0       -6.531820   -3.220130   -0.032430
     31          8           0       -4.331860   -2.827680   -0.010310
     32          6           0       -5.248300   -3.643130   -0.015700
     33          6           0       -4.973780   -5.123550   -0.003940
     34          6           0       -3.483400   -5.461000    0.014960
     35          1           0       -5.432090   -5.576690   -0.908870
     36          1           0       -5.452500   -5.566130    0.895630
     37          1           0       -2.983290   -5.050810   -0.888280
     38          1           0       -3.352850   -6.563770    0.022870
     39          1           0       -3.003940   -5.040260    0.924520
 ---------------------------------------------------------------------
                    Distance matrix (angstroms):
                    1          2          3          4          5
     1  C    0.000000
     2  N    1.440559   0.000000
     3  C    2.522252   1.366120   0.000000
     4  O    2.896700   2.261410   1.220899   0.000000
     5  O    3.721738   2.343735   1.358426   2.229527   0.000000
     6  C    4.931672   3.639538   2.416633   2.729850   1.381063
     7  C    6.098161   4.698237   3.690216   4.219426   2.379268
     8  C    7.418093   6.068972   4.922732   5.179712   3.726215
     9  C    1.414915   2.529092   3.086747   2.865452   4.436749
    10  C    2.466958   3.812965   4.494208   4.226124   5.839455
    11  C    2.836187   4.274650   5.264819   5.271018   6.535609
    12  C    2.436070   3.725293   4.946289   5.275713   6.068979
    13  C    1.402665   2.430636   3.736748   4.277256   4.758661
    14  H    2.204179   1.145425   2.128269   3.249266   2.517701
    15  H    5.169551   4.003356   2.734279   2.743613   2.042626
    16  H    5.168614   4.002258   2.734461   2.745200   2.042465
    17  H    6.192250   4.781342   3.945109   4.617037   2.642929
    18  H    6.193328   4.782599   3.945179   4.616111   2.643321
    19  H    7.608145   6.322062   5.115295   5.217892   4.044190
    20  H    8.261117   6.866404   5.818968   6.194919   4.539404
    21  H    7.609046   6.323053   5.115343   5.216994   4.044473
    22  H    2.183688   2.817802   2.869288   2.239349   4.205101
    23  C    3.822620   5.024553   5.416615   4.831686   6.771008
    24  Cl   4.594833   6.030333   7.020342   6.960963   8.297351
    25  H    3.406543   4.569176   5.860976   6.290605   6.893971
    26  H    2.252601   2.678263   4.040657   4.848586   4.780547
    27  F    4.234076   5.248631   5.429438   4.702035   6.735097
    28  F    4.895698   6.209271   6.728148   6.200521   8.086444
    29  F    4.234026   5.248603   5.431195   4.706485   6.736286
    30  O    4.596531   4.353240   5.489691   6.586771   5.636055
    31  O    4.630884   3.714948   4.388066   5.603994   4.038785
    32  C    5.119669   4.488556   5.374678   6.564003   5.189886
    33  C    6.625115   5.959123   6.755935   7.964779   6.401353
    34  C    7.384263   6.465123   6.991237   8.209778   6.345837
    35  H    7.051404   6.489015   7.345273   8.536376   7.052881
    36  H    7.049881   6.488717   7.346133   8.537311   7.054890
    37  H    7.269344   6.264062   6.676940   7.877642   5.950426
    38  H    8.459282   7.569791   8.098908   9.316589   7.425342
    39  H    7.267877   6.263796   6.677964   7.878732   5.952922
                    6          7          8          9         10
     6  C    0.000000
     7  C    1.527242   0.000000
     8  C    2.518209   1.526413   0.000000
     9  C    5.415232   6.771854   7.930071   0.000000
    10  C    6.822508   8.181622   9.335033   1.410631   0.000000
    11  C    7.674665   8.914799  10.187090   2.434552   1.417752
    12  C    7.337626   8.414148   9.793164   2.787064   2.431849
    13  C    6.070167   7.072504   8.482681   2.413098   2.810188
    14  H    3.898453   4.620696   6.103330   3.519620   4.670723
    15  H    1.112822   2.168840   2.760390   5.480359   6.854331
    16  H    1.112825   2.168873   2.760033   5.481824   6.855323
    17  H    2.167325   1.111701   2.162024   6.979385   8.370038
    18  H    2.167270   1.111701   2.162096   6.978410   8.369403
    19  H    2.776957   2.177999   1.111035   8.007328   9.391181
    20  H    3.479039   2.168445   1.110244   8.877573  10.287715
    21  H    2.776860   2.178050   1.111034   8.006447   9.390583
    22  H    4.952920   6.408623   7.419008   1.074052   2.118137
    23  C    7.554083   9.009706  10.006487   2.496606   1.518941
    24  Cl   9.425043  10.676463  11.940309   4.096002   2.812463
    25  H    8.208652   9.189438  10.614818   3.869695   3.416789
    26  H    6.155062   6.931380   8.414764   3.507903   4.003725
    27  F    7.378226   8.857210   9.749680   2.902743   2.366215
    28  F    8.915729  10.357199  11.378894   3.703851   2.430018
    29  F    7.381264   8.858822   9.752922   2.902779   2.366195
    30  O    6.945200   7.189427   8.709310   5.969687   6.574919
    31  O    5.178935   5.136555   6.627072   6.021724   7.026777
    32  C    6.379125   6.361149   7.846100   6.534345   7.355468
    33  C    7.469108   7.194507   8.597097   8.039649   8.838379
    34  C    7.193741   6.616782   7.885468   8.783131   9.742299
    35  H    8.138652   7.889598   9.286488   8.450752   9.168362
    36  H    8.141986   7.893617   9.291596   8.448343   9.165229
    37  H    6.720284   6.085566   7.316935   8.639002   9.661357
    38  H    8.220975   7.546307   8.737041   9.864074  10.789700
    39  H    6.724464   6.090952   7.323607   8.636652   9.658369
                   11         12         13         14         15
    11  C    0.000000
    12  C    1.395915   0.000000
    13  C    2.424822   1.392389   0.000000
    14  H    4.853963   4.000078   2.607835   0.000000
    15  H    7.797463   7.577044   6.376880   4.405974   0.000000
    16  H    7.796456   7.574358   6.373945   4.403719   1.814020
    17  H    9.006302   8.412059   7.053220   4.549688   3.089160
    18  H    9.007439   8.414833   7.056257   4.552355   2.502773
    19  H   10.311103  10.002580   8.732452   6.464154   3.131070
    20  H   11.068980  10.582148   9.236771   6.751329   3.772941
    21  H   10.312104  10.004963   8.734968   6.466125   2.552993
    22  H    3.386187   3.860085   3.405067   3.939692   4.908673
    23  C    2.597448   3.857040   4.326751   5.999713   7.458100
    24  Cl   1.761937   2.690353   4.007607   6.550973   9.518219
    25  H    2.153863   1.082751   2.138630   4.632804   8.489959
    26  H    3.496536   2.225843   1.193823   2.312039   6.569194
    27  F    3.510569   4.643596   4.929159   6.279664   7.361819
    28  F    2.877655   4.272357   5.092818   7.099863   8.824689
    29  F    3.510460   4.643390   4.928942   6.278436   7.083757
    30  O    5.990957   4.630342   3.764788   3.361543   7.520246
    31  O    6.884148   5.713330   4.459342   2.575516   5.841868
    32  C    6.974292   5.678102   4.605513   3.360020   7.017951
    33  C    8.390223   7.056614   6.063453   4.818934   8.134384
    34  C    9.469089   8.198756   7.067618   5.334662   7.887508
    35  H    8.631275   7.277462   6.385851   5.374221   8.884328
    36  H    8.628117   7.274992   6.384281   5.374127   8.701685
    37  H    9.482179   8.263481   7.075908   5.172481   7.524758
    38  H   10.456170   9.154489   8.077262   6.435852   8.911899
    39  H    9.479267   8.261264   7.074471   5.172426   7.307327
                   16         17         18         19         20
    16  H    0.000000
    17  H    2.503174   0.000000
    18  H    3.089147   1.807032   0.000000
    19  H    2.552706   2.507101   3.091554   0.000000
    20  H    3.772757   2.489227   2.489235   1.804602   0.000000
    21  H    3.130281   3.091539   2.507367   1.810394   1.804635
    22  H    4.912704   6.714218   6.711349   7.423707   8.428043
    23  C    7.461006   9.283059   9.280808   9.968601  11.026224
    24  Cl   9.517025  10.758648  10.759966  12.045446  12.829429
    25  H    8.486249   9.125422   9.129274  10.861206  11.347531
    26  H    6.564655   6.805574   6.810430   8.746680   9.052172
    27  F    7.083584   9.070167   9.288269   9.560741  10.792526
    28  F    8.826903  10.603596  10.601855  11.341923  12.391783
    29  F    7.370174   9.291999   9.067395   9.775581  10.794844
    30  O    7.515322   6.848618   6.854664   9.192539   9.057351
    31  O    5.838939   4.757475   4.761783   7.173189   6.883251
    32  C    7.013933   5.953908   5.959343   8.389084   8.068723
    33  C    8.130424   6.702125   6.707657   9.192271   8.639746
    34  C    7.884894   6.071950   6.076092   8.530431   7.752271
    35  H    8.693750   7.286334   7.512567   9.791878   9.325399
    36  H    8.883499   7.510446   7.296082   9.962527   9.330789
    37  H    7.300982   5.397887   5.696529   7.862679   7.167643
    38  H    8.909176   6.975275   6.979484   9.394926   8.501422
    39  H    7.527067   5.698275   5.406625   8.075319   7.174858
                   21         22         23         24         25
    21  H    0.000000
    22  H    7.421040   0.000000
    23  C    9.966427   2.602619   0.000000
    24  Cl  12.046630   4.929073   3.266980   0.000000
    25  H   10.864516   4.942832   4.745367   2.797097   0.000000
    26  H    8.750563   4.418578   5.520572   4.911816   2.490796
    27  F    9.768182   2.690231   1.383459   4.224156   5.563296
    28  F   11.340226   3.963762   1.379915   2.710763   4.933859
    29  F    9.561845   2.690157   1.383462   4.224066   5.563056
    30  O    9.197223   6.763178   8.090471   7.204517   4.465943
    31  O    7.176235   6.513385   8.447772   8.403542   5.933864
    32  C    8.393141   7.175757   8.840343   8.330709   5.670422
    33  C    9.196536   8.675189  10.331303   9.660044   6.925116
    34  C    8.533625   9.274288  11.188622  10.861354   8.200200
    35  H    9.961903   9.134113  10.669301   9.807792   7.051123
    36  H    9.801860   9.131676  10.665652   9.804044   7.048729
    37  H    8.071241   9.062450  11.071830  10.934472   8.348483
    38  H    9.398311  10.375159  12.250025  11.789529   9.077808
    39  H    7.872089   9.060016  11.068301  10.931053   8.346401
                   26         27         28         29         30
    26  H    0.000000
    27  F    6.088177   0.000000
    28  F    6.257249   2.234801   0.000000
    29  F    6.087939   2.248939   2.234794   0.000000
    30  O    2.571994   8.606294   8.808712   8.603752   0.000000
    31  O    3.504612   8.771420   9.436844   8.768127   2.234800
    32  C    3.477915   9.257643   9.696169   9.254289   1.351530
    33  C    4.904646  10.750895  11.155092  10.746809   2.459941
    34  C    5.982882  11.516628  12.128376  11.511919   3.783729
    35  H    5.216885  11.031644  11.429438  11.210067   2.744254
    36  H    5.216479  11.210526  11.425356  11.023943   2.744074
    37  H    6.055100  11.267649  12.062183  11.442462   4.083618
    38  H    6.959908  12.592135  13.158523  12.587099   4.613983
    39  H    6.054727  11.443655  12.058286  11.259348   4.083450
                   31         32         33         34         35
    31  O    0.000000
    32  C    1.226723   0.000000
    33  C    2.383930   1.505703   0.000000
    34  C    2.766748   2.533863   1.528222   0.000000
    35  H    3.094345   2.137799   1.110983   2.159685   0.000000
    36  H    3.094458   2.137791   1.110980   2.159627   1.804646
    37  H    2.744409   2.805928   2.179312   1.110949   2.504715
    38  H    3.862374   3.482005   2.168494   1.110499   2.483084
    39  H    2.744593   2.805911   2.179276   1.110947   3.089496
                   36         37         38         39
    36  H    0.000000
    37  H    3.089480   0.000000
    38  H    2.483048   1.804388   0.000000
    39  H    2.504560   1.812948   1.804382   0.000000
 Stoichiometry    C14H16ClF3NO4(1-)
 Framework group  C1[X(C14H16ClF3NO4)]
 Deg. of freedom   111
 Full point group                 C1      NOp   1
 Largest Abelian subgroup         C1      NOp   1
 Largest concise Abelian subgroup C1      NOp   1
                         Standard orientation:                         
 ---------------------------------------------------------------------
 Center     Atomic      Atomic             Coordinates (Angstroms)
 Number     Number       Type             X           Y           Z
 ---------------------------------------------------------------------
      1          6           0       -0.624869   -0.109849   -0.001271
      2          7           0        0.713143    0.423941   -0.000547
      3          6           0        1.094195    1.735841   -0.001004
      4          8           0        0.276970    2.642887   -0.002668
      5          8           0        2.420481    2.029585   -0.000315
      6          6           0        2.922487    3.316176   -0.003035
      7          6           0        4.449111    3.272797   -0.000598
      8          6           0        5.039018    4.680608   -0.004298
      9          6           0       -1.803685    0.672691    0.001847
     10          6           0       -3.084403    0.081386    0.000941
     11          6           0       -3.183809   -1.332870   -0.003271
     12          6           0       -2.021446   -2.105841   -0.006236
     13          6           0       -0.765139   -1.505477   -0.005165
     14          1           0        1.567348   -0.339166   -0.000159
     15          1           0        2.565305    3.856422    0.901912
     16          1           0        2.568009    3.851274   -0.912099
     17          1           0        4.804814    2.727672   -0.901815
     18          1           0        4.802016    2.733484    0.905205
     19          1           0        4.714357    5.233120   -0.911891
     20          1           0        6.147649    4.620803   -0.002314
     21          1           0        4.711390    5.239203    0.898490
     22          1           0       -1.775066    1.746356    0.005328
     23          6           0       -4.275443    1.024037    0.004689
     24         17           0       -4.709626   -2.213948   -0.004985
     25          1           0       -2.087091   -3.186596   -0.009407
     26          1           0        0.202181   -2.205119   -0.007853
     27          9           0       -4.218390    1.831413   -1.117294
     28          9           0       -5.495972    0.380242    0.003518
     29          9           0       -4.216847    1.824368    1.131633
     30          8           0        2.359099   -3.606135   -0.004636
     31          8           0        3.684026   -1.806458    0.003206
     32          6           0        3.581128   -3.028855    0.000412
     33          6           0        4.799795   -3.913157    0.002529
     34          6           0        6.112903   -3.131383    0.008655
     35          1           0        4.771517   -4.558585   -0.901300
     36          1           0        4.765526   -4.562506    0.903332
     37          1           0        6.184953   -2.490793   -0.896144
     38          1           0        6.967076   -3.841027    0.009929
     39          1           0        6.178869   -2.494875    0.916790
 ---------------------------------------------------------------------
 Rotational constants (GHZ):           0.2409208           0.1033156           0.0734916
 Standard basis: 6-311+G(d) (5D, 7F)
 There are   585 symmetry adapted cartesian basis functions of A   symmetry.
 There are   562 symmetry adapted basis functions of A   symmetry.
   562 basis functions,   925 primitive gaussians,   585 cartesian basis functions
    92 alpha electrons       92 beta electrons
       nuclear repulsion energy      2019.2650753083 Hartrees.
 NAtoms=   39 NActive=   39 NUniq=   39 SFac= 1.00D+00 NAtFMM=   60 NAOKFM=F Big=F
 Integral buffers will be    131072 words long.
 Raffenetti 2 integral format.
 Two-electron integral symmetry is turned on.
 Nuclear repulsion after empirical dispersion term =     2019.2630395357 Hartrees.
 One-electron integrals computed using PRISM.
 NBasis=   562 RedAO= T EigKep=  1.33D-06  NBF=   562
 NBsUse=   560 1.00D-06 EigRej=  5.50D-07 NBFU=   560
 ExpMin= 4.38D-02 ExpMax= 1.06D+05 ExpMxC= 3.62D+03 IAcc=3 IRadAn=         5 AccDes= 0.00D+00
 Harris functional with IExCor= 1009 and IRadAn=       5 diagonalized for initial guess.
 HarFok:  IExCor= 1009 AccDes= 0.00D+00 IRadAn=         5 IDoV= 1 UseB2=F ITyADJ=14
 ICtDFT=  3500011 ScaDFX=  1.000000  1.000000  1.000000  1.000000
 FoFCou: FMM=F IPFlag=           0 FMFlag=      100000 FMFlg1=           0
         NFxFlg=           0 DoJE=T BraDBF=F KetDBF=T FulRan=T
         wScrn=  0.000000 ICntrl=       500 IOpCl=  0 I1Cent=   200000004 NGrid=           0
         NMat0=    1 NMatS0=      1 NMatT0=    0 NMatD0=    1 NMtDS0=    0 NMtDT0=    0
 Petite list used in FoFCou.
 Requested convergence on RMS density matrix=1.00D-08 within 128 cycles.
 Requested convergence on MAX density matrix=1.00D-06.
 Requested convergence on             energy=1.00D-06.
 No special actions if energy rises.
 SCF Done:  E(RM062X) =  -1658.45295837     A.U. after   16 cycles
            NFock= 16  Conv=0.91D-08     -V/T= 2.0038
 DoSCS=F DFT=T ScalE2(SS,OS)=  1.000000  1.000000
 Range of M.O.s used for correlation:     1   560
 NBasis=   562 NAE=    92 NBE=    92 NFC=     0 NFV=     0
 NROrb=    560 NOA=    92 NOB=    92 NVA=   468 NVB=   468

 **** Warning!!: The largest alpha MO coefficient is  0.14468151D+03

 Symmetrizing basis deriv contribution to polar:
 IMax=3 JMax=2 DiffMx= 0.00D+00
 G2DrvN: will do    40 centers at a time, making    1 passes.
 Calling FoFCou, ICntrl=  3107 FMM=F I1Cent=   0 AccDes= 0.00D+00.
 End of G2Drv F.D. properties file   721 does not exist.
 End of G2Drv F.D. properties file   722 does not exist.
 End of G2Drv F.D. properties file   788 does not exist.
          IDoAtm=111111111111111111111111111111111111111
          Differentiating once with respect to nuclear coordinates.
 CalDSu exits because no D1Ps are significant.
          There are   120 degrees of freedom in the 1st order CPHF.  IDoFFX=6 NUNeed=     0.
    114 vectors produced by pass  0 Test12= 4.31D-14 1.00D-09 XBig12= 5.31D-01 1.52D-01.
 AX will form    64 AO Fock derivatives at one time.
    114 vectors produced by pass  1 Test12= 4.31D-14 1.00D-09 XBig12= 4.81D-02 7.68D-02.
    114 vectors produced by pass  2 Test12= 4.31D-14 1.00D-09 XBig12= 1.69D-03 5.11D-03.
    114 vectors produced by pass  3 Test12= 4.31D-14 1.00D-09 XBig12= 1.52D-05 5.34D-04.
    114 vectors produced by pass  4 Test12= 4.31D-14 1.00D-09 XBig12= 9.23D-08 3.20D-05.
    114 vectors produced by pass  5 Test12= 4.31D-14 1.00D-09 XBig12= 5.28D-10 2.21D-06.
    102 vectors produced by pass  6 Test12= 4.31D-14 1.00D-09 XBig12= 2.47D-12 1.82D-07.
     43 vectors produced by pass  7 Test12= 4.31D-14 1.00D-09 XBig12= 9.72D-15 9.53D-09.
      1 vectors produced by pass  8 Test12= 4.31D-14 1.00D-09 XBig12= 1.10D-16 1.27D-09.
 InvSVY:  IOpt=1 It=  1 EMax= 1.33D-15
 Solved reduced A of dimension   830 with   120 vectors.
 End of Minotr F.D. properties file   721 does not exist.
 End of Minotr F.D. properties file   722 does not exist.
 End of Minotr F.D. properties file   788 does not exist.

 **********************************************************************

            Population analysis using the SCF Density.

 **********************************************************************

 Orbital symmetries:
       Occupied  (A) (A) (A) (A) (A) (A) (A) (A) (A) (A) (A) (A)
                 (A) (A) (A) (A) (A) (A) (A) (A) (A) (A) (A) (A)
                 (A) (A) (A) (A) (A) (A) (A) (A) (A) (A) (A) (A)
                 (A) (A) (A) (A) (A) (A) (A) (A) (A) (A) (A) (A)
                 (A) (A) (A) (A) (A) (A) (A) (A) (A) (A) (A) (A)
                 (A) (A) (A) (A) (A) (A) (A) (A) (A) (A) (A) (A)
                 (A) (A) (A) (A) (A) (A) (A) (A) (A) (A) (A) (A)
                 (A) (A) (A) (A) (A) (A) (A) (A)
       Virtual   (A) (A) (A) (A) (A) (A) (A) (A) (A) (A) (A) (A)
                 (A) (A) (A) (A) (A) (A) (A) (A) (A) (A) (A) (A)
                 (A) (A) (A) (A) (A) (A) (A) (A) (A) (A) (A) (A)
                 (A) (A) (A) (A) (A) (A) (A) (A) (A) (A) (A) (A)
                 (A) (A) (A) (A) (A) (A) (A) (A) (A) (A) (A) (A)
                 (A) (A) (A) (A) (A) (A) (A) (A) (A) (A) (A) (A)
                 (A) (A) (A) (A) (A) (A) (A) (A) (A) (A) (A) (A)
                 (A) (A) (A) (A) (A) (A) (A) (A) (A) (A) (A) (A)
                 (A) (A) (A) (A) (A) (A) (A) (A) (A) (A) (A) (A)
                 (A) (A) (A) (A) (A) (A) (A) (A) (A) (A) (A) (A)
                 (A) (A) (A) (A) (A) (A) (A) (A) (A) (A) (A) (A)
                 (A) (A) (A) (A) (A) (A) (A) (A) (A) (A) (A) (A)
                 (A) (A) (A) (A) (A) (A) (A) (A) (A) (A) (A) (A)
                 (A) (A) (A) (A) (A) (A) (A) (A) (A) (A) (A) (A)
                 (A) (A) (A) (A) (A) (A) (A) (A) (A) (A) (A) (A)
                 (A) (A) (A) (A) (A) (A) (A) (A) (A) (A) (A) (A)
                 (A) (A) (A) (A) (A) (A) (A) (A) (A) (A) (A) (A)
                 (A) (A) (A) (A) (A) (A) (A) (A) (A) (A) (A) (A)
                 (A) (A) (A) (A) (A) (A) (A) (A) (A) (A) (A) (A)
                 (A) (A) (A) (A) (A) (A) (A) (A) (A) (A) (A) (A)
                 (A) (A) (A) (A) (A) (A) (A) (A) (A) (A) (A) (A)
                 (A) (A) (A) (A) (A) (A) (A) (A) (A) (A) (A) (A)
                 (A) (A) (A) (A) (A) (A) (A) (A) (A) (A) (A) (A)
                 (A) (A) (A) (A) (A) (A) (A) (A) (A) (A) (A) (A)
                 (A) (A) (A) (A) (A) (A) (A) (A) (A) (A) (A) (A)
                 (A) (A) (A) (A) (A) (A) (A) (A) (A) (A) (A) (A)
                 (A) (A) (A) (A) (A) (A) (A) (A) (A) (A) (A) (A)
                 (A) (A) (A) (A) (A) (A) (A) (A) (A) (A) (A) (A)
                 (A) (A) (A) (A) (A) (A) (A) (A) (A) (A) (A) (A)
                 (A) (A) (A) (A) (A) (A) (A) (A) (A) (A) (A) (A)
                 (A) (A) (A) (A) (A) (A) (A) (A) (A) (A) (A) (A)
                 (A) (A) (A) (A) (A) (A) (A) (A) (A) (A) (A) (A)
                 (A) (A) (A) (A) (A) (A) (A) (A) (A) (A) (A) (A)
                 (A) (A) (A) (A) (A) (A) (A) (A) (A) (A) (A) (A)
                 (A) (A) (A) (A) (A) (A) (A) (A) (A) (A) (A) (A)
                 (A) (A) (A) (A) (A) (A) (A) (A) (A) (A) (A) (A)
                 (A) (A) (A) (A) (A) (A) (A) (A) (A) (A) (A) (A)
                 (A) (A) (A) (A) (A) (A) (A) (A) (A) (A) (A) (A)
                 (A) (A) (A) (A) (A) (A) (A) (A) (A) (A) (A) (A)
 The electronic state is 1-A.
 Alpha  occ. eigenvalues -- -102.59981 -25.20482 -25.20193 -25.20192 -19.57684
 Alpha  occ. eigenvalues --  -19.50870 -19.41404 -19.38440 -14.71020 -10.73959
 Alpha  occ. eigenvalues --  -10.61727 -10.54239 -10.53081 -10.52061 -10.50990
 Alpha  occ. eigenvalues --  -10.48380 -10.47999 -10.47868 -10.47063 -10.47039
 Alpha  occ. eigenvalues --  -10.46765 -10.41056 -10.40625  -9.74249  -7.46767
 Alpha  occ. eigenvalues --   -7.46091  -7.46064  -1.37019  -1.29180  -1.28982
 Alpha  occ. eigenvalues --   -1.15469  -1.05423  -0.98820  -0.95541  -0.91872
 Alpha  occ. eigenvalues --   -0.85860  -0.85411  -0.82126  -0.80943  -0.76083
 Alpha  occ. eigenvalues --   -0.73458  -0.72948  -0.71337  -0.64733  -0.63595
 Alpha  occ. eigenvalues --   -0.61484  -0.60630  -0.59704  -0.59172  -0.58391
 Alpha  occ. eigenvalues --   -0.55417  -0.54266  -0.50504  -0.49709  -0.49470
 Alpha  occ. eigenvalues --   -0.49234  -0.47597  -0.47003  -0.45858  -0.45253
 Alpha  occ. eigenvalues --   -0.45078  -0.44368  -0.44030  -0.43870  -0.43019
 Alpha  occ. eigenvalues --   -0.41924  -0.40634  -0.39958  -0.39565  -0.38697
 Alpha  occ. eigenvalues --   -0.37514  -0.37248  -0.36435  -0.35789  -0.34364
 Alpha  occ. eigenvalues --   -0.34254  -0.33589  -0.32816  -0.31839  -0.30907
 Alpha  occ. eigenvalues --   -0.30459  -0.29642  -0.28499  -0.27890  -0.27851
 Alpha  occ. eigenvalues --   -0.26603  -0.26487  -0.24220  -0.19513  -0.16211
 Alpha  occ. eigenvalues --   -0.14102  -0.13208
 Alpha virt. eigenvalues --    0.07457   0.08028   0.08764   0.09170   0.10174
 Alpha virt. eigenvalues --    0.10573   0.10688   0.11133   0.11469   0.11897
 Alpha virt. eigenvalues --    0.12767   0.12910   0.13507   0.13719   0.13894
 Alpha virt. eigenvalues --    0.14305   0.14536   0.15054   0.15280   0.15642
 Alpha virt. eigenvalues --    0.16063   0.16131   0.16879   0.17286   0.17512
 Alpha virt. eigenvalues --    0.17804   0.17972   0.18530   0.18919   0.18990
 Alpha virt. eigenvalues --    0.19698   0.19858   0.20365   0.20371   0.21010
 Alpha virt. eigenvalues --    0.21889   0.21978   0.21994   0.22730   0.22816
 Alpha virt. eigenvalues --    0.23447   0.23475   0.23649   0.23972   0.24950
 Alpha virt. eigenvalues --    0.24961   0.25454   0.25655   0.26252   0.26613
 Alpha virt. eigenvalues --    0.27211   0.27585   0.27870   0.27965   0.28121
 Alpha virt. eigenvalues --    0.28808   0.28831   0.28972   0.29627   0.30037
 Alpha virt. eigenvalues --    0.30477   0.30875   0.31054   0.31362   0.31815
 Alpha virt. eigenvalues --    0.32119   0.32237   0.32416   0.32731   0.33365
 Alpha virt. eigenvalues --    0.33467   0.34077   0.34255   0.34591   0.34988
 Alpha virt. eigenvalues --    0.35111   0.35495   0.36363   0.36397   0.36504
 Alpha virt. eigenvalues --    0.37094   0.37309   0.37351   0.37692   0.38292
 Alpha virt. eigenvalues --    0.38671   0.38986   0.39470   0.39878   0.40589
 Alpha virt. eigenvalues --    0.40600   0.41479   0.41523   0.42177   0.42335
 Alpha virt. eigenvalues --    0.42543   0.43183   0.43366   0.43899   0.44313
 Alpha virt. eigenvalues --    0.44905   0.45131   0.45263   0.45607   0.46373
 Alpha virt. eigenvalues --    0.46631   0.46676   0.47558   0.48428   0.48671
 Alpha virt. eigenvalues --    0.48925   0.49754   0.50493   0.50604   0.50896
 Alpha virt. eigenvalues --    0.51355   0.51730   0.52207   0.52956   0.53965
 Alpha virt. eigenvalues --    0.54785   0.55077   0.55350   0.55685   0.55974
 Alpha virt. eigenvalues --    0.56140   0.56757   0.57406   0.57816   0.58516
 Alpha virt. eigenvalues --    0.59410   0.60701   0.61121   0.62727   0.63040
 Alpha virt. eigenvalues --    0.63841   0.64868   0.65157   0.65275   0.66379
 Alpha virt. eigenvalues --    0.66730   0.66886   0.67626   0.68023   0.68409
 Alpha virt. eigenvalues --    0.68461   0.69383   0.70335   0.71229   0.71965
 Alpha virt. eigenvalues --    0.72823   0.73339   0.74448   0.74806   0.74936
 Alpha virt. eigenvalues --    0.75536   0.76996   0.77100   0.77269   0.77737
 Alpha virt. eigenvalues --    0.77785   0.78068   0.78737   0.79873   0.80266
 Alpha virt. eigenvalues --    0.80538   0.80993   0.81893   0.82195   0.82746
 Alpha virt. eigenvalues --    0.83456   0.83520   0.84236   0.84532   0.84660
 Alpha virt. eigenvalues --    0.85430   0.85997   0.86771   0.87866   0.88219
 Alpha virt. eigenvalues --    0.89576   0.90570   0.90959   0.92149   0.94933
 Alpha virt. eigenvalues --    0.95463   0.97098   0.98956   0.99836   1.00289
 Alpha virt. eigenvalues --    1.00733   1.01625   1.02982   1.03127   1.03953
 Alpha virt. eigenvalues --    1.04262   1.04885   1.05348   1.07696   1.08261
 Alpha virt. eigenvalues --    1.10078   1.10887   1.11967   1.12258   1.13294
 Alpha virt. eigenvalues --    1.13896   1.15322   1.16205   1.16955   1.18933
 Alpha virt. eigenvalues --    1.19924   1.20278   1.20877   1.22641   1.23466
 Alpha virt. eigenvalues --    1.26217   1.27202   1.27345   1.30022   1.30156
 Alpha virt. eigenvalues --    1.31380   1.31640   1.33500   1.33781   1.34830
 Alpha virt. eigenvalues --    1.35749   1.36862   1.40292   1.40725   1.41727
 Alpha virt. eigenvalues --    1.41947   1.42261   1.42282   1.43164   1.45829
 Alpha virt. eigenvalues --    1.47134   1.47788   1.48999   1.51088   1.52229
 Alpha virt. eigenvalues --    1.53148   1.54436   1.54474   1.56083   1.56550
 Alpha virt. eigenvalues --    1.57148   1.58315   1.58675   1.58728   1.60690
 Alpha virt. eigenvalues --    1.61062   1.62237   1.63738   1.64060   1.64984
 Alpha virt. eigenvalues --    1.66785   1.66839   1.66865   1.68215   1.68287
 Alpha virt. eigenvalues --    1.69504   1.70093   1.72068   1.72800   1.74284
 Alpha virt. eigenvalues --    1.74363   1.74595   1.76078   1.77271   1.78949
 Alpha virt. eigenvalues --    1.80255   1.81208   1.81745   1.84731   1.85457
 Alpha virt. eigenvalues --    1.86089   1.86199   1.87048   1.89031   1.90047
 Alpha virt. eigenvalues --    1.91550   1.91729   1.92691   1.93673   1.94992
 Alpha virt. eigenvalues --    1.95133   1.96722   1.98099   1.99351   2.00777
 Alpha virt. eigenvalues --    2.01268   2.01871   2.02087   2.03506   2.06540
 Alpha virt. eigenvalues --    2.07714   2.09633   2.12285   2.12636   2.12839
 Alpha virt. eigenvalues --    2.13569   2.17246   2.18894   2.23459   2.26402
 Alpha virt. eigenvalues --    2.27513   2.28639   2.29413   2.32159   2.32665
 Alpha virt. eigenvalues --    2.36923   2.39153   2.42834   2.43114   2.46518
 Alpha virt. eigenvalues --    2.47022   2.51394   2.54377   2.56070   2.56710
 Alpha virt. eigenvalues --    2.59062   2.61105   2.62060   2.64010   2.64278
 Alpha virt. eigenvalues --    2.65495   2.66436   2.67639   2.68832   2.69400
 Alpha virt. eigenvalues --    2.70048   2.71594   2.73817   2.76715   2.78605
 Alpha virt. eigenvalues --    2.78845   2.83157   2.85288   2.88926   2.89045
 Alpha virt. eigenvalues --    2.90198   2.90716   2.94205   2.98219   3.02980
 Alpha virt. eigenvalues --    3.03683   3.04938   3.05329   3.07521   3.08258
 Alpha virt. eigenvalues --    3.11448   3.11528   3.12018   3.13062   3.14271
 Alpha virt. eigenvalues --    3.15322   3.15588   3.16366   3.18802   3.19213
 Alpha virt. eigenvalues --    3.20056   3.23124   3.24105   3.26329   3.26998
 Alpha virt. eigenvalues --    3.27749   3.29313   3.30811   3.34435   3.34972
 Alpha virt. eigenvalues --    3.37079   3.37781   3.39100   3.40322   3.40398
 Alpha virt. eigenvalues --    3.41584   3.45177   3.49212   3.50756   3.51366
 Alpha virt. eigenvalues --    3.52249   3.52713   3.56955   3.60922   3.60998
 Alpha virt. eigenvalues --    3.74304   3.76336   3.77376   3.81267   3.82053
 Alpha virt. eigenvalues --    3.87528   3.88652   3.88890   3.92245   3.92661
 Alpha virt. eigenvalues --    3.93977   3.94684   3.95803   3.97295   4.00233
 Alpha virt. eigenvalues --    4.02649   4.06436   4.07769   4.08995   4.10695
 Alpha virt. eigenvalues --    4.14881   4.16432   4.24349   4.25586   4.28307
 Alpha virt. eigenvalues --    4.29016   4.32610   4.33145   4.35767   4.56312
 Alpha virt. eigenvalues --    4.79122   4.88586   5.00868   5.03797   5.14724
 Alpha virt. eigenvalues --    5.20137   5.26482   5.33430   5.38288   5.48363
 Alpha virt. eigenvalues --    5.50130   5.53728   5.56239   5.83185   5.90673
 Alpha virt. eigenvalues --    6.09677   6.13369   6.52095   6.56435   6.57667
 Alpha virt. eigenvalues --    6.59175   6.61058   6.67089   6.70390   6.89224
 Alpha virt. eigenvalues --    6.92970  10.06485  23.50817  23.65128  23.68289
 Alpha virt. eigenvalues --   23.73136  23.80839  23.87830  23.92778  23.98777
 Alpha virt. eigenvalues --   23.99509  24.01389  24.08279  24.11919  24.15607
 Alpha virt. eigenvalues --   24.24562  26.02401  26.39097  26.84667  35.74061
 Alpha virt. eigenvalues --   50.11772  50.21185  50.23430  50.30671  66.95156
 Alpha virt. eigenvalues --   66.98770  67.04303 216.17015
          Condensed to atoms (all electrons):
               1          2          3          4          5          6
     1  C   35.115892  -0.181851  -0.512124  -0.272187  -0.440936  -0.616255
     2  N   -0.181851   7.772129   0.204269  -0.022470  -0.290579  -0.444946
     3  C   -0.512124   0.204269   8.808432   0.579464   0.315976  -0.776450
     4  O   -0.272187  -0.022470   0.579464   8.087962  -0.210414  -0.193054
     5  O   -0.440936  -0.290579   0.315976  -0.210414   8.470369   0.393803
     6  C   -0.616255  -0.444946  -0.776450  -0.193054   0.393803   8.369858
     7  C    0.062402   0.056679   0.242688   0.034667  -0.185038  -0.965346
     8  C   -0.017542  -0.010691  -0.225582   0.000369   0.023330   0.337637
     9  C  -10.682027   0.127217  -0.346023   0.349985   0.095122  -0.246336
    10  C   -8.155210   0.094321   0.083334   0.060551   0.037082  -0.078179
    11  C    2.088731  -0.137721  -1.711344   0.011397  -0.032282  -0.128718
    12  C   -2.633398   0.197754   0.395087  -0.020690   0.003281   0.047431
    13  C    0.622097  -0.058677  -1.203891  -0.048952  -0.073505  -0.096884
    14  H   -0.048916   0.139037   0.048062  -0.000340   0.031163   0.013788
    15  H    0.010010   0.004303   0.045674  -0.000429  -0.050624   0.354837
    16  H    0.010921   0.004271   0.046077  -0.000431  -0.050568   0.355067
    17  H   -0.000728  -0.000954   0.003699  -0.000313   0.000938  -0.056282
    18  H   -0.000603  -0.000913   0.004051  -0.000310   0.000958  -0.055918
    19  H   -0.000083  -0.000044  -0.001725  -0.000067  -0.000439  -0.043036
    20  H    0.000081   0.000031   0.006273   0.000026  -0.000951   0.087674
    21  H   -0.000094  -0.000046  -0.001900  -0.000067  -0.000444  -0.043373
    22  H   -0.083026  -0.019892   0.098997   0.005267   0.003449   0.011203
    23  C   -7.693890   0.057623   0.009571  -0.015475   0.008800   0.003344
    24  Cl  -0.034024  -0.001646  -0.048932   0.000135  -0.000066  -0.001308
    25  H    0.064553  -0.002064   0.004974  -0.000016  -0.000005   0.000056
    26  H    0.068473  -0.010729   0.001963   0.000171  -0.000204  -0.000326
    27  F    0.088995  -0.000030   0.002367   0.000061   0.000005   0.000055
    28  F    0.065074  -0.000156  -0.001172   0.000057  -0.000001  -0.000003
    29  F    0.090185  -0.000064   0.002131   0.000079   0.000005   0.000046
    30  O   -0.006904  -0.009282   0.014578  -0.000062   0.000150   0.000176
    31  O    0.081243  -0.013739  -0.013473   0.000220   0.002873  -0.010768
    32  C   -0.080640  -0.007651   0.012120   0.000130  -0.001644   0.003074
    33  C   -0.004644  -0.012906   0.007916   0.000216   0.000080   0.002057
    34  C    0.014062   0.002046  -0.004225  -0.000042  -0.000294  -0.000477
    35  H   -0.000184   0.000013   0.000005  -0.000000   0.000001  -0.000009
    36  H   -0.000180   0.000012   0.000003  -0.000000   0.000001  -0.000009
    37  H   -0.000015   0.000107  -0.000085   0.000000  -0.000007   0.000052
    38  H   -0.000014  -0.000025   0.000029  -0.000000   0.000000  -0.000008
    39  H   -0.000019   0.000108  -0.000082   0.000000  -0.000007   0.000052
               7          8          9         10         11         12
     1  C    0.062402  -0.017542 -10.682027  -8.155210   2.088731  -2.633398
     2  N    0.056679  -0.010691   0.127217   0.094321  -0.137721   0.197754
     3  C    0.242688  -0.225582  -0.346023   0.083334  -1.711344   0.395087
     4  O    0.034667   0.000369   0.349985   0.060551   0.011397  -0.020690
     5  O   -0.185038   0.023330   0.095122   0.037082  -0.032282   0.003281
     6  C   -0.965346   0.337637  -0.246336  -0.078179  -0.128718   0.047431
     7  C    6.504278  -0.296626  -0.047533  -0.011206   0.005385  -0.000439
     8  C   -0.296626   6.261932  -0.005794  -0.000693  -0.000924   0.000234
     9  C   -0.047533  -0.005794  29.375898  12.547313 -15.751441   0.718566
    10  C   -0.011206  -0.000693  12.547313  46.919868 -23.450410  -5.103565
    11  C    0.005385  -0.000924 -15.751441 -23.450410  46.684153  -5.931230
    12  C   -0.000439   0.000234   0.718566  -5.103565  -5.931230  18.116995
    13  C    0.030826  -0.002034 -10.351680 -14.865848   6.750929  -0.284877
    14  H   -0.001884  -0.000045   0.040962   0.026293  -0.023963   0.029567
    15  H   -0.018206  -0.022928  -0.003033   0.000109   0.000190  -0.000071
    16  H   -0.019327  -0.022761  -0.003498   0.000080   0.000200  -0.000083
    17  H    0.456489  -0.071949   0.000511   0.000030   0.000001   0.000001
    18  H    0.455524  -0.071865   0.000509   0.000031   0.000001  -0.000002
    19  H    0.019868   0.365165  -0.000018  -0.000003   0.000000   0.000000
    20  H   -0.153915   0.409378   0.000063   0.000002   0.000000  -0.000001
    21  H    0.020366   0.365164  -0.000017  -0.000003   0.000000   0.000000
    22  H   -0.000777   0.000089   0.379774  -0.032469  -0.068400  -0.030937
    23  C   -0.002237   0.000135  -0.485446  -1.581383  -1.559745   0.780832
    24  Cl   0.000008  -0.000004  -0.293009   0.334989  -0.858755  -0.155118
    25  H    0.000000   0.000000  -0.013922   0.044521   0.054264   0.250705
    26  H    0.000027   0.000000  -0.014019   0.022113  -0.053404  -0.047576
    27  F   -0.000000   0.000000  -0.063048   0.173910  -0.097133  -0.011388
    28  F    0.000000  -0.000000   0.198130  -0.143421  -0.097875   0.123684
    29  F   -0.000000   0.000000  -0.062851   0.171819  -0.095521  -0.011305
    30  O    0.000437   0.000009  -0.021051   0.000301   0.007743  -0.026497
    31  O    0.004925   0.000538   0.032035   0.005691   0.000260  -0.005875
    32  C    0.000100  -0.000480  -0.052569  -0.023594   0.000230   0.029678
    33  C    0.000324   0.000852  -0.029896  -0.008708   0.005040  -0.013256
    34  C   -0.000166  -0.000719   0.003795   0.000759  -0.000797  -0.005077
    35  H    0.000011   0.000000  -0.000025  -0.000007  -0.000016  -0.000097
    36  H    0.000010   0.000000  -0.000025  -0.000007  -0.000016  -0.000100
    37  H    0.000050   0.000053  -0.000015  -0.000003   0.000001  -0.000070
    38  H   -0.000006  -0.000003   0.000002   0.000001   0.000000   0.000033
    39  H    0.000050   0.000053  -0.000015  -0.000003   0.000001  -0.000069
              13         14         15         16         17         18
     1  C    0.622097  -0.048916   0.010010   0.010921  -0.000728  -0.000603
     2  N   -0.058677   0.139037   0.004303   0.004271  -0.000954  -0.000913
     3  C   -1.203891   0.048062   0.045674   0.046077   0.003699   0.004051
     4  O   -0.048952  -0.000340  -0.000429  -0.000431  -0.000313  -0.000310
     5  O   -0.073505   0.031163  -0.050624  -0.050568   0.000938   0.000958
     6  C   -0.096884   0.013788   0.354837   0.355067  -0.056282  -0.055918
     7  C    0.030826  -0.001884  -0.018206  -0.019327   0.456489   0.455524
     8  C   -0.002034  -0.000045  -0.022928  -0.022761  -0.071949  -0.071865
     9  C  -10.351680   0.040962  -0.003033  -0.003498   0.000511   0.000509
    10  C  -14.865848   0.026293   0.000109   0.000080   0.000030   0.000031
    11  C    6.750929  -0.023963   0.000190   0.000200   0.000001   0.000001
    12  C   -0.284877   0.029567  -0.000071  -0.000083   0.000001  -0.000002
    13  C   26.477931  -0.075302   0.000448   0.000436  -0.000046  -0.000068
    14  H   -0.075302   0.273976   0.000002  -0.000002  -0.000015  -0.000016
    15  H    0.000448   0.000002   0.488124  -0.046088   0.005476  -0.008652
    16  H    0.000436  -0.000002  -0.046088   0.487917  -0.008620   0.005474
    17  H   -0.000046  -0.000015   0.005476  -0.008620   0.440738  -0.028431
    18  H   -0.000068  -0.000016  -0.008652   0.005474  -0.028431   0.440914
    19  H    0.000013  -0.000000  -0.000971   0.004618  -0.008229   0.006599
    20  H   -0.000020   0.000000  -0.000229  -0.000227  -0.003910  -0.003914
    21  H    0.000014  -0.000000   0.004629  -0.000970   0.006600  -0.008232
    22  H   -0.050961   0.000007  -0.000039  -0.000039  -0.000000  -0.000000
    23  C   -0.840893   0.002208  -0.000022  -0.000030   0.000002   0.000002
    24  Cl   0.148297   0.000039   0.000000   0.000000   0.000000   0.000000
    25  H   -0.078377  -0.000014  -0.000000  -0.000000  -0.000000  -0.000000
    26  H    0.281286   0.011514  -0.000000   0.000000  -0.000000  -0.000000
    27  F   -0.008803  -0.000001   0.000000  -0.000000   0.000000   0.000000
    28  F    0.042235   0.000000   0.000000   0.000000  -0.000000  -0.000000
    29  F   -0.008469  -0.000001  -0.000000   0.000000   0.000000   0.000000
    30  O    0.043634   0.010654  -0.000000  -0.000000  -0.000001  -0.000001
    31  O   -0.099979   0.030481   0.000004   0.000004  -0.000033  -0.000033
    32  C    0.104938   0.001101   0.000014   0.000018   0.000094   0.000093
    33  C    0.008219   0.010655  -0.000003  -0.000002  -0.000257  -0.000248
    34  C   -0.009561  -0.001460   0.000008   0.000008   0.000202   0.000199
    35  H    0.000316  -0.000001   0.000000   0.000000  -0.000000  -0.000000
    36  H    0.000318  -0.000001   0.000000   0.000000  -0.000000  -0.000000
    37  H   -0.000085  -0.000046  -0.000000  -0.000000  -0.000008  -0.000003
    38  H    0.000061   0.000007  -0.000000  -0.000000   0.000000   0.000000
    39  H   -0.000083  -0.000046  -0.000000  -0.000000  -0.000003  -0.000008
              19         20         21         22         23         24
     1  C   -0.000083   0.000081  -0.000094  -0.083026  -7.693890  -0.034024
     2  N   -0.000044   0.000031  -0.000046  -0.019892   0.057623  -0.001646
     3  C   -0.001725   0.006273  -0.001900   0.098997   0.009571  -0.048932
     4  O   -0.000067   0.000026  -0.000067   0.005267  -0.015475   0.000135
     5  O   -0.000439  -0.000951  -0.000444   0.003449   0.008800  -0.000066
     6  C   -0.043036   0.087674  -0.043373   0.011203   0.003344  -0.001308
     7  C    0.019868  -0.153915   0.020366  -0.000777  -0.002237   0.000008
     8  C    0.365165   0.409378   0.365164   0.000089   0.000135  -0.000004
     9  C   -0.000018   0.000063  -0.000017   0.379774  -0.485446  -0.293009
    10  C   -0.000003   0.000002  -0.000003  -0.032469  -1.581383   0.334989
    11  C    0.000000   0.000000   0.000000  -0.068400  -1.559745  -0.858755
    12  C    0.000000  -0.000001   0.000000  -0.030937   0.780832  -0.155118
    13  C    0.000013  -0.000020   0.000014  -0.050961  -0.840893   0.148297
    14  H   -0.000000   0.000000  -0.000000   0.000007   0.002208   0.000039
    15  H   -0.000971  -0.000229   0.004629  -0.000039  -0.000022   0.000000
    16  H    0.004618  -0.000227  -0.000970  -0.000039  -0.000030   0.000000
    17  H   -0.008229  -0.003910   0.006600  -0.000000   0.000002   0.000000
    18  H    0.006599  -0.003914  -0.008232  -0.000000   0.000002   0.000000
    19  H    0.477978  -0.025827  -0.038270  -0.000000  -0.000000  -0.000000
    20  H   -0.025827   0.450751  -0.025829   0.000000   0.000000   0.000000
    21  H   -0.038270  -0.025829   0.478039  -0.000000  -0.000000  -0.000000
    22  H   -0.000000   0.000000  -0.000000   0.354343   0.100292  -0.001600
    23  C   -0.000000   0.000000  -0.000000   0.100292  16.735152  -0.219363
    24  Cl  -0.000000   0.000000  -0.000000  -0.001600  -0.219363  17.818547
    25  H    0.000000  -0.000000   0.000000   0.000074   0.019224  -0.026894
    26  H   -0.000000   0.000000  -0.000000  -0.000048  -0.000895   0.000219
    27  F   -0.000000   0.000000   0.000000  -0.001959   0.081899   0.004457
    28  F   -0.000000  -0.000000  -0.000000   0.000016  -0.087204  -0.034572
    29  F    0.000000   0.000000  -0.000000  -0.001964   0.080848   0.004437
    30  O    0.000000   0.000000   0.000000  -0.000002   0.000100  -0.000131
    31  O    0.000000   0.000001   0.000000   0.000005   0.000152   0.000016
    32  C    0.000001  -0.000004   0.000001   0.000001  -0.003466  -0.000231
    33  C   -0.000002   0.000005  -0.000002  -0.000000  -0.000657  -0.000040
    34  C    0.000003  -0.000010   0.000003   0.000001   0.000035   0.000001
    35  H    0.000000  -0.000000   0.000000  -0.000000  -0.000000  -0.000000
    36  H    0.000000  -0.000000   0.000000  -0.000000  -0.000000  -0.000000
    37  H   -0.000000   0.000000  -0.000000  -0.000000  -0.000000  -0.000000
    38  H    0.000000  -0.000000   0.000000  -0.000000   0.000000   0.000000
    39  H   -0.000000   0.000000  -0.000000  -0.000000  -0.000000  -0.000000
              25         26         27         28         29         30
     1  C    0.064553   0.068473   0.088995   0.065074   0.090185  -0.006904
     2  N   -0.002064  -0.010729  -0.000030  -0.000156  -0.000064  -0.009282
     3  C    0.004974   0.001963   0.002367  -0.001172   0.002131   0.014578
     4  O   -0.000016   0.000171   0.000061   0.000057   0.000079  -0.000062
     5  O   -0.000005  -0.000204   0.000005  -0.000001   0.000005   0.000150
     6  C    0.000056  -0.000326   0.000055  -0.000003   0.000046   0.000176
     7  C    0.000000   0.000027  -0.000000   0.000000  -0.000000   0.000437
     8  C    0.000000   0.000000   0.000000  -0.000000   0.000000   0.000009
     9  C   -0.013922  -0.014019  -0.063048   0.198130  -0.062851  -0.021051
    10  C    0.044521   0.022113   0.173910  -0.143421   0.171819   0.000301
    11  C    0.054264  -0.053404  -0.097133  -0.097875  -0.095521   0.007743
    12  C    0.250705  -0.047576  -0.011388   0.123684  -0.011305  -0.026497
    13  C   -0.078377   0.281286  -0.008803   0.042235  -0.008469   0.043634
    14  H   -0.000014   0.011514  -0.000001   0.000000  -0.000001   0.010654
    15  H   -0.000000  -0.000000   0.000000   0.000000  -0.000000  -0.000000
    16  H   -0.000000   0.000000  -0.000000   0.000000   0.000000  -0.000000
    17  H   -0.000000  -0.000000   0.000000  -0.000000   0.000000  -0.000001
    18  H   -0.000000  -0.000000   0.000000  -0.000000   0.000000  -0.000001
    19  H    0.000000  -0.000000  -0.000000  -0.000000   0.000000   0.000000
    20  H   -0.000000   0.000000   0.000000  -0.000000   0.000000   0.000000
    21  H    0.000000  -0.000000   0.000000  -0.000000  -0.000000   0.000000
    22  H    0.000074  -0.000048  -0.001959   0.000016  -0.001964  -0.000002
    23  C    0.019224  -0.000895   0.081899  -0.087204   0.080848   0.000100
    24  Cl  -0.026894   0.000219   0.004457  -0.034572   0.004437  -0.000131
    25  H    0.403531  -0.003262   0.000018   0.000007   0.000018  -0.000069
    26  H   -0.003262   0.297717  -0.000005  -0.000001  -0.000005   0.022577
    27  F    0.000018  -0.000005   8.963034  -0.027736  -0.055660   0.000000
    28  F    0.000007  -0.000001  -0.027736   9.088780  -0.027722   0.000000
    29  F    0.000018  -0.000005  -0.055660  -0.027722   8.963100   0.000000
    30  O   -0.000069   0.022577   0.000000   0.000000   0.000000   8.488737
    31  O   -0.000018   0.003094   0.000000  -0.000000   0.000000  -0.197765
    32  C   -0.000700   0.001075  -0.000005   0.000004  -0.000005   0.515223
    33  C   -0.000080   0.009387  -0.000000   0.000000  -0.000000  -0.297353
    34  C   -0.000004  -0.000346   0.000000   0.000000   0.000000   0.023438
    35  H    0.000000  -0.000006  -0.000000   0.000000  -0.000000  -0.002099
    36  H    0.000000  -0.000006  -0.000000   0.000000  -0.000000  -0.002098
    37  H    0.000000  -0.000000  -0.000000   0.000000  -0.000000  -0.000345
    38  H    0.000000  -0.000000   0.000000  -0.000000   0.000000  -0.000062
    39  H    0.000000  -0.000000  -0.000000   0.000000  -0.000000  -0.000344
              31         32         33         34         35         36
     1  C    0.081243  -0.080640  -0.004644   0.014062  -0.000184  -0.000180
     2  N   -0.013739  -0.007651  -0.012906   0.002046   0.000013   0.000012
     3  C   -0.013473   0.012120   0.007916  -0.004225   0.000005   0.000003
     4  O    0.000220   0.000130   0.000216  -0.000042  -0.000000  -0.000000
     5  O    0.002873  -0.001644   0.000080  -0.000294   0.000001   0.000001
     6  C   -0.010768   0.003074   0.002057  -0.000477  -0.000009  -0.000009
     7  C    0.004925   0.000100   0.000324  -0.000166   0.000011   0.000010
     8  C    0.000538  -0.000480   0.000852  -0.000719   0.000000   0.000000
     9  C    0.032035  -0.052569  -0.029896   0.003795  -0.000025  -0.000025
    10  C    0.005691  -0.023594  -0.008708   0.000759  -0.000007  -0.000007
    11  C    0.000260   0.000230   0.005040  -0.000797  -0.000016  -0.000016
    12  C   -0.005875   0.029678  -0.013256  -0.005077  -0.000097  -0.000100
    13  C   -0.099979   0.104938   0.008219  -0.009561   0.000316   0.000318
    14  H    0.030481   0.001101   0.010655  -0.001460  -0.000001  -0.000001
    15  H    0.000004   0.000014  -0.000003   0.000008   0.000000   0.000000
    16  H    0.000004   0.000018  -0.000002   0.000008   0.000000   0.000000
    17  H   -0.000033   0.000094  -0.000257   0.000202  -0.000000  -0.000000
    18  H   -0.000033   0.000093  -0.000248   0.000199  -0.000000  -0.000000
    19  H    0.000000   0.000001  -0.000002   0.000003   0.000000   0.000000
    20  H    0.000001  -0.000004   0.000005  -0.000010  -0.000000  -0.000000
    21  H    0.000000   0.000001  -0.000002   0.000003   0.000000   0.000000
    22  H    0.000005   0.000001  -0.000000   0.000001  -0.000000  -0.000000
    23  C    0.000152  -0.003466  -0.000657   0.000035  -0.000000  -0.000000
    24  Cl   0.000016  -0.000231  -0.000040   0.000001  -0.000000  -0.000000
    25  H   -0.000018  -0.000700  -0.000080  -0.000004   0.000000   0.000000
    26  H    0.003094   0.001075   0.009387  -0.000346  -0.000006  -0.000006
    27  F    0.000000  -0.000005  -0.000000   0.000000  -0.000000  -0.000000
    28  F   -0.000000   0.000004   0.000000   0.000000   0.000000   0.000000
    29  F    0.000000  -0.000005  -0.000000   0.000000  -0.000000  -0.000000
    30  O   -0.197765   0.515223  -0.297353   0.023438  -0.002099  -0.002098
    31  O    8.481064   0.306885  -0.227543   0.065308  -0.000682  -0.000670
    32  C    0.306885   6.035331  -1.064181   0.235361  -0.050286  -0.050141
    33  C   -0.227543  -1.064181   7.720656  -0.555927   0.441319   0.441143
    34  C    0.065308   0.235361  -0.555927   6.109186  -0.060316  -0.060305
    35  H   -0.000682  -0.050286   0.441319  -0.060316   0.468039  -0.030888
    36  H   -0.000670  -0.050141   0.441143  -0.060305  -0.030888   0.468039
    37  H   -0.008829  -0.024710  -0.006853   0.388476  -0.007641   0.006328
    38  H    0.003593   0.085941  -0.151170   0.399629  -0.003889  -0.003891
    39  H   -0.008831  -0.024797  -0.006730   0.388449   0.006327  -0.007644
              37         38         39
     1  C   -0.000015  -0.000014  -0.000019
     2  N    0.000107  -0.000025   0.000108
     3  C   -0.000085   0.000029  -0.000082
     4  O    0.000000  -0.000000   0.000000
     5  O   -0.000007   0.000000  -0.000007
     6  C    0.000052  -0.000008   0.000052
     7  C    0.000050  -0.000006   0.000050
     8  C    0.000053  -0.000003   0.000053
     9  C   -0.000015   0.000002  -0.000015
    10  C   -0.000003   0.000001  -0.000003
    11  C    0.000001   0.000000   0.000001
    12  C   -0.000070   0.000033  -0.000069
    13  C   -0.000085   0.000061  -0.000083
    14  H   -0.000046   0.000007  -0.000046
    15  H   -0.000000  -0.000000  -0.000000
    16  H   -0.000000  -0.000000  -0.000000
    17  H   -0.000008   0.000000  -0.000003
    18  H   -0.000003   0.000000  -0.000008
    19  H   -0.000000   0.000000  -0.000000
    20  H    0.000000  -0.000000   0.000000
    21  H   -0.000000   0.000000  -0.000000
    22  H   -0.000000  -0.000000  -0.000000
    23  C   -0.000000   0.000000  -0.000000
    24  Cl  -0.000000   0.000000  -0.000000
    25  H    0.000000   0.000000   0.000000
    26  H   -0.000000  -0.000000  -0.000000
    27  F   -0.000000   0.000000  -0.000000
    28  F    0.000000  -0.000000   0.000000
    29  F   -0.000000   0.000000  -0.000000
    30  O   -0.000345  -0.000062  -0.000344
    31  O   -0.008829   0.003593  -0.008831
    32  C   -0.024710   0.085941  -0.024797
    33  C   -0.006853  -0.151170  -0.006730
    34  C    0.388476   0.399629   0.388449
    35  H   -0.007641  -0.003889   0.006327
    36  H    0.006328  -0.003891  -0.007644
    37  H    0.468342  -0.036033  -0.027756
    38  H   -0.036033   0.526582  -0.036025
    39  H   -0.027756  -0.036025   0.468319
 Mulliken charges:
               1
     1  C   -0.917226
     2  N   -0.432843
     3  C   -0.090735
     4  O   -0.345440
     5  O   -0.049381
     6  C   -0.222529
     7  C   -0.192410
     8  C   -1.014298
     9  C    0.603407
    10  C   -1.068402
    11  C    0.391169
    12  C   -0.412128
    13  C   -0.353003
    14  H    0.482539
    15  H    0.237467
    16  H    0.237554
    17  H    0.264998
    18  H    0.264861
    19  H    0.244468
    20  H    0.260550
    21  H    0.244431
    22  H    0.338596
    23  C    0.610488
    24  Cl   0.364548
    25  H    0.283476
    26  H    0.411218
    27  F   -0.049032
    28  F   -0.098125
    29  F   -0.049102
    30  O   -0.563691
    31  O   -0.430156
    32  C    0.053691
    33  C   -0.267409
    34  C   -0.931241
    35  H    0.240117
    36  H    0.240127
    37  H    0.249094
    38  H    0.215247
    39  H    0.249106
 Sum of Mulliken charges =  -1.00000
 Mulliken charges with hydrogens summed into heavy atoms:
               1
     1  C   -0.917226
     2  N    0.049695
     3  C   -0.090735
     4  O   -0.345440
     5  O   -0.049381
     6  C    0.252493
     7  C    0.337448
     8  C   -0.264848
     9  C    0.942003
    10  C   -1.068402
    11  C    0.391169
    12  C   -0.128651
    13  C    0.058215
    23  C    0.610488
    24  Cl   0.364548
    27  F   -0.049032
    28  F   -0.098125
    29  F   -0.049102
    30  O   -0.563691
    31  O   -0.430156
    32  C    0.053691
    33  C    0.212835
    34  C   -0.217793
 APT charges:
               1
     1  C   -1.767448
     2  N   -0.896939
     3  C    0.208855
     4  O   -0.226233
     5  O    0.674486
     6  C   -1.141122
     7  C   -0.093241
     8  C   -2.677034
     9  C    0.582347
    10  C   -1.397393
    11  C    3.339660
    12  C   -0.711268
    13  C   -0.717909
    14  H    0.553219
    15  H    0.475473
    16  H    0.474934
    17  H    0.424421
    18  H    0.424958
    19  H    0.467854
    20  H    0.990265
    21  H    0.468433
    22  H    0.567852
    23  C   -0.996362
    24  Cl  -0.482643
    25  H    0.810160
    26  H    0.507590
    27  F   -0.119603
[...]
 67737,0.09343439,-0.00033125,0.00005040,0.00001624,0.00006404,-0.00087
 461,-0.00010439,0.00030604,0.00016302,-0.00002616,-0.00010091,-0.00019
 668,0.00001908,-0.00012290,-0.00002539,0.00001387,0.00009083,0.0000262
 2,-0.00000991,-0.00000405,-0.00000674,-0.00001100,0.00000017,0.0000065
 3,0.00000285,0.00006542,-0.00004509,0.00000192,0.00000329,-0.00001883,
 0.00000476,-0.00001731,-0.00000672,0.00000259,-0.00001834,-0.00000423,
 0.00001412,0.00007277,0.00006997,-0.00004174,-0.00004776,0.00138904,0.
 00026944,-0.00001183,-0.00000724,-0.00000135,-0.00001277,-0.00001243,0
 .00000539,0.00000301,0.00000386,-0.00000199,0.00000710,-0.00000037,0.0
 0000751,-0.00000171,-0.00000505,0.00000206,-0.00000708,0.00000194,-0.0
 0000118,0.00000042,-0.00000135,0.00000011,-0.00000947,0.00000830,-0.00
 000272,-0.00003007,0.00005897,-0.00001755,0.00004427,-0.00001137,-0.00
 000058,0.00000960,-0.00000060,-0.00000932,-0.00007054,-0.00001188,0.00
 002308,0.00000561,-0.00001500,0.00000338,0.00001660,-0.00002138,0.0000
 2088,0.00001281,-0.00001845,-0.00000745,0.00096662,0.00177014,0.004392
 23,0.00128712,-0.00660739,0.00399265,-0.01396434,-0.01344130,-0.029547
 99,-0.04655045,-0.10456965,-0.10486054,0.00181770,0.00101597,0.0029751
 8,0.05018494,0.11293520,-0.00013416,0.00002581,-0.00001045,0.00004584,
 -0.00020454,0.00004151,0.00005746,0.00012294,-0.00001445,-0.00002225,-
 0.00010408,0.00000485,-0.00002658,-0.00004644,0.00001060,0.00004607,0.
 00002165,-0.00000501,-0.00000046,0.00000728,-0.00000762,0.00000402,-0.
 00000211,0.00000128,0.00001605,-0.00001838,0.00000217,0.00001076,-0.00
 001863,-0.00000077,-0.00003061,0.00000384,0.00000413,-0.00002298,-0.00
 001386,-0.00000284,0.00003818,0.00001501,0.00001503,-0.00001549,0.0003
 5695,-0.00006786,-0.00000398,-0.00000367,-0.00000393,-0.00000463,-0.00
 000690,0.00000631,0.00000585,0.00000315,-0.00000836,0.00000593,-0.0000
 0022,0.00001048,-0.00000278,-0.00000533,0.00000462,-0.00000307,0.00000
 361,-0.00000104,-0.00000188,-0.00000281,-0.00000294,-0.00000448,0.0000
 0330,-0.00000190,-0.00003482,0.00006779,-0.00001232,0.00004333,-0.0000
 1220,0.00000090,0.00000377,0.00000101,-0.00000583,-0.00002716,0.000040
 75,-0.00001046,0.00000461,-0.00001656,0.00000217,0.00001817,-0.0000234
 0,0.00001885,0.00001448,-0.00002080,-0.00000852,0.00189134,0.00013481,
 0.00112213,0.00085404,-0.00016249,-0.00033560,-0.00223749,0.00230171,0
 .00047000,-0.07764552,-0.10119470,-0.21292272,0.00106902,0.00160487,0.
 00203122,0.08621541,0.10980949,0.22989012,-0.00002815,0.00002336,0.000
 00934,0.00009831,0.00013629,-0.00005160,-0.00025925,0.00000680,0.00001
 601,0.00006667,0.00001092,-0.00000320,0.00014691,-0.00006729,-0.000023
 11,-0.00006066,0.00000344,0.00000352,0.00000523,0.00002444,0.00003183,
 0.00001213,-0.00001379,-0.00000829,0.00001134,-0.00001164,-0.00000669,
 -0.00001015,0.00001834,0.00000289,0.00001466,-0.00000305,0.00000272,0.
 00000218,0.00001043,0.00000073,0.00001466,-0.00002083,-0.00001345,-0.0
 0001421,-0.00021676,0.00010615,0.00001005,-0.00000893,-0.00000526,0.00
 000741,0.00000097,0.00000138,0.00001191,0.00001606,-0.00003939,0.00000
 197,0.00001041,0.00002227,-0.00000465,-0.00000213,0.00000396,0.0000087
 5,0.00000359,0.00000368,-0.00000874,-0.00001043,-0.00000703,-0.0000051
 5,0.00000273,0.00000104,0.00000100,-0.00003330,0.00000631,-0.00000878,
 0.00000443,-0.00000138,0.00000434,-0.00000218,-0.00000136,0.00002593,-
 0.00010418,0.00000598,0.00000571,0.00001059,-0.00000130,-0.00000452,0.
 00000992,-0.00000635,-0.00000244,0.00000859,0.00000103,-0.00073249,0.0
 0103225,0.00104022,0.00075312,0.00112622,0.00074193,0.00242246,0.00262
 735,-0.01020382,-0.08165256,-0.04409561,0.07698268,-0.01285496,-0.0155
 2299,0.02809582,0.00403474,0.00646264,-0.00959975,0.09215366,-0.000329
 00,0.00004960,-0.00001483,0.00006410,-0.00086908,0.00012131,0.00030531
 ,0.00016108,0.00002039,-0.00010068,-0.00019507,-0.00001442,-0.00012254
 ,-0.00002472,-0.00001224,0.00009003,0.00002598,0.00000861,-0.00000396,
 -0.00000668,0.00001101,0.00000006,0.00000652,-0.00000294,0.00006517,-0
 .00004480,-0.00000150,0.00000304,-0.00001854,-0.00000445,-0.00001671,-
 0.00000686,-0.00000223,-0.00001801,-0.00000423,-0.00001398,0.00007239,
 0.00007057,0.00004011,-0.00004970,0.00137759,-0.00029663,-0.00001273,-
 0.00001240,-0.00000493,-0.00001175,-0.00000714,0.00000150,0.00000693,-
 0.00000051,-0.00000735,0.00000290,0.00000384,0.00000172,0.00000045,-0.
 00000130,-0.00000014,-0.00000702,0.00000190,0.00000118,-0.00000167,-0.
 00000498,-0.00000186,-0.00000937,0.00000829,0.00000259,-0.00002926,0.0
 0005797,0.00001642,0.00004343,-0.00001112,0.00000047,0.00000961,-0.000
 00045,0.00000914,-0.00007017,-0.00001331,-0.00002242,0.00000550,-0.000
 01473,-0.00000310,0.00001259,-0.00001790,0.00000753,0.00001609,-0.0000
 2132,-0.00002023,0.00089441,0.00168278,-0.00440917,0.00124017,-0.00668
 528,-0.00387499,-0.01369707,-0.01290245,0.02991049,-0.04426108,-0.1005
 8813,0.10299731,0.00177620,0.00092808,-0.00296946,0.00654762,0.0076782
 6,-0.01359496,0.04769470,0.10869495,0.00014082,-0.00002719,-0.00001082
 ,-0.00004755,0.00022133,0.00003590,-0.00006162,-0.00012646,-0.00001215
 ,0.00002376,0.00010794,0.00000298,0.00002798,0.00004765,0.00000990,-0.
 00004745,-0.00002229,-0.00000443,0.00000044,-0.00000747,-0.00000793,-0
 .00000410,0.00000211,0.00000139,-0.00001741,0.00001939,0.00000204,-0.0
 0001075,0.00001884,-0.00000099,0.00003086,-0.00000361,0.00000399,0.000
 02330,0.00001381,-0.00000303,-0.00003960,-0.00001597,0.00001494,0.0000
 1609,-0.00038370,-0.00005603,0.00000485,0.00000733,0.00000628,0.000004
 13,0.00000373,-0.00000407,-0.00000608,0.00000031,0.00001095,-0.0000059
 9,-0.00000347,-0.00000845,0.00000189,0.00000280,-0.00000303,0.00000314
 ,-0.00000369,-0.00000104,0.00000291,0.00000559,0.00000459,0.00000469,-
 0.00000352,-0.00000193,0.00003530,-0.00006893,-0.00001164,-0.00004412,
 0.00001241,0.00000101,-0.00000404,-0.00000109,-0.00000595,0.00002827,-
 0.00003988,-0.00000947,-0.00000474,0.00001682,0.00000195,-0.00001477,0
 .00002092,-0.00000892,-0.00001832,0.00002412,0.00001893,-0.00189583,-0
 .00015451,0.00121756,-0.00088706,0.00027794,-0.00026082,0.00249331,-0.
 00206168,-0.00001062,0.07753829,0.09933478,-0.21806206,-0.00099282,-0.
 00146793,0.00191913,0.00927474,0.01295860,-0.02246332,-0.08612878,-0.1
 0780078,0.23542279,-0.00007869,0.00002112,-0.00001339,-0.00001598,-0.0
 0009298,-0.00002629,0.00009444,0.00005824,0.00002270,-0.00003113,-0.00
 004144,-0.00000716,-0.00008469,-0.00000896,-0.00002581,0.00009296,0.00
 000243,0.00001406,-0.00001689,-0.00000809,-0.00000976,-0.00000724,0.00
 000528,0.00000275,0.00001329,-0.00000526,0.00000835,0.00000101,-0.0000
 0266,-0.00001099,-0.00000570,-0.00000181,0.00000819,-0.00001010,-0.000
 00107,-0.00001561,0.00001356,0.00003333,0.00000221,0.00001453,0.000163
 44,0.00004436,-0.00001562,0.00000150,-0.00000241,-0.00000993,0.0000043
 5,-0.00000104,0.00002106,-0.00000486,0.00003614,0.00000054,-0.00000843
 ,-0.00002715,0.00000487,0.00000431,-0.00000393,-0.00001261,-0.00000183
 ,-0.00000219,0.00000409,0.00000576,0.00000375,-0.00000116,0.00000240,0
 .00000215,-0.00000854,0.00001686,0.00001329,0.00001153,-0.00000223,-0.
 00000067,0.00000273,-0.00000316,0.00000439,-0.00001510,-0.00002549,0.0
 0001455,0.00000129,-0.00000425,-0.00000190,0.00000233,-0.00000434,-0.0
 0000170,0.00000568,-0.00000685,-0.00000802,0.00074927,0.00067690,-0.00
 039649,0.00136018,0.00108448,-0.00089574,-0.00104305,-0.00256568,0.000
 75440,-0.01330459,-0.01568528,0.02942892,-0.08066187,-0.04404706,0.078
 43720,0.00145084,-0.00052740,-0.00046604,-0.00680305,0.00087989,-0.000
 61346,0.09125014,0.00013243,-0.00002333,0.00002081,-0.00005066,0.00021
 405,-0.00000137,0.00002047,-0.00017812,-0.00000457,0.00001349,0.000144
 96,-0.00000303,0.00002062,0.00011478,0.00003118,-0.00011113,-0.0000550
 6,-0.00000222,0.00001621,-0.00001833,-0.00002092,-0.00001534,0.0000106
 5,0.00001159,-0.00001487,0.00002027,-0.00001090,-0.00001111,0.00001981
 ,0.00000334,0.00002565,-0.00000295,-0.00000166,0.00001301,0.00000964,-
 0.00000489,-0.00003636,-0.00001285,-0.00000423,0.00001857,-0.00036731,
 -0.00001856,0.00001224,0.00001638,0.00000708,0.00001127,0.00001070,-0.
 00000777,-0.00002304,0.00002717,0.00003273,-0.00001565,0.00000444,-0.0
 0001749,0.00000548,0.00000814,-0.00000371,0.00001814,-0.00000467,0.000
 00296,0.00001066,0.00000618,0.00000051,0.00000467,-0.00000378,0.000000
 62,0.00002738,-0.00007667,0.00000554,-0.00003675,0.00001159,0.00000002
 ,-0.00000016,-0.00000459,0.00000141,0.00002930,-0.00005443,0.00000172,
 0.00000016,0.00002171,-0.00000125,-0.00001510,0.00002438,-0.00001599,-
 0.00001335,0.00002333,0.00001144,-0.00051706,0.00006563,0.00000835,0.0
 0018034,-0.00033836,0.00011298,0.00089429,0.00006142,-0.00064978,-0.00
 020025,0.00065871,-0.00150383,-0.04541939,-0.10426020,0.10256970,-0.00
 040211,-0.00005320,0.00006318,0.00058279,0.00050698,-0.00047947,0.0495
 5729,0.10930839,0.00014637,-0.00006048,-0.00000005,-0.00020847,-0.0000
 3224,0.00002772,0.00042482,-0.00012856,-0.00002969,-0.00010017,0.00008
 384,0.00000779,-0.00024964,0.00017448,0.00004199,0.00007536,-0.0000161
 3,-0.00000034,-0.00001135,-0.00006305,-0.00007552,-0.00003580,0.000038
 84,0.00002233,-0.00003024,0.00002800,0.00000088,0.00000513,-0.00001021
 ,0.00000166,0.00000282,0.00000448,-0.00000098,0.00000702,-0.00000452,0
 .00000421,-0.00003474,-0.00002488,0.00000338,0.00004512,0.00000506,-0.
 00004739,-0.00001399,0.00002777,0.00001368,-0.00000982,0.00000929,-0.0
 0000761,-0.00005302,-0.00006772,0.00011537,-0.00001144,-0.00002978,-0.
 00007903,0.00001439,0.00001116,-0.00001015,-0.00001153,-0.00001122,-0.
 00000724,0.00002451,0.00002721,0.00001476,0.00001210,-0.00000705,-0.00
 000245,0.00002516,-0.00000269,-0.00001149,-0.00001967,0.00000235,0.000
 00052,-0.00000621,0.00000321,-0.00000212,0.00001000,0.00004666,-0.0000
 1102,-0.00001181,-0.00000327,0.00000229,-0.00000560,0.00000185,-0.0000
 0063,-0.00000868,0.00000438,0.00000993,-0.00035045,-0.00085013,-0.0000
 5997,-0.00193635,-0.00070366,0.00071735,0.00128364,0.00260688,-0.00003
 655,-0.00014209,-0.00131903,0.00099824,0.07985714,0.10069769,-0.227421
 98,0.00053058,-0.00024244,0.00073293,-0.00041869,0.00002463,0.00157242
 ,-0.08616935,-0.11188826,0.24375312,-0.00004947,0.00006590,-0.00000045
 ,0.00015307,0.00028022,-0.00000315,-0.00039944,-0.00009427,0.00000238,
 0.00010595,0.00009294,-0.00000130,0.00021435,-0.00006269,-0.00000007,-
 0.00008779,-0.00001779,0.00000049,0.00000217,0.00003166,-0.00000039,0.
 00001297,-0.00002215,0.00000020,0.00003893,-0.00000440,-0.00000011,-0.
 00003414,0.00005556,-0.00000040,0.00005716,-0.00001696,-0.00000005,0.0
 0001593,0.00003519,-0.00000043,0.00001252,0.00006429,-0.00000069,0.000
 00088,-0.00046190,0.00000425,0.00001099,0.00000219,-0.00000103,0.00001
 099,0.00000218,0.00000091,0.00001367,0.00000939,-0.00002330,0.00001401
 ,0.00000992,0.00002303,-0.00000669,-0.00000179,0.00000226,0.00000506,0
 .00000028,-0.00000002,-0.00000668,-0.00000182,-0.00000218,-0.00000781,
 0.00000720,-0.00000004,0.00003002,-0.00013721,0.00000121,-0.00005105,0
 .00002220,-0.00000001,0.00001030,-0.00001944,0.00000015,0.00003209,-0.
 00032048,0.00000299,0.00001087,0.00004101,-0.00000044,-0.00002088,0.00
 004032,-0.00002073,-0.00002072,0.00004072,0.00002010,-0.00331499,0.003
 31491,-0.00001915,0.00164180,0.00105073,-0.00001390,-0.00450125,-0.006
 66108,0.00008459,-0.00938086,0.03504387,-0.00031223,-0.07361080,0.0778
 2859,-0.00067229,0.00118164,-0.00048480,-0.00071857,0.00118640,-0.0004
 7351,0.00071885,0.00309530,-0.01130470,-0.00205183,0.08044677,-0.00020
 270,0.00002127,0.00000068,0.00000604,-0.00044066,0.00000461,0.00015950
 ,0.00032253,-0.00000395,-0.00006976,-0.00026459,0.00000284,-0.00012440
 ,-0.00013013,0.00000214,0.00017825,0.00006361,-0.00000134,-0.00001486,
 0.00003309,-0.00000061,0.00002477,-0.00002002,0.00000022,0.00000962,-0
 .00003024,0.00000021,0.00003285,-0.00005808,0.00000047,-0.00007368,0.0
 0001194,0.00000018,-0.00002261,-0.00002732,0.00000032,0.00005111,0.000
 02495,-0.00000054,-0.00000607,0.00079280,-0.00000821,-0.00001802,-0.00
 001893,-0.00001304,-0.00001793,-0.00001876,0.00001357,0.00003933,0.000
 00924,-0.00003475,0.00003997,0.00001007,0.00003441,-0.00001137,-0.0000
 1128,0.00000555,-0.00002720,0.00001083,0.00000001,-0.00001134,-0.00001
 136,-0.00000525,-0.00000483,0.00000513,-0.00000004,-0.00006236,0.00019
 462,-0.00000164,0.00008491,-0.00002905,-0.00000005,-0.00000473,0.00001
 285,-0.00000010,-0.00007729,0.00020955,-0.00000177,-0.00000462,-0.0000
 5577,0.00000056,0.00003485,-0.00005980,0.00003318,0.00003459,-0.000060
 44,-0.00003230,0.00167792,-0.00020837,-0.00000432,0.00211123,-0.000493
 20,0.00000345,-0.00256203,0.00006744,0.00001634,-0.00200629,0.00108826
 ,-0.00001561,0.07767525,-0.28107467,0.00195983,0.00070187,0.00026062,0
 .00036922,0.00069874,0.00024614,-0.00037997,0.00402806,-0.01319928,-0.
 00110599,-0.08650493,0.30648928,0.00000219,-0.00000035,0.00000976,-0.0
 0000047,0.00000366,0.00003771,-0.00000014,-0.00000300,-0.00002074,0.00
 000029,0.00000226,0.00000157,0.00000055,0.00000187,0.00003857,-0.00000
 140,-0.00000053,-0.00000129,-0.00000004,-0.00000090,-0.00003993,-0.000
 00024,0.00000043,0.00001368,-0.00000026,0.00000027,-0.00000449,-0.0000
 0018,0.00000040,0.00000359,0.00000051,-0.00000005,0.00000022,0.0000001
 5,0.00000011,-0.00000257,-0.00000059,-0.00000059,-0.00001075,-0.000000
 20,-0.00000667,-0.00006104,0.00000035,0.00000437,0.00000146,-0.0000000
 8,-0.00000398,0.00000127,-0.00001776,-0.00000680,0.00001004,0.00001696
 ,0.00000674,0.00000885,-0.00000344,-0.00000116,-0.00000031,0.00000025,
 -0.00000010,0.00000063,0.00000372,0.00000140,-0.00000024,0.00000007,-0
 .00000008,-0.00000059,0.00000050,-0.00000138,0.00000075,-0.00000064,0.
 00000020,0.00000042,0.00000001,-0.00000005,0.00000045,0.00000063,-0.00
 000089,-0.00000215,0.,0.00000039,-0.00000032,-0.00000051,0.00000067,-0
 .00000099,-0.00000002,0.00000019,-0.00000050,-0.00000403,-0.00001015,0
 .00003751,-0.00002490,0.00000790,0.00069238,0.00004488,0.00003177,0.00
 067509,0.00005043,-0.00015452,-0.00128440,-0.00067087,0.00195910,-0.05
 040257,0.00000907,0.00036150,-0.00003860,-0.00003187,-0.00036335,-0.00
 002945,-0.01035168,0.02514523,0.00148719,0.00071900,-0.00220760,0.0470
 2385,-0.00007964,0.00002183,0.00001358,-0.00001417,-0.00009207,0.00002
 843,0.00009102,0.00005871,-0.00002478,-0.00003029,-0.00004188,0.000008
 27,-0.00008259,-0.00000978,0.00002697,0.00009228,0.00000232,-0.0000148
 6,-0.00001673,-0.00000754,0.00000963,-0.00000700,0.00000497,-0.0000026
 6,0.00001344,-0.00000563,-0.00000835,0.00000106,-0.00000236,0.00001104
 ,-0.00000578,-0.00000200,-0.00000811,-0.00001002,-0.00000073,0.0000157
 2,0.00001378,0.00003345,-0.00000290,0.00001378,0.00016229,-0.00004792,
 -0.00000984,0.00000429,0.00000098,-0.00001550,0.00000134,0.00000260,0.
 00000084,-0.00000767,0.00002667,0.00002120,-0.00000498,-0.00003542,0.0
 0000389,0.00000549,-0.00000378,-0.00001250,-0.00000171,0.00000227,0.00
 000479,0.00000429,0.00000373,-0.00000127,0.00000241,-0.00000220,-0.000
 00883,0.00001661,-0.00001364,0.00001168,-0.00000223,0.00000063,0.00000
 274,-0.00000327,-0.00000437,-0.00001527,-0.00002613,-0.00001403,0.0000
 0140,-0.00000418,0.00000199,0.00000581,-0.00000672,0.00000818,0.000002
 38,-0.00000432,0.00000176,0.00075404,0.00069033,0.00037670,0.00138111,
 0.00110677,0.00086802,-0.00105662,-0.00259877,-0.00069477,-0.01352150,
 -0.01624390,-0.02900860,-0.08184600,-0.04633796,-0.07862893,-0.0067952
 2,0.00089199,0.00065839,0.00145020,-0.00051636,0.00047085,0.00393630,0
 .00659258,0.00942675,0.00318872,0.00423815,0.01025973,0.09253831,0.000
 12934,-0.00002255,-0.00002136,-0.00004658,0.00021458,-0.00000191,0.000
 01220,-0.00017543,0.00000730,0.00001545,0.00014327,0.00000030,0.000025
 25,0.00011069,-0.00003271,-0.00011251,-0.00005460,0.00000412,0.0000165
 5,-0.00001681,0.00001976,-0.00001472,0.00000969,-0.00001126,-0.0000141
 9,0.00001993,0.00001064,-0.00001123,0.00001994,-0.00000360,0.00002560,
 -0.00000301,0.00000148,0.00001291,0.00000982,0.00000474,-0.00003562,-0
 .00001228,0.00000471,0.00001787,-0.00036679,0.00002452,0.00001151,0.00
 001065,0.00000732,0.00001245,0.00001570,-0.00000721,-0.00001528,0.0000
 0532,0.00001596,-0.00002223,0.00002791,-0.00003090,0.00001018,0.000005
 64,-0.00000040,0.00001832,-0.00000451,-0.00000316,0.00000522,0.0000079
 9,0.00000332,0.00000442,-0.00000365,-0.00000064,0.00002683,-0.00007668
 ,-0.00000449,-0.00003635,0.00001154,0.00000005,-0.00000005,-0.00000467
 ,-0.00000136,0.00002907,-0.00005534,-0.00000109,0.00000040,0.00002179,
 0.00000088,-0.00001326,0.00002301,-0.00001158,-0.00001487,0.00002463,0
 .00001562,-0.00050985,0.00008207,-0.00000719,0.00021574,-0.00032463,-0
 .00009468,0.00087410,0.00002338,0.00064230,-0.00018444,0.00071510,0.00
 151325,-0.04775097,-0.10826157,-0.10452945,0.00059505,0.00051650,0.000
 49570,-0.00041285,-0.00004951,-0.00004482,0.00650348,0.00736381,0.0127
 7354,-0.01144934,-0.01366231,-0.02476628,0.05208238,0.11371141,-0.0001
 4834,0.00006078,0.00000025,0.00020974,0.00002934,0.00002534,-0.0004260
 2,0.00013097,-0.00002884,0.00010017,-0.00008616,0.00000856,0.00025009,
 -0.00017577,0.00004394,-0.00007378,0.00001731,-0.00000010,0.00001044,0
 .00006171,-0.00007714,0.00003631,-0.00003856,0.00002304,0.00003043,-0.
 00002833,0.00000104,-0.00000491,0.00000988,0.00000150,-0.00000328,-0.0
 0000443,-0.00000085,-0.00000717,0.00000442,0.00000398,0.00003537,0.000
 02492,0.00000253,-0.00004599,-0.00000016,-0.00004717,0.00000961,-0.000
 00964,-0.00000765,0.00001396,-0.00002783,0.00001423,0.00001108,0.00002
 814,-0.00008011,0.00005430,0.00006956,0.00011431,-0.00002461,-0.000027
 07,0.00001552,0.00001120,0.00001118,-0.00000752,-0.00001459,-0.0000115
 1,-0.00000991,-0.00001220,0.00000706,-0.00000247,-0.00002571,0.0000038
 3,-0.00001117,0.00002030,-0.00000254,0.00000041,0.00000618,-0.00000313
 ,-0.00000205,-0.00001053,-0.00004564,-0.00000990,0.00001181,0.00000292
 ,0.00000210,0.00000897,-0.00000458,0.00001011,0.00000587,-0.00000231,-
 0.00000095,0.00035398,0.00084217,-0.00008245,0.00192681,0.00071638,0.0
 0068478,-0.00129297,-0.00258812,0.00001781,0.00025456,0.00144609,0.001
 15926,-0.08002076,-0.10266917,-0.22222983,0.00046974,-0.00001063,0.001
 55523,-0.00052819,0.00026156,0.00072940,-0.00974663,-0.01339047,-0.021
 72359,0.00226236,0.00136929,0.00185593,0.08629241,0.11402857,0.2380524
 0\\0.00000116,-0.00000010,0.00000025,-0.00000114,-0.00000091,-0.000000
 20,0.00000152,0.00000061,-0.00000004,-0.00000005,-0.00000049,0.,-0.000
 00153,-0.00000192,0.00000007,0.00000128,0.00000021,0.00000016,0.,-0.00
 000120,0.,0.00000018,-0.00000144,0.,0.00000073,0.00000055,0.00000127,0
 .00000054,0.00000023,-0.00000229,0.00000127,0.00000137,-0.00000059,0.0
 0000023,0.00000190,0.00000022,-0.00000170,0.00000278,0.00000020,0.0000
 0056,0.00000179,0.00000055,0.00000036,-0.00000088,-0.00000029,0.000000
 32,-0.00000076,0.00000023,-0.00000028,-0.00000100,0.00000030,-0.000000
 29,-0.00000095,-0.00000033,0.00000034,-0.00000157,0.00000028,-0.000000
 19,-0.00000132,0.,0.00000035,-0.00000158,-0.00000026,0.00000103,0.0000
 0028,-0.00000011,0.00000138,0.00000003,0.00000135,0.00000074,0.0000014
 5,0.00000075,-0.00000010,0.00000131,-0.00000013,0.00000050,-0.00000085
 ,-0.00000008,0.00000174,0.00000050,-0.00000026,0.00000074,0.00000170,0
 .,0.00000064,0.00000145,-0.00000052,-0.00000283,-0.00000109,-0.0000011
 3,-0.00000266,0.00000038,-0.00000182,0.00000297,0.00000310,0.00000245,
 -0.00000025,-0.00000041,0.00000039,-0.00000043,-0.00000143,-0.00000071
 ,-0.00000175,0.,0.00000038,-0.00000149,-0.00000042,-0.00000080,-0.0000
 0135,-0.00000057,0.00000076,-0.00000145,-0.00000036,0.00000024,-0.0000
 0111,-0.00000040,-0.00000025\\\@


 A MAN IS NEVER SO BRILLIANT AS WHEN HE TAKES THE WORDS RIGHT OUT
 OF YOUR MOUTH. -- ARNOT SHEPPARD, JR.
 Job cpu time:       0 days  7 hours 29 minutes 23.7 seconds.
 Elapsed time:       0 days  7 hours 29 minutes 24.2 seconds.
 File lengths (MBytes):  RWF=   1240 Int=      0 D2E=      0 Chk=     27 Scr=      1
 Normal termination of Gaussian 16 at Mon Mar 22 20:54:57 2021.
