 Entering Gaussian System, Link 0=/apps/gaussian/g16c01/g16/g16
 Initial command:
 /apps/gaussian/g16c01/g16/l1.exe "/jobfs/19478573.gadi-pbs/Gau-1933765.inp" -scrdir="/jobfs/19478573.gadi-pbs/"
 Entering Link 1 = /apps/gaussian/g16c01/g16/l1.exe PID=   1933766.
  
 Copyright (c) 1988-2019, Gaussian, Inc.  All Rights Reserved.
  
 This is part of the Gaussian(R) 16 program.  It is based on
 the Gaussian(R) 09 system (copyright 2009, Gaussian, Inc.),
 the Gaussian(R) 03 system (copyright 2003, Gaussian, Inc.),
 the Gaussian(R) 98 system (copyright 1998, Gaussian, Inc.),
 the Gaussian(R) 94 system (copyright 1995, Gaussian, Inc.),
 the Gaussian 92(TM) system (copyright 1992, Gaussian, Inc.),
 the Gaussian 90(TM) system (copyright 1990, Gaussian, Inc.),
 the Gaussian 88(TM) system (copyright 1988, Gaussian, Inc.),
 the Gaussian 86(TM) system (copyright 1986, Carnegie Mellon
 University), and the Gaussian 82(TM) system (copyright 1983,
 Carnegie Mellon University). Gaussian is a federally registered
 trademark of Gaussian, Inc.
  
 This software contains proprietary and confidential information,
 including trade secrets, belonging to Gaussian, Inc.
  
 This software is provided under written license and may be
 used, copied, transmitted, or stored only in accord with that
 written license.
  
 The following legend is applicable only to US Government
 contracts under FAR:
  
                    RESTRICTED RIGHTS LEGEND
  
 Use, reproduction and disclosure by the US Government is
 subject to restrictions as set forth in subparagraphs (a)
 and (c) of the Commercial Computer Software - Restricted
 Rights clause in FAR 52.227-19.
  
 Gaussian, Inc.
 340 Quinnipiac St., Bldg. 40, Wallingford CT 06492
  
  
 ---------------------------------------------------------------
 Warning -- This program may not be used in any manner that
 competes with the business of Gaussian, Inc. or will provide
 assistance to any competitor of Gaussian, Inc.  The licensee
 of this program is prohibited from giving any competitor of
 Gaussian, Inc. access to this program.  By using this program,
 the user acknowledges that Gaussian, Inc. is engaged in the
 business of creating and licensing software in the field of
 computational chemistry and represents and warrants to the
 licensee that it is not a competitor of Gaussian, Inc. and that
 it will not use this program in any manner prohibited above.
 ---------------------------------------------------------------
  

 Cite this work as:
 Gaussian 16, Revision C.01,
 M. J. Frisch, G. W. Trucks, H. B. Schlegel, G. E. Scuseria, 
 M. A. Robb, J. R. Cheeseman, G. Scalmani, V. Barone, 
 G. A. Petersson, H. Nakatsuji, X. Li, M. Caricato, A. V. Marenich, 
 J. Bloino, B. G. Janesko, R. Gomperts, B. Mennucci, H. P. Hratchian, 
 J. V. Ortiz, A. F. Izmaylov, J. L. Sonnenberg, D. Williams-Young, 
 F. Ding, F. Lipparini, F. Egidi, J. Goings, B. Peng, A. Petrone, 
 T. Henderson, D. Ranasinghe, V. G. Zakrzewski, J. Gao, N. Rega, 
 G. Zheng, W. Liang, M. Hada, M. Ehara, K. Toyota, R. Fukuda, 
 J. Hasegawa, M. Ishida, T. Nakajima, Y. Honda, O. Kitao, H. Nakai, 
 T. Vreven, K. Throssell, J. A. Montgomery, Jr., J. E. Peralta, 
 F. Ogliaro, M. J. Bearpark, J. J. Heyd, E. N. Brothers, K. N. Kudin, 
 V. N. Staroverov, T. A. Keith, R. Kobayashi, J. Normand, 
 K. Raghavachari, A. P. Rendell, J. C. Burant, S. S. Iyengar, 
 J. Tomasi, M. Cossi, J. M. Millam, M. Klene, C. Adamo, R. Cammi, 
 J. W. Ochterski, R. L. Martin, K. Morokuma, O. Farkas, 
 J. B. Foresman, and D. J. Fox, Gaussian, Inc., Wallingford CT, 2019.
 
 ******************************************
 Gaussian 16:  ES64L-G16RevC.01  3-Jul-2019
                22-Mar-2021 
 ******************************************
 %NprocShared=32
 Will use up to   32 processors via shared memory.
 %Mem=10000MB
 %chk=29CA_carboxy.M062X_6-311pGd_opt_water_GD3.chk
 ----------------------------------------------------------------------
 # M062X/6-311+G* SCF=Tight INT(grid=ultrafine) OPT=CalcFC IOP(2/17=4) 
 EmpiricalDispersion=GD3 SCRF=(SMD,Solvent=h2o) MaxDisk=10000MB
 ----------------------------------------------------------------------
 1/10=4,18=20,19=15,26=6,38=1/1,3;
 2/9=110,12=2,17=4,18=5,40=1/2;
 3/5=4,6=6,7=11,11=2,25=1,30=1,70=32201,71=2,72=1,74=-55,75=-5,124=31,140=1/1,2,3;
 4//1;
 5/5=2,32=2,38=5,53=1/2;
 8/6=4,10=90,11=11/1;
 11/6=1,8=1,9=11,15=111,16=1/1,2,10;
 10/6=1,13=1/2;
 6/7=2,8=2,9=2,10=2,28=1/1;
 7/10=1,25=1/1,2,3,16;
 1/10=4,18=20,19=15,26=6/3(2);
 2/9=110,17=4/2;
 99//99;
 2/9=110,17=4/2;
 3/5=4,6=6,7=11,11=2,25=1,30=1,70=32205,71=1,72=1,74=-55,75=-5,124=31/1,2,3;
 4/5=5,16=3,69=1/1;
 5/5=2,32=2,38=5,53=1/2;
 7//1,2,3,16;
 1/18=20,19=15,26=6/3(-5);
 2/9=110,17=4/2;
 6/7=2,8=2,9=2,10=2,19=2,28=1/1;
 99/9=1/99;
 -----------------------------------------
 29CA_carboxy.M062X_6-311pGd_opt_water_GD3
 -----------------------------------------
 Symbolic Z-matrix:
 Charge = -1 Multiplicity = 1
 C                    -6.28739   1.36986  -0.05085 
 N                    -4.9497    0.83543  -0.03747 
 C                    -3.76993   1.5242   -0.03273 
 O                    -3.73774   2.74465  -0.04043 
 O                    -2.60606   0.8238   -0.01982 
 C                    -1.35601   1.41091  -0.0163 
 C                    -0.27908   0.32812  -0.00032 
 C                     1.11819   0.94258   0.00317 
 C                    -6.60314   2.74908  -0.05716 
 C                    -7.9389    3.20235  -0.07029 
 C                    -8.98493   2.24538  -0.07733 
 C                    -8.67452   0.88443  -0.071 
 C                    -7.35022   0.45454  -0.05791 
 H                    -4.85594  -0.30613  -0.03052 
 H                    -1.24961   2.05325   0.88617 
 H                    -1.23776   2.03833  -0.92775 
 H                    -0.38994  -0.31672  -0.89908 
 H                    -0.40135  -0.30129   0.90785 
 H                     1.27004   1.5621   -0.90652 
 H                     1.88076   0.13574   0.01495 
 H                     1.25867   1.57786   0.90377 
 H                    -5.84299   3.50785  -0.05195 
 C                    -8.15325   4.70608  -0.07586 
 Cl                   -10.69795   2.65734  -0.09385 
 H                    -9.4664    0.14602  -0.07624 
 H                    -7.13072  -0.71892  -0.05294 
 F                    -7.54754   5.24641  -1.19618 
 F                    -9.48152   5.07984  -0.08879 
 F                    -7.56793   5.2518    1.05266 
 O                    -6.53182  -3.22013  -0.03243 
 O                    -4.33186  -2.82768  -0.01031 
 C                    -5.2483   -3.64313  -0.0157 
 C                    -4.97378  -5.12355  -0.00394 
 C                    -3.4834   -5.461     0.01496 
 H                    -5.43209  -5.57669  -0.90887 
 H                    -5.4525   -5.56613   0.89563 
 H                    -2.98329  -5.05081  -0.88828 
 H                    -3.35285  -6.56377   0.02287 
 H                    -3.00394  -5.04026   0.92452 
 
 Add virtual bond connecting atoms O30        and H26        Dist= 4.86D+00.
 Add virtual bond connecting atoms O31        and H14        Dist= 4.87D+00.

 GradGradGradGradGradGradGradGradGradGradGradGradGradGradGradGradGradGrad
 Berny optimization.
 Initialization pass.
                           ----------------------------
                           !    Initial Parameters    !
                           ! (Angstroms and Degrees)  !
 --------------------------                            --------------------------
 ! Name  Definition              Value          Derivative Info.                !
 --------------------------------------------------------------------------------
 ! R1    R(1,2)                  1.4406         calculate D2E/DX2 analytically  !
 ! R2    R(1,9)                  1.4149         calculate D2E/DX2 analytically  !
 ! R3    R(1,13)                 1.4027         calculate D2E/DX2 analytically  !
 ! R4    R(2,3)                  1.3661         calculate D2E/DX2 analytically  !
 ! R5    R(2,14)                 1.1454         calculate D2E/DX2 analytically  !
 ! R6    R(3,4)                  1.2209         calculate D2E/DX2 analytically  !
 ! R7    R(3,5)                  1.3584         calculate D2E/DX2 analytically  !
 ! R8    R(5,6)                  1.3811         calculate D2E/DX2 analytically  !
 ! R9    R(6,7)                  1.5272         calculate D2E/DX2 analytically  !
 ! R10   R(6,15)                 1.1128         calculate D2E/DX2 analytically  !
 ! R11   R(6,16)                 1.1128         calculate D2E/DX2 analytically  !
 ! R12   R(7,8)                  1.5264         calculate D2E/DX2 analytically  !
 ! R13   R(7,17)                 1.1117         calculate D2E/DX2 analytically  !
 ! R14   R(7,18)                 1.1117         calculate D2E/DX2 analytically  !
 ! R15   R(8,19)                 1.111          calculate D2E/DX2 analytically  !
 ! R16   R(8,20)                 1.1102         calculate D2E/DX2 analytically  !
 ! R17   R(8,21)                 1.111          calculate D2E/DX2 analytically  !
 ! R18   R(9,10)                 1.4106         calculate D2E/DX2 analytically  !
 ! R19   R(9,22)                 1.0741         calculate D2E/DX2 analytically  !
 ! R20   R(10,11)                1.4178         calculate D2E/DX2 analytically  !
 ! R21   R(10,23)                1.5189         calculate D2E/DX2 analytically  !
 ! R22   R(11,12)                1.3959         calculate D2E/DX2 analytically  !
 ! R23   R(11,24)                1.7619         calculate D2E/DX2 analytically  !
 ! R24   R(12,13)                1.3924         calculate D2E/DX2 analytically  !
 ! R25   R(12,25)                1.0828         calculate D2E/DX2 analytically  !
 ! R26   R(13,26)                1.1938         calculate D2E/DX2 analytically  !
 ! R27   R(14,31)                2.5755         calculate D2E/DX2 analytically  !
 ! R28   R(23,27)                1.3835         calculate D2E/DX2 analytically  !
 ! R29   R(23,28)                1.3799         calculate D2E/DX2 analytically  !
 ! R30   R(23,29)                1.3835         calculate D2E/DX2 analytically  !
 ! R31   R(26,30)                2.572          calculate D2E/DX2 analytically  !
 ! R32   R(30,32)                1.3515         calculate D2E/DX2 analytically  !
 ! R33   R(31,32)                1.2267         calculate D2E/DX2 analytically  !
 ! R34   R(32,33)                1.5057         calculate D2E/DX2 analytically  !
 ! R35   R(33,34)                1.5282         calculate D2E/DX2 analytically  !
 ! R36   R(33,35)                1.111          calculate D2E/DX2 analytically  !
 ! R37   R(33,36)                1.111          calculate D2E/DX2 analytically  !
 ! R38   R(34,37)                1.1109         calculate D2E/DX2 analytically  !
 ! R39   R(34,38)                1.1105         calculate D2E/DX2 analytically  !
 ! R40   R(34,39)                1.1109         calculate D2E/DX2 analytically  !
 ! A1    A(2,1,9)              124.6731         calculate D2E/DX2 analytically  !
 ! A2    A(2,1,13)             117.4884         calculate D2E/DX2 analytically  !
 ! A3    A(9,1,13)             117.8385         calculate D2E/DX2 analytically  !
 ! A4    A(1,2,3)              127.9455         calculate D2E/DX2 analytically  !
 ! A5    A(1,2,14)             116.4748         calculate D2E/DX2 analytically  !
 ! A6    A(3,2,14)             115.5798         calculate D2E/DX2 analytically  !
 ! A7    A(2,3,4)              121.7856         calculate D2E/DX2 analytically  !
 ! A8    A(2,3,5)              118.6845         calculate D2E/DX2 analytically  !
 ! A9    A(4,3,5)              119.5299         calculate D2E/DX2 analytically  !
 ! A10   A(3,5,6)              123.8029         calculate D2E/DX2 analytically  !
 ! A11   A(5,6,7)              109.687          calculate D2E/DX2 analytically  !
 ! A12   A(5,6,15)             109.5113         calculate D2E/DX2 analytically  !
 ! A13   A(5,6,16)             109.4981         calculate D2E/DX2 analytically  !
 ! A14   A(7,6,15)             109.4711         calculate D2E/DX2 analytically  !
 ! A15   A(7,6,16)             109.4735         calculate D2E/DX2 analytically  !
 ! A16   A(15,6,16)            109.1851         calculate D2E/DX2 analytically  !
 ! A17   A(6,7,8)              111.1069         calculate D2E/DX2 analytically  !
 ! A18   A(6,7,17)             109.4186         calculate D2E/DX2 analytically  !
 ! A19   A(6,7,18)             109.4143         calculate D2E/DX2 analytically  !
 ! A20   A(8,7,17)             109.0645         calculate D2E/DX2 analytically  !
 ! A21   A(8,7,18)             109.07           calculate D2E/DX2 analytically  !
 ! A22   A(17,7,18)            108.7276         calculate D2E/DX2 analytically  !
 ! A23   A(7,8,19)             110.347          calculate D2E/DX2 analytically  !
 ! A24   A(7,8,20)             109.6466         calculate D2E/DX2 analytically  !
 ! A25   A(7,8,21)             110.3511         calculate D2E/DX2 analytically  !
 ! A26   A(19,8,20)            108.6652         calculate D2E/DX2 analytically  !
 ! A27   A(19,8,21)            109.1221         calculate D2E/DX2 analytically  !
 ! A28   A(20,8,21)            108.6682         calculate D2E/DX2 analytically  !
 ! A29   A(1,9,10)             121.6395         calculate D2E/DX2 analytically  !
 ! A30   A(1,9,22)             122.051          calculate D2E/DX2 analytically  !
 ! A31   A(10,9,22)            116.3095         calculate D2E/DX2 analytically  !
 ! A32   A(9,10,11)            118.8033         calculate D2E/DX2 analytically  !
 ! A33   A(9,10,23)            116.8572         calculate D2E/DX2 analytically  !
 ! A34   A(11,10,23)           124.3395         calculate D2E/DX2 analytically  !
 ! A35   A(10,11,12)           119.6035         calculate D2E/DX2 analytically  !
 ! A36   A(10,11,24)           124.0248         calculate D2E/DX2 analytically  !
 ! A37   A(12,11,24)           116.3717         calculate D2E/DX2 analytically  !
 ! A38   A(11,12,13)           120.8337         calculate D2E/DX2 analytically  !
 ! A39   A(11,12,25)           120.1482         calculate D2E/DX2 analytically  !
 ! A40   A(13,12,25)           119.0181         calculate D2E/DX2 analytically  !
 ! A41   A(1,13,12)            121.2815         calculate D2E/DX2 analytically  !
 ! A42   A(1,13,26)            120.1383         calculate D2E/DX2 analytically  !
 ! A43   A(12,13,26)           118.5802         calculate D2E/DX2 analytically  !
 ! A44   A(10,23,27)           109.1376         calculate D2E/DX2 analytically  !
 ! A45   A(10,23,28)           113.8295         calculate D2E/DX2 analytically  !
 ! A46   A(10,23,29)           109.1361         calculate D2E/DX2 analytically  !
 ! A47   A(27,23,28)           107.9425         calculate D2E/DX2 analytically  !
 ! A48   A(27,23,29)           108.7398         calculate D2E/DX2 analytically  !
 ! A49   A(28,23,29)           107.9418         calculate D2E/DX2 analytically  !
 ! A50   A(26,30,32)           121.7087         calculate D2E/DX2 analytically  !
 ! A51   A(14,31,32)           119.9179         calculate D2E/DX2 analytically  !
 ! A52   A(30,32,31)           120.0977         calculate D2E/DX2 analytically  !
 ! A53   A(30,32,33)           118.7485         calculate D2E/DX2 analytically  !
 ! A54   A(31,32,33)           121.1538         calculate D2E/DX2 analytically  !
 ! A55   A(32,33,34)           113.2664         calculate D2E/DX2 analytically  !
 ! A56   A(32,33,35)           108.6297         calculate D2E/DX2 analytically  !
 ! A57   A(32,33,36)           108.6292         calculate D2E/DX2 analytically  !
 ! A58   A(34,33,35)           108.8034         calculate D2E/DX2 analytically  !
 ! A59   A(34,33,36)           108.7991         calculate D2E/DX2 analytically  !
 ! A60   A(35,33,36)           108.6201         calculate D2E/DX2 analytically  !
 ! A61   A(33,34,37)           110.3304         calculate D2E/DX2 analytically  !
 ! A62   A(33,34,38)           109.5125         calculate D2E/DX2 analytically  !
 ! A63   A(33,34,39)           110.3278         calculate D2E/DX2 analytically  !
 ! A64   A(37,34,38)           108.6342         calculate D2E/DX2 analytically  !
 ! A65   A(37,34,39)           109.3621         calculate D2E/DX2 analytically  !
 ! A66   A(38,34,39)           108.6338         calculate D2E/DX2 analytically  !
 ! A67   L(2,14,31,5,-1)       172.9538         calculate D2E/DX2 analytically  !
 ! A68   L(13,26,30,5,-1)      177.1278         calculate D2E/DX2 analytically  !
 ! A69   L(2,14,31,5,-2)       179.9429         calculate D2E/DX2 analytically  !
 ! A70   L(13,26,30,5,-2)      179.8023         calculate D2E/DX2 analytically  !
 ! D1    D(9,1,2,3)             -0.2203         calculate D2E/DX2 analytically  !
 ! D2    D(9,1,2,14)           179.8192         calculate D2E/DX2 analytically  !
 ! D3    D(13,1,2,3)           179.7889         calculate D2E/DX2 analytically  !
 ! D4    D(13,1,2,14)           -0.1715         calculate D2E/DX2 analytically  !
 ! D5    D(2,1,9,10)          -179.9986         calculate D2E/DX2 analytically  !
 ! D6    D(2,1,9,22)            -0.0176         calculate D2E/DX2 analytically  !
 ! D7    D(13,1,9,10)           -0.0079         calculate D2E/DX2 analytically  !
 ! D8    D(13,1,9,22)          179.9732         calculate D2E/DX2 analytically  !
 ! D9    D(2,1,13,12)         -179.9948         calculate D2E/DX2 analytically  !
 ! D10   D(2,1,13,26)           -0.0066         calculate D2E/DX2 analytically  !
 ! D11   D(9,1,13,12)            0.0138         calculate D2E/DX2 analytically  !
 ! D12   D(9,1,13,26)         -179.998          calculate D2E/DX2 analytically  !
 ! D13   D(1,2,3,4)             -0.0285         calculate D2E/DX2 analytically  !
 ! D14   D(1,2,3,5)           -179.9921         calculate D2E/DX2 analytically  !
 ! D15   D(14,2,3,4)           179.9323         calculate D2E/DX2 analytically  !
 ! D16   D(14,2,3,5)            -0.0313         calculate D2E/DX2 analytically  !
 ! D17   D(1,2,31,32)            0.1918         calculate D2E/DX2 analytically  !
 ! D18   D(3,2,31,32)         -179.811          calculate D2E/DX2 analytically  !
 ! D19   D(2,3,5,6)            179.8825         calculate D2E/DX2 analytically  !
 ! D20   D(4,3,5,6)             -0.082          calculate D2E/DX2 analytically  !
 ! D21   D(3,5,6,7)            179.973          calculate D2E/DX2 analytically  !
 ! D22   D(3,5,6,15)            59.8158         calculate D2E/DX2 analytically  !
 ! D23   D(3,5,6,16)           -59.8749         calculate D2E/DX2 analytically  !
 ! D24   D(5,6,7,8)            179.9684         calculate D2E/DX2 analytically  !
 ! D25   D(5,6,7,17)            59.4833         calculate D2E/DX2 analytically  !
 ! D26   D(5,6,7,18)           -59.5424         calculate D2E/DX2 analytically  !
 ! D27   D(15,6,7,8)           -59.8499         calculate D2E/DX2 analytically  !
 ! D28   D(15,6,7,17)          179.665          calculate D2E/DX2 analytically  !
 ! D29   D(15,6,7,18)           60.6393         calculate D2E/DX2 analytically  !
 ! D30   D(16,6,7,8)            59.8014         calculate D2E/DX2 analytically  !
 ! D31   D(16,6,7,17)          -60.6838         calculate D2E/DX2 analytically  !
 ! D32   D(16,6,7,18)         -179.7094         calculate D2E/DX2 analytically  !
 ! D33   D(6,7,8,19)           -60.3484         calculate D2E/DX2 analytically  !
 ! D34   D(6,7,8,20)           179.9933         calculate D2E/DX2 analytically  !
 ! D35   D(6,7,8,21)            60.3287         calculate D2E/DX2 analytically  !
 ! D36   D(17,7,8,19)           60.3459         calculate D2E/DX2 analytically  !
 ! D37   D(17,7,8,20)          -59.3124         calculate D2E/DX2 analytically  !
 ! D38   D(17,7,8,21)         -178.9771         calculate D2E/DX2 analytically  !
 ! D39   D(18,7,8,19)          178.9592         calculate D2E/DX2 analytically  !
 ! D40   D(18,7,8,20)           59.3008         calculate D2E/DX2 analytically  !
 ! D41   D(18,7,8,21)          -60.3638         calculate D2E/DX2 analytically  !
 ! D42   D(1,9,10,11)           -0.003          calculate D2E/DX2 analytically  !
 ! D43   D(1,9,10,23)          179.9939         calculate D2E/DX2 analytically  !
 ! D44   D(22,9,10,11)        -179.9851         calculate D2E/DX2 analytically  !
 ! D45   D(22,9,10,23)           0.0118         calculate D2E/DX2 analytically  !
 ! D46   D(9,10,11,12)           0.0083         calculate D2E/DX2 analytically  !
 ! D47   D(9,10,11,24)        -179.9961         calculate D2E/DX2 analytically  !
 ! D48   D(23,10,11,12)       -179.9883         calculate D2E/DX2 analytically  !
 ! D49   D(23,10,11,24)          0.0073         calculate D2E/DX2 analytically  !
 ! D50   D(9,10,23,27)          59.3509         calculate D2E/DX2 analytically  !
 ! D51   D(9,10,23,28)         179.9973         calculate D2E/DX2 analytically  !
 ! D52   D(9,10,23,29)         -59.3583         calculate D2E/DX2 analytically  !
 ! D53   D(11,10,23,27)       -120.6523         calculate D2E/DX2 analytically  !
 ! D54   D(11,10,23,28)         -0.006          calculate D2E/DX2 analytically  !
 ! D55   D(11,10,23,29)        120.6384         calculate D2E/DX2 analytically  !
 ! D56   D(10,11,12,13)         -0.0026         calculate D2E/DX2 analytically  !
 ! D57   D(10,11,12,25)        179.9967         calculate D2E/DX2 analytically  !
 ! D58   D(24,11,12,13)       -179.9986         calculate D2E/DX2 analytically  !
 ! D59   D(24,11,12,25)          0.0008         calculate D2E/DX2 analytically  !
 ! D60   D(11,12,13,1)          -0.0088         calculate D2E/DX2 analytically  !
 ! D61   D(11,12,13,26)       -179.9971         calculate D2E/DX2 analytically  !
 ! D62   D(25,12,13,1)         179.9919         calculate D2E/DX2 analytically  !
 ! D63   D(25,12,13,26)          0.0035         calculate D2E/DX2 analytically  !
 ! D64   D(1,13,30,32)           0.0597         calculate D2E/DX2 analytically  !
 ! D65   D(12,13,30,32)       -179.8021         calculate D2E/DX2 analytically  !
 ! D66   D(26,30,32,31)         -0.0212         calculate D2E/DX2 analytically  !
 ! D67   D(26,30,32,33)        179.9775         calculate D2E/DX2 analytically  !
 ! D68   D(14,31,32,30)          0.0103         calculate D2E/DX2 analytically  !
 ! D69   D(14,31,32,33)       -179.9885         calculate D2E/DX2 analytically  !
 ! D70   D(30,32,33,34)       -179.9846         calculate D2E/DX2 analytically  !
 ! D71   D(30,32,33,35)         59.0044         calculate D2E/DX2 analytically  !
 ! D72   D(30,32,33,36)        -58.9793         calculate D2E/DX2 analytically  !
 ! D73   D(31,32,33,34)          0.0142         calculate D2E/DX2 analytically  !
 ! D74   D(31,32,33,35)       -120.9969         calculate D2E/DX2 analytically  !
 ! D75   D(31,32,33,36)        121.0195         calculate D2E/DX2 analytically  !
 ! D76   D(32,33,34,37)        -60.4739         calculate D2E/DX2 analytically  !
 ! D77   D(32,33,34,38)       -179.9994         calculate D2E/DX2 analytically  !
 ! D78   D(32,33,34,39)         60.4772         calculate D2E/DX2 analytically  !
 ! D79   D(35,33,34,37)         60.4391         calculate D2E/DX2 analytically  !
 ! D80   D(35,33,34,38)        -59.0864         calculate D2E/DX2 analytically  !
 ! D81   D(35,33,34,39)       -178.6098         calculate D2E/DX2 analytically  !
 ! D82   D(36,33,34,37)        178.6168         calculate D2E/DX2 analytically  !
 ! D83   D(36,33,34,38)         59.0912         calculate D2E/DX2 analytically  !
 ! D84   D(36,33,34,39)        -60.4322         calculate D2E/DX2 analytically  !
 --------------------------------------------------------------------------------
 Trust Radius=3.00D-01 FncErr=5.00D-06 GrdErr=5.00D-06 EigMax=2.50D+02 EigMin=1.00D-04
 Number of steps in this run=    204 maximum allowed number of steps=    234.
 GradGradGradGradGradGradGradGradGradGradGradGradGradGradGradGradGradGrad

                          Input orientation:                          
 ---------------------------------------------------------------------
 Center     Atomic      Atomic             Coordinates (Angstroms)
 Number     Number       Type             X           Y           Z
 ---------------------------------------------------------------------
      1          6           0       -6.287390    1.369860   -0.050850
      2          7           0       -4.949700    0.835430   -0.037470
      3          6           0       -3.769930    1.524200   -0.032730
      4          8           0       -3.737740    2.744650   -0.040430
      5          8           0       -2.606060    0.823800   -0.019820
      6          6           0       -1.356010    1.410910   -0.016300
      7          6           0       -0.279080    0.328120   -0.000320
      8          6           0        1.118190    0.942580    0.003170
      9          6           0       -6.603140    2.749080   -0.057160
     10          6           0       -7.938900    3.202350   -0.070290
     11          6           0       -8.984930    2.245380   -0.077330
     12          6           0       -8.674520    0.884430   -0.071000
     13          6           0       -7.350220    0.454540   -0.057910
     14          1           0       -4.855940   -0.306130   -0.030520
     15          1           0       -1.249610    2.053250    0.886170
     16          1           0       -1.237760    2.038330   -0.927750
     17          1           0       -0.389940   -0.316720   -0.899080
     18          1           0       -0.401350   -0.301290    0.907850
     19          1           0        1.270040    1.562100   -0.906520
     20          1           0        1.880760    0.135740    0.014950
     21          1           0        1.258670    1.577860    0.903770
     22          1           0       -5.842990    3.507850   -0.051950
     23          6           0       -8.153250    4.706080   -0.075860
     24         17           0      -10.697950    2.657340   -0.093850
     25          1           0       -9.466400    0.146020   -0.076240
     26          1           0       -7.130720   -0.718920   -0.052940
     27          9           0       -7.547540    5.246410   -1.196180
     28          9           0       -9.481520    5.079840   -0.088790
     29          9           0       -7.567930    5.251800    1.052660
     30          8           0       -6.531820   -3.220130   -0.032430
     31          8           0       -4.331860   -2.827680   -0.010310
     32          6           0       -5.248300   -3.643130   -0.015700
     33          6           0       -4.973780   -5.123550   -0.003940
     34          6           0       -3.483400   -5.461000    0.014960
     35          1           0       -5.432090   -5.576690   -0.908870
     36          1           0       -5.452500   -5.566130    0.895630
     37          1           0       -2.983290   -5.050810   -0.888280
     38          1           0       -3.352850   -6.563770    0.022870
     39          1           0       -3.003940   -5.040260    0.924520
 ---------------------------------------------------------------------
                    Distance matrix (angstroms):
                    1          2          3          4          5
     1  C    0.000000
     2  N    1.440559   0.000000
     3  C    2.522252   1.366120   0.000000
     4  O    2.896700   2.261410   1.220899   0.000000
     5  O    3.721738   2.343735   1.358426   2.229527   0.000000
     6  C    4.931672   3.639538   2.416633   2.729850   1.381063
     7  C    6.098161   4.698237   3.690216   4.219426   2.379268
     8  C    7.418093   6.068972   4.922732   5.179712   3.726215
     9  C    1.414915   2.529092   3.086747   2.865452   4.436749
    10  C    2.466958   3.812965   4.494208   4.226124   5.839455
    11  C    2.836187   4.274650   5.264819   5.271018   6.535609
    12  C    2.436070   3.725293   4.946289   5.275713   6.068979
    13  C    1.402665   2.430636   3.736748   4.277256   4.758661
    14  H    2.204179   1.145425   2.128269   3.249266   2.517701
    15  H    5.169551   4.003356   2.734279   2.743613   2.042626
    16  H    5.168614   4.002258   2.734461   2.745200   2.042465
    17  H    6.192250   4.781342   3.945109   4.617037   2.642929
    18  H    6.193328   4.782599   3.945179   4.616111   2.643321
    19  H    7.608145   6.322062   5.115295   5.217892   4.044190
    20  H    8.261117   6.866404   5.818968   6.194919   4.539404
    21  H    7.609046   6.323053   5.115343   5.216994   4.044473
    22  H    2.183688   2.817802   2.869288   2.239349   4.205101
    23  C    3.822620   5.024553   5.416615   4.831686   6.771008
    24  Cl   4.594833   6.030333   7.020342   6.960963   8.297351
    25  H    3.406543   4.569176   5.860976   6.290605   6.893971
    26  H    2.252601   2.678263   4.040657   4.848586   4.780547
    27  F    4.234076   5.248631   5.429438   4.702035   6.735097
    28  F    4.895698   6.209271   6.728148   6.200521   8.086444
    29  F    4.234026   5.248603   5.431195   4.706485   6.736286
    30  O    4.596531   4.353240   5.489691   6.586771   5.636055
    31  O    4.630884   3.714948   4.388066   5.603994   4.038785
    32  C    5.119669   4.488556   5.374678   6.564003   5.189886
    33  C    6.625115   5.959123   6.755935   7.964779   6.401353
    34  C    7.384263   6.465123   6.991237   8.209778   6.345837
    35  H    7.051404   6.489015   7.345273   8.536376   7.052881
    36  H    7.049881   6.488717   7.346133   8.537311   7.054890
    37  H    7.269344   6.264062   6.676940   7.877642   5.950426
    38  H    8.459282   7.569791   8.098908   9.316589   7.425342
    39  H    7.267877   6.263796   6.677964   7.878732   5.952922
                    6          7          8          9         10
     6  C    0.000000
     7  C    1.527242   0.000000
     8  C    2.518209   1.526413   0.000000
     9  C    5.415232   6.771854   7.930071   0.000000
    10  C    6.822508   8.181622   9.335033   1.410631   0.000000
    11  C    7.674665   8.914799  10.187090   2.434552   1.417752
    12  C    7.337626   8.414148   9.793164   2.787064   2.431849
    13  C    6.070167   7.072504   8.482681   2.413098   2.810188
    14  H    3.898453   4.620696   6.103330   3.519620   4.670723
    15  H    1.112822   2.168840   2.760390   5.480359   6.854331
    16  H    1.112825   2.168873   2.760033   5.481824   6.855323
    17  H    2.167325   1.111701   2.162024   6.979385   8.370038
    18  H    2.167270   1.111701   2.162096   6.978410   8.369403
    19  H    2.776957   2.177999   1.111035   8.007328   9.391181
    20  H    3.479039   2.168445   1.110244   8.877573  10.287715
    21  H    2.776860   2.178050   1.111034   8.006447   9.390583
    22  H    4.952920   6.408623   7.419008   1.074052   2.118137
    23  C    7.554083   9.009706  10.006487   2.496606   1.518941
    24  Cl   9.425043  10.676463  11.940309   4.096002   2.812463
    25  H    8.208652   9.189438  10.614818   3.869695   3.416789
    26  H    6.155062   6.931380   8.414764   3.507903   4.003725
    27  F    7.378226   8.857210   9.749680   2.902743   2.366215
    28  F    8.915729  10.357199  11.378894   3.703851   2.430018
    29  F    7.381264   8.858822   9.752922   2.902779   2.366195
    30  O    6.945200   7.189427   8.709310   5.969687   6.574919
    31  O    5.178935   5.136555   6.627072   6.021724   7.026777
    32  C    6.379125   6.361149   7.846100   6.534345   7.355468
    33  C    7.469108   7.194507   8.597097   8.039649   8.838379
    34  C    7.193741   6.616782   7.885468   8.783131   9.742299
    35  H    8.138652   7.889598   9.286488   8.450752   9.168362
    36  H    8.141986   7.893617   9.291596   8.448343   9.165229
    37  H    6.720284   6.085566   7.316935   8.639002   9.661357
    38  H    8.220975   7.546307   8.737041   9.864074  10.789700
    39  H    6.724464   6.090952   7.323607   8.636652   9.658369
                   11         12         13         14         15
    11  C    0.000000
    12  C    1.395915   0.000000
    13  C    2.424822   1.392389   0.000000
    14  H    4.853963   4.000078   2.607835   0.000000
    15  H    7.797463   7.577044   6.376880   4.405974   0.000000
    16  H    7.796456   7.574358   6.373945   4.403719   1.814020
    17  H    9.006302   8.412059   7.053220   4.549688   3.089160
    18  H    9.007439   8.414833   7.056257   4.552355   2.502773
    19  H   10.311103  10.002580   8.732452   6.464154   3.131070
    20  H   11.068980  10.582148   9.236771   6.751329   3.772941
    21  H   10.312104  10.004963   8.734968   6.466125   2.552993
    22  H    3.386187   3.860085   3.405067   3.939692   4.908673
    23  C    2.597448   3.857040   4.326751   5.999713   7.458100
    24  Cl   1.761937   2.690353   4.007607   6.550973   9.518219
    25  H    2.153863   1.082751   2.138630   4.632804   8.489959
    26  H    3.496536   2.225843   1.193823   2.312039   6.569194
    27  F    3.510569   4.643596   4.929159   6.279664   7.361819
    28  F    2.877655   4.272357   5.092818   7.099863   8.824689
    29  F    3.510460   4.643390   4.928942   6.278436   7.083757
    30  O    5.990957   4.630342   3.764788   3.361543   7.520246
    31  O    6.884148   5.713330   4.459342   2.575516   5.841868
    32  C    6.974292   5.678102   4.605513   3.360020   7.017951
    33  C    8.390223   7.056614   6.063453   4.818934   8.134384
    34  C    9.469089   8.198756   7.067618   5.334662   7.887508
    35  H    8.631275   7.277462   6.385851   5.374221   8.884328
    36  H    8.628117   7.274992   6.384281   5.374127   8.701685
    37  H    9.482179   8.263481   7.075908   5.172481   7.524758
    38  H   10.456170   9.154489   8.077262   6.435852   8.911899
    39  H    9.479267   8.261264   7.074471   5.172426   7.307327
                   16         17         18         19         20
    16  H    0.000000
    17  H    2.503174   0.000000
    18  H    3.089147   1.807032   0.000000
    19  H    2.552706   2.507101   3.091554   0.000000
    20  H    3.772757   2.489227   2.489235   1.804602   0.000000
    21  H    3.130281   3.091539   2.507367   1.810394   1.804635
    22  H    4.912704   6.714218   6.711349   7.423707   8.428043
    23  C    7.461006   9.283059   9.280808   9.968601  11.026224
    24  Cl   9.517025  10.758648  10.759966  12.045446  12.829429
    25  H    8.486249   9.125422   9.129274  10.861206  11.347531
    26  H    6.564655   6.805574   6.810430   8.746680   9.052172
    27  F    7.083584   9.070167   9.288269   9.560741  10.792526
    28  F    8.826903  10.603596  10.601855  11.341923  12.391783
    29  F    7.370174   9.291999   9.067395   9.775581  10.794844
    30  O    7.515322   6.848618   6.854664   9.192539   9.057351
    31  O    5.838939   4.757475   4.761783   7.173189   6.883251
    32  C    7.013933   5.953908   5.959343   8.389084   8.068723
    33  C    8.130424   6.702125   6.707657   9.192271   8.639746
    34  C    7.884894   6.071950   6.076092   8.530431   7.752271
    35  H    8.693750   7.286334   7.512567   9.791878   9.325399
    36  H    8.883499   7.510446   7.296082   9.962527   9.330789
    37  H    7.300982   5.397887   5.696529   7.862679   7.167643
    38  H    8.909176   6.975275   6.979484   9.394926   8.501422
    39  H    7.527067   5.698275   5.406625   8.075319   7.174858
                   21         22         23         24         25
    21  H    0.000000
    22  H    7.421040   0.000000
    23  C    9.966427   2.602619   0.000000
    24  Cl  12.046630   4.929073   3.266980   0.000000
    25  H   10.864516   4.942832   4.745367   2.797097   0.000000
    26  H    8.750563   4.418578   5.520572   4.911816   2.490796
    27  F    9.768182   2.690231   1.383459   4.224156   5.563296
    28  F   11.340226   3.963762   1.379915   2.710763   4.933859
    29  F    9.561845   2.690157   1.383462   4.224066   5.563056
    30  O    9.197223   6.763178   8.090471   7.204517   4.465943
    31  O    7.176235   6.513385   8.447772   8.403542   5.933864
    32  C    8.393141   7.175757   8.840343   8.330709   5.670422
    33  C    9.196536   8.675189  10.331303   9.660044   6.925116
    34  C    8.533625   9.274288  11.188622  10.861354   8.200200
    35  H    9.961903   9.134113  10.669301   9.807792   7.051123
    36  H    9.801860   9.131676  10.665652   9.804044   7.048729
    37  H    8.071241   9.062450  11.071830  10.934472   8.348483
    38  H    9.398311  10.375159  12.250025  11.789529   9.077808
    39  H    7.872089   9.060016  11.068301  10.931053   8.346401
                   26         27         28         29         30
    26  H    0.000000
    27  F    6.088177   0.000000
    28  F    6.257249   2.234801   0.000000
    29  F    6.087939   2.248939   2.234794   0.000000
    30  O    2.571994   8.606294   8.808712   8.603752   0.000000
    31  O    3.504612   8.771420   9.436844   8.768127   2.234800
    32  C    3.477915   9.257643   9.696169   9.254289   1.351530
    33  C    4.904646  10.750895  11.155092  10.746809   2.459941
    34  C    5.982882  11.516628  12.128376  11.511919   3.783729
    35  H    5.216885  11.031644  11.429438  11.210067   2.744254
    36  H    5.216479  11.210526  11.425356  11.023943   2.744074
    37  H    6.055100  11.267649  12.062183  11.442462   4.083618
    38  H    6.959908  12.592135  13.158523  12.587099   4.613983
    39  H    6.054727  11.443655  12.058286  11.259348   4.083450
                   31         32         33         34         35
    31  O    0.000000
    32  C    1.226723   0.000000
    33  C    2.383930   1.505703   0.000000
    34  C    2.766748   2.533863   1.528222   0.000000
    35  H    3.094345   2.137799   1.110983   2.159685   0.000000
    36  H    3.094458   2.137791   1.110980   2.159627   1.804646
    37  H    2.744409   2.805928   2.179312   1.110949   2.504715
    38  H    3.862374   3.482005   2.168494   1.110499   2.483084
    39  H    2.744593   2.805911   2.179276   1.110947   3.089496
                   36         37         38         39
    36  H    0.000000
    37  H    3.089480   0.000000
    38  H    2.483048   1.804388   0.000000
    39  H    2.504560   1.812948   1.804382   0.000000
 Stoichiometry    C14H16ClF3NO4(1-)
 Framework group  C1[X(C14H16ClF3NO4)]
 Deg. of freedom   111
 Full point group                 C1      NOp   1
 Largest Abelian subgroup         C1      NOp   1
 Largest concise Abelian subgroup C1      NOp   1
                         Standard orientation:                         
 ---------------------------------------------------------------------
 Center     Atomic      Atomic             Coordinates (Angstroms)
 Number     Number       Type             X           Y           Z
 ---------------------------------------------------------------------
      1          6           0       -0.624869   -0.109849   -0.001271
      2          7           0        0.713143    0.423941   -0.000547
      3          6           0        1.094195    1.735841   -0.001004
      4          8           0        0.276970    2.642887   -0.002668
      5          8           0        2.420481    2.029585   -0.000315
      6          6           0        2.922487    3.316176   -0.003035
      7          6           0        4.449111    3.272797   -0.000598
      8          6           0        5.039018    4.680608   -0.004298
      9          6           0       -1.803685    0.672691    0.001847
     10          6           0       -3.084403    0.081386    0.000941
     11          6           0       -3.183809   -1.332870   -0.003271
     12          6           0       -2.021446   -2.105841   -0.006236
     13          6           0       -0.765139   -1.505477   -0.005165
     14          1           0        1.567348   -0.339166   -0.000159
     15          1           0        2.565305    3.856422    0.901912
     16          1           0        2.568009    3.851274   -0.912099
     17          1           0        4.804814    2.727672   -0.901815
     18          1           0        4.802016    2.733484    0.905205
     19          1           0        4.714357    5.233120   -0.911891
     20          1           0        6.147649    4.620803   -0.002314
     21          1           0        4.711390    5.239203    0.898490
     22          1           0       -1.775066    1.746356    0.005328
     23          6           0       -4.275443    1.024037    0.004689
     24         17           0       -4.709626   -2.213948   -0.004985
     25          1           0       -2.087091   -3.186596   -0.009407
     26          1           0        0.202181   -2.205119   -0.007853
     27          9           0       -4.218390    1.831413   -1.117294
     28          9           0       -5.495972    0.380242    0.003518
     29          9           0       -4.216847    1.824368    1.131633
     30          8           0        2.359099   -3.606135   -0.004636
     31          8           0        3.684026   -1.806458    0.003206
     32          6           0        3.581128   -3.028855    0.000412
     33          6           0        4.799795   -3.913157    0.002529
     34          6           0        6.112903   -3.131383    0.008655
     35          1           0        4.771517   -4.558585   -0.901300
     36          1           0        4.765526   -4.562506    0.903332
     37          1           0        6.184953   -2.490793   -0.896144
     38          1           0        6.967076   -3.841027    0.009929
     39          1           0        6.178869   -2.494875    0.916790
 ---------------------------------------------------------------------
 Rotational constants (GHZ):           0.2409208           0.1033156           0.0734916
 Standard basis: 6-311+G(d) (5D, 7F)
 There are   585 symmetry adapted cartesian basis functions of A   symmetry.
 There are   562 symmetry adapted basis functions of A   symmetry.
   562 basis functions,   925 primitive gaussians,   585 cartesian basis functions
    92 alpha electrons       92 beta electrons
       nuclear repulsion energy      2019.2650753083 Hartrees.
 NAtoms=   39 NActive=   39 NUniq=   39 SFac= 1.00D+00 NAtFMM=   60 NAOKFM=F Big=F
 Integral buffers will be    131072 words long.
 Raffenetti 2 integral format.
 Two-electron integral symmetry is turned on.
 Nuclear repulsion after empirical dispersion term =     2019.2630395357 Hartrees.
 Force inversion solution in PCM.
 ------------------------------------------------------------------------------
 Polarizable Continuum Model (PCM)
 =================================
 Model                : PCM.
 Atomic radii         : SMD-Coulomb.
 Polarization charges : Total charges.
 Charge compensation  : None.
 Solution method      : Matrix inversion.
 Cavity type          : VdW (van der Waals Surface) (Alpha=1.000).
 Cavity algorithm     : GePol (No added spheres)
                        Default sphere list used, NSphG=   39.
                        Lebedev-Laikov grids with approx.  5.0 points / Ang**2.
                        Smoothing algorithm: York/Karplus (Gamma=1.0000).
                        Polarization charges: spherical gaussians, with
                                              point-specific exponents (IZeta= 3).
                        Self-potential: point-specific (ISelfS= 7).
                        Self-field    : sphere-specific E.n sum rule (ISelfD= 2).
 1st derivatives      : Analytical E(r).r(x)/FMM algorithm (CHGder, D1EAlg=3).
                        Cavity 1st derivative terms included.
 2nd derivatives      : Analytical E(r).r(xy)/FMM algorithm (CHGder, D2EAlg=3).
                        Cavity 2nd derivative terms included.
 Solvent              : Water, Eps=  78.355300 Eps(inf)=   1.777849
 ------------------------------------------------------------------------------
 ------------------------------------------------------------------------------
 Atomic radii for non-electrostatic terms: SMD-CDS.
 ------------------------------------------------------------------------------
 Nuclear repulsion after PCM non-electrostatic terms =     2019.2811211265 Hartrees.
 One-electron integrals computed using PRISM.
 NBasis=   562 RedAO= T EigKep=  1.33D-06  NBF=   562
 NBsUse=   560 1.00D-06 EigRej=  5.50D-07 NBFU=   560
 ExpMin= 4.38D-02 ExpMax= 1.06D+05 ExpMxC= 3.62D+03 IAcc=3 IRadAn=         5 AccDes= 0.00D+00
 Harris functional with IExCor= 1009 and IRadAn=       5 diagonalized for initial guess.
 HarFok:  IExCor= 1009 AccDes= 0.00D+00 IRadAn=         5 IDoV= 1 UseB2=F ITyADJ=14
 ICtDFT=  3500011 ScaDFX=  1.000000  1.000000  1.000000  1.000000
 FoFCou: FMM=F IPFlag=           0 FMFlag=      100000 FMFlg1=           0
         NFxFlg=           0 DoJE=T BraDBF=F KetDBF=T FulRan=T
         wScrn=  0.000000 ICntrl=       500 IOpCl=  0 I1Cent=   200000004 NGrid=           0
         NMat0=    1 NMatS0=      1 NMatT0=    0 NMatD0=    1 NMtDS0=    0 NMtDT0=    0
 Petite list used in FoFCou.
 Requested convergence on RMS density matrix=1.00D-08 within 128 cycles.
 Requested convergence on MAX density matrix=1.00D-06.
 Requested convergence on             energy=1.00D-06.
 No special actions if energy rises.
 Inv3:  Mode=1 IEnd=    31008675.
 Iteration    1 A*A^-1 deviation from unit magnitude is 5.77D-15 for   3193.
 Iteration    1 A*A^-1 deviation from orthogonality  is 2.89D-15 for   3202   3006.
 Iteration    1 A^-1*A deviation from unit magnitude is 6.00D-15 for   3193.
 Iteration    1 A^-1*A deviation from orthogonality  is 2.65D-15 for   3202   3006.
 Error on total polarization charges =  0.06414
 SCF Done:  E(RM062X) =  -1658.54751349     A.U. after   15 cycles
            NFock= 15  Conv=0.87D-08     -V/T= 2.0038
 SMD-CDS (non-electrostatic) energy       (kcal/mol) =      11.35
 (included in total energy above)
 DoSCS=F DFT=T ScalE2(SS,OS)=  1.000000  1.000000
 Range of M.O.s used for correlation:     1   560
 NBasis=   562 NAE=    92 NBE=    92 NFC=     0 NFV=     0
 NROrb=    560 NOA=    92 NOB=    92 NVA=   468 NVB=   468

 **** Warning!!: The largest alpha MO coefficient is  0.18687064D+03

 Symmetrizing basis deriv contribution to polar:
 IMax=3 JMax=2 DiffMx= 0.00D+00
 G2DrvN: will do    40 centers at a time, making    1 passes.
 Calling FoFCou, ICntrl=  3107 FMM=F I1Cent=   0 AccDes= 0.00D+00.
 NEqPCM:  Using equilibrium solvation (IEInf=0, Eps=  78.3553, EpsInf=   1.7778)
 G2PCM: DoFxE=T DoFxN=T DoGrad=T DoDP/DQ/DG/TGxP=FFFF NFrqRd=   0 IEInf=0 SqF1=F DoCFld=F IF1Alg=4.
 End of G2Drv F.D. properties file   721 does not exist.
 End of G2Drv F.D. properties file   722 does not exist.
 End of G2Drv F.D. properties file   788 does not exist.
          IDoAtm=111111111111111111111111111111111111111
 NEqPCM:  Using equilibrium solvation (IEInf=0, Eps=  78.3553, EpsInf=   1.7778)
          Differentiating once with respect to nuclear coordinates.
 CalDSu exits because no D1Ps are significant.
          There are   120 degrees of freedom in the 1st order CPHF.  IDoFFX=6 NUNeed=     0.
    114 vectors produced by pass  0 Test12= 4.31D-14 1.00D-09 XBig12= 4.91D-01 1.37D-01.
 AX will form    64 AO Fock derivatives at one time.
    114 vectors produced by pass  1 Test12= 4.31D-14 1.00D-09 XBig12= 3.60D-02 6.80D-02.
    114 vectors produced by pass  2 Test12= 4.31D-14 1.00D-09 XBig12= 2.07D-03 6.99D-03.
    114 vectors produced by pass  3 Test12= 4.31D-14 1.00D-09 XBig12= 1.79D-05 5.30D-04.
    114 vectors produced by pass  4 Test12= 4.31D-14 1.00D-09 XBig12= 9.27D-08 3.16D-05.
    114 vectors produced by pass  5 Test12= 4.31D-14 1.00D-09 XBig12= 5.37D-10 2.21D-06.
     94 vectors produced by pass  6 Test12= 4.31D-14 1.00D-09 XBig12= 2.71D-12 1.97D-07.
     37 vectors produced by pass  7 Test12= 4.31D-14 1.00D-09 XBig12= 1.14D-14 9.10D-09.
 InvSVY:  IOpt=1 It=  1 EMax= 1.22D-15
 Solved reduced A of dimension   815 with   120 vectors.
 End of Minotr F.D. properties file   721 does not exist.
 End of Minotr F.D. properties file   722 does not exist.
 End of Minotr F.D. properties file   788 does not exist.

 **********************************************************************

            Population analysis using the SCF Density.

 **********************************************************************

 Orbital symmetries:
       Occupied  (A) (A) (A) (A) (A) (A) (A) (A) (A) (A) (A) (A)
                 (A) (A) (A) (A) (A) (A) (A) (A) (A) (A) (A) (A)
                 (A) (A) (A) (A) (A) (A) (A) (A) (A) (A) (A) (A)
                 (A) (A) (A) (A) (A) (A) (A) (A) (A) (A) (A) (A)
                 (A) (A) (A) (A) (A) (A) (A) (A) (A) (A) (A) (A)
                 (A) (A) (A) (A) (A) (A) (A) (A) (A) (A) (A) (A)
                 (A) (A) (A) (A) (A) (A) (A) (A) (A) (A) (A) (A)
                 (A) (A) (A) (A) (A) (A) (A) (A)
       Virtual   (A) (A) (A) (A) (A) (A) (A) (A) (A) (A) (A) (A)
                 (A) (A) (A) (A) (A) (A) (A) (A) (A) (A) (A) (A)
                 (A) (A) (A) (A) (A) (A) (A) (A) (A) (A) (A) (A)
                 (A) (A) (A) (A) (A) (A) (A) (A) (A) (A) (A) (A)
                 (A) (A) (A) (A) (A) (A) (A) (A) (A) (A) (A) (A)
                 (A) (A) (A) (A) (A) (A) (A) (A) (A) (A) (A) (A)
                 (A) (A) (A) (A) (A) (A) (A) (A) (A) (A) (A) (A)
                 (A) (A) (A) (A) (A) (A) (A) (A) (A) (A) (A) (A)
                 (A) (A) (A) (A) (A) (A) (A) (A) (A) (A) (A) (A)
                 (A) (A) (A) (A) (A) (A) (A) (A) (A) (A) (A) (A)
                 (A) (A) (A) (A) (A) (A) (A) (A) (A) (A) (A) (A)
                 (A) (A) (A) (A) (A) (A) (A) (A) (A) (A) (A) (A)
                 (A) (A) (A) (A) (A) (A) (A) (A) (A) (A) (A) (A)
                 (A) (A) (A) (A) (A) (A) (A) (A) (A) (A) (A) (A)
                 (A) (A) (A) (A) (A) (A) (A) (A) (A) (A) (A) (A)
                 (A) (A) (A) (A) (A) (A) (A) (A) (A) (A) (A) (A)
                 (A) (A) (A) (A) (A) (A) (A) (A) (A) (A) (A) (A)
                 (A) (A) (A) (A) (A) (A) (A) (A) (A) (A) (A) (A)
                 (A) (A) (A) (A) (A) (A) (A) (A) (A) (A) (A) (A)
                 (A) (A) (A) (A) (A) (A) (A) (A) (A) (A) (A) (A)
                 (A) (A) (A) (A) (A) (A) (A) (A) (A) (A) (A) (A)
                 (A) (A) (A) (A) (A) (A) (A) (A) (A) (A) (A) (A)
                 (A) (A) (A) (A) (A) (A) (A) (A) (A) (A) (A) (A)
                 (A) (A) (A) (A) (A) (A) (A) (A) (A) (A) (A) (A)
                 (A) (A) (A) (A) (A) (A) (A) (A) (A) (A) (A) (A)
                 (A) (A) (A) (A) (A) (A) (A) (A) (A) (A) (A) (A)
                 (A) (A) (A) (A) (A) (A) (A) (A) (A) (A) (A) (A)
                 (A) (A) (A) (A) (A) (A) (A) (A) (A) (A) (A) (A)
                 (A) (A) (A) (A) (A) (A) (A) (A) (A) (A) (A) (A)
                 (A) (A) (A) (A) (A) (A) (A) (A) (A) (A) (A) (A)
                 (A) (A) (A) (A) (A) (A) (A) (A) (A) (A) (A) (A)
                 (A) (A) (A) (A) (A) (A) (A) (A) (A) (A) (A) (A)
                 (A) (A) (A) (A) (A) (A) (A) (A) (A) (A) (A) (A)
                 (A) (A) (A) (A) (A) (A) (A) (A) (A) (A) (A) (A)
                 (A) (A) (A) (A) (A) (A) (A) (A) (A) (A) (A) (A)
                 (A) (A) (A) (A) (A) (A) (A) (A) (A) (A) (A) (A)
                 (A) (A) (A) (A) (A) (A) (A) (A) (A) (A) (A) (A)
                 (A) (A) (A) (A) (A) (A) (A) (A) (A) (A) (A) (A)
                 (A) (A) (A) (A) (A) (A) (A) (A) (A) (A) (A) (A)
 The electronic state is 1-A.
 Alpha  occ. eigenvalues -- -102.68600 -25.29104 -25.28903 -25.28902 -19.67270
 Alpha  occ. eigenvalues --  -19.61258 -19.58321 -19.56062 -14.81177 -10.82749
 Alpha  occ. eigenvalues --  -10.71966 -10.63818 -10.63240 -10.62626 -10.60123
 Alpha  occ. eigenvalues --  -10.59230 -10.57693 -10.57626 -10.57005 -10.53376
 Alpha  occ. eigenvalues --  -10.53157 -10.52392 -10.52050  -9.82858  -7.55379
 Alpha  occ. eigenvalues --   -7.54697  -7.54666  -1.45678  -1.37825  -1.37688
 Alpha  occ. eigenvalues --   -1.25199  -1.16033  -1.15502  -1.05510  -1.03373
 Alpha  occ. eigenvalues --   -1.00883  -0.94858  -0.90409  -0.88796  -0.85817
 Alpha  occ. eigenvalues --   -0.84944  -0.81668  -0.79210  -0.73762  -0.72455
 Alpha  occ. eigenvalues --   -0.71688  -0.69535  -0.69341  -0.68063  -0.66364
 Alpha  occ. eigenvalues --   -0.64461  -0.63852  -0.58976  -0.58961  -0.58742
 Alpha  occ. eigenvalues --   -0.58490  -0.58145  -0.56791  -0.56170  -0.54572
 Alpha  occ. eigenvalues --   -0.54253  -0.53001  -0.52967  -0.52924  -0.52783
 Alpha  occ. eigenvalues --   -0.52710  -0.51995  -0.50543  -0.49930  -0.48922
 Alpha  occ. eigenvalues --   -0.48623  -0.46886  -0.45868  -0.45582  -0.44581
 Alpha  occ. eigenvalues --   -0.43808  -0.43508  -0.42937  -0.42260  -0.40853
 Alpha  occ. eigenvalues --   -0.39750  -0.39665  -0.39198  -0.38331  -0.37680
 Alpha  occ. eigenvalues --   -0.36944  -0.36883  -0.33537  -0.32875  -0.32561
 Alpha  occ. eigenvalues --   -0.31409  -0.29017
 Alpha virt. eigenvalues --   -0.01861  -0.00496   0.01199   0.01841   0.02617
 Alpha virt. eigenvalues --    0.02853   0.03467   0.03678   0.03747   0.04124
 Alpha virt. eigenvalues --    0.05075   0.05103   0.05495   0.05508   0.06069
 Alpha virt. eigenvalues --    0.06473   0.06914   0.07081   0.07437   0.07496
 Alpha virt. eigenvalues --    0.07711   0.08068   0.08092   0.08704   0.08729
 Alpha virt. eigenvalues --    0.08986   0.09193   0.09606   0.10032   0.10036
 Alpha virt. eigenvalues --    0.10530   0.10937   0.11132   0.12137   0.12457
 Alpha virt. eigenvalues --    0.12970   0.13200   0.13456   0.13623   0.13788
 Alpha virt. eigenvalues --    0.14377   0.14493   0.14666   0.15196   0.15446
 Alpha virt. eigenvalues --    0.15851   0.16619   0.16899   0.17832   0.18000
 Alpha virt. eigenvalues --    0.18345   0.18919   0.19153   0.19533   0.20084
 Alpha virt. eigenvalues --    0.20549   0.20590   0.20595   0.21107   0.21312
 Alpha virt. eigenvalues --    0.21852   0.21903   0.22584   0.22647   0.22998
 Alpha virt. eigenvalues --    0.23097   0.23750   0.24156   0.24368   0.24966
 Alpha virt. eigenvalues --    0.25080   0.25261   0.25519   0.25868   0.26149
 Alpha virt. eigenvalues --    0.26376   0.26616   0.26893   0.27185   0.27815
 Alpha virt. eigenvalues --    0.28072   0.28125   0.28492   0.28764   0.28784
 Alpha virt. eigenvalues --    0.28943   0.29358   0.29995   0.30133   0.30727
 Alpha virt. eigenvalues --    0.31130   0.31536   0.31626   0.32191   0.32437
 Alpha virt. eigenvalues --    0.32594   0.32604   0.33281   0.33788   0.34285
 Alpha virt. eigenvalues --    0.34624   0.34849   0.36018   0.36115   0.36381
 Alpha virt. eigenvalues --    0.37113   0.37300   0.37987   0.38277   0.38949
 Alpha virt. eigenvalues --    0.39076   0.39225   0.39885   0.40195   0.42099
 Alpha virt. eigenvalues --    0.42904   0.43001   0.43083   0.44016   0.44265
 Alpha virt. eigenvalues --    0.44706   0.44927   0.45131   0.46087   0.46903
 Alpha virt. eigenvalues --    0.47182   0.47783   0.48907   0.49074   0.49361
 Alpha virt. eigenvalues --    0.49628   0.50460   0.51058   0.52093   0.52812
 Alpha virt. eigenvalues --    0.54257   0.54544   0.54779   0.54924   0.56100
 Alpha virt. eigenvalues --    0.56144   0.57459   0.57766   0.58850   0.59711
 Alpha virt. eigenvalues --    0.60001   0.60547   0.61352   0.61657   0.62600
 Alpha virt. eigenvalues --    0.63070   0.63172   0.63978   0.64475   0.65329
 Alpha virt. eigenvalues --    0.66271   0.66860   0.67842   0.68527   0.69130
 Alpha virt. eigenvalues --    0.69658   0.70189   0.70541   0.71034   0.71172
 Alpha virt. eigenvalues --    0.71287   0.71844   0.71919   0.72006   0.72095
 Alpha virt. eigenvalues --    0.73341   0.73790   0.74962   0.75045   0.75854
 Alpha virt. eigenvalues --    0.77039   0.77380   0.78042   0.78232   0.78873
 Alpha virt. eigenvalues --    0.79440   0.80616   0.82214   0.82946   0.83634
 Alpha virt. eigenvalues --    0.85777   0.87096   0.87848   0.88497   0.90361
 Alpha virt. eigenvalues --    0.91812   0.92504   0.93118   0.94129   0.94604
 Alpha virt. eigenvalues --    0.95012   0.95150   0.95945   0.97304   0.98857
 Alpha virt. eigenvalues --    0.99936   1.02080   1.02953   1.03708   1.04086
 Alpha virt. eigenvalues --    1.04731   1.05605   1.06631   1.07186   1.08474
 Alpha virt. eigenvalues --    1.09724   1.10009   1.11267   1.12747   1.13943
 Alpha virt. eigenvalues --    1.15140   1.16823   1.17071   1.18087   1.18822
 Alpha virt. eigenvalues --    1.20878   1.21648   1.22611   1.23749   1.23927
 Alpha virt. eigenvalues --    1.24131   1.24575   1.25103   1.25903   1.27865
 Alpha virt. eigenvalues --    1.30952   1.31714   1.32760   1.33222   1.35104
 Alpha virt. eigenvalues --    1.36864   1.38376   1.38522   1.40204   1.41445
 Alpha virt. eigenvalues --    1.41836   1.42866   1.43217   1.43922   1.45528
 Alpha virt. eigenvalues --    1.47683   1.47955   1.48138   1.51551   1.51904
 Alpha virt. eigenvalues --    1.52435   1.53172   1.53958   1.54779   1.54863
 Alpha virt. eigenvalues --    1.56068   1.58076   1.59108   1.59181   1.59831
 Alpha virt. eigenvalues --    1.60551   1.61010   1.62782   1.63159   1.63668
 Alpha virt. eigenvalues --    1.64731   1.65179   1.65864   1.67571   1.68668
 Alpha virt. eigenvalues --    1.69716   1.70300   1.72747   1.73669   1.76665
 Alpha virt. eigenvalues --    1.76872   1.77898   1.78343   1.78737   1.78968
 Alpha virt. eigenvalues --    1.79865   1.80343   1.81660   1.85210   1.85835
 Alpha virt. eigenvalues --    1.85877   1.87080   1.87884   1.89007   1.90168
 Alpha virt. eigenvalues --    1.91363   1.92793   1.92823   1.94422   1.95028
 Alpha virt. eigenvalues --    1.97618   1.99255   2.00395   2.03263   2.03349
 Alpha virt. eigenvalues --    2.03906   2.08872   2.11117   2.14154   2.15638
 Alpha virt. eigenvalues --    2.17503   2.18845   2.20057   2.22023   2.23106
 Alpha virt. eigenvalues --    2.23717   2.30600   2.33448   2.33650   2.37179
 Alpha virt. eigenvalues --    2.38132   2.41544   2.44723   2.47260   2.50058
 Alpha virt. eigenvalues --    2.52734   2.53024   2.54733   2.55150   2.55535
 Alpha virt. eigenvalues --    2.56863   2.57185   2.58811   2.58866   2.59809
 Alpha virt. eigenvalues --    2.61086   2.62900   2.65881   2.66702   2.68230
 Alpha virt. eigenvalues --    2.69385   2.72874   2.73658   2.75617   2.78739
 Alpha virt. eigenvalues --    2.80761   2.81430   2.84770   2.88898   2.93153
 Alpha virt. eigenvalues --    2.93984   2.94933   2.95556   2.95739   2.97423
 Alpha virt. eigenvalues --    2.97616   2.98504   2.99028   2.99195   3.01953
 Alpha virt. eigenvalues --    3.03651   3.03883   3.07007   3.07661   3.08232
 Alpha virt. eigenvalues --    3.10573   3.10733   3.17001   3.17788   3.17935
 Alpha virt. eigenvalues --    3.19671   3.19845   3.21246   3.21797   3.23924
 Alpha virt. eigenvalues --    3.27096   3.27616   3.29185   3.30357   3.30405
 Alpha virt. eigenvalues --    3.31876   3.33614   3.35912   3.36254   3.39687
 Alpha virt. eigenvalues --    3.41655   3.42336   3.43818   3.47841   3.51203
 Alpha virt. eigenvalues --    3.59809   3.65592   3.68536   3.71952   3.72169
 Alpha virt. eigenvalues --    3.72903   3.78401   3.79966   3.83583   3.83955
 Alpha virt. eigenvalues --    3.85323   3.85957   3.86143   3.87035   3.88548
 Alpha virt. eigenvalues --    3.93693   3.97514   3.97896   4.00188   4.02247
 Alpha virt. eigenvalues --    4.05821   4.07175   4.15674   4.16491   4.17948
 Alpha virt. eigenvalues --    4.18230   4.19509   4.20338   4.23900   4.46112
 Alpha virt. eigenvalues --    4.70324   4.79297   4.92149   4.95129   5.04746
 Alpha virt. eigenvalues --    5.10482   5.15721   5.16418   5.20691   5.32295
 Alpha virt. eigenvalues --    5.36368   5.38053   5.46519   5.65876   5.80657
 Alpha virt. eigenvalues --    5.95968   5.99748   6.43457   6.47767   6.48979
 Alpha virt. eigenvalues --    6.50558   6.52364   6.58427   6.61707   6.80512
 Alpha virt. eigenvalues --    6.84314   9.97903  23.41686  23.58830  23.59674
 Alpha virt. eigenvalues --   23.61685  23.74260  23.80542  23.81191  23.88771
 Alpha virt. eigenvalues --   23.90179  23.91562  23.92198  24.02599  24.06361
 Alpha virt. eigenvalues --   24.15170  25.93830  26.30546  26.76105  35.63908
 Alpha virt. eigenvalues --   50.01896  50.04002  50.13066  50.13606  66.86446
 Alpha virt. eigenvalues --   66.90135  66.95606 216.08402
          Condensed to atoms (all electrons):
               1          2          3          4          5          6
     1  C   31.659056  -0.175259  -0.459105  -0.232235  -0.367095  -0.517974
     2  N   -0.175259   7.555454   0.314526  -0.046669  -0.197422  -0.349728
     3  C   -0.459105   0.314526   8.100361   0.599261   0.297440  -0.648406
     4  O   -0.232235  -0.046669   0.599261   8.168356  -0.195965  -0.153834
     5  O   -0.367095  -0.197422   0.297440  -0.195965   8.430287   0.284419
     6  C   -0.517974  -0.349728  -0.648406  -0.153834   0.284419   8.097438
     7  C    0.045697   0.032836   0.178669   0.026605  -0.150264  -0.877541
     8  C   -0.017458  -0.009972  -0.218688  -0.001007   0.021503   0.311639
     9  C   -9.588697   0.062203  -0.092221   0.267462   0.083834  -0.221605
    10  C   -7.122731   0.092626   0.155005   0.054434   0.031252  -0.069429
    11  C    1.841408  -0.094789  -1.565590   0.011133  -0.025469  -0.118098
    12  C   -2.092725   0.166595   0.315255  -0.016597   0.004607   0.039659
    13  C    0.910157  -0.105985  -1.214408  -0.028757  -0.054566  -0.100045
    14  H   -0.060977   0.175863   0.029281   0.000022   0.033777   0.016771
    15  H    0.008465   0.003092   0.029222   0.001179  -0.049061   0.372455
    16  H    0.008581   0.003135   0.029209   0.001182  -0.049044   0.372848
    17  H   -0.000429  -0.000811   0.001662  -0.000296   0.001959  -0.062062
    18  H   -0.000382  -0.000774   0.001906  -0.000294   0.001959  -0.061953
    19  H   -0.000056  -0.000043  -0.001683  -0.000062  -0.000310  -0.044988
    20  H    0.000073   0.000032   0.006658   0.000025  -0.000754   0.085011
    21  H   -0.000063  -0.000045  -0.001828  -0.000062  -0.000313  -0.045182
    22  H   -0.039867  -0.017768   0.082000   0.006517   0.002240   0.009430
    23  C   -7.175522   0.047312   0.009975  -0.014883   0.007422   0.003269
    24  Cl  -0.037114  -0.001886  -0.048367   0.000122  -0.000062  -0.001297
    25  H    0.070412  -0.001700   0.004099  -0.000012  -0.000004   0.000047
    26  H    0.014636  -0.012867  -0.000253   0.000130  -0.000117  -0.000312
    27  F    0.087158  -0.000001   0.002248   0.000046   0.000006   0.000052
    28  F    0.063563  -0.000160  -0.001062   0.000057  -0.000000  -0.000000
    29  F    0.088154  -0.000032   0.002003   0.000064   0.000006   0.000043
    30  O    0.016362  -0.008575   0.012448  -0.000044   0.000203  -0.000030
    31  O    0.019309  -0.007256  -0.006916   0.000128   0.004784  -0.005681
    32  C   -0.050979  -0.003672   0.007902   0.000311  -0.001837   0.001500
    33  C   -0.003433  -0.002976   0.002369   0.000185  -0.000172   0.002014
    34  C    0.001121  -0.000354  -0.001623  -0.000045  -0.000335  -0.000071
    35  H   -0.000127   0.000011   0.000004  -0.000000   0.000001  -0.000013
    36  H   -0.000128   0.000011   0.000004  -0.000000   0.000001  -0.000012
    37  H   -0.000055   0.000068  -0.000039   0.000000  -0.000003   0.000006
    38  H    0.000015  -0.000015   0.000017  -0.000000   0.000000  -0.000004
    39  H   -0.000061   0.000069  -0.000035   0.000000  -0.000003   0.000004
               7          8          9         10         11         12
     1  C    0.045697  -0.017458  -9.588697  -7.122731   1.841408  -2.092725
     2  N    0.032836  -0.009972   0.062203   0.092626  -0.094789   0.166595
     3  C    0.178669  -0.218688  -0.092221   0.155005  -1.565590   0.315255
     4  O    0.026605  -0.001007   0.267462   0.054434   0.011133  -0.016597
     5  O   -0.150264   0.021503   0.083834   0.031252  -0.025469   0.004607
     6  C   -0.877541   0.311639  -0.221605  -0.069429  -0.118098   0.039659
     7  C    6.409540  -0.215122  -0.046369  -0.009849   0.004590  -0.000251
     8  C   -0.215122   6.238958  -0.005364  -0.000638  -0.000866   0.000293
     9  C   -0.046369  -0.005364  26.978531  11.555914 -14.765396   0.887785
    10  C   -0.009849  -0.000638  11.555914  42.776393 -21.781261  -3.912973
    11  C    0.004590  -0.000866 -14.765396 -21.781261  43.561326  -5.411771
    12  C   -0.000251   0.000293   0.887785  -3.912973  -5.411771  16.033961
    13  C    0.028438  -0.001600  -9.337353 -13.620897   6.603746  -0.371121
    14  H   -0.002479   0.000103   0.065568   0.031776  -0.023497   0.018850
    15  H   -0.024109  -0.015913  -0.003084   0.000011   0.000132  -0.000034
    16  H   -0.024723  -0.015828  -0.002992   0.000022   0.000136  -0.000043
    17  H    0.449751  -0.058109   0.000241   0.000018   0.000000   0.000005
    18  H    0.449188  -0.057959   0.000277   0.000020   0.000000   0.000003
    19  H    0.015242   0.371082  -0.000034  -0.000003   0.000000   0.000000
    20  H   -0.134042   0.389339   0.000061   0.000002   0.000000  -0.000001
    21  H    0.015574   0.371075  -0.000036  -0.000003   0.000000   0.000000
    22  H   -0.000580   0.000066   0.368036  -0.049937  -0.065440  -0.026449
    23  C   -0.001952   0.000129  -0.502076  -1.638542  -1.423226   0.683058
    24  Cl   0.000007  -0.000004  -0.297720   0.232467  -0.789245  -0.160593
    25  H   -0.000000   0.000000  -0.012226   0.049841   0.045753   0.223800
    26  H    0.000007   0.000002   0.000188   0.030116  -0.066587   0.014052
    27  F   -0.000001   0.000000  -0.066251   0.173585  -0.088418  -0.011963
    28  F    0.000000  -0.000000   0.193584  -0.099563  -0.119828   0.113100
    29  F   -0.000001   0.000000  -0.066304   0.171642  -0.086667  -0.011837
    30  O    0.000343   0.000001  -0.007710   0.002367   0.004060  -0.029227
    31  O    0.003393   0.000384   0.013563   0.003135  -0.000370   0.017029
    32  C   -0.000556  -0.000676  -0.041601  -0.023226   0.000143   0.021410
    33  C    0.000383   0.000935  -0.024566  -0.008630   0.003649  -0.021121
    34  C    0.000131  -0.000636   0.000192   0.000228  -0.000550   0.001065
    35  H    0.000011  -0.000000  -0.000014  -0.000004  -0.000012  -0.000060
    36  H    0.000011  -0.000000  -0.000014  -0.000004  -0.000012  -0.000059
    37  H    0.000073   0.000045  -0.000011  -0.000002   0.000001  -0.000035
    38  H   -0.000009  -0.000002   0.000003   0.000000  -0.000000   0.000016
    39  H    0.000074   0.000045  -0.000011  -0.000003   0.000001  -0.000034
              13         14         15         16         17         18
     1  C    0.910157  -0.060977   0.008465   0.008581  -0.000429  -0.000382
     2  N   -0.105985   0.175863   0.003092   0.003135  -0.000811  -0.000774
     3  C   -1.214408   0.029281   0.029222   0.029209   0.001662   0.001906
     4  O   -0.028757   0.000022   0.001179   0.001182  -0.000296  -0.000294
     5  O   -0.054566   0.033777  -0.049061  -0.049044   0.001959   0.001959
     6  C   -0.100045   0.016771   0.372455   0.372848  -0.062062  -0.061953
     7  C    0.028438  -0.002479  -0.024109  -0.024723   0.449751   0.449188
     8  C   -0.001600   0.000103  -0.015913  -0.015828  -0.058109  -0.057959
     9  C   -9.337353   0.065568  -0.003084  -0.002992   0.000241   0.000277
    10  C  -13.620897   0.031776   0.000011   0.000022   0.000018   0.000020
    11  C    6.603746  -0.023497   0.000132   0.000136   0.000000   0.000000
    12  C   -0.371121   0.018850  -0.000034  -0.000043   0.000005   0.000003
    13  C   24.155562  -0.073530   0.000422   0.000362   0.000019  -0.000006
    14  H   -0.073530   0.268538  -0.000005  -0.000007  -0.000001  -0.000001
    15  H    0.000422  -0.000005   0.445604  -0.040193   0.005075  -0.007900
    16  H    0.000362  -0.000007  -0.040193   0.445391  -0.007880   0.005072
    17  H    0.000019  -0.000001   0.005075  -0.007880   0.439864  -0.033541
    18  H   -0.000006  -0.000001  -0.007900   0.005072  -0.033541   0.439827
    19  H    0.000013  -0.000000  -0.000565   0.003615  -0.007712   0.006065
    20  H   -0.000019   0.000000  -0.000159  -0.000158  -0.003524  -0.003528
    21  H    0.000014  -0.000000   0.003619  -0.000564   0.006068  -0.007710
    22  H   -0.047177   0.000010  -0.000022  -0.000022  -0.000000  -0.000000
    23  C   -0.882760   0.002569  -0.000013  -0.000015   0.000002   0.000002
    24  Cl   0.156997   0.000027   0.000000   0.000000   0.000000   0.000000
    25  H   -0.057978  -0.000011  -0.000000  -0.000000  -0.000000  -0.000000
    26  H    0.295126   0.008060  -0.000000  -0.000000  -0.000000  -0.000000
    27  F   -0.007428  -0.000001   0.000000  -0.000000   0.000000   0.000000
    28  F    0.038368   0.000000   0.000000   0.000000  -0.000000  -0.000000
    29  F   -0.007093  -0.000001  -0.000000   0.000000   0.000000   0.000000
    30  O    0.009426   0.009847  -0.000000  -0.000000  -0.000000  -0.000000
    31  O   -0.047647   0.022180   0.000006   0.000007  -0.000014  -0.000014
    32  C    0.076078  -0.003437   0.000011   0.000012   0.000129   0.000125
    33  C    0.018826   0.000876  -0.000002  -0.000001  -0.000211  -0.000205
    34  C   -0.000400   0.000421   0.000005   0.000005   0.000159   0.000156
    35  H    0.000276   0.000002   0.000000   0.000000  -0.000000  -0.000000
    36  H    0.000276   0.000002   0.000000   0.000000  -0.000000  -0.000000
    37  H   -0.000007  -0.000025  -0.000000  -0.000000  -0.000008  -0.000003
    38  H    0.000012   0.000004  -0.000000  -0.000000   0.000000   0.000000
    39  H   -0.000003  -0.000025   0.000000  -0.000000  -0.000003  -0.000007
              19         20         21         22         23         24
     1  C   -0.000056   0.000073  -0.000063  -0.039867  -7.175522  -0.037114
     2  N   -0.000043   0.000032  -0.000045  -0.017768   0.047312  -0.001886
     3  C   -0.001683   0.006658  -0.001828   0.082000   0.009975  -0.048367
     4  O   -0.000062   0.000025  -0.000062   0.006517  -0.014883   0.000122
     5  O   -0.000310  -0.000754  -0.000313   0.002240   0.007422  -0.000062
     6  C   -0.044988   0.085011  -0.045182   0.009430   0.003269  -0.001297
     7  C    0.015242  -0.134042   0.015574  -0.000580  -0.001952   0.000007
     8  C    0.371082   0.389339   0.371075   0.000066   0.000129  -0.000004
     9  C   -0.000034   0.000061  -0.000036   0.368036  -0.502076  -0.297720
    10  C   -0.000003   0.000002  -0.000003  -0.049937  -1.638542   0.232467
    11  C    0.000000   0.000000   0.000000  -0.065440  -1.423226  -0.789245
    12  C    0.000000  -0.000001   0.000000  -0.026449   0.683058  -0.160593
    13  C    0.000013  -0.000019   0.000014  -0.047177  -0.882760   0.156997
    14  H   -0.000000   0.000000  -0.000000   0.000010   0.002569   0.000027
    15  H   -0.000565  -0.000159   0.003619  -0.000022  -0.000013   0.000000
    16  H    0.003615  -0.000158  -0.000564  -0.000022  -0.000015   0.000000
    17  H   -0.007712  -0.003524   0.006068  -0.000000   0.000002   0.000000
    18  H    0.006065  -0.003528  -0.007710  -0.000000   0.000002   0.000000
    19  H    0.449694  -0.023198  -0.034428  -0.000000  -0.000000  -0.000000
    20  H   -0.023198   0.426322  -0.023192   0.000000   0.000000   0.000000
    21  H   -0.034428  -0.023192   0.449727  -0.000000  -0.000000  -0.000000
    22  H   -0.000000   0.000000  -0.000000   0.335003   0.089829  -0.001363
    23  C   -0.000000   0.000000  -0.000000   0.089829  16.248213  -0.193197
    24  Cl  -0.000000   0.000000  -0.000000  -0.001363  -0.193197  17.806030
    25  H    0.000000  -0.000000   0.000000   0.000061   0.017994  -0.023248
    26  H   -0.000000   0.000000  -0.000000  -0.000064   0.000946   0.000527
    27  F   -0.000000   0.000000   0.000000  -0.001701   0.082357   0.004552
    28  F    0.000000  -0.000000   0.000000  -0.000028  -0.083930  -0.029654
    29  F    0.000000   0.000000  -0.000000  -0.001710   0.081468   0.004539
    30  O    0.000000   0.000000   0.000000  -0.000003   0.000093  -0.000131
    31  O    0.000000   0.000001   0.000000   0.000004   0.000112   0.000024
    32  C    0.000001  -0.000003   0.000001  -0.000005  -0.003420  -0.000267
    33  C   -0.000002   0.000003  -0.000002  -0.000000  -0.000608  -0.000043
    34  C    0.000002  -0.000008   0.000002   0.000000   0.000017   0.000002
    35  H    0.000000  -0.000000   0.000000  -0.000000  -0.000000  -0.000000
    36  H    0.000000  -0.000000   0.000000  -0.000000  -0.000000  -0.000000
    37  H   -0.000000   0.000000  -0.000000  -0.000000  -0.000000  -0.000000
    38  H    0.000000  -0.000000   0.000000  -0.000000   0.000000   0.000000
    39  H   -0.000000   0.000000  -0.000000  -0.000000  -0.000000  -0.000000
              25         26         27         28         29         30
     1  C    0.070412   0.014636   0.087158   0.063563   0.088154   0.016362
     2  N   -0.001700  -0.012867  -0.000001  -0.000160  -0.000032  -0.008575
     3  C    0.004099  -0.000253   0.002248  -0.001062   0.002003   0.012448
     4  O   -0.000012   0.000130   0.000046   0.000057   0.000064  -0.000044
     5  O   -0.000004  -0.000117   0.000006  -0.000000   0.000006   0.000203
     6  C    0.000047  -0.000312   0.000052  -0.000000   0.000043  -0.000030
     7  C   -0.000000   0.000007  -0.000001   0.000000  -0.000001   0.000343
     8  C    0.000000   0.000002   0.000000  -0.000000   0.000000   0.000001
     9  C   -0.012226   0.000188  -0.066251   0.193584  -0.066304  -0.007710
    10  C    0.049841   0.030116   0.173585  -0.099563   0.171642   0.002367
    11  C    0.045753  -0.066587  -0.088418  -0.119828  -0.086667   0.004060
    12  C    0.223800   0.014052  -0.011963   0.113100  -0.011837  -0.029227
    13  C   -0.057978   0.295126  -0.007428   0.038368  -0.007093   0.009426
    14  H   -0.000011   0.008060  -0.000001   0.000000  -0.000001   0.009847
    15  H   -0.000000  -0.000000   0.000000   0.000000  -0.000000  -0.000000
    16  H   -0.000000  -0.000000  -0.000000   0.000000   0.000000  -0.000000
    17  H   -0.000000  -0.000000   0.000000  -0.000000   0.000000  -0.000000
    18  H   -0.000000  -0.000000   0.000000  -0.000000   0.000000  -0.000000
    19  H    0.000000  -0.000000  -0.000000   0.000000   0.000000   0.000000
    20  H   -0.000000   0.000000   0.000000  -0.000000   0.000000   0.000000
    21  H    0.000000  -0.000000   0.000000   0.000000  -0.000000   0.000000
    22  H    0.000061  -0.000064  -0.001701  -0.000028  -0.001710  -0.000003
    23  C    0.017994   0.000946   0.082357  -0.083930   0.081468   0.000093
    24  Cl  -0.023248   0.000527   0.004552  -0.029654   0.004539  -0.000131
    25  H    0.361153  -0.004033   0.000013  -0.000007   0.000013  -0.000112
    26  H   -0.004033   0.354151  -0.000003  -0.000001  -0.000003   0.012829
    27  F    0.000013  -0.000003   8.962755  -0.026450  -0.052487  -0.000000
    28  F   -0.000007  -0.000001  -0.026450   9.083382  -0.026455   0.000000
    29  F    0.000013  -0.000003  -0.052487  -0.026455   8.962751  -0.000000
    30  O   -0.000112   0.012829  -0.000000   0.000000  -0.000000   8.708005
    31  O   -0.000017   0.003650   0.000000  -0.000000   0.000000  -0.165452
    32  C   -0.000536  -0.002209  -0.000004   0.000003  -0.000004   0.385781
    33  C   -0.000031   0.005144  -0.000000   0.000000  -0.000000  -0.223209
    34  C   -0.000004   0.000212   0.000000   0.000000   0.000000   0.015834
    35  H   -0.000000  -0.000004   0.000000   0.000000  -0.000000  -0.002543
    36  H   -0.000000  -0.000004  -0.000000   0.000000   0.000000  -0.002536
    37  H    0.000000   0.000000  -0.000000   0.000000  -0.000000  -0.000343
    38  H    0.000000  -0.000000   0.000000  -0.000000   0.000000  -0.000351
    39  H    0.000000   0.000000  -0.000000   0.000000  -0.000000  -0.000344
              31         32         33         34         35         36
     1  C    0.019309  -0.050979  -0.003433   0.001121  -0.000127  -0.000128
     2  N   -0.007256  -0.003672  -0.002976  -0.000354   0.000011   0.000011
     3  C   -0.006916   0.007902   0.002369  -0.001623   0.000004   0.000004
     4  O    0.000128   0.000311   0.000185  -0.000045  -0.000000  -0.000000
     5  O    0.004784  -0.001837  -0.000172  -0.000335   0.000001   0.000001
     6  C   -0.005681   0.001500   0.002014  -0.000071  -0.000013  -0.000012
     7  C    0.003393  -0.000556   0.000383   0.000131   0.000011   0.000011
     8  C    0.000384  -0.000676   0.000935  -0.000636  -0.000000  -0.000000
     9  C    0.013563  -0.041601  -0.024566   0.000192  -0.000014  -0.000014
    10  C    0.003135  -0.023226  -0.008630   0.000228  -0.000004  -0.000004
    11  C   -0.000370   0.000143   0.003649  -0.000550  -0.000012  -0.000012
    12  C    0.017029   0.021410  -0.021121   0.001065  -0.000060  -0.000059
    13  C   -0.047647   0.076078   0.018826  -0.000400   0.000276   0.000276
    14  H    0.022180  -0.003437   0.000876   0.000421   0.000002   0.000002
    15  H    0.000006   0.000011  -0.000002   0.000005   0.000000   0.000000
    16  H    0.000007   0.000012  -0.000001   0.000005   0.000000   0.000000
    17  H   -0.000014   0.000129  -0.000211   0.000159  -0.000000  -0.000000
    18  H   -0.000014   0.000125  -0.000205   0.000156  -0.000000  -0.000000
    19  H    0.000000   0.000001  -0.000002   0.000002   0.000000   0.000000
    20  H    0.000001  -0.000003   0.000003  -0.000008  -0.000000  -0.000000
    21  H    0.000000   0.000001  -0.000002   0.000002   0.000000   0.000000
    22  H    0.000004  -0.000005  -0.000000   0.000000  -0.000000  -0.000000
    23  C    0.000112  -0.003420  -0.000608   0.000017  -0.000000  -0.000000
    24  Cl   0.000024  -0.000267  -0.000043   0.000002  -0.000000  -0.000000
    25  H   -0.000017  -0.000536  -0.000031  -0.000004  -0.000000  -0.000000
    26  H    0.003650  -0.002209   0.005144   0.000212  -0.000004  -0.000004
    27  F    0.000000  -0.000004  -0.000000   0.000000   0.000000  -0.000000
    28  F   -0.000000   0.000003   0.000000   0.000000   0.000000   0.000000
    29  F    0.000000  -0.000004  -0.000000   0.000000  -0.000000   0.000000
    30  O   -0.165452   0.385781  -0.223209   0.015834  -0.002543  -0.002536
    31  O    8.497026   0.308389  -0.130541   0.010428   0.001340   0.001338
    32  C    0.308389   5.619894  -0.614011   0.174655  -0.046302  -0.046406
    33  C   -0.130541  -0.614011   6.908778  -0.271777   0.424275   0.424399
    34  C    0.010428   0.174655  -0.271777   5.961874  -0.051491  -0.051521
    35  H    0.001340  -0.046302   0.424275  -0.051491   0.418871  -0.027150
    36  H    0.001338  -0.046406   0.424399  -0.051521  -0.027150   0.418893
    37  H   -0.003274  -0.028704  -0.007087   0.382021  -0.007446   0.005628
    38  H    0.002015   0.070477  -0.130104   0.406658  -0.002947  -0.002949
    39  H   -0.003271  -0.028728  -0.007126   0.382099   0.005627  -0.007447
              37         38         39
     1  C   -0.000055   0.000015  -0.000061
     2  N    0.000068  -0.000015   0.000069
     3  C   -0.000039   0.000017  -0.000035
     4  O    0.000000  -0.000000   0.000000
     5  O   -0.000003   0.000000  -0.000003
     6  C    0.000006  -0.000004   0.000004
     7  C    0.000073  -0.000009   0.000074
     8  C    0.000045  -0.000002   0.000045
     9  C   -0.000011   0.000003  -0.000011
    10  C   -0.000002   0.000000  -0.000003
    11  C    0.000001  -0.000000   0.000001
    12  C   -0.000035   0.000016  -0.000034
    13  C   -0.000007   0.000012  -0.000003
    14  H   -0.000025   0.000004  -0.000025
    15  H   -0.000000  -0.000000   0.000000
    16  H   -0.000000  -0.000000  -0.000000
    17  H   -0.000008   0.000000  -0.000003
    18  H   -0.000003   0.000000  -0.000007
    19  H   -0.000000   0.000000  -0.000000
    20  H    0.000000  -0.000000   0.000000
    21  H   -0.000000   0.000000  -0.000000
    22  H   -0.000000  -0.000000  -0.000000
    23  C   -0.000000   0.000000  -0.000000
    24  Cl  -0.000000   0.000000  -0.000000
    25  H    0.000000   0.000000   0.000000
    26  H    0.000000  -0.000000   0.000000
    27  F   -0.000000   0.000000  -0.000000
    28  F    0.000000  -0.000000   0.000000
    29  F   -0.000000   0.000000  -0.000000
    30  O   -0.000343  -0.000351  -0.000344
    31  O   -0.003274   0.002015  -0.003271
[...]
 104802,0.07245299,-0.00014631,-0.00000833,0.00001218,0.00000146,-0.000
 48288,-0.00003389,0.00022802,0.00005791,0.00000094,-0.00007261,-0.0001
 0100,0.00000295,-0.00006882,0.00001021,0.00000804,0.00002225,0.0000074
 3,-0.00000283,-0.00000062,-0.00000438,-0.00000332,-0.00000041,0.000002
 70,0.00000165,0.00003745,-0.00002106,0.00000450,-0.00000351,-0.0000107
 2,0.00000404,-0.00000070,0.00000085,0.00000232,-0.00000082,0.00000194,
 0.00000460,0.00001758,0.00001759,-0.00001526,-0.00006132,0.00078455,0.
 00005331,-0.00000454,-0.00000038,-0.00000003,-0.00000412,-0.00000330,0
 .00000012,0.00000112,0.00000269,0.00000141,0.00000128,0.00000077,0.000
 00074,-0.00000044,-0.00000054,0.00000033,-0.00000129,0.00000003,-0.000
 00022,0.00000010,-0.00000004,-0.00000009,-0.00000074,0.00000253,-0.000
 00108,-0.00000025,0.00001513,-0.00000605,0.00001021,-0.00000384,-0.000
 00165,0.00000293,-0.00000052,-0.00000099,-0.00000384,-0.00000815,-0.00
 000309,-0.00000117,-0.00000436,0.00000146,0.00000279,-0.00000416,0.000
 00483,0.00000165,-0.00000555,-0.00000154,-0.00037966,0.00070980,0.0037
 1270,0.00175303,-0.00645982,0.00316581,-0.00817298,-0.00907423,-0.0304
 8561,-0.02257605,-0.07675137,-0.08812823,-0.00035178,-0.00111226,-0.00
 136714,0.02413482,0.08290011,-0.00003776,-0.00000201,0.00000442,-0.000
 00175,-0.00009836,0.00000371,0.00005743,0.00002025,-0.00000332,-0.0000
 1842,-0.00003074,0.00000064,-0.00002010,-0.00000448,0.00000157,0.00000
 708,0.00000295,-0.00000063,0.00000065,-0.00000249,-0.00000082,0.000000
 39,0.00000064,0.00000008,0.00000853,-0.00000549,-0.00000020,-0.0000001
 7,-0.00000342,0.00000171,-0.00000089,0.00000029,0.00000011,-0.00000073
 ,-0.00000184,0.00000160,0.00000716,0.00000499,-0.00000496,-0.00001477,
 0.00017520,-0.00002946,-0.00000119,-0.00000072,-0.00000036,-0.00000153
 ,-0.00000089,0.00000028,-0.00000028,-0.00000025,-0.00000117,0.00000073
 ,0.00000121,0.00000087,-0.00000049,-0.00000048,0.00000063,-0.00000041,
 0.00000039,-0.00000026,-0.00000033,-0.00000011,-0.00000040,-0.00000010
 ,0.00000035,-0.00000045,-0.00000115,0.00000518,-0.00000258,0.00000372,
 -0.00000158,-0.00000047,0.00000118,0.00000014,-0.00000080,-0.00000120,
 -0.00000573,0.00000056,-0.00000017,-0.00000133,0.00000065,0.00000127,-
 0.00000158,0.00000193,0.00000066,-0.00000176,-0.00000028,0.00073486,0.
 00005439,0.00159362,0.00086418,-0.00102730,-0.00013754,-0.00248123,0.0
 0011955,-0.00426566,-0.06105671,-0.08526062,-0.26248149,-0.00010125,0.
 00057340,0.00031005,0.06775420,0.09301083,0.28252273,0.00003258,0.0000
 0059,-0.00000029,0.00000567,0.00011200,-0.00003856,-0.00006521,-0.0000
 1673,-0.00000163,0.00001892,0.00002418,0.00000256,0.00001922,-0.000002
 18,-0.00000470,-0.00001045,-0.00000014,-0.00000149,0.00000196,0.000001
 47,0.00000607,0.00000185,-0.00000216,-0.00000013,-0.00000707,0.0000034
 9,-0.00000072,-0.00000014,0.00000474,0.00000396,0.00000117,-0.00000074
 ,-0.00000381,0.00000153,-0.00000002,0.00000530,-0.00000645,0.00000004,
 -0.00000404,0.00002295,-0.00021706,0.00007988,0.00000219,-0.00000212,-
 0.00000016,0.00000113,0.00000011,0.00000012,-0.00000563,-0.00001116,-0
 .00000822,0.00000149,0.00000282,0.00000283,-0.00000071,-0.00000023,0.0
 0000031,0.00000099,0.00000060,0.00000032,-0.00000119,-0.00000096,-0.00
 000063,-0.00000005,-0.00000051,0.00000032,0.00000022,-0.00000567,0.000
 00070,-0.00000312,0.00000105,-0.00000025,-0.00000052,-0.00000014,-0.00
 000005,0.00000458,-0.00000479,-0.00000098,0.00000074,0.00000149,-0.000
 00054,-0.00000092,0.00000154,-0.00000143,-0.00000050,0.00000176,0.0000
 0052,-0.00106471,0.00106717,0.00127811,0.00032138,0.00243393,0.0022070
 8,0.00405678,0.00721750,-0.01370746,-0.07687387,-0.05821367,0.05927249
 ,-0.01207019,-0.02189143,0.02308777,0.00199838,0.00584082,-0.00486269,
 0.08698455,-0.00010919,-0.00000050,0.00001631,-0.00000908,-0.00038314,
 0.00008123,0.00017628,0.00006308,0.00001159,-0.00005576,-0.00008647,-0
 .00000850,-0.00005354,0.00000346,0.00000379,0.00001992,0.00000698,0.00
 000092,-0.00000087,-0.00000237,0.00000101,0.00000015,0.00000150,-0.000
 00015,0.00002528,-0.00001702,-0.00000459,-0.00000097,-0.00000880,-0.00
 000276,-0.00000097,-0.00000050,0.00000128,-0.00000557,-0.00000006,-0.0
 0000208,0.00002190,0.00001242,0.00000287,-0.00005353,0.00064895,-0.000
 18090,-0.00000351,-0.00000143,-0.00000065,-0.00000306,-0.00000137,-0.0
 0000004,0.00000203,0.00000125,-0.00000108,0.00000094,0.00000147,0.0000
 0046,-0.00000038,-0.00000017,0.00000020,-0.00000117,0.00000012,0.00000
 015,-0.00000050,-0.00000043,-0.00000050,-0.00000049,0.00000177,-0.0000
 0049,-0.00000090,0.00001345,0.00000039,0.00000922,-0.00000327,-0.00000
 026,0.00000308,0.,0.00000044,-0.00000636,-0.00000560,0.00000461,-0.000
 00070,-0.00000345,0.00000072,0.00000218,-0.00000371,0.00000282,0.00000
 168,-0.00000489,-0.00000250,-0.00032238,0.00226539,-0.00321342,0.00227
 866,-0.00602177,-0.00431073,-0.01115915,-0.01847569,0.02315540,-0.0582
 4085,-0.16392703,0.12299507,-0.00007203,-0.00071005,0.00017174,0.00441
 507,0.00849570,-0.00778951,0.06348291,0.17694309,0.00000902,0.00000146
 ,0.00000126,-0.00000269,-0.00000452,0.00002799,-0.00000633,-0.00000597
 ,0.00000147,0.00000244,0.00000664,-0.00000239,0.00000460,0.00000511,0.
 00000310,-0.00000300,-0.00000132,0.,-0.00000066,-0.00000014,-0.0000017
 8,-0.00000010,0.00000044,-0.00000008,-0.00000198,0.00000090,-0.0000023
 1,0.00000019,0.00000047,-0.00000225,0.00000039,-0.00000032,0.00000084,
 0.00000085,0.00000114,-0.00000372,-0.00000181,-0.00000071,0.00000582,0
 .00000437,-0.00001058,-0.00005046,0.00000015,-0.00000022,0.00000082,-0
 .00000008,-0.00000088,-0.00000050,-0.00000155,-0.00000210,-0.00000088,
 0.,0.00000024,-0.00000035,0.00000035,0.00000011,-0.00000027,0.00000015
 ,-0.00000034,0.00000004,0.00000006,0.00000005,0.00000046,-0.00000013,-
 0.00000003,-0.00000008,0.00000112,-0.00000210,0.00000118,-0.00000159,0
 .00000074,0.00000029,-0.00000057,-0.00000011,0.00000047,-0.00000168,0.
 00000391,-0.00000096,-0.00000012,0.00000047,0.,-0.00000051,0.00000058,
 -0.00000043,-0.00000052,0.00000091,0.00000041,-0.00121103,0.00007078,0
 .00029571,-0.00002085,-0.00089164,-0.00129690,-0.00050652,-0.00590995,
 0.00405118,0.05955876,0.12122707,-0.16394242,-0.00118422,-0.00338629,0
 .00260363,0.00915024,0.02014582,-0.01982045,-0.06596828,-0.13059169,0.
 17615344,-0.00000058,0.00000660,0.00000939,-0.00000193,0.00000971,-0.0
 0000935,-0.00000146,0.00000661,0.00000533,-0.00000010,0.00000058,-0.00
 000158,-0.00001173,0.00003279,0.00000286,-0.00000131,0.00000602,0.0000
 0238,-0.00002782,-0.00002406,0.00000866,0.00000362,-0.00000196,-0.0000
 0027,-0.00000018,-0.00000109,-0.00000428,-0.00000034,0.00000010,-0.000
 00287,-0.00000008,0.00000044,0.00000204,-0.00000049,0.00000056,0.00000
 221,-0.00000314,0.00000091,-0.00000872,0.00000679,-0.00001880,0.000007
 17,0.00000111,0.00000018,-0.00000075,0.00000003,0.00000246,-0.00000004
 ,-0.00003415,-0.00006770,0.00000394,-0.00000491,0.00000284,0.00000131,
 -0.00000016,0.00000002,-0.00000059,-0.00000049,0.00000070,-0.00000011,
 -0.00000130,-0.00000021,0.00000002,0.00000014,0.00000021,0.00000023,-0
 .00000100,0.00000110,0.00000313,0.00000015,0.00000007,-0.00000046,-0.0
 0000010,-0.00000008,0.00000059,-0.00000042,0.00000104,-0.00000113,0.00
 000036,-0.00000001,-0.00000028,0.00000008,-0.00000034,-0.00000085,0.00
 000043,-0.00000054,-0.00000074,-0.00016196,0.00053138,-0.00026529,0.00
 049964,0.00068239,-0.00007082,0.00097615,-0.00151644,0.00031562,-0.011
 97393,-0.02201934,0.02408422,-0.07906423,-0.05913477,0.06316499,0.0017
 1598,0.00009883,-0.00034743,-0.00648459,0.00006998,-0.00076841,0.08743
 145,0.00001824,-0.00000212,0.00000312,-0.00001558,0.00004165,-0.000002
 78,0.00003181,-0.00003606,0.00000121,-0.00000220,0.00003394,-0.0000001
 9,-0.00000636,0.00009327,0.00002025,-0.00002284,0.00000595,-0.00000065
 ,0.00000205,-0.00003041,0.00000717,-0.00000415,0.00000843,0.00000275,-
 0.00000368,0.00000208,-0.00000566,-0.00000011,0.00000258,0.00000583,-0
 .00000040,-0.00000120,-0.00000314,0.00000256,0.00000098,-0.00000151,-0
 .00000152,-0.00000196,0.00000473,0.00000326,-0.00005871,0.00001739,0.0
 0000358,0.00000338,0.00000108,0.00000139,0.00000394,-0.00000126,-0.000
 05281,-0.00008531,0.00003406,-0.00000537,0.00001034,-0.00002225,0.0000
 0329,0.00000146,-0.00000107,0.00000198,-0.00000094,0.00000055,0.000004
 22,0.00000135,-0.00000015,-0.00000008,-0.00000045,0.00000047,0.0000012
 7,-0.00000493,-0.00000002,-0.00000249,0.00000083,0.00000047,-0.0000001
 5,-0.00000034,0.00000021,0.00000129,-0.00000011,-0.00000084,0.00000016
 ,0.00000125,-0.00000040,-0.00000096,0.00000142,-0.00000101,-0.00000074
 ,0.00000166,0.00000039,-0.00025109,0.00042724,0.00017139,0.00117402,0.
 00038865,-0.00044326,0.00005207,-0.00132918,-0.00078134,-0.00108580,-0
 .00160768,0.00102576,-0.06063328,-0.15874059,0.12002940,-0.00017774,0.
 00005231,-0.00013720,-0.00048154,0.00082653,-0.00045795,0.06648503,0.1
 6899023,0.00000992,-0.00000559,-0.00000657,-0.00000913,0.00001053,0.00
 000264,0.00001226,-0.00001684,-0.00000268,-0.00000171,0.00001345,0.000
 00006,0.00001068,-0.00001532,-0.00000970,0.00000997,-0.00001856,0.0000
 0302,0.00000246,0.00002169,-0.00002223,-0.00000584,0.00000518,0.000004
 05,-0.00000246,0.00000261,0.00000252,0.00000059,-0.00000075,-0.0000027
 8,0.00000048,0.00000054,0.00000210,0.00000053,-0.00000061,-0.00000401,
 -0.00000217,-0.00000044,0.00000583,0.00000736,-0.00003128,-0.00000683,
 -0.00000319,0.00000432,0.00000063,-0.00000138,0.00000293,-0.00000040,0
 .00002745,0.00005809,0.00002497,-0.00001310,-0.00001963,-0.00001486,0.
 00000196,0.00000165,-0.00000090,-0.00000067,-0.00000132,-0.00000031,0.
 00000408,0.00000273,0.00000144,0.00000009,-0.00000039,0.00000013,0.000
 00104,-0.00000101,0.00000044,-0.00000120,0.00000031,0.00000024,-0.0000
 0032,0.00000022,-0.00000011,0.00000072,0.00000038,0.00000031,-0.000000
 31,0.00000019,-0.00000004,-0.00000042,0.00000042,-0.00000031,-0.000000
 40,0.00000044,0.00000036,0.00008353,-0.00035238,-0.00012721,-0.0009990
 8,-0.00006724,0.00013927,0.00048570,0.00110199,0.00021295,-0.00114772,
 -0.00332290,0.00264008,0.06491311,0.11918396,-0.17714422,0.00060132,-0
 .00028413,0.00063963,-0.00084713,-0.00009130,0.00132635,-0.06952949,-0
 .13133460,0.18685885,0.00003578,0.00000685,-0.00000157,0.00000525,0.00
 013193,-0.00000505,-0.00007550,-0.00002643,0.00000008,0.00002235,0.000
 03405,0.00000042,0.00002289,0.00001258,0.00000079,-0.00001210,-0.00000
 157,0.00000111,0.00000141,-0.00000563,-0.00000647,-0.00000118,-0.00000
 168,0.00000183,-0.00000620,0.00000504,-0.00000180,-0.00000114,0.000006
 01,0.00000063,0.00000209,-0.00000099,-0.00000194,0.00000283,0.00000392
 ,0.00000080,-0.00000601,0.00000217,0.00000543,0.00002934,-0.00024459,0
 .00001221,0.00000211,0.00000063,0.00000018,0.00000264,0.00000046,-0.00
 000046,-0.00000067,-0.00000351,-0.00000287,0.00000090,0.00000282,0.000
 00645,-0.00000065,-0.00000017,-0.00000037,0.00000093,-0.00000052,-0.00
 000018,-0.00000033,-0.00000011,0.00000023,-0.00000023,-0.00000013,-0.0
 0000015,0.00000081,-0.00001006,0.00000166,-0.00000529,0.00000233,0.000
 00014,-0.00000104,-0.00000091,0.00000059,0.00000093,-0.00000184,-0.000
 00333,0.00000097,0.00000277,-0.00000055,-0.00000161,0.00000259,-0.0000
 0210,-0.00000120,0.00000346,0.00000128,-0.00422457,0.00256173,0.000499
 33,0.00055047,0.00120060,0.00023601,-0.00251272,-0.00613914,-0.0014371
 6,-0.01421803,0.03181465,0.00541770,-0.09765570,0.10310643,0.01752356,
 0.00147630,-0.00017125,-0.00042108,0.00144831,-0.00032624,0.00047526,0
 .00480947,-0.01013091,-0.00345005,0.10690077,-0.00002279,0.00000264,0.
 00000245,0.00000061,-0.00005821,-0.00000252,0.00001869,0.00002432,0.00
 000198,-0.00000848,-0.00002426,-0.00000013,-0.00001543,0.00000094,0.00
 000207,0.00000568,0.00000758,0.00000090,-0.00000188,-0.00000929,-0.000
 00379,0.00000480,-0.00000431,0.00000090,0.00000464,-0.00000321,0.00000
 138,0.00000023,-0.00000211,0.00000016,-0.00000105,-0.00000005,0.000000
 35,-0.00000053,0.00000018,0.00000285,0.00000340,0.00000300,-0.00000661
 ,-0.00000431,0.00012142,-0.00000711,-0.00000043,-0.00000117,-0.0000007
 5,-0.00000015,-0.00000147,0.00000058,-0.00000328,-0.00001198,-0.000007
 50,0.00000429,0.00000502,0.00000934,-0.00000213,-0.00000102,0.00000074
 ,-0.00000262,0.00000195,-0.00000024,-0.00000204,-0.00000065,-0.0000007
 6,0.00000003,0.00000049,-0.00000029,-0.00000104,0.00000499,-0.00000095
 ,0.00000272,-0.00000094,-0.00000036,0.00000050,0.00000006,0.00000013,-
 0.00000181,-0.00000095,0.00000128,-0.00000020,-0.00000131,0.00000028,0
 .00000086,-0.00000142,0.00000108,0.00000067,-0.00000173,-0.00000064,0.
 00034978,0.00021882,0.00002685,0.00140326,-0.00024570,0.00001969,-0.00
 212073,0.00013221,-0.00018352,-0.00363609,0.00482046,0.00098428,0.1048
 8957,-0.26217420,-0.03628565,0.00053712,0.00023063,0.00025509,0.000604
 44,0.00042835,-0.00007773,0.00810838,-0.01681209,-0.00399434,-0.113310
 19,0.28167432,-0.00000150,0.00000119,-0.00000134,0.00000028,0.00000018
 ,0.00000683,-0.00000270,0.00000282,-0.00000089,0.00000025,-0.00000147,
 0.00000016,0.00000129,-0.00000590,0.00000096,-0.00000113,-0.00000392,0
 .00000297,0.00000647,0.00001013,-0.00002133,0.00000085,-0.00000153,0.0
 0000415,0.00000022,0.,-0.00000029,0.00000008,-0.00000007,-0.00000016,-
 0.00000014,0.00000008,0.00000107,-0.00000036,-0.00000095,-0.00000463,0
 .00000203,0.00000135,0.00000698,0.00000169,0.00000480,-0.00001113,-0.0
 0000024,0.00000044,0.,0.00000088,-0.00000119,0.00000034,0.00000582,0.0
 0001326,0.00000301,0.00000007,-0.00000399,0.00000931,-0.00000157,-0.00
 000055,-0.00000008,-0.00000042,0.00000030,-0.00000019,0.00000024,-0.00
 000016,-0.00000008,-0.00000002,-0.00000006,-0.00000029,-0.00000032,0.0
 0000038,-0.00000024,0.00000021,-0.00000009,0.00000019,-0.00000005,0.,-
 0.00000006,-0.00000043,-0.00000052,-0.00000044,0.00000002,-0.00000013,
 0.00000012,0.00000011,-0.00000011,0.00000011,0.00000003,-0.00000012,0.
 ,-0.00016757,0.00013304,0.00011247,0.00012720,-0.00002929,0.00021810,-
 0.00052080,-0.00029616,0.00079238,-0.00117415,0.00273478,-0.00083590,0
 .01788324,-0.03639441,-0.05492912,0.00030232,0.00036021,0.00015679,0.0
 0004271,-0.00026005,0.00000561,-0.01121194,0.01971707,0.00430127,-0.01
 894347,0.04009239,0.05306615,0.00000345,0.00000445,0.00000696,-0.00000
 340,0.00001942,-0.00000041,-0.00000988,0.00000041,-0.00000398,0.000002
 33,0.00000326,0.00000133,-0.00000183,0.00000697,0.00000118,0.00000311,
 -0.00000145,0.00000188,0.00001074,0.00000762,-0.00002172,-0.00000473,0
 .00000194,0.00000462,-0.00000097,0.00000154,-0.00000159,-0.00000027,0.
 00000091,0.00000042,-0.00000046,-0.00000060,-0.00000151,0.00000110,0.0
 0000114,0.00000378,-0.00000069,-0.00000007,-0.00000524,0.00001157,-0.0
 0003303,-0.00000451,-0.00000137,0.00000101,0.00000093,0.00000054,-0.00
 000015,-0.00000031,0.00000497,0.00001007,0.00000879,0.00001275,0.00001
 290,0.00000280,-0.00000011,0.00000033,-0.00000072,0.00000005,0.0000000
 5,0.00000016,0.00000174,0.00000069,0.00000052,0.00000016,-0.00000040,-
 0.00000035,-0.00000016,-0.00000082,-0.00000155,-0.00000046,0.00000012,
 0.00000009,-0.00000024,-0.00000026,-0.00000019,-0.00000021,-0.00000027
 ,-0.00000154,0.00000005,0.00000026,0.00000028,0.00000009,0.00000019,0.
 00000046,-0.00000017,0.00000052,0.00000067,-0.00026415,0.00029842,0.00
 042663,0.00025056,0.00062708,0.00025625,0.00127677,-0.00129496,-0.0007
 0860,-0.00935915,-0.01106866,-0.03166176,-0.06606766,-0.02371545,-0.06
 390959,-0.00657651,-0.00013113,-0.00007019,0.00166872,-0.00008207,0.00
 047467,0.00233100,0.00509357,0.00984253,0.00340763,0.00319551,0.013650
 79,0.07330509,0.00001749,-0.00000278,-0.00000376,-0.00000908,0.0000424
 9,0.00000181,0.00000564,-0.00002141,-0.00000220,0.00000240,0.00002145,
 -0.00000053,-0.00000276,0.00001748,-0.00000597,-0.00000637,-0.00000563
 ,0.00000523,0.00001907,0.00001062,-0.00003155,-0.00000826,0.00000655,0
 .00000503,-0.00000367,0.00000097,-0.00000099,0.00000024,0.00000208,0.0
 0000453,0.00000046,-0.00000053,-0.00000242,0.00000084,0.00000101,0.000
 00246,-0.00000445,-0.00000090,-0.00000047,0.00000120,-0.00006797,0.000
 00975,0.00000078,0.00000193,0.00000114,0.00000153,0.00000516,-0.000000
 73,0.00001046,0.00001687,0.00001647,0.00001400,0.00002099,-0.00000331,
 0.00000274,0.00000191,-0.00000055,0.00000152,-0.00000103,-0.00000005,0
 .00000260,0.00000144,0.00000100,-0.00000002,-0.00000007,0.00000031,0.0
 0000088,-0.00000390,-0.00000005,-0.00000205,0.00000078,0.00000022,-0.0
 0000028,-0.00000004,0.00000019,0.00000054,0.00000080,-0.00000192,0.000
 00002,0.00000085,-0.00000036,-0.00000050,0.00000096,-0.00000095,-0.000
 00056,0.00000113,0.00000032,-0.00014026,0.00027287,-0.00004156,0.00067
 652,0.00036062,0.00034621,0.00012676,-0.00093001,0.00042396,-0.0008823
 2,-0.00153866,-0.00227435,-0.02449433,-0.07755689,-0.08124420,-0.00063
 153,0.00076399,0.00015308,0.00004860,-0.00005577,-0.00012224,0.0067364
 1,0.00781262,0.01914699,-0.00852518,-0.00832132,-0.02607175,0.02704093
 ,0.07914132,-0.00000272,0.00000453,0.00000290,0.00000605,0.00000998,0.
 00000382,-0.00002070,0.00001360,-0.00000528,0.00000462,-0.00000587,0.0
 0000168,0.00000227,0.00000116,0.00000159,-0.00001255,-0.00000019,0.000
 01041,0.00002233,0.00002871,-0.00005806,0.00000145,-0.00000916,0.00001
 260,0.00000062,-0.00000063,-0.00000078,-0.00000007,0.00000071,0.000001
 20,-0.00000033,-0.00000048,-0.00000150,0.00000035,0.00000073,0.0000027
 1,0.00000158,0.00000085,-0.00000072,-0.00000225,-0.00000936,-0.0000054
 9,0.00000052,0.00000013,-0.00000051,0.00000404,-0.00000662,0.00000024,
 0.00001049,0.00001762,-0.00000118,0.00000792,0.00000387,0.00003395,-0.
 00000571,-0.00000379,0.00000021,0.00000099,0.00000050,-0.00000166,0.00
 000026,0.00000002,-0.00000050,-0.00000010,0.00000011,-0.00000064,-0.00
 000081,-0.00000031,-0.00000224,0.00000036,0.,-0.00000019,-0.00000008,-
 0.00000034,-0.00000023,-0.00000078,-0.00000009,-0.00000158,0.00000026,
 0.00000009,0.00000047,0.00000040,-0.00000010,0.00000087,-0.00000010,0.
 00000036,0.00000067,-0.00019650,0.00055064,0.00001658,0.00112157,0.000
 27188,0.00052241,-0.00031909,-0.00162499,-0.00008937,-0.00036305,0.000
 44158,-0.00002356,-0.06595468,-0.08054307,-0.27090253,-0.00018097,-0.0
 0016362,0.00150968,-0.00053784,0.00001022,0.00064614,-0.00538870,-0.00
 784801,-0.01882400,0.00009294,-0.00083186,-0.00288282,0.07170802,0.089
 69120,0.29003470\\-0.00000045,-0.00000119,0.00000139,-0.00000268,-0.00
 000164,0.00000046,-0.00000118,-0.00000271,0.00000344,0.00000145,-0.000
 00070,0.00000533,0.00000915,0.00000661,0.00000195,-0.00000491,-0.00000
 397,0.00000506,0.00000017,-0.00000011,0.00000261,-0.00000050,-0.000002
 02,0.00000474,0.00000146,0.00000184,0.00000520,0.00000253,0.00000213,0
 .00000051,-0.00000063,-0.00000060,0.00000092,-0.00000110,-0.00000073,-
 0.00000105,0.00000084,0.00000310,-0.00000314,0.00000072,0.00000233,-0.
 00000211,-0.00000037,-0.00000227,0.00000671,0.00000076,0.00000131,0.00
 000436,0.00000055,0.00000044,-0.00000005,-0.00000110,-0.00000361,0.000
 00211,0.00000083,0.00000116,0.00000524,0.00000054,-0.00000254,0.000003
 78,-0.00000070,-0.00000256,0.00000719,0.00000045,0.00000112,0.00000585
 ,0.00000104,0.00000270,0.00001138,0.00000065,0.00000292,-0.00000016,-0
 .00000041,-0.00000058,-0.00000384,-0.00000104,-0.00000315,-0.00000231,
 0.00000502,0.00000248,0.00000707,-0.00000138,0.00000198,0.00000393,-0.
 00000067,-0.00000032,0.00000937,-0.00000478,-0.00000437,-0.00000909,0.
 00000276,-0.00000451,-0.00000566,0.00000261,0.00000290,-0.00000738,-0.
 00000349,0.00000312,-0.00000856,-0.00000235,0.00000142,-0.00000940,-0.
 00000002,0.00000251,-0.00001225,-0.00000158,-0.00000196,-0.00001044,0.
 00000030,0.00000271,-0.00000726,-0.00000071,-0.00000100,-0.00001003,-0
 .00000179,-0.00000225,-0.00000586\\\@


 WHEN ALL ELSE FAILS, TRY THE BOSS'S SUGGESTION.
 Job cpu time:       0 days  7 hours 52 minutes 35.5 seconds.
 Elapsed time:       0 days  7 hours 52 minutes 36.5 seconds.
 File lengths (MBytes):  RWF=   1403 Int=      0 D2E=      0 Chk=     43 Scr=      1
 Normal termination of Gaussian 16 at Mon Mar 22 22:50:17 2021.
