 Entering Gaussian System, Link 0=/apps/gaussian/g16c01/g16/g16
 Initial command:
 /apps/gaussian/g16c01/g16/l1.exe "/jobfs/19596661.gadi-pbs/Gau-2269472.inp" -scrdir="/jobfs/19596661.gadi-pbs/"
 Entering Link 1 = /apps/gaussian/g16c01/g16/l1.exe PID=   2269473.
  
 Copyright (c) 1988-2019, Gaussian, Inc.  All Rights Reserved.
  
 This is part of the Gaussian(R) 16 program.  It is based on
 the Gaussian(R) 09 system (copyright 2009, Gaussian, Inc.),
 the Gaussian(R) 03 system (copyright 2003, Gaussian, Inc.),
 the Gaussian(R) 98 system (copyright 1998, Gaussian, Inc.),
 the Gaussian(R) 94 system (copyright 1995, Gaussian, Inc.),
 the Gaussian 92(TM) system (copyright 1992, Gaussian, Inc.),
 the Gaussian 90(TM) system (copyright 1990, Gaussian, Inc.),
 the Gaussian 88(TM) system (copyright 1988, Gaussian, Inc.),
 the Gaussian 86(TM) system (copyright 1986, Carnegie Mellon
 University), and the Gaussian 82(TM) system (copyright 1983,
 Carnegie Mellon University). Gaussian is a federally registered
 trademark of Gaussian, Inc.
  
 This software contains proprietary and confidential information,
 including trade secrets, belonging to Gaussian, Inc.
  
 This software is provided under written license and may be
 used, copied, transmitted, or stored only in accord with that
 written license.
  
 The following legend is applicable only to US Government
 contracts under FAR:
  
                    RESTRICTED RIGHTS LEGEND
  
 Use, reproduction and disclosure by the US Government is
 subject to restrictions as set forth in subparagraphs (a)
 and (c) of the Commercial Computer Software - Restricted
 Rights clause in FAR 52.227-19.
  
 Gaussian, Inc.
 340 Quinnipiac St., Bldg. 40, Wallingford CT 06492
  
  
 ---------------------------------------------------------------
 Warning -- This program may not be used in any manner that
 competes with the business of Gaussian, Inc. or will provide
 assistance to any competitor of Gaussian, Inc.  The licensee
 of this program is prohibited from giving any competitor of
 Gaussian, Inc. access to this program.  By using this program,
 the user acknowledges that Gaussian, Inc. is engaged in the
 business of creating and licensing software in the field of
 computational chemistry and represents and warrants to the
 licensee that it is not a competitor of Gaussian, Inc. and that
 it will not use this program in any manner prohibited above.
 ---------------------------------------------------------------
  

 Cite this work as:
 Gaussian 16, Revision C.01,
 M. J. Frisch, G. W. Trucks, H. B. Schlegel, G. E. Scuseria, 
 M. A. Robb, J. R. Cheeseman, G. Scalmani, V. Barone, 
 G. A. Petersson, H. Nakatsuji, X. Li, M. Caricato, A. V. Marenich, 
 J. Bloino, B. G. Janesko, R. Gomperts, B. Mennucci, H. P. Hratchian, 
 J. V. Ortiz, A. F. Izmaylov, J. L. Sonnenberg, D. Williams-Young, 
 F. Ding, F. Lipparini, F. Egidi, J. Goings, B. Peng, A. Petrone, 
 T. Henderson, D. Ranasinghe, V. G. Zakrzewski, J. Gao, N. Rega, 
 G. Zheng, W. Liang, M. Hada, M. Ehara, K. Toyota, R. Fukuda, 
 J. Hasegawa, M. Ishida, T. Nakajima, Y. Honda, O. Kitao, H. Nakai, 
 T. Vreven, K. Throssell, J. A. Montgomery, Jr., J. E. Peralta, 
 F. Ogliaro, M. J. Bearpark, J. J. Heyd, E. N. Brothers, K. N. Kudin, 
 V. N. Staroverov, T. A. Keith, R. Kobayashi, J. Normand, 
 K. Raghavachari, A. P. Rendell, J. C. Burant, S. S. Iyengar, 
 J. Tomasi, M. Cossi, J. M. Millam, M. Klene, C. Adamo, R. Cammi, 
 J. W. Ochterski, R. L. Martin, K. Morokuma, O. Farkas, 
 J. B. Foresman, and D. J. Fox, Gaussian, Inc., Wallingford CT, 2019.
 
 ******************************************
 Gaussian 16:  ES64L-G16RevC.01  3-Jul-2019
                24-Mar-2021 
 ******************************************
 %NprocShared=32
 Will use up to   32 processors via shared memory.
 %Mem=1194000MB
 %chk=29CA_carboxy.DSDPBEP86_AUG-cc-PVTZ.chk
 ----------------------------------------------------------------------
 # DSDPBEP86/AUG-cc-PVTZ SCF=Tight INT(grid=ultrafine) MaxDisk=1400000M
 B
 ----------------------------------------------------------------------
 1/38=1,172=1/1;
 2/12=2,17=6,18=5,40=1/2;
 3/5=16,6=1,7=10,11=9,25=1,30=1,74=-77,75=-5/1,2,3;
 4//1;
 5/5=2,32=2,38=5/2;
 8/10=1/1;
 9/16=-3/6;
 6/7=2,8=2,9=2,10=2/1;
 99/5=1,9=1/99;
 ----------------------------------
 29CA_carboxy.DSDPBEP86_AUG-cc-PVTZ
 ----------------------------------
 Symbolic Z-matrix:
 Charge = -1 Multiplicity = 1
 C                    -6.20955   1.12452  -0.03326 
 N                    -4.91386   0.61073  -0.03335 
 C                    -3.7738    1.34078  -0.04485 
 O                    -3.66202   2.55098  -0.05696 
 O                    -2.70506   0.51313  -0.04104 
 C                    -1.43486   1.14758  -0.05212 
 C                    -0.38716   0.05239  -0.04568 
 C                     1.02352   0.63398  -0.0568 
 C                    -6.51657   2.49034  -0.0453 
 C                    -7.846     2.90953  -0.04417 
 C                    -8.87541   1.97264  -0.03105 
 C                    -8.57216   0.61758  -0.0191 
 C                    -7.25582   0.18985  -0.0201 
 H                    -4.82078  -0.43963  -0.02359 
 H                    -1.33973   1.79786   0.82332 
 H                    -1.34664   1.78088  -0.94064 
 H                    -0.5467   -0.59099  -0.91483 
 H                    -0.53984  -0.57413   0.83691 
 H                     1.19192   1.24865  -0.94547 
 H                     1.77798  -0.15511  -0.05216 
 H                     1.19883   1.26564   0.81852 
 H                    -5.72276   3.22074  -0.05549 
 C                    -8.14196   4.38257  -0.05728 
 Cl                   -10.55884   2.45316  -0.02908 
 H                    -9.37387  -0.11105  -0.00889 
 H                    -7.03716  -0.87958  -0.01058 
 F                    -7.02631   5.12683  -0.06887 
 F                    -8.85554   4.75493  -1.13616 
 F                    -8.84708   4.77582   1.01975 
 O                    -6.72245  -2.92795   0.00821 
 O                    -4.64658  -2.07394  -0.00853 
 C                    -5.48193  -3.01943   0.00418 
 C                    -4.8979   -4.44734   0.01595 
 C                    -3.3763   -4.51013   0.01087 
 H                    -5.31729  -4.971    -0.84925 
 H                    -5.31079  -4.954     0.89428 
 H                    -2.9729   -4.00875  -0.87056 
 H                    -3.01699  -5.54465   0.01962 
 H                    -2.96635  -3.9917    0.87932 
 
                          Input orientation:                          
 ---------------------------------------------------------------------
 Center     Atomic      Atomic             Coordinates (Angstroms)
 Number     Number       Type             X           Y           Z
 ---------------------------------------------------------------------
      1          6           0       -6.209548    1.124523   -0.033258
      2          7           0       -4.913860    0.610734   -0.033352
      3          6           0       -3.773801    1.340782   -0.044851
      4          8           0       -3.662016    2.550985   -0.056961
      5          8           0       -2.705057    0.513126   -0.041043
      6          6           0       -1.434863    1.147580   -0.052124
      7          6           0       -0.387161    0.052389   -0.045683
      8          6           0        1.023523    0.633983   -0.056804
      9          6           0       -6.516569    2.490342   -0.045301
     10          6           0       -7.846005    2.909530   -0.044173
     11          6           0       -8.875411    1.972643   -0.031051
     12          6           0       -8.572156    0.617579   -0.019095
     13          6           0       -7.255824    0.189845   -0.020101
     14          1           0       -4.820776   -0.439628   -0.023590
     15          1           0       -1.339735    1.797862    0.823322
     16          1           0       -1.346642    1.780881   -0.940645
     17          1           0       -0.546697   -0.590989   -0.914835
     18          1           0       -0.539840   -0.574127    0.836914
     19          1           0        1.191921    1.248653   -0.945473
     20          1           0        1.777979   -0.155115   -0.052159
     21          1           0        1.198825    1.265637    0.818520
     22          1           0       -5.722755    3.220736   -0.055488
     23          6           0       -8.141956    4.382572   -0.057281
     24         17           0      -10.558836    2.453163   -0.029085
     25          1           0       -9.373874   -0.111048   -0.008886
     26          1           0       -7.037158   -0.879577   -0.010581
     27          9           0       -7.026311    5.126826   -0.068874
     28          9           0       -8.855543    4.754930   -1.136155
     29          9           0       -8.847077    4.775817    1.019746
     30          8           0       -6.722446   -2.927948    0.008213
     31          8           0       -4.646581   -2.073943   -0.008529
     32          6           0       -5.481926   -3.019431    0.004177
     33          6           0       -4.897901   -4.447338    0.015946
     34          6           0       -3.376303   -4.510126    0.010868
     35          1           0       -5.317286   -4.971000   -0.849246
     36          1           0       -5.310786   -4.954005    0.894279
     37          1           0       -2.972899   -4.008754   -0.870564
     38          1           0       -3.016992   -5.544652    0.019616
     39          1           0       -2.966349   -3.991696    0.879318
 ---------------------------------------------------------------------
                    Distance matrix (angstroms):
                    1          2          3          4          5
     1  C    0.000000
     2  N    1.393839   0.000000
     3  C    2.445355   1.353823   0.000000
     4  O    2.919807   2.309165   1.215415   0.000000
     5  O    3.557432   2.210971   1.351756   2.251420   0.000000
     6  C    4.774778   3.520224   2.346915   2.632447   1.419876
     7  C    5.920288   4.561020   3.623436   4.119197   2.363248
     8  C    7.249724   5.937475   4.849127   5.062526   3.730572
     9  C    1.399953   2.470171   2.973930   2.855221   4.293836
    10  C    2.421644   3.725863   4.363922   4.199343   5.672046
    11  C    2.797524   4.189116   5.140609   5.245440   6.340628
    12  C    2.416425   3.658331   4.852617   5.277212   5.868070
    13  C    1.403029   2.379521   3.667390   4.300209   4.562283
    14  H    2.091733   1.054523   2.065543   3.207429   2.320412
    15  H    4.990210   3.862322   2.624371   2.595204   2.064407
    16  H    4.990191   3.862314   2.624355   2.595171   2.064408
    17  H    5.982311   4.614462   3.860416   4.507012   2.577033
    18  H    5.982323   4.614467   3.860426   4.507030   2.577031
    19  H    7.458504   6.206405   5.047575   5.103551   4.067608
    20  H    8.089401   6.735546   5.749785   6.075898   4.532580
    21  H    7.458514   6.206408   5.047581   5.103564   4.067606
    22  H    2.152109   2.732566   2.707907   2.166844   4.054364
    23  C    3.788095   4.964669   5.322914   4.839894   6.673286
    24  Cl   4.547704   5.938040   6.875633   6.897570   8.089853
    25  H    3.397086   4.518108   5.785319   6.301909   6.698041
    26  H    2.168380   2.594213   3.947236   4.812743   4.550566
    27  F    4.084948   4.985860   4.991345   4.237167   6.321411
    28  F    4.625746   5.824724   6.218637   5.744106   7.551202
    29  F    4.625724   5.824700   6.218597   5.744043   7.551173
    30  O    4.085010   3.974290   5.188389   6.276080   5.289880
    31  O    3.560008   2.698063   3.524686   4.728813   3.234733
    32  C    4.207516   3.674535   4.683114   5.860490   4.493551
    33  C    5.724375   5.058337   5.896578   7.106986   5.423838
    34  C    6.307019   5.346891   5.864660   7.067214   5.068168
    35  H    6.214287   5.655456   6.547365   7.742602   6.128015
    36  H    6.214226   5.655472   6.547414   7.742621   6.128146
    37  H    6.125970   5.080149   5.471817   6.645826   4.605132
    38  H    7.394126   6.441249   6.927202   8.121654   6.066107
    39  H    6.125915   5.080170   5.471873   6.645844   4.605297
                    6          7          8          9         10
     6  C    0.000000
     7  C    1.515641   0.000000
     8  C    2.511467   1.525911   0.000000
     9  C    5.256119   6.596458   7.765255   0.000000
    10  C    6.648855   7.987341   9.156790   1.393958   0.000000
    11  C    7.486183   8.702758   9.989073   2.415026   1.391980
    12  C    7.157021   8.204529   9.595767   2.780893   2.404364
    13  C    5.899311   6.870086   8.291333   2.416488   2.783088
    14  H    3.739579   4.460887   5.942186   3.385396   4.513235
    15  H    1.094679   2.170079   2.777449   5.294681   6.657320
    16  H    1.094679   2.170080   2.777451   5.294632   6.657269
    17  H    2.134416   1.093074   2.168493   6.774220   8.141964
    18  H    2.134416   1.093074   2.168494   6.774257   8.142004
    19  H    2.776380   2.175815   1.093576   7.859575   9.233362
    20  H    3.466896   2.175070   1.091742   8.706205  10.100157
    21  H    2.776378   2.175815   1.093576   7.859605   9.233394
    22  H    4.762773   6.205408   7.225203   1.078759   2.145965
    23  C    7.446495   8.881862   9.902420   2.494506   1.502535
    24  Cl   9.216938  10.451170  11.724386   4.042470   2.750991
    25  H    8.038278   8.988275  10.424166   3.864291   3.385192
    26  H    5.957920   6.715077   8.201682   3.410069   3.874622
    27  F    6.862869   8.356361   9.218764   2.685413   2.364087
    28  F    8.321934   9.747642  10.758399   3.433529   2.370041
    29  F    8.321894   9.747620  10.758368   3.433510   2.370041
    30  O    6.676234   7.001510   8.525938   5.422464   5.944854
    31  O    4.549203   4.760812   6.283731   4.932636   5.922211
    32  C    5.809120   5.949386   7.461369   5.606294   6.383086
    33  C    6.580303   6.371665   7.803101   7.124271   7.925809
    34  C    5.981872   5.454788   6.769409   7.672742   8.662134
    35  H    7.290105   7.084227   8.499980   7.599752   8.315366
    36  H    7.290254   7.084462   8.500214   7.599672   8.315240
    37  H    5.442718   4.884603   6.179693   7.448281   8.502513
    38  H    6.877082   6.184427   7.382895   8.764267   9.736356
    39  H    5.442904   4.884922   6.179993   7.448208   8.502400
                   11         12         13         14         15
    11  C    0.000000
    12  C    1.388635   0.000000
    13  C    2.408641   1.384083   0.000000
    14  H    4.717963   3.897506   2.515096   0.000000
    15  H    7.585969   7.376358   6.188472   4.223893   0.000000
    16  H    7.585941   7.376353   6.188476   4.223892   1.764062
    17  H    8.759039   8.165230   6.813416   4.368637   3.058873
    18  H    8.759061   8.165232   6.813411   4.368635   2.503267
    19  H   10.134669   9.828206   8.563982   6.312899   3.136806
    20  H   10.863817  10.378990   9.040443   6.604948   3.781629
    21  H   10.134687   9.828207   8.563977   6.312898   2.593757
    22  H    3.390808   3.859643   3.396742   3.769993   4.691242
    23  C    2.519207   3.789684   4.285507   5.855338   7.329830
    24  Cl   1.750663   2.704878   4.004069   6.426009   9.281586
    25  H    2.142598   1.083399   2.139345   4.564962   8.299633
    26  H    3.393340   2.144240   1.091591   2.259662   6.350174
    27  F    3.656429   4.767119   4.942553   5.987641   6.649449
    28  F    2.993788   4.294858   4.964341   6.670875   8.310907
    29  F    2.993787   4.294848   4.964323   6.670870   8.078798
    30  O    5.352812   3.999117   3.163215   3.131948   7.209109
    31  O    5.853065   4.759678   3.454420   1.643641   5.159271
    32  C    6.036372   4.772620   3.666982   2.663320   6.405861
    33  C    7.552414   6.257376   5.202362   4.008647   7.232906
    34  C    8.501073   7.300078   6.094372   4.319334   6.678203
    35  H    7.844991   6.520394   5.574920   4.632663   8.027196
    36  H    7.844823   6.520225   5.574806   4.632731   7.833389
    37  H    8.445208   7.312977   6.057637   4.107393   6.265242
    38  H    9.530655   8.296652   7.131181   5.414497   7.574407
    39  H    8.445066   7.312840   6.057544   4.107473   6.013983
                   16         17         18         19         20
    16  H    0.000000
    17  H    2.503267   0.000000
    18  H    3.058873   1.751843   0.000000
    19  H    2.593760   2.531405   3.081952   0.000000
    20  H    3.781632   2.517600   2.517599   1.764097   0.000000
    21  H    3.136804   3.081951   2.531408   1.764088   1.764097
    22  H    4.691167   6.485315   6.485366   7.245270   8.225411
    23  C    7.329763   9.119192   9.119244   9.885929  10.908516
    24  Cl   9.281564  10.502111  10.502129  11.847823  12.609545
    25  H    8.299640   8.886515   8.886505  10.694018  11.152024
    26  H    6.350200   6.559501   6.559473   8.551090   8.844954
    27  F    6.649359   8.682998   8.683065   9.129512  10.267166
    28  F    8.078786   9.882548  10.071880  10.643396  11.762456
    29  F    8.310794  10.071818   9.882586  10.820557  11.762435
    30  O    7.209208   6.667329   6.667221   8.999484   8.941446
    31  O    5.159274   4.453044   4.453038   6.782744   6.705131
    32  C    6.405955   5.576594   5.576484   7.978635   7.804723
    33  C    7.233065   5.888189   5.887992   8.393723   7.936951
    34  C    6.678448   4.921710   4.921378   7.412610   6.748089
    35  H    7.833407   6.476675   6.708175   9.003506   8.612251
    36  H    8.027458   6.708603   6.476770   9.172942   8.612531
    37  H    6.014108   4.191603   4.542237   6.707583   6.171804
    38  H    7.574669   5.613763   5.613411   8.049555   7.214153
    39  H    6.265650   4.542963   4.191602   6.934143   6.172168
                   21         22         23         24         25
    21  H    0.000000
    22  H    7.245314   0.000000
    23  C    9.885975   2.683728   0.000000
    24  Cl  11.847837   4.896687   3.092689   0.000000
    25  H   10.694009   4.943039   4.659676   2.824839   0.000000
    26  H    8.551069   4.306071   5.377079   4.848681   2.459854
    27  F    9.129574   2.309245   1.341160   4.430439   5.740207
    28  F   10.820640   3.651842   1.346042   3.070007   5.021667
    29  F   10.643402   3.651820   1.346040   3.069998   5.021658
    30  O    8.999405   6.229748   7.447349   6.608754   3.868500
    31  O    6.782741   5.403146   7.342112   7.446466   5.118619
    32  C    7.978559   6.245098   7.865697   7.464945   4.858614
    33  C    8.393586   7.712643   9.407261   8.925532   6.232043
    34  C    7.412391   8.079386  10.089409  10.003888   7.437953
    35  H    9.172611   8.240085   9.802820   9.124949   6.386020
    36  H    9.003595   8.240035   9.802686   9.124733   6.385814
    37  H    6.933649   7.777634   9.889132  10.000544   7.543678
    38  H    8.049310   9.173812  11.172330  10.993035   8.362704
    39  H    6.707603   7.777585   9.889009  10.000363   7.543521
                   26         27         28         29         30
    26  H    0.000000
    27  F    6.006696   0.000000
    28  F    6.026700   2.150229   0.000000
    29  F    6.026679   2.150230   2.156019   0.000000
    30  O    2.072492   8.060872   8.055204   8.055139   0.000000
    31  O    2.672335   7.584051   8.100642   8.100662   2.244731
    32  C    2.645362   8.291681   8.551160   8.551112   1.243895
    33  C    4.160053   9.808259  10.083254  10.083164   2.374356
    34  C    5.155891  10.305327  10.824925  10.824784   3.701346
    35  H    4.516753  10.271116  10.353516  10.533423   2.623694
    36  H    4.516646  10.271019  10.533346  10.353286   2.623509
    37  H    5.200915  10.026548  10.558323  10.735358   3.999936
    38  H    6.158374  11.400128  11.895624  11.895471   4.536260
    39  H    5.200836  10.026455  10.735372  10.558028   3.999830
                   31         32         33         34         35
    31  O    0.000000
    32  C    1.261709   0.000000
    33  C    2.386790   1.542771   0.000000
    34  C    2.747539   2.579896   1.522902   0.000000
    35  H    3.090241   2.136365   1.094834   2.172468   0.000000
    36  H    3.090467   2.136386   1.094831   2.172481   1.743620
    37  H    2.699594   2.835338   2.164229   1.091343   2.534269
    38  H    3.834342   3.528864   2.177598   1.095183   2.524946
    39  H    2.699857   2.835365   2.164235   1.091346   3.077965
                   36         37         38         39
    36  H    0.000000
    37  H    3.077968   0.000000
    38  H    2.524954   1.775767   0.000000
    39  H    2.534294   1.749977   1.775760   0.000000
 Stoichiometry    C14H16ClF3NO4(1-)
 Framework group  C1[X(C14H16ClF3NO4)]
 Deg. of freedom   111
 Full point group                 C1      NOp   1
 Largest Abelian subgroup         C1      NOp   1
 Largest concise Abelian subgroup C1      NOp   1
                         Standard orientation:                         
 ---------------------------------------------------------------------
 Center     Atomic      Atomic             Coordinates (Angstroms)
 Number     Number       Type             X           Y           Z
 ---------------------------------------------------------------------
      1          6           0        0.457110    0.132279   -0.000053
      2          7           0       -0.886967   -0.236835   -0.000068
      3          6           0       -1.358391   -1.505927    0.000005
      4          8           0       -0.719580   -2.539925    0.000107
      5          8           0       -2.710025   -1.487775   -0.000051
      6          6           0       -3.342912   -2.758800    0.000019
      7          6           0       -4.838697   -2.514274   -0.000089
      8          6           0       -5.615606   -3.827597   -0.000022
      9          6           0        1.524078   -0.774058   -0.000010
     10          6           0        2.838197   -0.309071   -0.000015
     11          6           0        3.096794    1.058677   -0.000043
     12          6           0        2.039304    1.958689   -0.000083
     13          6           0        0.730512    1.508412   -0.000091
     14          1           0       -1.593255    0.546220   -0.000160
     15          1           0       -3.030066   -3.326561    0.882117
     16          1           0       -3.029962   -3.326710   -0.881945
     17          1           0       -5.095959   -1.913216   -0.876078
     18          1           0       -5.096061   -1.913064    0.875765
     19          1           0       -5.377908   -4.428863   -0.882002
     20          1           0       -6.692996   -3.651157   -0.000098
     21          1           0       -5.378008   -4.428714    0.882086
     22          1           0        1.329433   -1.835112    0.000020
     23          6           0        3.960831   -1.307721    0.000050
     24         17           0        4.730568    1.687647    0.000000
     25          1           0        2.241327    3.023086   -0.000105
     26          1           0       -0.087557    2.231138   -0.000119
     27          9           0        3.517454   -2.573473    0.000070
     28          9           0        4.757786   -1.186766   -1.077940
     29          9           0        4.757719   -1.186704    1.078080
     30          8           0       -1.571319    3.678091   -0.000022
     31          8           0       -2.715663    1.746953   -0.000318
     32          6           0       -2.617253    3.004818   -0.000086
     33          6           0       -3.942839    3.794098    0.000079
     34          6           0       -5.196029    2.928797    0.000354
     35          1           0       -3.920526    4.455902   -0.871804
     36          1           0       -3.920240    4.456079    0.871816
     37          1           0       -5.214230    2.276718   -0.874571
     38          1           0       -6.105447    3.539030    0.000444
     39          1           0       -5.213965    2.276879    0.875407
 ---------------------------------------------------------------------
 Rotational constants (GHZ):           0.2857909           0.1145579           0.0831751
 Standard basis: Aug-CC-pVTZ (5D, 7F)
 There are  1669 symmetry adapted cartesian basis functions of A   symmetry.
 There are  1430 symmetry adapted basis functions of A   symmetry.
  1430 basis functions,  2130 primitive gaussians,  1669 cartesian basis functions
    92 alpha electrons       92 beta electrons
       nuclear repulsion energy      2105.9941535230 Hartrees.
 NAtoms=   39 NActive=   39 NUniq=   39 SFac= 1.00D+00 NAtFMM=   60 NAOKFM=F Big=F
 Integral buffers will be    131072 words long.
 Regular integral format.
 Two-electron integral symmetry is turned on.
 Nuclear repulsion after empirical dispersion term =     2105.9659244663 Hartrees.
 One-electron integrals computed using PRISM.
 NBasis=  1430 RedAO= T EigKep=  1.22D-06  NBF=  1430
 NBsUse=  1426 1.00D-06 EigRej=  7.00D-07 NBFU=  1426
 ExpMin= 2.53D-02 ExpMax= 4.56D+05 ExpMxC= 1.44D+03 IAcc=3 IRadAn=         5 AccDes= 0.00D+00
 Harris functional with IExCor= 1004 and IRadAn=       5 diagonalized for initial guess.
 HarFok:  IExCor= 1004 AccDes= 0.00D+00 IRadAn=         5 IDoV= 1 UseB2=F ITyADJ=14
 ICtDFT=  3500011 ScaDFX=  1.000000  1.000000  1.000000  1.000000
 FoFCou: FMM=F IPFlag=           0 FMFlag=      100000 FMFlg1=           0
         NFxFlg=           0 DoJE=T BraDBF=F KetDBF=T FulRan=T
         wScrn=  0.000000 ICntrl=       500 IOpCl=  0 I1Cent=   200000004 NGrid=           0
         NMat0=    1 NMatS0=      1 NMatT0=    0 NMatD0=    1 NMtDS0=    0 NMtDT0=    0
 Petite list used in FoFCou.
 Requested convergence on RMS density matrix=1.00D-08 within 128 cycles.
 Requested convergence on MAX density matrix=1.00D-06.
 Requested convergence on             energy=1.00D-06.
 No special actions if energy rises.
 SCF Done:  E(RDSDPBEP86) =  -1654.65467115     A.U. after   14 cycles
            NFock= 14  Conv=0.33D-08     -V/T= 2.0026
 DoSCS=T DFT=T ScalE2(SS,OS)=  0.220000  0.520000
 ExpMin= 2.53D-02 ExpMax= 4.56D+05 ExpMxC= 1.44D+03 IAcc=3 IRadAn=         5 AccDes= 0.00D+00
 HarFok:  IExCor=  205 AccDes= 0.00D+00 IRadAn=         5 IDoV=-2 UseB2=F ITyADJ=14
 ICtDFT= 12500011 ScaDFX=  1.000000  1.000000  1.000000  1.000000
 GSVD:  LWork=        -945 too small for GESVD, short by        4050 words or        4050 for optimal perf.
 Range of M.O.s used for correlation:    28  1426
 NBasis=  1430 NAE=    92 NBE=    92 NFC=    27 NFV=     0
 NROrb=   1399 NOA=    65 NOB=    65 NVA=  1334 NVB=  1334

 **** Warning!!: The largest alpha MO coefficient is  0.13911376D+03

 DoSCS=T DFT=T ScalE2(SS,OS)=  0.220000  0.520000
 Fully direct method using O(OVN) memory.
 JobTyp=1 Pass  1:  I=   1 to  59 NPSUse= 32 ParTrn=T ParDer=T DoDerP=F.
 JobTyp=1 Pass  2:  I=  60 to  65 NPSUse= 32 ParTrn=T ParDer=T DoDerP=F.
 Spin components of T(2) and E(2):
     alpha-alpha T2 =       0.2266352065D+00 E2=     -0.1433403643D+00
     alpha-beta  T2 =       0.1180906686D+01 E2=     -0.1931646374D+01
     beta-beta   T2 =       0.2266352065D+00 E2=     -0.1433403643D+00
 E2(DSDPBEP86) =    -0.2218327102D+01 E(DSDPBEP86) =    -0.16568729982570D+04

 **********************************************************************

            Population analysis using the SCF Density.

 **********************************************************************

 Orbital symmetries:
       Occupied  (A) (A) (A) (A) (A) (A) (A) (A) (A) (A) (A) (A)
                 (A) (A) (A) (A) (A) (A) (A) (A) (A) (A) (A) (A)
                 (A) (A) (A) (A) (A) (A) (A) (A) (A) (A) (A) (A)
                 (A) (A) (A) (A) (A) (A) (A) (A) (A) (A) (A) (A)
                 (A) (A) (A) (A) (A) (A) (A) (A) (A) (A) (A) (A)
                 (A) (A) (A) (A) (A) (A) (A) (A) (A) (A) (A) (A)
                 (A) (A) (A) (A) (A) (A) (A) (A) (A) (A) (A) (A)
                 (A) (A) (A) (A) (A) (A) (A) (A)
       Virtual   (A) (A) (A) (A) (A) (A) (A) (A) (A) (A) (A) (A)
                 (A) (A) (A) (A) (A) (A) (A) (A) (A) (A) (A) (A)
                 (A) (A) (A) (A) (A) (A) (A) (A) (A) (A) (A) (A)
                 (A) (A) (A) (A) (A) (A) (A) (A) (A) (A) (A) (A)
                 (A) (A) (A) (A) (A) (A) (A) (A) (A) (A) (A) (A)
                 (A) (A) (A) (A) (A) (A) (A) (A) (A) (A) (A) (A)
                 (A) (A) (A) (A) (A) (A) (A) (A) (A) (A) (A) (A)
                 (A) (A) (A) (A) (A) (A) (A) (A) (A) (A) (A) (A)
                 (A) (A) (A) (A) (A) (A) (A) (A) (A) (A) (A) (A)
                 (A) (A) (A) (A) (A) (A) (A) (A) (A) (A) (A) (A)
                 (A) (A) (A) (A) (A) (A) (A) (A) (A) (A) (A) (A)
                 (A) (A) (A) (A) (A) (A) (A) (A) (A) (A) (A) (A)
                 (A) (A) (A) (A) (A) (A) (A) (A) (A) (A) (A) (A)
                 (A) (A) (A) (A) (A) (A) (A) (A) (A) (A) (A) (A)
                 (A) (A) (A) (A) (A) (A) (A) (A) (A) (A) (A) (A)
                 (A) (A) (A) (A) (A) (A) (A) (A) (A) (A) (A) (A)
                 (A) (A) (A) (A) (A) (A) (A) (A) (A) (A) (A) (A)
                 (A) (A) (A) (A) (A) (A) (A) (A) (A) (A) (A) (A)
                 (A) (A) (A) (A) (A) (A) (A) (A) (A) (A) (A) (A)
                 (A) (A) (A) (A) (A) (A) (A) (A) (A) (A) (A) (A)
                 (A) (A) (A) (A) (A) (A) (A) (A) (A) (A) (A) (A)
                 (A) (A) (A) (A) (A) (A) (A) (A) (A) (A) (A) (A)
                 (A) (A) (A) (A) (A) (A) (A) (A) (A) (A) (A) (A)
                 (A) (A) (A) (A) (A) (A) (A) (A) (A) (A) (A) (A)
                 (A) (A) (A) (A) (A) (A) (A) (A) (A) (A) (A) (A)
                 (A) (A) (A) (A) (A) (A) (A) (A) (A) (A) (A) (A)
                 (A) (A) (A) (A) (A) (A) (A) (A) (A) (A) (A) (A)
                 (A) (A) (A) (A) (A) (A) (A) (A) (A) (A) (A) (A)
                 (A) (A) (A) (A) (A) (A) (A) (A) (A) (A) (A) (A)
                 (A) (A) (A) (A) (A) (A) (A) (A) (A) (A) (A) (A)
                 (A) (A) (A) (A) (A) (A) (A) (A) (A) (A) (A) (A)
                 (A) (A) (A) (A) (A) (A) (A) (A) (A) (A) (A) (A)
                 (A) (A) (A) (A) (A) (A) (A) (A) (A) (A) (A) (A)
                 (A) (A) (A) (A) (A) (A) (A) (A) (A) (A) (A) (A)
                 (A) (A) (A) (A) (A) (A) (A) (A) (A) (A) (A) (A)
                 (A) (A) (A) (A) (A) (A) (A) (A) (A) (A) (A) (A)
                 (A) (A) (A) (A) (A) (A) (A) (A) (A) (A) (A) (A)
                 (A) (A) (A) (A) (A) (A) (A) (A) (A) (A) (A) (A)
                 (A) (A) (A) (A) (A) (A) (A) (A) (A) (A) (A) (A)
                 (A) (A) (A) (A) (A) (A) (A) (A) (A) (A) (A) (A)
                 (A) (A) (A) (A) (A) (A) (A) (A) (A) (A) (A) (A)
                 (A) (A) (A) (A) (A) (A) (A) (A) (A) (A) (A) (A)
                 (A) (A) (A) (A) (A) (A) (A) (A) (A) (A) (A) (A)
                 (A) (A) (A) (A) (A) (A) (A) (A) (A) (A) (A) (A)
                 (A) (A) (A) (A) (A) (A) (A) (A) (A) (A) (A) (A)
                 (A) (A) (A) (A) (A) (A) (A) (A) (A) (A) (A) (A)
                 (A) (A) (A) (A) (A) (A) (A) (A) (A) (A) (A) (A)
                 (A) (A) (A) (A) (A) (A) (A) (A) (A) (A) (A) (A)
                 (A) (A) (A) (A) (A) (A) (A) (A) (A) (A) (A) (A)
                 (A) (A) (A) (A) (A) (A) (A) (A) (A) (A) (A) (A)
                 (A) (A) (A) (A) (A) (A) (A) (A) (A) (A) (A) (A)
                 (A) (A) (A) (A) (A) (A) (A) (A) (A) (A) (A) (A)
                 (A) (A) (A) (A) (A) (A) (A) (A) (A) (A) (A) (A)
                 (A) (A) (A) (A) (A) (A) (A) (A) (A) (A) (A) (A)
                 (A) (A) (A) (A) (A) (A) (A) (A) (A) (A) (A) (A)
                 (A) (A) (A) (A) (A) (A) (A) (A) (A) (A) (A) (A)
                 (A) (A) (A) (A) (A) (A) (A) (A) (A) (A) (A) (A)
                 (A) (A) (A) (A) (A) (A) (A) (A) (A) (A) (A) (A)
                 (A) (A) (A) (A) (A) (A) (A) (A) (A) (A) (A) (A)
                 (A) (A) (A) (A) (A) (A) (A) (A) (A) (A) (A) (A)
                 (A) (A) (A) (A) (A) (A) (A) (A) (A) (A) (A) (A)
                 (A) (A) (A) (A) (A) (A) (A) (A) (A) (A) (A) (A)
                 (A) (A) (A) (A) (A) (A) (A) (A) (A) (A) (A) (A)
                 (A) (A) (A) (A) (A) (A) (A) (A) (A) (A) (A) (A)
                 (A) (A) (A) (A) (A) (A) (A) (A) (A) (A) (A) (A)
                 (A) (A) (A) (A) (A) (A) (A) (A) (A) (A) (A) (A)
                 (A) (A) (A) (A) (A) (A) (A) (A) (A) (A) (A) (A)
                 (A) (A) (A) (A) (A) (A) (A) (A) (A) (A) (A) (A)
                 (A) (A) (A) (A) (A) (A) (A) (A) (A) (A) (A) (A)
                 (A) (A) (A) (A) (A) (A) (A) (A) (A) (A) (A) (A)
                 (A) (A) (A) (A) (A) (A) (A) (A) (A) (A) (A) (A)
                 (A) (A) (A) (A) (A) (A) (A) (A) (A) (A) (A) (A)
                 (A) (A) (A) (A) (A) (A) (A) (A) (A) (A) (A) (A)
                 (A) (A) (A) (A) (A) (A) (A) (A) (A) (A) (A) (A)
                 (A) (A) (A) (A) (A) (A) (A) (A) (A) (A) (A) (A)
                 (A) (A) (A) (A) (A) (A) (A) (A) (A) (A) (A) (A)
                 (A) (A) (A) (A) (A) (A) (A) (A) (A) (A) (A) (A)
                 (A) (A) (A) (A) (A) (A) (A) (A) (A) (A) (A) (A)
                 (A) (A) (A) (A) (A) (A) (A) (A) (A) (A) (A) (A)
                 (A) (A) (A) (A) (A) (A) (A) (A) (A) (A) (A) (A)
                 (A) (A) (A) (A) (A) (A) (A) (A) (A) (A) (A) (A)
                 (A) (A) (A) (A) (A) (A) (A) (A) (A) (A) (A) (A)
                 (A) (A) (A) (A) (A) (A) (A) (A) (A) (A) (A) (A)
                 (A) (A) (A) (A) (A) (A) (A) (A) (A) (A) (A) (A)
                 (A) (A) (A) (A) (A) (A) (A) (A) (A) (A) (A) (A)
                 (A) (A) (A) (A) (A) (A) (A) (A) (A) (A) (A) (A)
                 (A) (A) (A) (A) (A) (A) (A) (A) (A) (A) (A) (A)
                 (A) (A) (A) (A) (A) (A) (A) (A) (A) (A) (A) (A)
                 (A) (A) (A) (A) (A) (A) (A) (A) (A) (A) (A) (A)
                 (A) (A) (A) (A) (A) (A) (A) (A) (A) (A) (A) (A)
                 (A) (A) (A) (A) (A) (A) (A) (A) (A) (A) (A) (A)
                 (A) (A) (A) (A) (A) (A) (A) (A) (A) (A) (A) (A)
                 (A) (A) (A) (A) (A) (A) (A) (A) (A) (A) (A) (A)
                 (A) (A) (A) (A) (A) (A) (A) (A) (A) (A) (A) (A)
                 (A) (A) (A) (A) (A) (A) (A) (A) (A) (A) (A) (A)
                 (A) (A) (A) (A) (A) (A) (A) (A) (A) (A) (A) (A)
                 (A) (A) (A) (A) (A) (A) (A) (A) (A) (A) (A) (A)
                 (A) (A) (A) (A) (A) (A) (A) (A) (A) (A) (A) (A)
                 (A) (A) (A) (A) (A) (A) (A) (A) (A) (A) (A) (A)
                 (A) (A) (A) (A) (A) (A) (A) (A) (A) (A) (A) (A)
                 (A) (A) (A) (A) (A) (A) (A) (A) (A) (A) (A) (A)
                 (A) (A) (A) (A) (A) (A) (A) (A) (A) (A) (A) (A)
                 (A) (A) (A) (A) (A) (A) (A) (A) (A) (A) (A) (A)
                 (A) (A) (A) (A) (A) (A) (A) (A) (A) (A) (A) (A)
                 (A) (A) (A) (A) (A) (A) (A) (A) (A) (A) (A) (A)
                 (A) (A) (A) (A) (A) (A) (A) (A) (A) (A) (A) (A)
                 (A) (A) (A) (A) (A) (A) (A) (A) (A) (A) (A) (A)
                 (A) (A) (A) (A) (A) (A) (A) (A) (A) (A) (A) (A)
                 (A) (A) (A) (A) (A) (A) (A) (A) (A) (A) (A) (A)
                 (A) (A) (A) (A) (A) (A) (A) (A) (A) (A) (A) (A)
                 (A) (A) (A) (A) (A) (A) (A) (A) (A) (A) (A) (A)
                 (A) (A)
 The electronic state is 1-A.
 Alpha  occ. eigenvalues -- -103.48019 -25.61842 -25.61449 -25.61448 -19.94128
 Alpha  occ. eigenvalues --  -19.87393 -19.80532 -19.79740 -14.99049 -10.99331
 Alpha  occ. eigenvalues --  -10.87301 -10.79425 -10.78003 -10.77401 -10.77152
 Alpha  occ. eigenvalues --  -10.75858 -10.73714 -10.73459 -10.73265 -10.73122
 Alpha  occ. eigenvalues --  -10.71636 -10.68576 -10.68404 -10.05520  -7.63195
 Alpha  occ. eigenvalues --   -7.62733  -7.62724  -1.48183  -1.38798  -1.38475
 Alpha  occ. eigenvalues --   -1.23153  -1.12677  -1.10709  -1.03298  -1.00799
 Alpha  occ. eigenvalues --   -0.98620  -0.91609  -0.88449  -0.86346  -0.81025
 Alpha  occ. eigenvalues --   -0.80910  -0.77533  -0.75828  -0.69137  -0.67595
 Alpha  occ. eigenvalues --   -0.65926  -0.65465  -0.64323  -0.63865  -0.62369
 Alpha  occ. eigenvalues --   -0.59024  -0.56928  -0.52845  -0.52835  -0.52799
 Alpha  occ. eigenvalues --   -0.52337  -0.50567  -0.49883  -0.49208  -0.48309
 Alpha  occ. eigenvalues --   -0.47159  -0.47148  -0.46666  -0.46486  -0.44812
 Alpha  occ. eigenvalues --   -0.44484  -0.43634  -0.43054  -0.42181  -0.42005
 Alpha  occ. eigenvalues --   -0.40076  -0.39669  -0.38836  -0.38495  -0.37800
 Alpha  occ. eigenvalues --   -0.36319  -0.35743  -0.35444  -0.35439  -0.34623
 Alpha  occ. eigenvalues --   -0.33955  -0.32826  -0.31281  -0.30420  -0.30229
 Alpha  occ. eigenvalues --   -0.28611  -0.28571  -0.22879  -0.21103  -0.20642
 Alpha  occ. eigenvalues --   -0.19628  -0.17407
 Alpha virt. eigenvalues --    0.07423   0.08943   0.09495   0.09641   0.10493
 Alpha virt. eigenvalues --    0.10709   0.11397   0.11512   0.11824   0.12416
 Alpha virt. eigenvalues --    0.12676   0.12797   0.13212   0.13805   0.13992
 Alpha virt. eigenvalues --    0.14107   0.14633   0.14776   0.15105   0.15342
 Alpha virt. eigenvalues --    0.15573   0.15705   0.16870   0.17217   0.17394
 Alpha virt. eigenvalues --    0.17519   0.18187   0.18236   0.18408   0.18537
 Alpha virt. eigenvalues --    0.18949   0.19177   0.19343   0.19999   0.20033
 Alpha virt. eigenvalues --    0.20233   0.20418   0.20817   0.21243   0.21244
 Alpha virt. eigenvalues --    0.21327   0.22046   0.22050   0.22486   0.22827
 Alpha virt. eigenvalues --    0.23072   0.23143   0.23280   0.23612   0.23788
 Alpha virt. eigenvalues --    0.23883   0.24353   0.24868   0.25082   0.25334
 Alpha virt. eigenvalues --    0.25777   0.26041   0.26294   0.26731   0.26932
 Alpha virt. eigenvalues --    0.27141   0.27175   0.27367   0.27779   0.27939
 Alpha virt. eigenvalues --    0.28293   0.28664   0.28821   0.29238   0.29610
 Alpha virt. eigenvalues --    0.29900   0.30559   0.30814   0.30822   0.31104
 Alpha virt. eigenvalues --    0.31593   0.32015   0.32052   0.32395   0.32868
 Alpha virt. eigenvalues --    0.33112   0.33397   0.33443   0.33746   0.34119
 Alpha virt. eigenvalues --    0.34171   0.34631   0.34941   0.35039   0.35174
 Alpha virt. eigenvalues --    0.35345   0.35829   0.36202   0.36322   0.36791
 Alpha virt. eigenvalues --    0.37048   0.37135   0.37294   0.37513   0.37550
 Alpha virt. eigenvalues --    0.37892   0.38093   0.38503   0.38768   0.38880
 Alpha virt. eigenvalues --    0.39369   0.39565   0.39709   0.39846   0.39996
 Alpha virt. eigenvalues --    0.40069   0.40192   0.40457   0.40994   0.41189
 Alpha virt. eigenvalues --    0.41480   0.41621   0.41732   0.41836   0.42130
 Alpha virt. eigenvalues --    0.42347   0.42587   0.43013   0.43327   0.43664
 Alpha virt. eigenvalues --    0.43758   0.43815   0.44078   0.44146   0.44482
 Alpha virt. eigenvalues --    0.44623   0.45066   0.45273   0.45298   0.45707
 Alpha virt. eigenvalues --    0.46005   0.46228   0.46564   0.46643   0.46756
 Alpha virt. eigenvalues --    0.47347   0.47467   0.47869   0.47917   0.47970
 Alpha virt. eigenvalues --    0.48546   0.48740   0.48753   0.49426   0.49435
 Alpha virt. eigenvalues --    0.49710   0.50101   0.50348   0.50632   0.50985
 Alpha virt. eigenvalues --    0.51199   0.51354   0.51667   0.51784   0.51977
 Alpha virt. eigenvalues --    0.52522   0.52894   0.52911   0.53260   0.53420
 Alpha virt. eigenvalues --    0.53467   0.53645   0.54092   0.54213   0.54350
 Alpha virt. eigenvalues --    0.54432   0.54585   0.55045   0.55145   0.55444
 Alpha virt. eigenvalues --    0.55680   0.55770   0.55829   0.56725   0.56781
 Alpha virt. eigenvalues --    0.56959   0.57102   0.57326   0.57424   0.57667
 Alpha virt. eigenvalues --    0.57934   0.58175   0.58557   0.58685   0.58724
 Alpha virt. eigenvalues --    0.59229   0.59254   0.59662   0.59784   0.60219
 Alpha virt. eigenvalues --    0.60396   0.60505   0.60988   0.61315   0.61624
 Alpha virt. eigenvalues --    0.61896   0.62319   0.62550   0.63012   0.63090
 Alpha virt. eigenvalues --    0.63452   0.63705   0.63839   0.64146   0.64455
 Alpha virt. eigenvalues --    0.64781   0.65145   0.65358   0.65800   0.66317
 Alpha virt. eigenvalues --    0.66343   0.66522   0.66669   0.66943   0.67306
 Alpha virt. eigenvalues --    0.67797   0.68066   0.68504   0.69187   0.69467
 Alpha virt. eigenvalues --    0.69697   0.70129   0.70579   0.70808   0.71030
 Alpha virt. eigenvalues --    0.71340   0.71659   0.72150   0.73059   0.73142
 Alpha virt. eigenvalues --    0.73417   0.73664   0.73709   0.74005   0.74370
 Alpha virt. eigenvalues --    0.74580   0.75176   0.75363   0.75760   0.76023
 Alpha virt. eigenvalues --    0.76380   0.76907   0.77239   0.77667   0.77710
 Alpha virt. eigenvalues --    0.78144   0.79049   0.79662   0.79776   0.80318
 Alpha virt. eigenvalues --    0.80845   0.81112   0.81323   0.81432   0.81748
 Alpha virt. eigenvalues --    0.82580   0.83319   0.83568   0.83766   0.83961
 Alpha virt. eigenvalues --    0.84474   0.85056   0.85097   0.85193   0.85238
 Alpha virt. eigenvalues --    0.85749   0.86421   0.86794   0.87232   0.87877
 Alpha virt. eigenvalues --    0.87882   0.88193   0.88544   0.88729   0.89156
 Alpha virt. eigenvalues --    0.89299   0.89740   0.89816   0.90427   0.90696
 Alpha virt. eigenvalues --    0.91142   0.91314   0.91322   0.91738   0.92183
 Alpha virt. eigenvalues --    0.92607   0.93114   0.93390   0.93459   0.93540
 Alpha virt. eigenvalues --    0.93548   0.94106   0.94129   0.94528   0.95047
 Alpha virt. eigenvalues --    0.95442   0.95511   0.95773   0.96083   0.96234
 Alpha virt. eigenvalues --    0.96960   0.97007   0.97146   0.97273   0.97546
 Alpha virt. eigenvalues --    0.97677   0.97842   0.98159   0.98382   0.98776
 Alpha virt. eigenvalues --    0.98969   0.98984   0.99875   0.99971   0.99989
 Alpha virt. eigenvalues --    1.00223   1.00760   1.01094   1.01536   1.01648
 Alpha virt. eigenvalues --    1.02312   1.02387   1.02546   1.02779   1.02933
 Alpha virt. eigenvalues --    1.03268   1.03800   1.03804   1.04375   1.04439
 Alpha virt. eigenvalues --    1.04611   1.05214   1.05372   1.05458   1.06007
 Alpha virt. eigenvalues --    1.06572   1.06680   1.07147   1.07647   1.07842
 Alpha virt. eigenvalues --    1.07911   1.08541   1.08592   1.09081   1.09346
 Alpha virt. eigenvalues --    1.09659   1.09976   1.10115   1.10624   1.10826
 Alpha virt. eigenvalues --    1.11377   1.11860   1.12079   1.12118   1.12473
 Alpha virt. eigenvalues --    1.12793   1.13269   1.13388   1.13757   1.14325
 Alpha virt. eigenvalues --    1.14443   1.14576   1.14643   1.15369   1.15513
 Alpha virt. eigenvalues --    1.15690   1.15879   1.16082   1.16914   1.17025
 Alpha virt. eigenvalues --    1.17144   1.17215   1.17442   1.18038   1.18239
 Alpha virt. eigenvalues --    1.18259   1.18281   1.18906   1.19017   1.19299
 Alpha virt. eigenvalues --    1.19713   1.20278   1.20372   1.20535   1.21074
 Alpha virt. eigenvalues --    1.21098   1.21455   1.21738   1.21927   1.22370
 Alpha virt. eigenvalues --    1.22613   1.22709   1.22980   1.23424   1.23521
 Alpha virt. eigenvalues --    1.24307   1.24329   1.24531   1.24630   1.24992
 Alpha virt. eigenvalues --    1.25753   1.25914   1.26109   1.26316   1.27043
 Alpha virt. eigenvalues --    1.27188   1.27879   1.28292   1.28644   1.29098
 Alpha virt. eigenvalues --    1.29507   1.29613   1.29831   1.30159   1.30589
 Alpha virt. eigenvalues --    1.30806   1.31176   1.31384   1.31963   1.31969
 Alpha virt. eigenvalues --    1.32205   1.32539   1.32769   1.33041   1.33379
 Alpha virt. eigenvalues --    1.34049   1.34950   1.35573   1.35710   1.36065
 Alpha virt. eigenvalues --    1.36639   1.36677   1.37167   1.37662   1.37711
 Alpha virt. eigenvalues --    1.38083   1.38557   1.38750   1.38935   1.39783
 Alpha virt. eigenvalues --    1.39964   1.40158   1.40463   1.40701   1.41016
 Alpha virt. eigenvalues --    1.41414   1.41967   1.42703   1.42705   1.43295
 Alpha virt. eigenvalues --    1.43834   1.43839   1.44585   1.45053   1.45238
 Alpha virt. eigenvalues --    1.45568   1.45745   1.46137   1.46938   1.47584
 Alpha virt. eigenvalues --    1.48113   1.48156   1.48992   1.49312   1.49910
 Alpha virt. eigenvalues --    1.50112   1.50528   1.50603   1.51325   1.51752
 Alpha virt. eigenvalues --    1.52121   1.52228   1.52718   1.53752   1.53887
 Alpha virt. eigenvalues --    1.54483   1.55022   1.55482   1.55676   1.56195
 Alpha virt. eigenvalues --    1.56812   1.57334   1.57631   1.58253   1.58466
 Alpha virt. eigenvalues --    1.58477   1.59274   1.59738   1.59885   1.60251
 Alpha virt. eigenvalues --    1.60412   1.61674   1.61687   1.62433   1.62741
 Alpha virt. eigenvalues --    1.63401   1.63486   1.64206   1.64208   1.64937
 Alpha virt. eigenvalues --    1.65327   1.65434   1.66022   1.66093   1.66218
 Alpha virt. eigenvalues --    1.66494   1.67101   1.67596   1.67838   1.68030
 Alpha virt. eigenvalues --    1.68415   1.68565   1.69090   1.69169   1.69688
 Alpha virt. eigenvalues --    1.70157   1.70951   1.71145   1.71685   1.71691
 Alpha virt. eigenvalues --    1.71862   1.72509   1.72692   1.73019   1.73273
 Alpha virt. eigenvalues --    1.73392   1.73681   1.74297   1.74467   1.74841
 Alpha virt. eigenvalues --    1.75150   1.75333   1.75436   1.75971   1.76342
 Alpha virt. eigenvalues --    1.76613   1.77193   1.77849   1.78228   1.78294
 Alpha virt. eigenvalues --    1.78526   1.79303   1.80149   1.80251   1.80402
 Alpha virt. eigenvalues --    1.80766   1.81161   1.81373   1.82445   1.82554
 Alpha virt. eigenvalues --    1.82785   1.83381   1.83448   1.83652   1.84271
 Alpha virt. eigenvalues --    1.85252   1.85335   1.85939   1.86005   1.86554
 Alpha virt. eigenvalues --    1.86999   1.87090   1.87566   1.87601   1.88534
 Alpha virt. eigenvalues --    1.88771   1.89216   1.89603   1.90127   1.90518
 Alpha virt. eigenvalues --    1.91015   1.91317   1.91758   1.92270   1.92311
 Alpha virt. eigenvalues --    1.92523   1.93367   1.93579   1.94419   1.94861
 Alpha virt. eigenvalues --    1.95021   1.95403   1.95931   1.96257   1.96366
 Alpha virt. eigenvalues --    1.97141   1.97523   1.98072   1.98525   1.99413
 Alpha virt. eigenvalues --    1.99562   2.00279   2.00661   2.01131   2.01444
 Alpha virt. eigenvalues --    2.02208   2.02423   2.02599   2.02633   2.03483
 Alpha virt. eigenvalues --    2.03552   2.03886   2.03961   2.04348   2.04934
 Alpha virt. eigenvalues --    2.05563   2.05737   2.06658   2.07508   2.07678
 Alpha virt. eigenvalues --    2.08462   2.08649   2.08859   2.09781   2.09856
 Alpha virt. eigenvalues --    2.10569   2.11761   2.12159   2.12652   2.13075
 Alpha virt. eigenvalues --    2.13376   2.13829   2.14015   2.14836   2.15428
 Alpha virt. eigenvalues --    2.15982   2.16446   2.16566   2.17600   2.18004
 Alpha virt. eigenvalues --    2.19536   2.19710   2.20616   2.21268   2.21444
 Alpha virt. eigenvalues --    2.21889   2.22501   2.22842   2.23306   2.23743
 Alpha virt. eigenvalues --    2.24140   2.24867   2.25125   2.25982   2.26428
 Alpha virt. eigenvalues --    2.26730   2.27234   2.28072   2.28913   2.29729
 Alpha virt. eigenvalues --    2.30674   2.30831   2.31112   2.31758   2.32298
 Alpha virt. eigenvalues --    2.33076   2.33521   2.33846   2.34640   2.34923
 Alpha virt. eigenvalues --    2.35077   2.35640   2.35675   2.36626   2.37451
 Alpha virt. eigenvalues --    2.37588   2.39523   2.39578   2.40237   2.40708
 Alpha virt. eigenvalues --    2.41352   2.42511   2.42674   2.42966   2.43811
 Alpha virt. eigenvalues --    2.44297   2.44619   2.45852   2.46386   2.46931
 Alpha virt. eigenvalues --    2.47701   2.48959   2.49285   2.49516   2.50044
 Alpha virt. eigenvalues --    2.51296   2.52227   2.53103   2.53297   2.54159
 Alpha virt. eigenvalues --    2.54951   2.55638   2.55923   2.57406   2.59135
 Alpha virt. eigenvalues --    2.59319   2.59563   2.60115   2.60686   2.62669
 Alpha virt. eigenvalues --    2.63151   2.63310   2.64644   2.64931   2.65823
 Alpha virt. eigenvalues --    2.66413   2.67667   2.68072   2.68301   2.69543
 Alpha virt. eigenvalues --    2.69836   2.69992   2.70661   2.70693   2.71711
 Alpha virt. eigenvalues --    2.72269   2.72872   2.73273   2.74877   2.75078
 Alpha virt. eigenvalues --    2.75771   2.75833   2.77254   2.77676   2.78301
 Alpha virt. eigenvalues --    2.78678   2.79534   2.79662   2.81891   2.82275
 Alpha virt. eigenvalues --    2.83264   2.84359   2.84535   2.85597   2.86642
 Alpha virt. eigenvalues --    2.86976   2.87071   2.87289   2.89311   2.89772
 Alpha virt. eigenvalues --    2.90384   2.91740   2.92028   2.92426   2.92825
 Alpha virt. eigenvalues --    2.94074   2.95015   2.95460   2.96312   2.97353
 Alpha virt. eigenvalues --    2.98044   2.99216   2.99789   3.00533   3.01149
 Alpha virt. eigenvalues --    3.02272   3.03102   3.03176   3.04787   3.05400
 Alpha virt. eigenvalues --    3.05924   3.06412   3.06779   3.07841   3.08097
 Alpha virt. eigenvalues --    3.08856   3.09019   3.09611   3.10773   3.11210
 Alpha virt. eigenvalues --    3.11455   3.11567   3.11674   3.12914   3.13599
 Alpha virt. eigenvalues --    3.14042   3.14258   3.15109   3.15651   3.17141
 Alpha virt. eigenvalues --    3.17822   3.17853   3.19504   3.20361   3.20557
 Alpha virt. eigenvalues --    3.22264   3.23119   3.23335   3.24270   3.25030
 Alpha virt. eigenvalues --    3.25348   3.25664   3.26483   3.26642   3.27924
 Alpha virt. eigenvalues --    3.28421   3.29310   3.29834   3.30689   3.32587
 Alpha virt. eigenvalues --    3.32840   3.33817   3.34288   3.34468   3.34612
 Alpha virt. eigenvalues --    3.36049   3.36509   3.36822   3.38143   3.38555
 Alpha virt. eigenvalues --    3.39875   3.40051   3.40103   3.40378   3.40506
 Alpha virt. eigenvalues --    3.41626   3.41868   3.42702   3.43273   3.43961
 Alpha virt. eigenvalues --    3.44521   3.44963   3.45188   3.45653   3.46155
 Alpha virt. eigenvalues --    3.47790   3.48081   3.48352   3.48819   3.49457
 Alpha virt. eigenvalues --    3.49939   3.51150   3.51433   3.51461   3.52596
 Alpha virt. eigenvalues --    3.53788   3.54478   3.54537   3.55495   3.56334
 Alpha virt. eigenvalues --    3.56567   3.56904   3.57355   3.57924   3.58352
 Alpha virt. eigenvalues --    3.59728   3.60039   3.60233   3.60363   3.60427
 Alpha virt. eigenvalues --    3.61154   3.63176   3.63818   3.64281   3.64771
 Alpha virt. eigenvalues --    3.65000   3.66080   3.66488   3.67175   3.67402
 Alpha virt. eigenvalues --    3.67820   3.68141   3.68398   3.68905   3.69676
 Alpha virt. eigenvalues --    3.70657   3.71028   3.71777   3.72362   3.72395
 Alpha virt. eigenvalues --    3.72609   3.73422   3.74091   3.74554   3.74589
 Alpha virt. eigenvalues --    3.75172   3.75990   3.76167   3.76668   3.77110
 Alpha virt. eigenvalues --    3.77226   3.77703   3.78629   3.79103   3.79950
 Alpha virt. eigenvalues --    3.80486   3.80737   3.81083   3.81623   3.81664
 Alpha virt. eigenvalues --    3.82083   3.83048   3.83533   3.84029   3.84612
 Alpha virt. eigenvalues --    3.85056   3.86707   3.86841   3.86919   3.87058
 Alpha virt. eigenvalues --    3.87819   3.88912   3.88915   3.89273   3.89753
 Alpha virt. eigenvalues --    3.90271   3.90821   3.90860   3.92158   3.92335
 Alpha virt. eigenvalues --    3.92742   3.92873   3.93855   3.94452   3.95183
 Alpha virt. eigenvalues --    3.95361   3.95508   3.96151   3.96565   3.96710
 Alpha virt. eigenvalues --    3.98475   3.98515   3.99167   3.99296   3.99690
 Alpha virt. eigenvalues --    4.01256   4.01696   4.02751   4.02839   4.03874
 Alpha virt. eigenvalues --    4.04124   4.04671   4.04741   4.06318   4.06874
 Alpha virt. eigenvalues --    4.07412   4.07513   4.08826   4.08947   4.10500
 Alpha virt. eigenvalues --    4.11437   4.11697   4.12672   4.13626   4.14452
 Alpha virt. eigenvalues --    4.14744   4.15194   4.15558   4.16014   4.17364
 Alpha virt. eigenvalues --    4.17444   4.18299   4.18447   4.18774   4.18935
 Alpha virt. eigenvalues --    4.19861   4.20304   4.20633   4.21024   4.21449
 Alpha virt. eigenvalues --    4.21760   4.21975   4.22439   4.22538   4.23015
 Alpha virt. eigenvalues --    4.23681   4.24175   4.25065   4.25643   4.26189
 Alpha virt. eigenvalues --    4.26911   4.27458   4.27812   4.28504   4.28560
 Alpha virt. eigenvalues --    4.29932   4.30706   4.31166   4.31355   4.31627
 Alpha virt. eigenvalues --    4.32687   4.34436   4.35096   4.35209   4.35896
 Alpha virt. eigenvalues --    4.36498   4.37827   4.38080   4.38118   4.39323
 Alpha virt. eigenvalues --    4.41020   4.41089   4.41660   4.41916   4.43258
 Alpha virt. eigenvalues --    4.43856   4.45483   4.45638   4.46254   4.47173
 Alpha virt. eigenvalues --    4.47310   4.47531   4.47912   4.49539   4.49790
 Alpha virt. eigenvalues --    4.50506   4.50819   4.51148   4.52277   4.53202
 Alpha virt. eigenvalues --    4.54501   4.55328   4.55793   4.56345   4.56820
 Alpha virt. eigenvalues --    4.57729   4.59016   4.59773   4.60084   4.61047
 Alpha virt. eigenvalues --    4.61193   4.61648   4.62502   4.63687   4.64557
 Alpha virt. eigenvalues --    4.64793   4.65519   4.65890   4.66591   4.68118
 Alpha virt. eigenvalues --    4.68550   4.68594   4.69630   4.70244   4.71321
 Alpha virt. eigenvalues --    4.72671   4.73757   4.74062   4.74277   4.74980
 Alpha virt. eigenvalues --    4.75724   4.76541   4.77336   4.78442   4.79825
 Alpha virt. eigenvalues --    4.79886   4.80265   4.80427   4.81792   4.82795
 Alpha virt. eigenvalues --    4.82827   4.83558   4.83689   4.85663   4.87156
 Alpha virt. eigenvalues --    4.87671   4.87950   4.88287   4.88684   4.89446
 Alpha virt. eigenvalues --    4.90192   4.91143   4.92637   4.92649   4.93597
 Alpha virt. eigenvalues --    4.96086   4.97152   4.97582   4.98160   4.98903
 Alpha virt. eigenvalues --    4.99412   5.01164   5.01326   5.01720   5.03576
 Alpha virt. eigenvalues --    5.04200   5.05110   5.05270   5.06160   5.06317
 Alpha virt. eigenvalues --    5.07356   5.07440   5.08762   5.09711   5.11019
 Alpha virt. eigenvalues --    5.11584   5.12215   5.12927   5.13180   5.13860
 Alpha virt. eigenvalues --    5.14345   5.15154   5.16024   5.18114   5.18538
 Alpha virt. eigenvalues --    5.18725   5.19242   5.20170   5.21273   5.21741
 Alpha virt. eigenvalues --    5.22383   5.22532   5.23381   5.24203   5.24489
 Alpha virt. eigenvalues --    5.24503   5.26525   5.27587   5.29525   5.29577
 Alpha virt. eigenvalues --    5.31224   5.31607   5.31839   5.32245   5.34035
 Alpha virt. eigenvalues --    5.34351   5.35034   5.35297   5.36209   5.37459
 Alpha virt. eigenvalues --    5.39172   5.41436   5.42492   5.44150   5.46374
 Alpha virt. eigenvalues --    5.47057   5.47763   5.49262   5.50063   5.50177
 Alpha virt. eigenvalues --    5.51121   5.53466   5.54494   5.55297   5.55762
 Alpha virt. eigenvalues --    5.56413   5.59030   5.59326   5.59681   5.62516
 Alpha virt. eigenvalues --    5.64363   5.64912   5.65686   5.67188   5.68356
 Alpha virt. eigenvalues --    5.68608   5.68787   5.69409   5.70221   5.71694
 Alpha virt. eigenvalues --    5.72721   5.72774   5.77680   5.78644   5.79304
 Alpha virt. eigenvalues --    5.80263   5.81654   5.82835   5.83123   5.84965
 Alpha virt. eigenvalues --    5.86435   5.86980   5.88333   5.89006   5.92195
 Alpha virt. eigenvalues --    5.92497   5.93865   5.95275   5.97953   5.98044
 Alpha virt. eigenvalues --    6.00902   6.02349   6.03387   6.05661   6.06806
 Alpha virt. eigenvalues --    6.08634   6.10210   6.10477   6.13023   6.13825
 Alpha virt. eigenvalues --    6.14339   6.15613   6.18063   6.18907   6.18934
 Alpha virt. eigenvalues --    6.20509   6.20853   6.21843   6.23311   6.29910
 Alpha virt. eigenvalues --    6.31156   6.34476   6.37170   6.39969   6.42306
 Alpha virt. eigenvalues --    6.43192   6.45082   6.48233   6.52127   6.56084
 Alpha virt. eigenvalues --    6.59423   6.61097   6.66996   6.67400   6.70465
 Alpha virt. eigenvalues --    6.72699   6.74309   6.75935   6.79004   6.79543
 Alpha virt. eigenvalues --    6.79780   6.81877   6.83174   6.84272   6.87898
 Alpha virt. eigenvalues --    6.89054   6.89338   6.90559   6.91336   6.93242
 Alpha virt. eigenvalues --    6.96433   6.97004   6.97512   6.97817   7.06201
 Alpha virt. eigenvalues --    7.08296   7.10063   7.10493   7.12106   7.12634
 Alpha virt. eigenvalues --    7.14393   7.18494   7.22293   7.22897   7.23805
 Alpha virt. eigenvalues --    7.25259   7.28360   7.28518   7.29651   7.32227
 Alpha virt. eigenvalues --    7.34229   7.37034   7.37437   7.38639   7.39381
 Alpha virt. eigenvalues --    7.42012   7.43112   7.51392   7.54270   7.56978
 Alpha virt. eigenvalues --    7.60381   7.60981   7.66818   7.67509   7.69062
 Alpha virt. eigenvalues --    7.71155   7.75687   7.83120   7.84875   7.87136
 Alpha virt. eigenvalues --    7.91905   7.94334   7.98522   8.06403   8.07317
 Alpha virt. eigenvalues --    8.12391   8.21646   8.39485   8.50171   8.54117
 Alpha virt. eigenvalues --    8.57274   8.81607   8.84518   8.87606   8.90625
 Alpha virt. eigenvalues --    8.91551   8.97586   9.04758   9.06605   9.17452
 Alpha virt. eigenvalues --    9.21565   9.22766   9.23414   9.24263   9.26341
 Alpha virt. eigenvalues --    9.28686   9.29831   9.31996   9.33367   9.38483
 Alpha virt. eigenvalues --    9.38554   9.39136   9.41383   9.44791   9.46343
 Alpha virt. eigenvalues --    9.47980   9.48255   9.56109   9.57452   9.58823
 Alpha virt. eigenvalues --    9.61418   9.69786   9.80214   9.83250   9.88451
 Alpha virt. eigenvalues --   10.02253  10.10087  14.88971  15.51279  15.67695
 Alpha virt. eigenvalues --   15.84622  16.12142  16.36019  16.51460  16.87582
 Alpha virt. eigenvalues --   17.06914  17.36259  17.70175  18.17814  18.29721
 Alpha virt. eigenvalues --   18.51588  18.76432  18.90880  19.75775  20.45342
 Alpha virt. eigenvalues --   20.51503  21.08191  21.43827  21.98123
          Condensed to atoms (all electrons):
               1          2          3          4          5          6
     1  C   10.076266   0.073730  -0.800039   0.123940   0.002132  -0.015945
     2  N    0.073730   8.789730   0.430919  -0.169366  -0.384169  -0.125652
     3  C   -0.800039   0.430919   6.510935   0.206319   0.279522  -0.154139
     4  O    0.123940  -0.169366   0.206319   9.178727  -0.197290   0.028647
     5  O    0.002132  -0.384169   0.279522  -0.197290   8.707831   0.128800
     6  C   -0.015945  -0.125652  -0.154139   0.028647   0.128800   5.894427
     7  C   -0.016534   0.005360   0.005975  -0.024558  -0.092660  -0.032319
     8  C    0.001565   0.003859  -0.004847  -0.002810   0.004714  -0.031053
     9  C   -1.666778  -0.384592  -0.067983  -0.169172  -0.075161  -0.069156
    10  C    0.273952   0.108265  -0.139976   0.093577   0.004534   0.004384
    11  C   -0.258169   0.038311   0.055421  -0.014481   0.005174   0.006076
    12  C    0.049271   0.021250  -0.009704   0.003735  -0.004358  -0.006437
    13  C   -0.933885  -0.491448  -0.083277   0.037016   0.009716  -0.021785
    14  H   -0.172003  -0.248323  -0.400342  -0.010721   0.075220  -0.009307
    15  H   -0.008426   0.014817  -0.025636   0.002917  -0.053883   0.336400
    16  H   -0.008432   0.014807  -0.025576   0.002918  -0.053890   0.336386
    17  H   -0.001992  -0.006922  -0.008837   0.004070  -0.050849   0.068976
    18  H   -0.001993  -0.006925  -0.008819   0.004069  -0.050845   0.068973
    19  H    0.000710  -0.000436   0.007076   0.000173   0.002387  -0.008816
    20  H   -0.000023  -0.000064   0.001438  -0.000172  -0.000104  -0.004390
    21  H    0.000710  -0.000436   0.007078   0.000174   0.002385  -0.008813
    22  H   -0.975274  -0.287443   0.027891  -0.173756  -0.010431  -0.070586
    23  C    0.033677  -0.001773   0.017335  -0.006839  -0.000092  -0.000940
    24  Cl  -0.065728  -0.001577  -0.002739  -0.000024   0.000076  -0.000124
    25  H   -0.020711  -0.027799  -0.004441  -0.000192  -0.000359  -0.000255
    26  H   -0.285133   0.210671   0.002296   0.001848  -0.026330  -0.010552
    27  F   -0.009730  -0.000771   0.010900  -0.008171   0.000232  -0.000853
    28  F    0.002551  -0.000316   0.000304   0.000004   0.000025   0.000036
    29  F    0.002561  -0.000317   0.000304   0.000004   0.000025   0.000036
    30  O    0.040305  -0.008607  -0.017830   0.000148   0.008928  -0.002169
    31  O    0.040982  -0.225143  -0.060743  -0.005185   0.021068   0.018958
    32  C   -0.025587  -0.035578  -0.010232   0.000716  -0.019687  -0.001155
    33  C    0.011096  -0.025166  -0.002944   0.000477  -0.003494   0.002083
    34  C    0.008714  -0.004833  -0.006861   0.000163   0.006844  -0.000378
    35  H   -0.001603  -0.000817   0.000642  -0.000004  -0.001065  -0.000002
    36  H   -0.001603  -0.000815   0.000642  -0.000004  -0.001064  -0.000001
    37  H    0.000874  -0.001782  -0.000880   0.000126  -0.001109   0.000068
    38  H    0.000557   0.000157  -0.000648   0.000004   0.000991   0.000516
    39  H    0.000873  -0.001781  -0.000880   0.000126  -0.001108   0.000068
               7          8          9         10         11         12
     1  C   -0.016534   0.001565  -1.666778   0.273952  -0.258169   0.049271
     2  N    0.005360   0.003859  -0.384592   0.108265   0.038311   0.021250
     3  C    0.005975  -0.004847  -0.067983  -0.139976   0.055421  -0.009704
     4  O   -0.024558  -0.002810  -0.169172   0.093577  -0.014481   0.003735
     5  O   -0.092660   0.004714  -0.075161   0.004534   0.005174  -0.004358
     6  C   -0.032319  -0.031053  -0.069156   0.004384   0.006076  -0.006437
     7  C    5.748702   0.071522  -0.006412   0.003754  -0.000249  -0.000113
     8  C    0.071522   5.851604  -0.001025   0.000247  -0.000021   0.000017
     9  C   -0.006412  -0.001025  11.696817  -1.960117   0.391281  -0.088244
    10  C    0.003754   0.000247  -1.960117   9.144144  -0.748553  -0.258776
    11  C   -0.000249  -0.000021   0.391281  -0.748553   6.821552  -0.348686
    12  C   -0.000113   0.000017  -0.088244  -0.258776  -0.348686   8.431587
    13  C    0.004026  -0.000034  -0.589740   0.216522  -0.091872  -0.846889
    14  H    0.008570  -0.001480  -0.042822  -0.040593   0.025255  -0.014907
    15  H    0.011876  -0.003406   0.000453  -0.000757   0.000422  -0.000311
    16  H    0.011880  -0.003418   0.000457  -0.000759   0.000423  -0.000311
    17  H    0.388605  -0.043190  -0.001141   0.000241   0.000020  -0.000046
    18  H    0.388600  -0.043201  -0.001141   0.000241   0.000020  -0.000046
    19  H    0.027349   0.369781   0.000023   0.000088  -0.000014   0.000009
    20  H   -0.039870   0.453521  -0.000053  -0.000015   0.000002  -0.000002
    21  H    0.027347   0.369779   0.000023   0.000087  -0.000014   0.000009
    22  H   -0.003376  -0.000627   0.817094  -1.008926  -0.157479   0.088484
    23  C   -0.000020  -0.000016  -0.658781  -0.546876  -0.002755   0.031952
    24  Cl  -0.000001   0.000000   0.075864   0.124835  -0.300527  -0.218937
    25  H   -0.000025  -0.000001   0.070271   0.010502  -0.108904   0.358976
    26  H    0.001103   0.000218  -0.041266  -0.004067   0.058223  -0.383202
    27  F   -0.000026  -0.000006   0.002747  -0.039580   0.022181  -0.004407
    28  F    0.000001   0.000000  -0.047099   0.073007  -0.009618  -0.004203
    29  F    0.000001   0.000000  -0.047090   0.072995  -0.009607  -0.004201
    30  O   -0.000435   0.000007  -0.015474  -0.000977  -0.007378   0.049067
    31  O    0.004000  -0.000406  -0.057769   0.009929  -0.006685   0.020511
    32  C    0.004468   0.000009  -0.016524   0.007830  -0.010746   0.012007
    33  C    0.000750  -0.000360  -0.004364  -0.000431   0.001729  -0.001945
    34  C    0.000454  -0.000327  -0.001553   0.000630  -0.000711   0.001850
    35  H    0.000179  -0.000040   0.000142   0.000011   0.000141  -0.001162
    36  H    0.000179  -0.000040   0.000142   0.000010   0.000141  -0.001163
    37  H   -0.001059   0.000102   0.000186   0.000023  -0.000040   0.000175
    38  H   -0.000059   0.000067  -0.000166   0.000026  -0.000037   0.000112
    39  H   -0.001059   0.000101   0.000186   0.000023  -0.000040   0.000174
              13         14         15         16         17         18
     1  C   -0.933885  -0.172003  -0.008426  -0.008432  -0.001992  -0.001993
     2  N   -0.491448  -0.248323   0.014817   0.014807  -0.006922  -0.006925
     3  C   -0.083277  -0.400342  -0.025636  -0.025576  -0.008837  -0.008819
     4  O    0.037016  -0.010721   0.002917   0.002918   0.004070   0.004069
     5  O    0.009716   0.075220  -0.053883  -0.053890  -0.050849  -0.050845
     6  C   -0.021785  -0.009307   0.336400   0.336386   0.068976   0.068973
     7  C    0.004026   0.008570   0.011876   0.011880   0.388605   0.388600
     8  C   -0.000034  -0.001480  -0.003406  -0.003418  -0.043190  -0.043201
     9  C   -0.589740  -0.042822   0.000453   0.000457  -0.001141  -0.001141
    10  C    0.216522  -0.040593  -0.000757  -0.000759   0.000241   0.000241
    11  C   -0.091872   0.025255   0.000422   0.000423   0.000020   0.000020
    12  C   -0.846889  -0.014907  -0.000311  -0.000311  -0.000046  -0.000046
    13  C   10.038081  -0.058278  -0.001946  -0.001947   0.000286   0.000286
    14  H   -0.058278   1.536195   0.002562   0.002571  -0.001103  -0.001101
    15  H   -0.001946   0.002562   0.433468  -0.002487   0.025057  -0.026738
    16  H   -0.001947   0.002571  -0.002487   0.433469  -0.026742   0.025053
    17  H    0.000286  -0.001103   0.025057  -0.026742   0.432561  -0.006012
    18  H    0.000286  -0.001101  -0.026738   0.025053  -0.006012   0.432544
    19  H    0.000060   0.000017  -0.007750  -0.008393  -0.001585   0.000489
    20  H   -0.000027   0.000146  -0.000291  -0.000290  -0.002152  -0.002151
    21  H    0.000060   0.000017  -0.008393  -0.007751   0.000489  -0.001585
    22  H   -0.276702  -0.063002  -0.003798  -0.003799  -0.000356  -0.000356
    23  C    0.059188  -0.004818  -0.000088  -0.000088   0.000004   0.000004
    24  Cl   0.082657  -0.001010  -0.000006  -0.000006  -0.000003  -0.000003
    25  H   -0.144486   0.000787  -0.000007  -0.000007   0.000001   0.000001
    26  H   -0.397064  -0.078655  -0.000778  -0.000779  -0.000068  -0.000068
    27  F   -0.018750   0.000211   0.000042   0.000042  -0.000005  -0.000005
    28  F    0.003681  -0.000222  -0.000006  -0.000012  -0.000000   0.000001
    29  F    0.003670  -0.000222  -0.000012  -0.000006   0.000001  -0.000000
    30  O    0.027842   0.002636  -0.000007  -0.000007  -0.000279  -0.000278
    31  O    0.090055  -0.070676  -0.001312  -0.001317  -0.000137  -0.000138
    32  C    0.018025  -0.062669  -0.000405  -0.000406   0.000896   0.000895
    33  C    0.006284   0.020201   0.000048   0.000048   0.000758   0.000759
    34  C   -0.003534  -0.005479   0.000017   0.000017  -0.000128  -0.000131
    35  H    0.003722  -0.000045  -0.000014   0.000009   0.000226   0.000072
    36  H    0.003723  -0.000039   0.000009  -0.000014   0.000072   0.000226
    37  H   -0.000624  -0.002650   0.000201  -0.000163  -0.000010  -0.000153
    38  H    0.000309   0.001204   0.000021   0.000021  -0.000212  -0.000213
    39  H   -0.000622  -0.002647  -0.000163   0.000200  -0.000154  -0.000009
              19         20         21         22         23         24
     1  C    0.000710  -0.000023   0.000710  -0.975274   0.033677  -0.065728
     2  N   -0.000436  -0.000064  -0.000436  -0.287443  -0.001773  -0.001577
     3  C    0.007076   0.001438   0.007078   0.027891   0.017335  -0.002739
     4  O    0.000173  -0.000172   0.000174  -0.173756  -0.006839  -0.000024
     5  O    0.002387  -0.000104   0.002385  -0.010431  -0.000092   0.000076
     6  C   -0.008816  -0.004390  -0.008813  -0.070586  -0.000940  -0.000124
     7  C    0.027349  -0.039870   0.027347  -0.003376  -0.000020  -0.000001
     8  C    0.369781   0.453521   0.369779  -0.000627  -0.000016   0.000000
     9  C    0.000023  -0.000053   0.000023   0.817094  -0.658781   0.075864
    10  C    0.000088  -0.000015   0.000087  -1.008926  -0.546876   0.124835
    11  C   -0.000014   0.000002  -0.000014  -0.157479  -0.002755  -0.300527
    12  C    0.000009  -0.000002   0.000009   0.088484   0.031952  -0.218937
    13  C    0.000060  -0.000027   0.000060  -0.276702   0.059188   0.082657
    14  H    0.000017   0.000146   0.000017  -0.063002  -0.004818  -0.001010
    15  H   -0.007750  -0.000291  -0.008393  -0.003798  -0.000088  -0.000006
    16  H   -0.008393  -0.000290  -0.007751  -0.003799  -0.000088  -0.000006
    17  H   -0.001585  -0.002152   0.000489  -0.000356   0.000004  -0.000003
    18  H    0.000489  -0.002151  -0.001585  -0.000356   0.000004  -0.000003
    19  H    0.321134   0.000751   0.019767   0.000055  -0.000001   0.000000
    20  H    0.000751   0.310807   0.000751  -0.000051  -0.000000  -0.000000
    21  H    0.019767   0.000751   0.321136   0.000055  -0.000001   0.000000
    22  H    0.000055  -0.000051   0.000055   2.842653  -0.133287   0.004259
    23  C   -0.000001  -0.000000  -0.000001  -0.133287   5.517420  -0.066246
    24  Cl   0.000000  -0.000000   0.000000   0.004259  -0.066246  17.887797
    25  H   -0.000000   0.000000  -0.000000   0.006740   0.010967   0.026001
    26  H    0.000027   0.000012   0.000027  -0.048687  -0.004388  -0.007075
    27  F   -0.000002   0.000000  -0.000002  -0.013973   0.210280   0.010409
    28  F    0.000000   0.000000  -0.000000  -0.005403   0.173180  -0.015201
    29  F   -0.000000   0.000000   0.000000  -0.005402   0.173169  -0.015203
    30  O    0.000011  -0.000011   0.000011  -0.001365  -0.000523   0.000775
    31  O    0.000005  -0.000080   0.000004  -0.009819  -0.000844   0.000098
    32  C   -0.000048  -0.000022  -0.000048  -0.006927  -0.000596   0.000264
    33  C   -0.000040   0.000037  -0.000040  -0.000929  -0.000061  -0.000003
    34  C   -0.000001  -0.000105  -0.000001  -0.000172  -0.000036   0.000010
    35  H   -0.000010   0.000003  -0.000003  -0.000022   0.000006  -0.000013
    36  H   -0.000003   0.000003  -0.000010  -0.000022   0.000006  -0.000013
    37  H    0.000041  -0.000016   0.000007   0.000045  -0.000004   0.000002
    38  H    0.000003   0.000006   0.000003  -0.000027  -0.000003   0.000001
    39  H    0.000007  -0.000016   0.000041   0.000045  -0.000004   0.000002
              25         26         27         28         29         30
     1  C   -0.020711  -0.285133  -0.009730   0.002551   0.002561   0.040305
     2  N   -0.027799   0.210671  -0.000771  -0.000316  -0.000317  -0.008607
     3  C   -0.004441   0.002296   0.010900   0.000304   0.000304  -0.017830
     4  O   -0.000192   0.001848  -0.008171   0.000004   0.000004   0.000148
     5  O   -0.000359  -0.026330   0.000232   0.000025   0.000025   0.008928
     6  C   -0.000255  -0.010552  -0.000853   0.000036   0.000036  -0.002169
     7  C   -0.000025   0.001103  -0.000026   0.000001   0.000001  -0.000435
     8  C   -0.000001   0.000218  -0.000006   0.000000   0.000000   0.000007
     9  C    0.070271  -0.041266   0.002747  -0.047099  -0.047090  -0.015474
    10  C    0.010502  -0.004067  -0.039580   0.073007   0.072995  -0.000977
    11  C   -0.108904   0.058223   0.022181  -0.009618  -0.009607  -0.007378
    12  C    0.358976  -0.383202  -0.004407  -0.004203  -0.004201   0.049067
    13  C   -0.144486  -0.397064  -0.018750   0.003681   0.003670   0.027842
    14  H    0.000787  -0.078655   0.000211  -0.000222  -0.000222   0.002636
    15  H   -0.000007  -0.000778   0.000042  -0.000006  -0.000012  -0.000007
    16  H   -0.000007  -0.000779   0.000042  -0.000012  -0.000006  -0.000007
    17  H    0.000001  -0.000068  -0.000005  -0.000000   0.000001  -0.000279
    18  H    0.000001  -0.000068  -0.000005   0.000001  -0.000000  -0.000278
    19  H   -0.000000   0.000027  -0.000002   0.000000  -0.000000   0.000011
    20  H    0.000000   0.000012   0.000000   0.000000   0.000000  -0.000011
    21  H   -0.000000   0.000027  -0.000002  -0.000000   0.000000   0.000011
    22  H    0.006740  -0.048687  -0.013973  -0.005403  -0.005402  -0.001365
    23  C    0.010967  -0.004388   0.210280   0.173180   0.173169  -0.000523
    24  Cl   0.026001  -0.007075   0.010409  -0.015201  -0.015203   0.000775
    25  H    0.652268  -0.151480  -0.000415  -0.000791  -0.000790   0.004032
    26  H   -0.151480   1.573450   0.000125   0.000086   0.000085  -0.308595
    27  F   -0.000415   0.000125   9.361464  -0.077087  -0.077087  -0.000016
    28  F   -0.000791   0.000086  -0.077087   9.345835  -0.013001  -0.000004
    29  F   -0.000790   0.000085  -0.077087  -0.013001   9.345829  -0.000004
    30  O    0.004032  -0.308595  -0.000016  -0.000004  -0.000004   8.989727
    31  O    0.001034  -0.094507  -0.000060   0.000018   0.000018  -0.100260
    32  C   -0.006757  -0.029257  -0.000256   0.000034   0.000034   0.506131
    33  C    0.000717  -0.031184  -0.000008   0.000004   0.000004  -0.139112
    34  C   -0.000277  -0.006385  -0.000003   0.000000   0.000000  -0.014494
    35  H    0.000054   0.001704  -0.000000  -0.000000   0.000001   0.001016
    36  H    0.000054   0.001702  -0.000000   0.000001  -0.000000   0.000958
    37  H   -0.000055   0.000881  -0.000001   0.000000  -0.000001   0.004581
    38  H   -0.000004  -0.000601  -0.000000   0.000000   0.000000  -0.004732
    39  H   -0.000055   0.000881  -0.000001  -0.000001   0.000000   0.004578
              31         32         33         34         35         36
     1  C    0.040982  -0.025587   0.011096   0.008714  -0.001603  -0.001603
     2  N   -0.225143  -0.035578  -0.025166  -0.004833  -0.000817  -0.000815
     3  C   -0.060743  -0.010232  -0.002944  -0.006861   0.000642   0.000642
     4  O   -0.005185   0.000716   0.000477   0.000163  -0.000004  -0.000004
     5  O    0.021068  -0.019687  -0.003494   0.006844  -0.001065  -0.001064
     6  C    0.018958  -0.001155   0.002083  -0.000378  -0.000002  -0.000001
     7  C    0.004000   0.004468   0.000750   0.000454   0.000179   0.000179
     8  C   -0.000406   0.000009  -0.000360  -0.000327  -0.000040  -0.000040
     9  C   -0.057769  -0.016524  -0.004364  -0.001553   0.000142   0.000142
    10  C    0.009929   0.007830  -0.000431   0.000630   0.000011   0.000010
    11  C   -0.006685  -0.010746   0.001729  -0.000711   0.000141   0.000141
    12  C    0.020511   0.012007  -0.001945   0.001850  -0.001162  -0.001163
    13  C    0.090055   0.018025   0.006284  -0.003534   0.003722   0.003723
    14  H   -0.070676  -0.062669   0.020201  -0.005479  -0.000045  -0.000039
    15  H   -0.001312  -0.000405   0.000048   0.000017  -0.000014   0.000009
    16  H   -0.001317  -0.000406   0.000048   0.000017   0.000009  -0.000014
    17  H   -0.000137   0.000896   0.000758  -0.000128   0.000226   0.000072
    18  H   -0.000138   0.000895   0.000759  -0.000131   0.000072   0.000226
    19  H    0.000005  -0.000048  -0.000040  -0.000001  -0.000010  -0.000003
    20  H   -0.000080  -0.000022   0.000037  -0.000105   0.000003   0.000003
    21  H    0.000004  -0.000048  -0.000040  -0.000001  -0.000003  -0.000010
    22  H   -0.009819  -0.006927  -0.000929  -0.000172  -0.000022  -0.000022
    23  C   -0.000844  -0.000596  -0.000061  -0.000036   0.000006   0.000006
    24  Cl   0.000098   0.000264  -0.000003   0.000010  -0.000013  -0.000013
    25  H    0.001034  -0.006757   0.000717  -0.000277   0.000054   0.000054
    26  H   -0.094507  -0.029257  -0.031184  -0.006385   0.001704   0.001702
    27  F   -0.000060  -0.000256  -0.000008  -0.000003  -0.000000  -0.000000
    28  F    0.000018   0.000034   0.000004   0.000000  -0.000000   0.000001
    29  F    0.000018   0.000034   0.000004   0.000000   0.000001  -0.000000
    30  O   -0.100260   0.506131  -0.139112  -0.014494   0.001016   0.000958
    31  O    8.901555   0.416040  -0.100713  -0.023089  -0.030496  -0.030508
    32  C    0.416040   5.210186  -0.384229   0.078857  -0.055771  -0.055800
    33  C   -0.100713  -0.384229   5.790648   0.086247   0.492309   0.492301
    34  C   -0.023089   0.078857   0.086247   5.750479  -0.030192  -0.030193
    35  H   -0.030496  -0.055771   0.492309  -0.030192   0.389009   0.023542
    36  H   -0.030508  -0.055800   0.492301  -0.030193   0.023542   0.388991
    37  H   -0.007069  -0.011499   0.046416   0.343417   0.000388   0.002325
    38  H    0.000531   0.009955  -0.065980   0.452663  -0.007164  -0.007159
    39  H   -0.007029  -0.011515   0.046441   0.343474   0.002332   0.000378
              37         38         39
     1  C    0.000874   0.000557   0.000873
     2  N   -0.001782   0.000157  -0.001781
     3  C   -0.000880  -0.000648  -0.000880
     4  O    0.000126   0.000004   0.000126
     5  O   -0.001109   0.000991  -0.001108
     6  C    0.000068   0.000516   0.000068
     7  C   -0.001059  -0.000059  -0.001059
     8  C    0.000102   0.000067   0.000101
     9  C    0.000186  -0.000166   0.000186
    10  C    0.000023   0.000026   0.000023
    11  C   -0.000040  -0.000037  -0.000040
    12  C    0.000175   0.000112   0.000174
    13  C   -0.000624   0.000309  -0.000622
    14  H   -0.002650   0.001204  -0.002647
    15  H    0.000201   0.000021  -0.000163
    16  H   -0.000163   0.000021   0.000200
    17  H   -0.000010  -0.000212  -0.000154
    18  H   -0.000153  -0.000213  -0.000009
    19  H    0.000041   0.000003   0.000007
    20  H   -0.000016   0.000006  -0.000016
    21  H    0.000007   0.000003   0.000041
    22  H    0.000045  -0.000027   0.000045
    23  C   -0.000004  -0.000003  -0.000004
    24  Cl   0.000002   0.000001   0.000002
    25  H   -0.000055  -0.000004  -0.000055
    26  H    0.000881  -0.000601   0.000881
    27  F   -0.000001  -0.000000  -0.000001
    28  F    0.000000   0.000000  -0.000001
    29  F   -0.000001   0.000000   0.000000
    30  O    0.004581  -0.004732   0.004578
    31  O   -0.007069   0.000531  -0.007029
    32  C   -0.011499   0.009955  -0.011515
    33  C    0.046416  -0.065980   0.046441
    34  C    0.343417   0.452663   0.343474
    35  H    0.000388  -0.007164   0.002332
    36  H    0.002325  -0.007159   0.000378
    37  H    0.334773  -0.013528   0.025843
    38  H   -0.013528   0.368619  -0.013504
    39  H    0.025843  -0.013504   0.334738
 Mulliken charges:
               1
     1  C    0.525121
     2  N   -0.269025
     3  C    0.272376
     4  O   -0.907152
     5  O   -0.232659
     6  C   -0.320006
     7  C   -0.495927
     8  C   -0.990804
     9  C   -1.042063
    10  C    0.600545
    11  C    0.650214
    12  C   -0.871133
    13  C   -0.642299
    14  H    0.617521
    15  H    0.318311
    16  H    0.318297
    17  H    0.229659
    18  H    0.229677
    19  H    0.277138
    20  H    0.282425
    21  H    0.277138
    22  H    0.474675
    23  C    1.201889
    24  Cl  -0.518612
    25  H    0.325408
    26  H    1.056784
    27  F   -0.367418
    28  F   -0.425804
    29  F   -0.425798
    30  O   -1.018195
    31  O   -0.690822
    32  C    0.479367
    33  C   -0.238351
    34  C   -0.944952
    35  H    0.212914
    36  H    0.213045
    37  H    0.280172
    38  H    0.278269
    39  H    0.280075
 Sum of Mulliken charges =  -1.00000
 Mulliken charges with hydrogens summed into heavy atoms:
               1
     1  C    0.525121
     2  N    0.348496
     3  C    0.272376
     4  O   -0.907152
     5  O   -0.232659
     6  C    0.316602
     7  C   -0.036591
     8  C   -0.154103
     9  C   -0.567387
    10  C    0.600545
    11  C    0.650214
    12  C   -0.545726
    13  C    0.414485
    23  C    1.201889
    24  Cl  -0.518612
    27  F   -0.367418
    28  F   -0.425804
    29  F   -0.425798
    30  O   -1.018195
    31  O   -0.690822
    32  C    0.479367
    33  C    0.187608
    34  C   -0.106436
 Electronic spatial extent (au):  <R**2>=          12030.4449
 Charge=             -1.0000 electrons
 Dipole moment (field-independent basis, Debye):
    X=             -0.0956    Y=             -5.6552    Z=              0.0003  Tot=              5.6560
 Quadrupole moment (field-independent basis, Debye-Ang):
   XX=           -192.1542   YY=           -184.0619   ZZ=           -144.9276
   XY=             20.7157   XZ=             -0.0012   YZ=              0.0010
 Traceless Quadrupole moment (field-independent basis, Debye-Ang):
   XX=            -18.4396   YY=            -10.3473   ZZ=             28.7869
   XY=             20.7157   XZ=             -0.0012   YZ=              0.0010
 Octapole moment (field-independent basis, Debye-Ang**2):
  XXX=              0.8303  YYY=           -117.9269  ZZZ=              0.0010  XYY=             62.3705
  XXY=            -52.4352  XXZ=             -0.0004  XZZ=             10.6692  YZZ=            -14.6663
  YYZ=             -0.0034  XYZ=             -0.0000
 Hexadecapole moment (field-independent basis, Debye-Ang**3):
 XXXX=         -11823.8387 YYYY=          -5185.3708 ZZZZ=           -250.5579 XXXY=            120.3321
 XXXZ=              0.0326 YYYX=             88.7355 YYYZ=             -0.0044 ZZZX=              0.0102
 ZZZY=             -0.0054 XXYY=          -2764.1931 XXZZ=          -1858.8850 YYZZ=           -797.2790
 XXYZ=             -0.0100 YYXZ=              0.0124 ZZXY=            -29.2080
 N-N= 2.105965924466D+03 E-N=-8.138063944721D+03  KE= 1.650282913974D+03
 Unable to Open any file for archive entry.
 1\1\GINC-GADI-HMEM-CLX-0007\SP\RDSDPBEP86-FC\Aug-CC-pVTZ\C14H16Cl1F3N1
 O4(1-)\HIO507\24-Mar-2021\0\\# DSDPBEP86/AUG-cc-PVTZ SCF=Tight INT(gri
 d=ultrafine) MaxDisk=1400000MB\\29CA_carboxy.DSDPBEP86_AUG-cc-PVTZ\\-1
 ,1\C,0,-6.2095476444,1.1245230011,-0.033257816\N,0,-4.9138595565,0.610
 7336875,-0.0333524763\C,0,-3.7738012199,1.3407822606,-0.0448506017\O,0
 ,-3.6620160206,2.5509848675,-0.0569614186\O,0,-2.7050570745,0.51312574
 53,-0.0410428853\C,0,-1.4348629641,1.1475804747,-0.0521243849\C,0,-0.3
 871607766,0.0523887943,-0.0456833195\C,0,1.0235231846,0.633983032,-0.0
 568041845\C,0,-6.5165690754,2.49034156,-0.0453006727\C,0,-7.8460047535
 ,2.9095302241,-0.0441727103\C,0,-8.8754114102,1.9726430963,-0.03105131
 05\C,0,-8.5721558754,0.6175786347,-0.0190950022\C,0,-7.2558239776,0.18
 98452734,-0.0201008198\H,0,-4.8207763268,-0.4396276836,-0.0235896386\H
 ,0,-1.3397346703,1.7978615693,0.8233220701\H,0,-1.3466417875,1.7808811
 689,-0.9406447848\H,0,-0.546696663,-0.5909886647,-0.9148347755\H,0,-0.
 5398400671,-0.5741267535,0.8369138605\H,0,1.1919213782,1.2486528757,-0
 .9454731396\H,0,1.7779787428,-0.1551148446,-0.0521593231\H,0,1.1988253
 375,1.2656371681,0.8185195382\H,0,-5.7227550211,3.2207364914,-0.055488
 4797\C,0,-8.1419559453,4.3825719547,-0.0572807065\Cl,0,-10.5588357619,
 2.4531625056,-0.029084698\H,0,-9.3738741842,-0.1110478508,-0.008885747
 3\H,0,-7.0371583036,-0.8795773386,-0.0105809604\F,0,-7.0263111962,5.12
 68257801,-0.068874376\F,0,-8.8555431958,4.7549298711,-1.1361553722\F,0
 ,-8.8470767278,4.7758168716,1.0197462948\O,0,-6.7224455305,-2.92794841
 16,0.0082130596\O,0,-4.6465812118,-2.0739429826,-0.008528518\C,0,-5.48
 19257331,-3.019431261,0.0041767946\C,0,-4.8979011734,-4.4473381701,0.0
 159461722\C,0,-3.3763025761,-4.5101259559,0.0108675225\H,0,-5.31728575
 02,-4.9709998162,-0.8492457381\H,0,-5.3107862917,-4.954004963,0.894279
 0795\H,0,-2.9728993027,-4.0087537833,-0.8705641542\H,0,-3.0169916104,-
 5.5446520488,0.0196157518\H,0,-2.966349264,-3.9916963795,0.8793178706\
 \Version=ES64L-G16RevC.01\State=1-A\HF=-1654.6546712\MP2=-1656.8729983
 \RMSD=3.260e-09\PG=C01 [X(C14H16Cl1F3N1O4)]\\@
 The archive entry for this job was punched.


 IF THE FACTS DO NOT CONFORM TO THE THEORY, THEY MUST BE DISPOSED OF.
 Job cpu time:       6 days 16 hours 44 minutes 42.4 seconds.
 Elapsed time:       0 days  5 hours  3 minutes 29.8 seconds.
 File lengths (MBytes):  RWF=   1053 Int=      0 D2E=      0 Chk=    134 Scr=      1
 Normal termination of Gaussian 16 at Wed Mar 24 14:21:04 2021.
