 Entering Gaussian System, Link 0=/apps/gaussian/g16c01/g16/g16
 Initial command:
 /apps/gaussian/g16c01/g16/l1.exe "/jobfs/19478599.gadi-pbs/Gau-358884.inp" -scrdir="/jobfs/19478599.gadi-pbs/"
 Entering Link 1 = /apps/gaussian/g16c01/g16/l1.exe PID=    358885.
  
 Copyright (c) 1988-2019, Gaussian, Inc.  All Rights Reserved.
  
 This is part of the Gaussian(R) 16 program.  It is based on
 the Gaussian(R) 09 system (copyright 2009, Gaussian, Inc.),
 the Gaussian(R) 03 system (copyright 2003, Gaussian, Inc.),
 the Gaussian(R) 98 system (copyright 1998, Gaussian, Inc.),
 the Gaussian(R) 94 system (copyright 1995, Gaussian, Inc.),
 the Gaussian 92(TM) system (copyright 1992, Gaussian, Inc.),
 the Gaussian 90(TM) system (copyright 1990, Gaussian, Inc.),
 the Gaussian 88(TM) system (copyright 1988, Gaussian, Inc.),
 the Gaussian 86(TM) system (copyright 1986, Carnegie Mellon
 University), and the Gaussian 82(TM) system (copyright 1983,
 Carnegie Mellon University). Gaussian is a federally registered
 trademark of Gaussian, Inc.
  
 This software contains proprietary and confidential information,
 including trade secrets, belonging to Gaussian, Inc.
  
 This software is provided under written license and may be
 used, copied, transmitted, or stored only in accord with that
 written license.
  
 The following legend is applicable only to US Government
 contracts under FAR:
  
                    RESTRICTED RIGHTS LEGEND
  
 Use, reproduction and disclosure by the US Government is
 subject to restrictions as set forth in subparagraphs (a)
 and (c) of the Commercial Computer Software - Restricted
 Rights clause in FAR 52.227-19.
  
 Gaussian, Inc.
 340 Quinnipiac St., Bldg. 40, Wallingford CT 06492
  
  
 ---------------------------------------------------------------
 Warning -- This program may not be used in any manner that
 competes with the business of Gaussian, Inc. or will provide
 assistance to any competitor of Gaussian, Inc.  The licensee
 of this program is prohibited from giving any competitor of
 Gaussian, Inc. access to this program.  By using this program,
 the user acknowledges that Gaussian, Inc. is engaged in the
 business of creating and licensing software in the field of
 computational chemistry and represents and warrants to the
 licensee that it is not a competitor of Gaussian, Inc. and that
 it will not use this program in any manner prohibited above.
 ---------------------------------------------------------------
  

 Cite this work as:
 Gaussian 16, Revision C.01,
 M. J. Frisch, G. W. Trucks, H. B. Schlegel, G. E. Scuseria, 
 M. A. Robb, J. R. Cheeseman, G. Scalmani, V. Barone, 
 G. A. Petersson, H. Nakatsuji, X. Li, M. Caricato, A. V. Marenich, 
 J. Bloino, B. G. Janesko, R. Gomperts, B. Mennucci, H. P. Hratchian, 
 J. V. Ortiz, A. F. Izmaylov, J. L. Sonnenberg, D. Williams-Young, 
 F. Ding, F. Lipparini, F. Egidi, J. Goings, B. Peng, A. Petrone, 
 T. Henderson, D. Ranasinghe, V. G. Zakrzewski, J. Gao, N. Rega, 
 G. Zheng, W. Liang, M. Hada, M. Ehara, K. Toyota, R. Fukuda, 
 J. Hasegawa, M. Ishida, T. Nakajima, Y. Honda, O. Kitao, H. Nakai, 
 T. Vreven, K. Throssell, J. A. Montgomery, Jr., J. E. Peralta, 
 F. Ogliaro, M. J. Bearpark, J. J. Heyd, E. N. Brothers, K. N. Kudin, 
 V. N. Staroverov, T. A. Keith, R. Kobayashi, J. Normand, 
 K. Raghavachari, A. P. Rendell, J. C. Burant, S. S. Iyengar, 
 J. Tomasi, M. Cossi, J. M. Millam, M. Klene, C. Adamo, R. Cammi, 
 J. W. Ochterski, R. L. Martin, K. Morokuma, O. Farkas, 
 J. B. Foresman, and D. J. Fox, Gaussian, Inc., Wallingford CT, 2019.
 
 ******************************************
 Gaussian 16:  ES64L-G16RevC.01  3-Jul-2019
                22-Mar-2021 
 ******************************************
 %NprocShared=32
 Will use up to   32 processors via shared memory.
 %Mem=10000MB
 %chk=29CA_carboxy_c2.M062X_6-311pGd_opt_GD3.chk
 ----------------------------------------------------------------------
 # M062X/6-311+G* SCF=Tight INT(grid=ultrafine) OPT=CalcFC IOP(2/17=4) 
 EmpiricalDispersion=GD3 MaxDisk=10000MB
 ----------------------------------------------------------------------
 1/10=4,18=20,19=15,26=4,38=1/1,3;
 2/9=110,12=2,17=4,18=5,40=1/2;
 3/5=4,6=6,7=11,11=2,25=1,30=1,71=2,74=-55,75=-5,124=31,140=1/1,2,3;
 4//1;
 5/5=2,32=2,38=5/2;
 8/6=4,10=90,11=11/1;
 11/6=1,8=1,9=11,15=111,16=1/1,2,10;
 10/6=1,13=1/2;
 6/7=2,8=2,9=2,10=2,28=1/1;
 7/10=1,25=1/1,2,3,16;
 1/10=4,18=20,19=15,26=4/3(2);
 2/9=110,17=4/2;
 99//99;
 2/9=110,17=4/2;
 3/5=4,6=6,7=11,11=2,25=1,30=1,71=1,74=-55,75=-5,124=31/1,2,3;
 4/5=5,16=3,69=1/1;
 5/5=2,32=2,38=5/2;
 7//1,2,3,16;
 1/18=20,19=15,26=4/3(-5);
 2/9=110,17=4/2;
 6/7=2,8=2,9=2,10=2,19=2,28=1/1;
 99/9=1/99;
 --------------------------------------
 29CA_carboxy_c2.M062X_6-311pGd_opt_GD3
 --------------------------------------
 Symbolic Z-matrix:
 Charge = -1 Multiplicity = 1
 C                    -6.28739   1.36986  -0.05085 
 N                    -4.9497    0.83543  -0.03747 
 C                    -3.76993   1.5242   -0.03273 
 O                    -3.73774   2.74465  -0.04043 
 O                    -2.60606   0.8238   -0.01982 
 C                    -1.35601   1.41091  -0.0163 
 C                    -0.27908   0.32812  -0.00032 
 C                     1.11819   0.94258   0.00317 
 C                    -7.4633    0.59309  -0.17669 
 C                    -8.74388   1.18466  -0.18221 
 C                    -8.84614   2.59326  -0.05801 
 C                    -7.68664   3.36056   0.06608 
 C                    -6.43042   2.76001   0.06952 
 H                    -4.85594  -0.30613  -0.03052 
 H                    -1.24961   2.05325   0.88617 
 H                    -1.23776   2.03833  -0.92775 
 H                    -0.38994  -0.31672  -0.89908 
 H                    -0.40135  -0.30129   0.90785 
 H                     1.27004   1.5621   -0.90652 
 H                     1.88076   0.13574   0.01495 
 H                     1.25867   1.57786   0.90377 
 H                    -7.43246  -0.47616  -0.2734 
 C                    -9.93166   0.24849  -0.32334 
 Cl                   -10.37216   3.47393  -0.04839 
 H                    -7.75447   4.43696   0.16142 
 H                    -5.46561   3.45469   0.17798 
 F                    -9.92433  -0.65468   0.72462 
 F                    -11.15222   0.89221  -0.32121 
 F                    -9.82009  -0.44963  -1.51253 
 O                    -6.53182  -3.22013  -0.03243 
 O                    -4.33186  -2.82768  -0.01031 
 C                    -5.2483   -3.64313  -0.0157 
 C                    -4.97378  -5.12355  -0.00394 
 C                    -3.4834   -5.461     0.01496 
 H                    -5.43209  -5.57669  -0.90887 
 H                    -5.4525   -5.56613   0.89563 
 H                    -2.98329  -5.05081  -0.88828 
 H                    -3.35285  -6.56377   0.02287 
 H                    -3.00394  -5.04026   0.92452 
 
 Add virtual bond connecting atoms O31        and H14        Dist= 4.87D+00.

 GradGradGradGradGradGradGradGradGradGradGradGradGradGradGradGradGradGrad
 Berny optimization.
 Initialization pass.
                           ----------------------------
                           !    Initial Parameters    !
                           ! (Angstroms and Degrees)  !
 --------------------------                            --------------------------
 ! Name  Definition              Value          Derivative Info.                !
 --------------------------------------------------------------------------------
 ! R1    R(1,2)                  1.4406         calculate D2E/DX2 analytically  !
 ! R2    R(1,9)                  1.4149         calculate D2E/DX2 analytically  !
 ! R3    R(1,13)                 1.4027         calculate D2E/DX2 analytically  !
 ! R4    R(2,3)                  1.3661         calculate D2E/DX2 analytically  !
 ! R5    R(2,14)                 1.1454         calculate D2E/DX2 analytically  !
 ! R6    R(3,4)                  1.2209         calculate D2E/DX2 analytically  !
 ! R7    R(3,5)                  1.3584         calculate D2E/DX2 analytically  !
 ! R8    R(5,6)                  1.3811         calculate D2E/DX2 analytically  !
 ! R9    R(6,7)                  1.5272         calculate D2E/DX2 analytically  !
 ! R10   R(6,15)                 1.1128         calculate D2E/DX2 analytically  !
 ! R11   R(6,16)                 1.1128         calculate D2E/DX2 analytically  !
 ! R12   R(7,8)                  1.5264         calculate D2E/DX2 analytically  !
 ! R13   R(7,17)                 1.1117         calculate D2E/DX2 analytically  !
 ! R14   R(7,18)                 1.1117         calculate D2E/DX2 analytically  !
 ! R15   R(8,19)                 1.111          calculate D2E/DX2 analytically  !
 ! R16   R(8,20)                 1.1102         calculate D2E/DX2 analytically  !
 ! R17   R(8,21)                 1.111          calculate D2E/DX2 analytically  !
 ! R18   R(9,10)                 1.4106         calculate D2E/DX2 analytically  !
 ! R19   R(9,22)                 1.0741         calculate D2E/DX2 analytically  !
 ! R20   R(10,11)                1.4178         calculate D2E/DX2 analytically  !
 ! R21   R(10,23)                1.5189         calculate D2E/DX2 analytically  !
 ! R22   R(11,12)                1.3959         calculate D2E/DX2 analytically  !
 ! R23   R(11,24)                1.7619         calculate D2E/DX2 analytically  !
 ! R24   R(12,13)                1.3924         calculate D2E/DX2 analytically  !
 ! R25   R(12,25)                1.0827         calculate D2E/DX2 analytically  !
 ! R26   R(13,26)                1.1938         calculate D2E/DX2 analytically  !
 ! R27   R(14,31)                2.5755         calculate D2E/DX2 analytically  !
 ! R28   R(23,27)                1.3835         calculate D2E/DX2 analytically  !
 ! R29   R(23,28)                1.3799         calculate D2E/DX2 analytically  !
 ! R30   R(23,29)                1.3835         calculate D2E/DX2 analytically  !
 ! R31   R(30,32)                1.3515         calculate D2E/DX2 analytically  !
 ! R32   R(31,32)                1.2267         calculate D2E/DX2 analytically  !
 ! R33   R(32,33)                1.5057         calculate D2E/DX2 analytically  !
 ! R34   R(33,34)                1.5282         calculate D2E/DX2 analytically  !
 ! R35   R(33,35)                1.111          calculate D2E/DX2 analytically  !
 ! R36   R(33,36)                1.111          calculate D2E/DX2 analytically  !
 ! R37   R(34,37)                1.1109         calculate D2E/DX2 analytically  !
 ! R38   R(34,38)                1.1105         calculate D2E/DX2 analytically  !
 ! R39   R(34,39)                1.1109         calculate D2E/DX2 analytically  !
 ! A1    A(2,1,9)              124.6732         calculate D2E/DX2 analytically  !
 ! A2    A(2,1,13)             117.4885         calculate D2E/DX2 analytically  !
 ! A3    A(9,1,13)             117.8383         calculate D2E/DX2 analytically  !
 ! A4    A(1,2,3)              127.9455         calculate D2E/DX2 analytically  !
 ! A5    A(1,2,14)             116.4748         calculate D2E/DX2 analytically  !
 ! A6    A(3,2,14)             115.5798         calculate D2E/DX2 analytically  !
 ! A7    A(2,3,4)              121.7856         calculate D2E/DX2 analytically  !
 ! A8    A(2,3,5)              118.6845         calculate D2E/DX2 analytically  !
 ! A9    A(4,3,5)              119.5299         calculate D2E/DX2 analytically  !
 ! A10   A(3,5,6)              123.8029         calculate D2E/DX2 analytically  !
 ! A11   A(5,6,7)              109.687          calculate D2E/DX2 analytically  !
 ! A12   A(5,6,15)             109.5113         calculate D2E/DX2 analytically  !
 ! A13   A(5,6,16)             109.4981         calculate D2E/DX2 analytically  !
 ! A14   A(7,6,15)             109.4711         calculate D2E/DX2 analytically  !
 ! A15   A(7,6,16)             109.4735         calculate D2E/DX2 analytically  !
 ! A16   A(15,6,16)            109.1851         calculate D2E/DX2 analytically  !
 ! A17   A(6,7,8)              111.1069         calculate D2E/DX2 analytically  !
 ! A18   A(6,7,17)             109.4186         calculate D2E/DX2 analytically  !
 ! A19   A(6,7,18)             109.4143         calculate D2E/DX2 analytically  !
 ! A20   A(8,7,17)             109.0645         calculate D2E/DX2 analytically  !
 ! A21   A(8,7,18)             109.07           calculate D2E/DX2 analytically  !
 ! A22   A(17,7,18)            108.7276         calculate D2E/DX2 analytically  !
 ! A23   A(7,8,19)             110.347          calculate D2E/DX2 analytically  !
 ! A24   A(7,8,20)             109.6466         calculate D2E/DX2 analytically  !
 ! A25   A(7,8,21)             110.3511         calculate D2E/DX2 analytically  !
 ! A26   A(19,8,20)            108.6652         calculate D2E/DX2 analytically  !
 ! A27   A(19,8,21)            109.1221         calculate D2E/DX2 analytically  !
 ! A28   A(20,8,21)            108.6682         calculate D2E/DX2 analytically  !
 ! A29   A(1,9,10)             121.6404         calculate D2E/DX2 analytically  !
 ! A30   A(1,9,22)             122.0512         calculate D2E/DX2 analytically  !
 ! A31   A(10,9,22)            116.3085         calculate D2E/DX2 analytically  !
 ! A32   A(9,10,11)            118.8026         calculate D2E/DX2 analytically  !
 ! A33   A(9,10,23)            116.8583         calculate D2E/DX2 analytically  !
 ! A34   A(11,10,23)           124.3391         calculate D2E/DX2 analytically  !
 ! A35   A(10,11,12)           119.6038         calculate D2E/DX2 analytically  !
 ! A36   A(10,11,24)           124.0248         calculate D2E/DX2 analytically  !
 ! A37   A(12,11,24)           116.3714         calculate D2E/DX2 analytically  !
 ! A38   A(11,12,13)           120.8333         calculate D2E/DX2 analytically  !
 ! A39   A(11,12,25)           120.1487         calculate D2E/DX2 analytically  !
 ! A40   A(13,12,25)           119.018          calculate D2E/DX2 analytically  !
 ! A41   A(1,13,12)            121.2817         calculate D2E/DX2 analytically  !
 ! A42   A(1,13,26)            120.1386         calculate D2E/DX2 analytically  !
 ! A43   A(12,13,26)           118.5797         calculate D2E/DX2 analytically  !
 ! A44   A(10,23,27)           109.1375         calculate D2E/DX2 analytically  !
 ! A45   A(10,23,28)           113.8299         calculate D2E/DX2 analytically  !
 ! A46   A(10,23,29)           109.1362         calculate D2E/DX2 analytically  !
 ! A47   A(27,23,28)           107.9423         calculate D2E/DX2 analytically  !
 ! A48   A(27,23,29)           108.739          calculate D2E/DX2 analytically  !
 ! A49   A(28,23,29)           107.9423         calculate D2E/DX2 analytically  !
 ! A50   A(14,31,32)           119.9179         calculate D2E/DX2 analytically  !
 ! A51   A(30,32,31)           120.0977         calculate D2E/DX2 analytically  !
 ! A52   A(30,32,33)           118.7485         calculate D2E/DX2 analytically  !
 ! A53   A(31,32,33)           121.1538         calculate D2E/DX2 analytically  !
 ! A54   A(32,33,34)           113.2664         calculate D2E/DX2 analytically  !
 ! A55   A(32,33,35)           108.6297         calculate D2E/DX2 analytically  !
 ! A56   A(32,33,36)           108.6292         calculate D2E/DX2 analytically  !
 ! A57   A(34,33,35)           108.8034         calculate D2E/DX2 analytically  !
 ! A58   A(34,33,36)           108.7991         calculate D2E/DX2 analytically  !
 ! A59   A(35,33,36)           108.6201         calculate D2E/DX2 analytically  !
 ! A60   A(33,34,37)           110.3304         calculate D2E/DX2 analytically  !
 ! A61   A(33,34,38)           109.5125         calculate D2E/DX2 analytically  !
 ! A62   A(33,34,39)           110.3278         calculate D2E/DX2 analytically  !
 ! A63   A(37,34,38)           108.6342         calculate D2E/DX2 analytically  !
 ! A64   A(37,34,39)           109.3621         calculate D2E/DX2 analytically  !
 ! A65   A(38,34,39)           108.6338         calculate D2E/DX2 analytically  !
 ! A66   L(2,14,31,5,-1)       172.9538         calculate D2E/DX2 analytically  !
 ! A67   L(2,14,31,5,-2)       179.9429         calculate D2E/DX2 analytically  !
 ! D1    D(9,1,2,3)            173.9987         calculate D2E/DX2 analytically  !
 ! D2    D(9,1,2,14)            -5.9618         calculate D2E/DX2 analytically  !
 ! D3    D(13,1,2,3)            -5.9927         calculate D2E/DX2 analytically  !
 ! D4    D(13,1,2,14)          174.0469         calculate D2E/DX2 analytically  !
 ! D5    D(2,1,9,10)          -179.9987         calculate D2E/DX2 analytically  !
 ! D6    D(2,1,9,22)            -0.0185         calculate D2E/DX2 analytically  !
 ! D7    D(13,1,9,10)           -0.0073         calculate D2E/DX2 analytically  !
 ! D8    D(13,1,9,22)          179.9729         calculate D2E/DX2 analytically  !
 ! D9    D(2,1,13,12)         -179.9948         calculate D2E/DX2 analytically  !
 ! D10   D(2,1,13,26)           -0.0063         calculate D2E/DX2 analytically  !
 ! D11   D(9,1,13,12)            0.0133         calculate D2E/DX2 analytically  !
 ! D12   D(9,1,13,26)         -179.9983         calculate D2E/DX2 analytically  !
 ! D13   D(1,2,3,4)             -0.0285         calculate D2E/DX2 analytically  !
 ! D14   D(1,2,3,5)           -179.9921         calculate D2E/DX2 analytically  !
 ! D15   D(14,2,3,4)           179.9323         calculate D2E/DX2 analytically  !
 ! D16   D(14,2,3,5)            -0.0313         calculate D2E/DX2 analytically  !
 ! D17   D(1,2,31,32)            0.1918         calculate D2E/DX2 analytically  !
 ! D18   D(3,2,31,32)         -179.811          calculate D2E/DX2 analytically  !
 ! D19   D(2,3,5,6)            179.8825         calculate D2E/DX2 analytically  !
 ! D20   D(4,3,5,6)             -0.082          calculate D2E/DX2 analytically  !
 ! D21   D(3,5,6,7)            179.973          calculate D2E/DX2 analytically  !
 ! D22   D(3,5,6,15)            59.8158         calculate D2E/DX2 analytically  !
 ! D23   D(3,5,6,16)           -59.8749         calculate D2E/DX2 analytically  !
 ! D24   D(5,6,7,8)            179.9684         calculate D2E/DX2 analytically  !
 ! D25   D(5,6,7,17)            59.4833         calculate D2E/DX2 analytically  !
 ! D26   D(5,6,7,18)           -59.5424         calculate D2E/DX2 analytically  !
 ! D27   D(15,6,7,8)           -59.8499         calculate D2E/DX2 analytically  !
 ! D28   D(15,6,7,17)          179.665          calculate D2E/DX2 analytically  !
 ! D29   D(15,6,7,18)           60.6393         calculate D2E/DX2 analytically  !
 ! D30   D(16,6,7,8)            59.8014         calculate D2E/DX2 analytically  !
 ! D31   D(16,6,7,17)          -60.6838         calculate D2E/DX2 analytically  !
 ! D32   D(16,6,7,18)         -179.7094         calculate D2E/DX2 analytically  !
 ! D33   D(6,7,8,19)           -60.3484         calculate D2E/DX2 analytically  !
 ! D34   D(6,7,8,20)           179.9933         calculate D2E/DX2 analytically  !
 ! D35   D(6,7,8,21)            60.3287         calculate D2E/DX2 analytically  !
 ! D36   D(17,7,8,19)           60.3459         calculate D2E/DX2 analytically  !
 ! D37   D(17,7,8,20)          -59.3124         calculate D2E/DX2 analytically  !
 ! D38   D(17,7,8,21)         -178.9771         calculate D2E/DX2 analytically  !
 ! D39   D(18,7,8,19)          178.9592         calculate D2E/DX2 analytically  !
 ! D40   D(18,7,8,20)           59.3008         calculate D2E/DX2 analytically  !
 ! D41   D(18,7,8,21)          -60.3638         calculate D2E/DX2 analytically  !
 ! D42   D(1,9,10,11)           -0.0039         calculate D2E/DX2 analytically  !
 ! D43   D(1,9,10,23)          179.9936         calculate D2E/DX2 analytically  !
 ! D44   D(22,9,10,11)        -179.9851         calculate D2E/DX2 analytically  !
 ! D45   D(22,9,10,23)           0.0123         calculate D2E/DX2 analytically  !
 ! D46   D(9,10,11,12)           0.0094         calculate D2E/DX2 analytically  !
 ! D47   D(9,10,11,24)        -179.9957         calculate D2E/DX2 analytically  !
 ! D48   D(23,10,11,12)       -179.9878         calculate D2E/DX2 analytically  !
 ! D49   D(23,10,11,24)          0.0071         calculate D2E/DX2 analytically  !
 ! D50   D(9,10,23,27)          59.3503         calculate D2E/DX2 analytically  !
 ! D51   D(9,10,23,28)         179.9966         calculate D2E/DX2 analytically  !
 ! D52   D(9,10,23,29)         -59.358          calculate D2E/DX2 analytically  !
 ! D53   D(11,10,23,27)       -120.6524         calculate D2E/DX2 analytically  !
 ! D54   D(11,10,23,28)         -0.0061         calculate D2E/DX2 analytically  !
 ! D55   D(11,10,23,29)        120.6393         calculate D2E/DX2 analytically  !
 ! D56   D(10,11,12,13)         -0.0037         calculate D2E/DX2 analytically  !
 ! D57   D(10,11,12,25)        179.9971         calculate D2E/DX2 analytically  !
 ! D58   D(24,11,12,13)       -179.999          calculate D2E/DX2 analytically  !
 ! D59   D(24,11,12,25)          0.0018         calculate D2E/DX2 analytically  !
 ! D60   D(11,12,13,1)          -0.008          calculate D2E/DX2 analytically  !
 ! D61   D(11,12,13,26)       -179.9966         calculate D2E/DX2 analytically  !
 ! D62   D(25,12,13,1)         179.9913         calculate D2E/DX2 analytically  !
 ! D63   D(25,12,13,26)          0.0027         calculate D2E/DX2 analytically  !
 ! D64   D(14,31,32,30)          0.0103         calculate D2E/DX2 analytically  !
 ! D65   D(14,31,32,33)       -179.9885         calculate D2E/DX2 analytically  !
 ! D66   D(30,32,33,34)       -179.9846         calculate D2E/DX2 analytically  !
 ! D67   D(30,32,33,35)         59.0044         calculate D2E/DX2 analytically  !
 ! D68   D(30,32,33,36)        -58.9793         calculate D2E/DX2 analytically  !
 ! D69   D(31,32,33,34)          0.0142         calculate D2E/DX2 analytically  !
 ! D70   D(31,32,33,35)       -120.9969         calculate D2E/DX2 analytically  !
 ! D71   D(31,32,33,36)        121.0195         calculate D2E/DX2 analytically  !
 ! D72   D(32,33,34,37)        -60.4739         calculate D2E/DX2 analytically  !
 ! D73   D(32,33,34,38)       -179.9994         calculate D2E/DX2 analytically  !
 ! D74   D(32,33,34,39)         60.4772         calculate D2E/DX2 analytically  !
 ! D75   D(35,33,34,37)         60.4391         calculate D2E/DX2 analytically  !
 ! D76   D(35,33,34,38)        -59.0864         calculate D2E/DX2 analytically  !
 ! D77   D(35,33,34,39)       -178.6098         calculate D2E/DX2 analytically  !
 ! D78   D(36,33,34,37)        178.6168         calculate D2E/DX2 analytically  !
 ! D79   D(36,33,34,38)         59.0912         calculate D2E/DX2 analytically  !
 ! D80   D(36,33,34,39)        -60.4322         calculate D2E/DX2 analytically  !
 --------------------------------------------------------------------------------
 Trust Radius=3.00D-01 FncErr=1.00D-07 GrdErr=1.00D-06 EigMax=2.50D+02 EigMin=1.00D-04
 Number of steps in this run=    196 maximum allowed number of steps=    234.
 GradGradGradGradGradGradGradGradGradGradGradGradGradGradGradGradGradGrad

                          Input orientation:                          
 ---------------------------------------------------------------------
 Center     Atomic      Atomic             Coordinates (Angstroms)
 Number     Number       Type             X           Y           Z
 ---------------------------------------------------------------------
      1          6           0       -6.287390    1.369860   -0.050850
      2          7           0       -4.949700    0.835430   -0.037470
      3          6           0       -3.769930    1.524200   -0.032730
      4          8           0       -3.737740    2.744650   -0.040430
      5          8           0       -2.606060    0.823800   -0.019820
      6          6           0       -1.356010    1.410910   -0.016300
      7          6           0       -0.279080    0.328120   -0.000320
      8          6           0        1.118190    0.942580    0.003170
      9          6           0       -7.463300    0.593090   -0.176690
     10          6           0       -8.743880    1.184660   -0.182210
     11          6           0       -8.846140    2.593260   -0.058010
     12          6           0       -7.686640    3.360560    0.066080
     13          6           0       -6.430420    2.760010    0.069520
     14          1           0       -4.855940   -0.306130   -0.030520
     15          1           0       -1.249610    2.053250    0.886170
     16          1           0       -1.237760    2.038330   -0.927750
     17          1           0       -0.389940   -0.316720   -0.899080
     18          1           0       -0.401350   -0.301290    0.907850
     19          1           0        1.270040    1.562100   -0.906520
     20          1           0        1.880760    0.135740    0.014950
     21          1           0        1.258670    1.577860    0.903770
     22          1           0       -7.432460   -0.476160   -0.273400
     23          6           0       -9.931660    0.248490   -0.323340
     24         17           0      -10.372160    3.473930   -0.048390
     25          1           0       -7.754470    4.436960    0.161420
     26          1           0       -5.465610    3.454690    0.177980
     27          9           0       -9.924330   -0.654680    0.724620
     28          9           0      -11.152220    0.892210   -0.321210
     29          9           0       -9.820090   -0.449630   -1.512530
     30          8           0       -6.531820   -3.220130   -0.032430
     31          8           0       -4.331860   -2.827680   -0.010310
     32          6           0       -5.248300   -3.643130   -0.015700
     33          6           0       -4.973780   -5.123550   -0.003940
     34          6           0       -3.483400   -5.461000    0.014960
     35          1           0       -5.432090   -5.576690   -0.908870
     36          1           0       -5.452500   -5.566130    0.895630
     37          1           0       -2.983290   -5.050810   -0.888280
     38          1           0       -3.352850   -6.563770    0.022870
     39          1           0       -3.003940   -5.040260    0.924520
 ---------------------------------------------------------------------
                    Distance matrix (angstroms):
                    1          2          3          4          5
     1  C    0.000000
     2  N    1.440559   0.000000
     3  C    2.522252   1.366120   0.000000
     4  O    2.896700   2.261410   1.220899   0.000000
     5  O    3.721738   2.343735   1.358426   2.229527   0.000000
     6  C    4.931672   3.639538   2.416633   2.729850   1.381063
     7  C    6.098161   4.698237   3.690216   4.219426   2.379268
     8  C    7.418093   6.068972   4.922732   5.179712   3.726215
     9  C    1.414910   2.529090   3.811650   4.304367   4.865246
    10  C    2.466961   3.812966   4.987766   5.245485   6.150563
    11  C    2.836188   4.274650   5.187623   5.110673   6.486220
    12  C    2.436075   3.725298   4.326962   3.998062   5.679333
    13  C    1.402663   2.430635   2.935283   2.694968   4.287496
    14  H    2.204179   1.145425   2.128269   3.249266   2.517701
    15  H    5.169551   4.003356   2.734279   2.743613   2.042626
    16  H    5.168614   4.002258   2.734461   2.745200   2.042465
    17  H    6.192250   4.781342   3.945109   4.617037   2.642929
    18  H    6.193328   4.782599   3.945179   4.616111   2.643321
    19  H    7.608145   6.322062   5.115295   5.217892   4.044190
    20  H    8.261117   6.866404   5.818968   6.194919   4.539404
    21  H    7.609046   6.323053   5.115343   5.216994   4.044473
    22  H    2.183690   2.817806   4.180130   4.907020   5.004831
    23  C    3.822620   5.024554   6.299112   6.683973   7.354422
    24  Cl   4.594830   6.030330   6.884122   6.674387   8.205871
    25  H    3.406536   4.569170   4.939476   4.363345   6.292368
    26  H    2.252599   2.678265   2.578085   1.880796   3.890724
    27  F    4.234082   5.248633   6.572498   7.100327   7.503144
    28  F    4.895694   6.209266   7.414906   7.647541   8.551746
    29  F    4.234031   5.248607   6.533778   7.026058   7.476098
    30  O    4.596531   4.353240   5.489691   6.586771   5.636055
    31  O    4.630884   3.714948   4.388066   5.603994   4.038785
    32  C    5.119669   4.488556   5.374678   6.564003   5.189886
    33  C    6.625115   5.959123   6.755935   7.964779   6.401353
    34  C    7.384263   6.465123   6.991237   8.209778   6.345837
    35  H    7.051404   6.489015   7.345273   8.536376   7.052881
    36  H    7.049881   6.488717   7.346133   8.537311   7.054890
    37  H    7.269344   6.264062   6.676940   7.877642   5.950426
    38  H    8.459282   7.569791   8.098908   9.316589   7.425342
    39  H    7.267877   6.263796   6.677964   7.878732   5.952922
                    6          7          8          9         10
     6  C    0.000000
     7  C    1.527242   0.000000
     8  C    2.518209   1.526413   0.000000
     9  C    6.163890   7.191268   8.590487   0.000000
    10  C    7.393195   8.509970   9.866782   1.410628   0.000000
    11  C    7.582990   8.861642  10.100315   2.434545   1.417758
    12  C    6.624560   8.004502   9.131025   2.787061   2.431860
    13  C    5.251388   6.614979   7.764597   2.413090   2.810194
    14  H    3.898453   4.620696   6.103330   2.761936   4.166718
    15  H    1.112822   2.168840   2.760390   6.470833   7.619709
    16  H    1.112825   2.168873   2.760033   6.435072   7.591207
    17  H    2.167325   1.111701   2.162024   7.168126   8.518002
    18  H    2.167270   1.111701   2.162096   7.200506   8.543658
    19  H    2.776957   2.177999   1.111035   8.817191  10.047173
    20  H    3.479039   2.168445   1.110244   9.357209  10.678112
    21  H    2.776860   2.178050   1.111034   8.843638  10.069010
    22  H    6.367918   7.203630   8.671962   1.074057   2.118127
    23  C    8.659519   9.658312  11.076441   2.496609   1.518932
    24  Cl   9.249218  10.572071  11.765991   4.095994   2.812465
    25  H    7.080173   8.531716   9.537286   3.869682   3.416792
    26  H    4.593865   6.058657   7.048949   3.507893   4.003727
    27  F    8.844870   9.722257  11.180741   2.902750   2.366215
    28  F    9.814670  10.892490  12.274800   3.703848   2.430010
    29  F    8.794371   9.691365  11.130210   2.902790   2.366196
    30  O    6.945200   7.189427   8.709310   3.927991   4.931310
    31  O    5.178935   5.136555   6.627072   4.640611   5.966099
    32  C    6.379125   6.361149   7.846100   4.783064   5.962748
    33  C    7.469108   7.194507   8.597097   6.237590   7.351119
    34  C    7.193741   6.616782   7.885468   7.247644   8.477990
    35  H    8.138652   7.889598   9.286488   6.536672   7.563851
    36  H    8.141986   7.893617   9.291596   6.567281   7.587364
    37  H    6.720284   6.085566   7.316935   7.240888   8.518452
    38  H    8.220975   7.546307   8.737041   8.255681   9.441580
    39  H    6.724464   6.090952   7.323607   7.268644   8.539402
                   11         12         13         14         15
    11  C    0.000000
    12  C    1.395918   0.000000
    13  C    2.424824   1.392394   0.000000
    14  H    4.932435   4.633229   3.448218   0.000000
    15  H    7.674005   6.619438   5.292185   4.405974   0.000000
    16  H    7.678010   6.657630   5.336580   4.403719   1.814020
    17  H    8.982355   8.227743   6.847763   4.549688   3.089160
    18  H    8.979186   8.197144   6.813519   4.552355   2.502773
    19  H   10.203938   9.187085   7.853962   6.464154   3.131070
    20  H   11.005049  10.096396   8.715818   6.751329   3.772941
    21  H   10.201139   9.159602   7.824037   6.466125   2.552993
    22  H    3.386181   3.860087   3.405066   2.593522   6.780129
    23  C    2.597441   3.857038   4.326749   5.114321   8.949752
    24  Cl   1.761933   2.690348   4.007605   6.687141   9.279690
    25  H    2.153862   1.082741   2.138625   5.561944   6.965669
    26  H    3.496532   2.225838   1.193818   3.815617   4.498914
    27  F    3.510572   4.643607   4.929165   5.136176   9.088991
    28  F    2.877647   4.272352   5.092813   6.415891  10.043280
    29  F    3.510468   4.643400   4.928949   5.182637   9.245069
    30  O    6.257175   6.681975   5.981868   3.361543   7.520246
    31  O    7.054615   7.039510   5.969305   2.575516   5.841868
    32  C    7.199917   7.416459   6.511902   3.360020   7.017951
    33  C    8.634075   8.907561   8.017338   4.818934   8.134384
    34  C    9.676539   9.771886   8.733436   5.334662   7.887508
    35  H    8.895380   9.268655   8.453075   5.374221   8.884328
    36  H    8.888299   9.239336   8.423977   5.374127   8.701685
    37  H    9.669238   9.684186   8.591216   5.172481   7.524758
    38  H   10.678669  10.829401   9.818681   6.435852   8.911899
    39  H    9.662675   9.656002   8.562476   5.172426   7.307327
                   16         17         18         19         20
    16  H    0.000000
    17  H    2.503174   0.000000
    18  H    3.089147   1.807032   0.000000
    19  H    2.552706   2.507101   3.091554   0.000000
    20  H    3.772757   2.489227   2.489235   1.804602   0.000000
    21  H    3.130281   3.091539   2.507367   1.810394   1.804635
    22  H    6.717525   7.072057   7.131791   8.960405   9.337753
    23  C    8.896782   9.575769   9.625222  11.293527  11.817801
    24  Cl   9.288244  10.711555  10.704379  11.829298  12.699668
    25  H    7.029027   8.829407   8.779325   9.531374  10.552706
    26  H    4.593847   6.414516   6.347190   7.080044   8.062950
    27  F    9.243329   9.677562   9.531296  11.527734  11.852786
    28  F    9.998900  10.845373  10.886516  12.454071  13.059243
    29  F    8.954792   9.451017   9.725889  11.287395  11.814641
    30  O    7.515322   6.848618   6.854664   9.192539   9.057351
    31  O    5.838939   4.757475   4.761783   7.173189   6.883251
    32  C    7.013933   5.953908   5.959343   8.389084   8.068723
    33  C    8.130424   6.702125   6.707657   9.192271   8.639746
    34  C    7.884894   6.071950   6.076092   8.530431   7.752271
    35  H    8.693750   7.286334   7.512567   9.791878   9.325399
    36  H    8.883499   7.510446   7.296082   9.962527   9.330789
    37  H    7.300982   5.397887   5.696529   7.862679   7.167643
    38  H    8.909176   6.975275   6.979484   9.394926   8.501422
    39  H    7.527067   5.698275   5.406625   8.075319   7.174858
                   21         22         23         24         25
    21  H    0.000000
    22  H    9.007800   0.000000
    23  C   11.335630   2.602616   0.000000
    24  Cl  11.822770   4.929064   3.266971   0.000000
    25  H    9.484842   4.942824   4.745359   2.797096   0.000000
    26  H    7.018918   4.418577   5.520565   4.911807   2.490785
    27  F   11.405079   2.690229   1.383470   4.224159   5.563298
    28  F   12.490031   3.963753   1.379908   2.710757   4.933851
    29  F   11.519034   2.690153   1.383471   4.224075   5.563062
    30  O    9.197223   2.898032   4.865682   7.717442   7.756512
    31  O    7.176235   3.900331   6.396762   8.729087   8.032356
    32  C    8.393141   3.855731   6.096984   8.769695   8.461685
    33  C    9.196536   5.264594   7.317199  10.151904   9.958059
    34  C    8.533625   6.366071   8.619326  11.282376  10.781146
    35  H    9.961903   5.515497   7.383881  10.346905  10.334997
    36  H    9.801860   5.585219   7.440334  10.335227  10.290770
    37  H    8.071241   6.410976   8.756802  11.312471  10.671636
    38  H    9.398311   7.334166   9.476681  12.248723  11.849452
    39  H    7.872089   6.471307   8.804620  11.301710  10.628620
                   26         27         28         29         30
    26  H    0.000000
    27  F    6.088179   0.000000
    28  F    6.257238   2.234803   0.000000
    29  F    6.087942   2.248945   2.234804   0.000000
    30  O    6.762714   4.320160   6.192159   4.547426   0.000000
    31  O    6.386628   6.044648   7.775060   6.167046   2.234800
    32  C    7.103787   5.598586   7.451102   5.774098   1.351530
    33  C    8.594253   6.708915   8.629203   6.899862   2.459941
    34  C    9.134838   8.067832   9.964291   8.221964   3.783729
    35  H    9.096603   6.861100   8.655166   6.775374   2.744254
    36  H    9.049331   6.644460   8.699291   7.145184   2.744074
    37  H    8.924256   8.372899  10.117928   8.264525   4.083618
    38  H   10.239988   8.865334  10.795379   9.031354   4.613983
    39  H    8.875884   8.195430  10.155812   8.571639   4.083450
                   31         32         33         34         35
    31  O    0.000000
    32  C    1.226723   0.000000
    33  C    2.383930   1.505703   0.000000
    34  C    2.766748   2.533863   1.528222   0.000000
    35  H    3.094345   2.137799   1.110983   2.159685   0.000000
    36  H    3.094458   2.137791   1.110980   2.159627   1.804646
    37  H    2.744409   2.805928   2.179312   1.110949   2.504715
    38  H    3.862374   3.482005   2.168494   1.110499   2.483084
    39  H    2.744593   2.805911   2.179276   1.110947   3.089496
                   36         37         38         39
    36  H    0.000000
    37  H    3.089480   0.000000
    38  H    2.483048   1.804388   0.000000
    39  H    2.504560   1.812948   1.804382   0.000000
 Stoichiometry    C14H16ClF3NO4(1-)
 Framework group  C1[X(C14H16ClF3NO4)]
 Deg. of freedom   111
 Full point group                 C1      NOp   1
 Largest Abelian subgroup         C1      NOp   1
 Largest concise Abelian subgroup C1      NOp   1
                         Standard orientation:                         
 ---------------------------------------------------------------------
 Center     Atomic      Atomic             Coordinates (Angstroms)
 Number     Number       Type             X           Y           Z
 ---------------------------------------------------------------------
      1          6           0       -0.557504   -1.018972   -0.034272
      2          7           0        0.880077   -0.928026   -0.016969
      3          6           0        1.786143   -1.949980    0.013646
      4          8           0        1.436094   -3.119494    0.030903
      5          8           0        3.110339   -1.647194    0.025749
      6          6           0        4.114828   -2.594429    0.058669
      7          6           0        5.475711   -1.901284    0.062726
      8          6           0        6.611519   -2.920358    0.099669
      9          6           0       -1.435168    0.087189    0.055639
     10          6           0       -2.836137   -0.075952    0.032361
     11          6           0       -3.369616   -1.384315   -0.084357
     12          6           0       -2.504626   -2.476341   -0.173010
     13          6           0       -1.124044   -2.297049   -0.148345
     14          1           0        1.325158    0.127313   -0.029663
     15          1           0        4.035764   -3.251270   -0.836139
     16          1           0        4.011262   -3.213877    0.977330
     17          1           0        5.551401   -1.240734    0.953693
     18          1           0        5.576006   -1.278644   -0.852774
     19          1           0        6.542372   -3.542792    1.017380
     20          1           0        7.587673   -2.391432    0.101790
     21          1           0        6.566987   -3.581078   -0.792442
     22          1           0       -1.074706    1.094958    0.145463
     23          6           0       -3.675727    1.185586    0.136111
     24         17           0       -5.093515   -1.745921   -0.127033
     25          1           0       -2.902485   -3.479362   -0.262367
     26          1           0       -0.421702   -3.259206   -0.226914
     27          9           0       -3.363870    2.025898   -0.917744
     28          9           0       -5.035769    0.954088    0.107106
     29          9           0       -3.378611    1.831790    1.322759
     30          8           0        0.641575    3.418031   -0.091818
     31          8           0        2.609489    2.359614   -0.054384
     32          6           0        1.993038    3.419924   -0.078464
     33          6           0        2.715566    4.740857   -0.093728
     34          6           0        4.236905    4.597005   -0.076596
     35          1           0        2.401312    5.327575    0.795817
     36          1           0        2.418833    5.297131   -1.008487
     37          1           0        4.563972    4.064899    0.842153
     38          1           0        4.704863    5.604015   -0.089023
     39          1           0        4.581452    4.034416   -0.970455
 ---------------------------------------------------------------------
 Rotational constants (GHZ):           0.2362393           0.1123277           0.0775349
 Standard basis: 6-311+G(d) (5D, 7F)
 There are   585 symmetry adapted cartesian basis functions of A   symmetry.
 There are   562 symmetry adapted basis functions of A   symmetry.
   562 basis functions,   925 primitive gaussians,   585 cartesian basis functions
    92 alpha electrons       92 beta electrons
       nuclear repulsion energy      2034.4274962290 Hartrees.
 NAtoms=   39 NActive=   39 NUniq=   39 SFac= 1.00D+00 NAtFMM=   60 NAOKFM=F Big=F
 Integral buffers will be    131072 words long.
 Raffenetti 2 integral format.
 Two-electron integral symmetry is turned on.
 Nuclear repulsion after empirical dispersion term =     2034.4254231714 Hartrees.
 One-electron integrals computed using PRISM.
 NBasis=   562 RedAO= T EigKep=  2.39D-06  NBF=   562
 NBsUse=   559 1.00D-06 EigRej=  9.65D-07 NBFU=   559
 ExpMin= 4.38D-02 ExpMax= 1.06D+05 ExpMxC= 3.62D+03 IAcc=3 IRadAn=         5 AccDes= 0.00D+00
 Harris functional with IExCor= 1009 and IRadAn=       5 diagonalized for initial guess.
 HarFok:  IExCor= 1009 AccDes= 0.00D+00 IRadAn=         5 IDoV= 1 UseB2=F ITyADJ=14
 ICtDFT=  3500011 ScaDFX=  1.000000  1.000000  1.000000  1.000000
 FoFCou: FMM=F IPFlag=           0 FMFlag=      100000 FMFlg1=           0
         NFxFlg=           0 DoJE=T BraDBF=F KetDBF=T FulRan=T
         wScrn=  0.000000 ICntrl=       500 IOpCl=  0 I1Cent=   200000004 NGrid=           0
         NMat0=    1 NMatS0=      1 NMatT0=    0 NMatD0=    1 NMtDS0=    0 NMtDT0=    0
 Petite list used in FoFCou.
 Requested convergence on RMS density matrix=1.00D-08 within 128 cycles.
 Requested convergence on MAX density matrix=1.00D-06.
 Requested convergence on             energy=1.00D-06.
 No special actions if energy rises.
 SCF Done:  E(RM062X) =  -1658.43843520     A.U. after   17 cycles
            NFock= 17  Conv=0.40D-08     -V/T= 2.0037
 DoSCS=F DFT=T ScalE2(SS,OS)=  1.000000  1.000000
 Range of M.O.s used for correlation:     1   559
 NBasis=   562 NAE=    92 NBE=    92 NFC=     0 NFV=     0
 NROrb=    559 NOA=    92 NOB=    92 NVA=   467 NVB=   467

 **** Warning!!: The largest alpha MO coefficient is  0.99063006D+02

 Symmetrizing basis deriv contribution to polar:
 IMax=3 JMax=2 DiffMx= 0.00D+00
 G2DrvN: will do    40 centers at a time, making    1 passes.
 Calling FoFCou, ICntrl=  3107 FMM=F I1Cent=   0 AccDes= 0.00D+00.
 End of G2Drv F.D. properties file   721 does not exist.
 End of G2Drv F.D. properties file   722 does not exist.
 End of G2Drv F.D. properties file   788 does not exist.
          IDoAtm=111111111111111111111111111111111111111
          Differentiating once with respect to nuclear coordinates.
 CalDSu exits because no D1Ps are significant.
          There are   120 degrees of freedom in the 1st order CPHF.  IDoFFX=6 NUNeed=     0.
    114 vectors produced by pass  0 Test12= 4.30D-14 1.00D-09 XBig12= 3.30D-01 1.76D-01.
 AX will form    64 AO Fock derivatives at one time.
    114 vectors produced by pass  1 Test12= 4.30D-14 1.00D-09 XBig12= 2.74D-02 5.10D-02.
    114 vectors produced by pass  2 Test12= 4.30D-14 1.00D-09 XBig12= 1.04D-03 3.95D-03.
    114 vectors produced by pass  3 Test12= 4.30D-14 1.00D-09 XBig12= 9.02D-06 3.27D-04.
    114 vectors produced by pass  4 Test12= 4.30D-14 1.00D-09 XBig12= 6.09D-08 2.81D-05.
    114 vectors produced by pass  5 Test12= 4.30D-14 1.00D-09 XBig12= 3.62D-10 1.60D-06.
    100 vectors produced by pass  6 Test12= 4.30D-14 1.00D-09 XBig12= 1.71D-12 1.22D-07.
     35 vectors produced by pass  7 Test12= 4.30D-14 1.00D-09 XBig12= 6.65D-15 7.30D-09.
 InvSVY:  IOpt=1 It=  1 EMax= 7.77D-16
 Solved reduced A of dimension   819 with   120 vectors.
 End of Minotr F.D. properties file   721 does not exist.
 End of Minotr F.D. properties file   722 does not exist.
 End of Minotr F.D. properties file   788 does not exist.

 **********************************************************************

            Population analysis using the SCF Density.

 **********************************************************************

 Orbital symmetries:
       Occupied  (A) (A) (A) (A) (A) (A) (A) (A) (A) (A) (A) (A)
                 (A) (A) (A) (A) (A) (A) (A) (A) (A) (A) (A) (A)
                 (A) (A) (A) (A) (A) (A) (A) (A) (A) (A) (A) (A)
                 (A) (A) (A) (A) (A) (A) (A) (A) (A) (A) (A) (A)
                 (A) (A) (A) (A) (A) (A) (A) (A) (A) (A) (A) (A)
                 (A) (A) (A) (A) (A) (A) (A) (A) (A) (A) (A) (A)
                 (A) (A) (A) (A) (A) (A) (A) (A) (A) (A) (A) (A)
                 (A) (A) (A) (A) (A) (A) (A) (A)
       Virtual   (A) (A) (A) (A) (A) (A) (A) (A) (A) (A) (A) (A)
                 (A) (A) (A) (A) (A) (A) (A) (A) (A) (A) (A) (A)
                 (A) (A) (A) (A) (A) (A) (A) (A) (A) (A) (A) (A)
                 (A) (A) (A) (A) (A) (A) (A) (A) (A) (A) (A) (A)
                 (A) (A) (A) (A) (A) (A) (A) (A) (A) (A) (A) (A)
                 (A) (A) (A) (A) (A) (A) (A) (A) (A) (A) (A) (A)
                 (A) (A) (A) (A) (A) (A) (A) (A) (A) (A) (A) (A)
                 (A) (A) (A) (A) (A) (A) (A) (A) (A) (A) (A) (A)
                 (A) (A) (A) (A) (A) (A) (A) (A) (A) (A) (A) (A)
                 (A) (A) (A) (A) (A) (A) (A) (A) (A) (A) (A) (A)
                 (A) (A) (A) (A) (A) (A) (A) (A) (A) (A) (A) (A)
                 (A) (A) (A) (A) (A) (A) (A) (A) (A) (A) (A) (A)
                 (A) (A) (A) (A) (A) (A) (A) (A) (A) (A) (A) (A)
                 (A) (A) (A) (A) (A) (A) (A) (A) (A) (A) (A) (A)
                 (A) (A) (A) (A) (A) (A) (A) (A) (A) (A) (A) (A)
                 (A) (A) (A) (A) (A) (A) (A) (A) (A) (A) (A) (A)
                 (A) (A) (A) (A) (A) (A) (A) (A) (A) (A) (A) (A)
                 (A) (A) (A) (A) (A) (A) (A) (A) (A) (A) (A) (A)
                 (A) (A) (A) (A) (A) (A) (A) (A) (A) (A) (A) (A)
                 (A) (A) (A) (A) (A) (A) (A) (A) (A) (A) (A) (A)
                 (A) (A) (A) (A) (A) (A) (A) (A) (A) (A) (A) (A)
                 (A) (A) (A) (A) (A) (A) (A) (A) (A) (A) (A) (A)
                 (A) (A) (A) (A) (A) (A) (A) (A) (A) (A) (A) (A)
                 (A) (A) (A) (A) (A) (A) (A) (A) (A) (A) (A) (A)
                 (A) (A) (A) (A) (A) (A) (A) (A) (A) (A) (A) (A)
                 (A) (A) (A) (A) (A) (A) (A) (A) (A) (A) (A) (A)
                 (A) (A) (A) (A) (A) (A) (A) (A) (A) (A) (A) (A)
                 (A) (A) (A) (A) (A) (A) (A) (A) (A) (A) (A) (A)
                 (A) (A) (A) (A) (A) (A) (A) (A) (A) (A) (A) (A)
                 (A) (A) (A) (A) (A) (A) (A) (A) (A) (A) (A) (A)
                 (A) (A) (A) (A) (A) (A) (A) (A) (A) (A) (A) (A)
                 (A) (A) (A) (A) (A) (A) (A) (A) (A) (A) (A) (A)
                 (A) (A) (A) (A) (A) (A) (A) (A) (A) (A) (A) (A)
                 (A) (A) (A) (A) (A) (A) (A) (A) (A) (A) (A) (A)
                 (A) (A) (A) (A) (A) (A) (A) (A) (A) (A) (A) (A)
                 (A) (A) (A) (A) (A) (A) (A) (A) (A) (A) (A) (A)
                 (A) (A) (A) (A) (A) (A) (A) (A) (A) (A) (A) (A)
                 (A) (A) (A) (A) (A) (A) (A) (A) (A) (A) (A) (A)
                 (A) (A) (A) (A) (A) (A) (A) (A) (A) (A) (A)
 The electronic state is 1-A.
 Alpha  occ. eigenvalues -- -102.60015 -25.19488 -25.18639 -25.18456 -19.58028
 Alpha  occ. eigenvalues --  -19.51334 -19.40710 -19.37542 -14.71221 -10.72825
 Alpha  occ. eigenvalues --  -10.62353 -10.54207 -10.53126 -10.52333 -10.50834
 Alpha  occ. eigenvalues --  -10.48369 -10.48144 -10.47631 -10.47220 -10.46928
 Alpha  occ. eigenvalues --  -10.46279 -10.40614 -10.40050  -9.74283  -7.46800
 Alpha  occ. eigenvalues --   -7.46124  -7.46099  -1.35626  -1.27935  -1.27296
 Alpha  occ. eigenvalues --   -1.15920  -1.06088  -0.98102  -0.95749  -0.91870
 Alpha  occ. eigenvalues --   -0.85835  -0.84540  -0.82270  -0.80602  -0.76262
 Alpha  occ. eigenvalues --   -0.72931  -0.72563  -0.70982  -0.63961  -0.63652
 Alpha  occ. eigenvalues --   -0.61399  -0.59071  -0.59038  -0.58640  -0.58539
 Alpha  occ. eigenvalues --   -0.56207  -0.53197  -0.50812  -0.49522  -0.48803
 Alpha  occ. eigenvalues --   -0.48363  -0.48052  -0.46118  -0.45407  -0.45201
 Alpha  occ. eigenvalues --   -0.44325  -0.43862  -0.43268  -0.43018  -0.42464
 Alpha  occ. eigenvalues --   -0.41918  -0.40791  -0.39427  -0.39166  -0.38764
 Alpha  occ. eigenvalues --   -0.37569  -0.36639  -0.36384  -0.36039  -0.34786
 Alpha  occ. eigenvalues --   -0.34316  -0.33046  -0.32982  -0.32041  -0.30337
 Alpha  occ. eigenvalues --   -0.29875  -0.29814  -0.28724  -0.28189  -0.27213
 Alpha  occ. eigenvalues --   -0.26128  -0.25876  -0.24260  -0.19635  -0.15487
 Alpha  occ. eigenvalues --   -0.13232  -0.12317
 Alpha virt. eigenvalues --    0.07633   0.07899   0.08550   0.08886   0.09845
 Alpha virt. eigenvalues --    0.10372   0.10536   0.10802   0.11749   0.12424
 Alpha virt. eigenvalues --    0.12995   0.13088   0.13592   0.13837   0.13970
 Alpha virt. eigenvalues --    0.14345   0.14583   0.15171   0.15700   0.15849
 Alpha virt. eigenvalues --    0.15988   0.16121   0.16679   0.17329   0.17489
 Alpha virt. eigenvalues --    0.17801   0.18313   0.18988   0.19351   0.19393
 Alpha virt. eigenvalues --    0.19593   0.20275   0.20664   0.20839   0.21346
 Alpha virt. eigenvalues --    0.21612   0.22031   0.22332   0.22907   0.23116
 Alpha virt. eigenvalues --    0.23538   0.23793   0.24155   0.24805   0.25230
 Alpha virt. eigenvalues --    0.25535   0.25614   0.26094   0.26323   0.26614
 Alpha virt. eigenvalues --    0.26777   0.27464   0.27730   0.27915   0.28280
 Alpha virt. eigenvalues --    0.28800   0.29233   0.29451   0.29625   0.29976
 Alpha virt. eigenvalues --    0.30569   0.30920   0.31089   0.31727   0.31924
 Alpha virt. eigenvalues --    0.32208   0.32335   0.32603   0.33050   0.33348
 Alpha virt. eigenvalues --    0.33511   0.33761   0.34563   0.34970   0.35094
 Alpha virt. eigenvalues --    0.35561   0.35944   0.36372   0.36659   0.37246
 Alpha virt. eigenvalues --    0.37408   0.37668   0.38243   0.38341   0.38551
 Alpha virt. eigenvalues --    0.38613   0.39607   0.39746   0.40124   0.40659
 Alpha virt. eigenvalues --    0.41151   0.41267   0.41785   0.42180   0.42775
 Alpha virt. eigenvalues --    0.42859   0.43302   0.44094   0.44818   0.45116
 Alpha virt. eigenvalues --    0.45401   0.45728   0.46074   0.46608   0.47083
 Alpha virt. eigenvalues --    0.47330   0.48204   0.48543   0.49154   0.49529
 Alpha virt. eigenvalues --    0.49989   0.50316   0.50467   0.50886   0.51532
 Alpha virt. eigenvalues --    0.52144   0.53171   0.54067   0.54244   0.54626
 Alpha virt. eigenvalues --    0.55147   0.55763   0.55929   0.56208   0.56608
 Alpha virt. eigenvalues --    0.56839   0.57545   0.58393   0.58755   0.59514
 Alpha virt. eigenvalues --    0.59930   0.61139   0.61302   0.62736   0.63002
 Alpha virt. eigenvalues --    0.63580   0.65267   0.65638   0.66693   0.66985
 Alpha virt. eigenvalues --    0.67194   0.67472   0.68035   0.68556   0.68883
 Alpha virt. eigenvalues --    0.70209   0.70300   0.71277   0.71719   0.72839
 Alpha virt. eigenvalues --    0.73742   0.73970   0.74335   0.74998   0.75505
 Alpha virt. eigenvalues --    0.77053   0.77084   0.77396   0.77729   0.78025
 Alpha virt. eigenvalues --    0.78518   0.78700   0.79882   0.80537   0.80623
 Alpha virt. eigenvalues --    0.82109   0.82137   0.82478   0.82995   0.83771
 Alpha virt. eigenvalues --    0.84018   0.84529   0.84761   0.85503   0.85725
 Alpha virt. eigenvalues --    0.85916   0.86925   0.87231   0.88936   0.89216
 Alpha virt. eigenvalues --    0.89735   0.90657   0.92448   0.94678   0.95718
 Alpha virt. eigenvalues --    0.97370   0.99154   0.99461   1.00531   1.01135
 Alpha virt. eigenvalues --    1.01290   1.02399   1.03112   1.03465   1.03662
 Alpha virt. eigenvalues --    1.04195   1.05219   1.06820   1.07898   1.09847
 Alpha virt. eigenvalues --    1.10351   1.10726   1.12501   1.12808   1.13740
 Alpha virt. eigenvalues --    1.15896   1.16667   1.16862   1.19756   1.20064
 Alpha virt. eigenvalues --    1.20534   1.21794   1.22348   1.22919   1.23637
 Alpha virt. eigenvalues --    1.26971   1.28944   1.29162   1.30777   1.31061
 Alpha virt. eigenvalues --    1.31621   1.33512   1.34310   1.34658   1.35653
 Alpha virt. eigenvalues --    1.36758   1.39558   1.40898   1.41929   1.42395
 Alpha virt. eigenvalues --    1.42777   1.42907   1.43091   1.46564   1.47368
 Alpha virt. eigenvalues --    1.48167   1.48965   1.50836   1.52843   1.53361
 Alpha virt. eigenvalues --    1.54383   1.55279   1.55527   1.56833   1.57544
 Alpha virt. eigenvalues --    1.58228   1.58526   1.59652   1.61212   1.62288
 Alpha virt. eigenvalues --    1.62742   1.63229   1.64307   1.66092   1.66482
 Alpha virt. eigenvalues --    1.67413   1.68108   1.68409   1.69248   1.69795
 Alpha virt. eigenvalues --    1.71642   1.72092   1.73602   1.74171   1.74829
 Alpha virt. eigenvalues --    1.75198   1.76032   1.78045   1.79305   1.80452
 Alpha virt. eigenvalues --    1.81700   1.81834   1.84963   1.85361   1.85739
 Alpha virt. eigenvalues --    1.86752   1.86896   1.88442   1.91001   1.91392
 Alpha virt. eigenvalues --    1.92348   1.93545   1.93737   1.95025   1.95442
 Alpha virt. eigenvalues --    1.96417   1.97075   1.99420   2.00673   2.00810
 Alpha virt. eigenvalues --    2.01882   2.02717   2.03927   2.07651   2.07975
 Alpha virt. eigenvalues --    2.09819   2.11501   2.12587   2.13922   2.14254
 Alpha virt. eigenvalues --    2.17876   2.19571   2.22244   2.26744   2.27867
 Alpha virt. eigenvalues --    2.28774   2.29919   2.30696   2.33450   2.37545
 Alpha virt. eigenvalues --    2.39016   2.43027   2.45020   2.45474   2.48079
 Alpha virt. eigenvalues --    2.50381   2.55227   2.56217   2.56577   2.58891
 Alpha virt. eigenvalues --    2.60920   2.61921   2.62405   2.64429   2.65413
 Alpha virt. eigenvalues --    2.66829   2.67282   2.68390   2.69277   2.70038
 Alpha virt. eigenvalues --    2.71806   2.73714   2.76385   2.78776   2.79259
 Alpha virt. eigenvalues --    2.83168   2.85385   2.87792   2.90000   2.90725
 Alpha virt. eigenvalues --    2.92785   2.93746   2.98559   3.02707   3.04717
 Alpha virt. eigenvalues --    3.05458   3.06139   3.07677   3.08338   3.11714
 Alpha virt. eigenvalues --    3.12261   3.12436   3.12976   3.15005   3.15663
 Alpha virt. eigenvalues --    3.16232   3.17044   3.18822   3.19659   3.20444
 Alpha virt. eigenvalues --    3.23684   3.23924   3.26631   3.26837   3.27479
 Alpha virt. eigenvalues --    3.29769   3.31325   3.34207   3.34789   3.36599
 Alpha virt. eigenvalues --    3.37751   3.38731   3.39743   3.40334   3.42094
 Alpha virt. eigenvalues --    3.44853   3.49544   3.50852   3.52049   3.52327
 Alpha virt. eigenvalues --    3.53091   3.55190   3.61178   3.61607   3.74230
 Alpha virt. eigenvalues --    3.76279   3.77460   3.80820   3.82023   3.87895
 Alpha virt. eigenvalues --    3.89476   3.90159   3.93567   3.94413   3.95359
 Alpha virt. eigenvalues --    3.95503   3.96034   3.98591   4.00751   4.03739
 Alpha virt. eigenvalues --    4.07663   4.08031   4.10222   4.10406   4.15602
 Alpha virt. eigenvalues --    4.16512   4.25046   4.25868   4.27719   4.30384
 Alpha virt. eigenvalues --    4.33759   4.34041   4.36959   4.54964   4.80207
 Alpha virt. eigenvalues --    4.88670   5.02513   5.04898   5.15044   5.19956
 Alpha virt. eigenvalues --    5.26166   5.34506   5.39221   5.47966   5.49959
 Alpha virt. eigenvalues --    5.54392   5.55437   5.83850   5.90151   6.09597
 Alpha virt. eigenvalues --    6.14119   6.53664   6.58128   6.59725   6.60682
 Alpha virt. eigenvalues --    6.62770   6.69099   6.71116   6.90864   6.93780
 Alpha virt. eigenvalues --   10.06145  23.50941  23.64973  23.68611  23.73627
 Alpha virt. eigenvalues --   23.80589  23.87600  23.93274  23.97644  23.99118
 Alpha virt. eigenvalues --   24.00622  24.09040  24.11657  24.15538  24.24585
 Alpha virt. eigenvalues --   26.02386  26.36815  26.83451  35.73914  50.11498
 Alpha virt. eigenvalues --   50.22002  50.23183  50.31444  66.96875  66.99779
 Alpha virt. eigenvalues --   67.05701 216.16600
          Condensed to atoms (all electrons):
               1          2          3          4          5          6
     1  C   21.440952  -0.334313  -1.077990  -0.205012  -0.201913  -0.654438
     2  N   -0.334313   7.644022   0.233050  -0.008687  -0.252018  -0.375934
     3  C   -1.077990   0.233050   9.077527   0.468517   0.290733  -0.681069
     4  O   -0.205012  -0.008687   0.468517   8.154228  -0.206249  -0.212997
     5  O   -0.201913  -0.252018   0.290733  -0.206249   8.407666   0.369060
     6  C   -0.654438  -0.375934  -0.681069  -0.212997   0.369060   8.347844
     7  C    0.002986   0.055465   0.244221   0.035877  -0.182597  -0.960595
     8  C   -0.012034  -0.009836  -0.240197   0.000223   0.026466   0.344905
     9  C    0.255691   0.075114   1.030807  -0.063055  -0.035070   0.200787
    10  C   -4.818104  -0.020805   0.059198  -0.040714   0.007357  -0.006132
    11  C   -0.339473   0.042481  -0.911014  -0.002223  -0.017021  -0.058949
    12  C   -3.638661   0.213517  -1.308628   0.127991  -0.020664  -0.162594
    13  C   -1.821181   0.080689  -1.230432   0.298519  -0.061554  -0.540904
    14  H   -0.075188   0.159387   0.020636  -0.000527   0.027158   0.003322
    15  H    0.000169   0.006591   0.041099   0.000128  -0.052667   0.359973
    16  H    0.017378   0.001318   0.040857   0.000115  -0.048625   0.362301
    17  H   -0.000906  -0.000728   0.005657  -0.000279   0.001013  -0.060351
    18  H    0.000329  -0.001243   0.002257  -0.000278   0.001168  -0.053298
    19  H   -0.000052  -0.000068  -0.002244  -0.000077  -0.000451  -0.041560
    20  H    0.000098   0.000031   0.006705   0.000025  -0.000952   0.086135
    21  H   -0.000207  -0.000016  -0.001287  -0.000052  -0.000406  -0.043812
    22  H   -0.090430  -0.008096   0.002336  -0.000015  -0.000242  -0.000069
    23  C   -2.557374  -0.001684  -0.068561  -0.003786   0.002061  -0.001782
    24  Cl  -0.051966   0.001336  -0.036769  -0.000336   0.000018  -0.001057
    25  H    0.009361  -0.002372   0.003459   0.000329   0.000044   0.000087
    26  H    0.023126  -0.021763   0.129766  -0.013776   0.003316   0.015269
    27  F   -0.010279   0.000434  -0.001074  -0.000006  -0.000004   0.000005
    28  F    0.047688   0.000505   0.000282   0.000001   0.000001  -0.000002
    29  F    0.042789   0.001209   0.001392  -0.000000  -0.000001   0.000029
    30  O   -0.004696  -0.013453   0.003613  -0.000034   0.000183  -0.000817
    31  O    0.061270  -0.004898  -0.010813   0.000225   0.002511  -0.010285
    32  C   -0.079982  -0.008813   0.020196  -0.000082  -0.001028   0.004062
    33  C    0.029733  -0.014683   0.012312   0.000129   0.000977   0.004211
    34  C    0.011388   0.003304  -0.004285  -0.000035  -0.000349  -0.001094
    35  H   -0.000650   0.000024   0.000073  -0.000000   0.000001  -0.000002
    36  H    0.000285  -0.000016  -0.000035  -0.000000   0.000000  -0.000015
    37  H    0.000066   0.000084  -0.000080   0.000000  -0.000007   0.000110
    38  H    0.000027  -0.000024   0.000018  -0.000000  -0.000000  -0.000022
    39  H   -0.000383   0.000115  -0.000024   0.000000  -0.000005   0.000148
               7          8          9         10         11         12
     1  C    0.002986  -0.012034   0.255691  -4.818104  -0.339473  -3.638661
     2  N    0.055465  -0.009836   0.075114  -0.020805   0.042481   0.213517
     3  C    0.244221  -0.240197   1.030807   0.059198  -0.911014  -1.308628
     4  O    0.035877   0.000223  -0.063055  -0.040714  -0.002223   0.127991
     5  O   -0.182597   0.026466  -0.035070   0.007357  -0.017021  -0.020664
     6  C   -0.960595   0.344905   0.200787  -0.006132  -0.058949  -0.162594
     7  C    6.511856  -0.310418   0.010260  -0.002044   0.002333   0.002654
     8  C   -0.310418   6.282729   0.002990  -0.000002  -0.000583  -0.003029
     9  C    0.010260   0.002990  11.576639  -2.718597   1.159676   0.939184
    10  C   -0.002044  -0.000002  -2.718597  23.565169  -1.677660  -6.989368
    11  C    0.002333  -0.000583   1.159676  -1.677660  13.719720   1.066419
    12  C    0.002654  -0.003029   0.939184  -6.989368   1.066419  18.200244
    13  C    0.018668  -0.019458  -3.188450   1.512572  -6.181760  -1.484777
    14  H   -0.000619  -0.000276  -0.011458   0.034556  -0.008831  -0.003505
    15  H   -0.016434  -0.023842   0.000612   0.000079   0.000134   0.000748
    16  H   -0.021350  -0.020112  -0.000207   0.000105  -0.000058  -0.001452
    17  H    0.461128  -0.074920   0.000029   0.000002   0.000007   0.000056
    18  H    0.453482  -0.070868  -0.000110   0.000002  -0.000000   0.000001
    19  H    0.017032   0.366773   0.000005  -0.000001   0.000000  -0.000001
    20  H   -0.151084   0.407994  -0.000009   0.000000   0.000000   0.000001
    21  H    0.023006   0.362004   0.000007  -0.000001   0.000001   0.000008
    22  H    0.000014   0.000001   0.267003   0.039332  -0.027770  -0.031644
    23  C   -0.000389  -0.000006  -3.328807  -2.009452  -0.452143  -1.466256
    24  Cl  -0.000011  -0.000004   0.083550  -0.117805  -0.425968   0.361994
    25  H   -0.000002   0.000000  -0.037177   0.133013  -0.050660   0.189791
    26  H   -0.001161   0.000145   0.001725  -0.032896  -0.024592  -0.074061
    27  F    0.000000   0.000000  -0.011707   0.085850  -0.022987  -0.000054
    28  F   -0.000000   0.000000   0.186442  -0.202826  -0.054895   0.115040
    29  F    0.000000   0.000000   0.072131   0.014761  -0.026785  -0.001387
    30  O    0.000356   0.000001   0.023974  -0.013677  -0.000823  -0.004172
    31  O    0.005139   0.000517  -0.065346  -0.015687   0.001536   0.004824
    32  C   -0.000244  -0.000330   0.063145   0.028161  -0.003793  -0.001068
    33  C   -0.000661   0.000955  -0.030422  -0.018715  -0.002031   0.000070
    34  C    0.000042  -0.000815  -0.008735  -0.002218   0.000277   0.000485
    35  H    0.000013   0.000000   0.000639   0.000180  -0.000005  -0.000005
    36  H    0.000009  -0.000000  -0.000354  -0.000029   0.000003   0.000003
    37  H    0.000019   0.000058  -0.000208  -0.000033   0.000001   0.000002
    38  H   -0.000003  -0.000004   0.000029   0.000006  -0.000000  -0.000000
    39  H    0.000058   0.000062   0.000163  -0.000004  -0.000000  -0.000001
              13         14         15         16         17         18
     1  C   -1.821181  -0.075188   0.000169   0.017378  -0.000906   0.000329
     2  N    0.080689   0.159387   0.006591   0.001318  -0.000728  -0.001243
     3  C   -1.230432   0.020636   0.041099   0.040857   0.005657   0.002257
     4  O    0.298519  -0.000527   0.000128   0.000115  -0.000279  -0.000278
     5  O   -0.061554   0.027158  -0.052667  -0.048625   0.001013   0.001168
     6  C   -0.540904   0.003322   0.359973   0.362301  -0.060351  -0.053298
     7  C    0.018668  -0.000619  -0.016434  -0.021350   0.461128   0.453482
     8  C   -0.019458  -0.000276  -0.023842  -0.020112  -0.074920  -0.070868
     9  C   -3.188450  -0.011458   0.000612  -0.000207   0.000029  -0.000110
    10  C    1.512572   0.034556   0.000079   0.000105   0.000002   0.000002
    11  C   -6.181760  -0.008831   0.000134  -0.000058   0.000007  -0.000000
    12  C   -1.484777  -0.003505   0.000748  -0.001452   0.000056   0.000001
    13  C   17.682546   0.032492   0.003028  -0.008914   0.000669  -0.000106
    14  H    0.032492   0.260291   0.000032  -0.000008  -0.000007  -0.000021
    15  H    0.003028   0.000032   0.490183  -0.046583   0.005510  -0.008748
    16  H   -0.008914  -0.000008  -0.046583   0.488605  -0.008510   0.005494
    17  H    0.000669  -0.000007   0.005510  -0.008510   0.438574  -0.027866
    18  H   -0.000106  -0.000021  -0.008748   0.005494  -0.027866   0.438902
    19  H   -0.000034  -0.000000  -0.001014   0.004629  -0.008127   0.006582
    20  H    0.000048  -0.000000  -0.000214  -0.000224  -0.003918  -0.003930
    21  H    0.000104   0.000000   0.004706  -0.000961   0.006580  -0.008198
    22  H    0.012523   0.005206   0.000000  -0.000000  -0.000000  -0.000000
    23  C    1.509357   0.009985   0.000006  -0.000005   0.000001   0.000000
    24  Cl  -0.647729   0.000061   0.000000  -0.000000   0.000000   0.000000
    25  H    0.071669  -0.000004  -0.000000  -0.000000   0.000000   0.000000
    26  H    0.307614  -0.000122  -0.000055  -0.000099  -0.000000  -0.000001
    27  F   -0.008782   0.000011   0.000000  -0.000000   0.000000  -0.000000
    28  F    0.030628   0.000001  -0.000000  -0.000000   0.000000   0.000000
    29  F   -0.015641   0.000010   0.000000  -0.000000   0.000000  -0.000000
    30  O   -0.013244   0.012962  -0.000000  -0.000000  -0.000001   0.000000
    31  O    0.026031   0.025707   0.000008   0.000008  -0.000039  -0.000041
    32  C   -0.021133   0.002603  -0.000028   0.000028   0.000081   0.000083
    33  C   -0.008722   0.010767  -0.000022   0.000005  -0.000283  -0.000190
    34  C    0.002479  -0.002172   0.000010   0.000007   0.000214   0.000195
    35  H   -0.000041  -0.000004   0.000000   0.000000  -0.000000  -0.000000
    36  H    0.000012   0.000005   0.000000   0.000000  -0.000000  -0.000000
    37  H    0.000001  -0.000042  -0.000000  -0.000000  -0.000008  -0.000003
    38  H    0.000003   0.000008  -0.000000  -0.000000   0.000000   0.000000
    39  H   -0.000037  -0.000051  -0.000000  -0.000000  -0.000003  -0.000008
              19         20         21         22         23         24
     1  C   -0.000052   0.000098  -0.000207  -0.090430  -2.557374  -0.051966
     2  N   -0.000068   0.000031  -0.000016  -0.008096  -0.001684   0.001336
     3  C   -0.002244   0.006705  -0.001287   0.002336  -0.068561  -0.036769
     4  O   -0.000077   0.000025  -0.000052  -0.000015  -0.003786  -0.000336
     5  O   -0.000451  -0.000952  -0.000406  -0.000242   0.002061   0.000018
     6  C   -0.041560   0.086135  -0.043812  -0.000069  -0.001782  -0.001057
     7  C    0.017032  -0.151084   0.023006   0.000014  -0.000389  -0.000011
     8  C    0.366773   0.407994   0.362004   0.000001  -0.000006  -0.000004
     9  C    0.000005  -0.000009   0.000007   0.267003  -3.328807   0.083550
    10  C   -0.000001   0.000000  -0.000001   0.039332  -2.009452  -0.117805
    11  C    0.000000   0.000000   0.000001  -0.027770  -0.452143  -0.425968
    12  C   -0.000001   0.000001   0.000008  -0.031644  -1.466256   0.361994
    13  C   -0.000034   0.000048   0.000104   0.012523   1.509357  -0.647729
    14  H   -0.000000  -0.000000   0.000000   0.005206   0.009985   0.000061
    15  H   -0.001014  -0.000214   0.004706   0.000000   0.000006   0.000000
    16  H    0.004629  -0.000224  -0.000961  -0.000000  -0.000005  -0.000000
    17  H   -0.008127  -0.003918   0.006580  -0.000000   0.000001   0.000000
    18  H    0.006582  -0.003930  -0.008198  -0.000000   0.000000   0.000000
    19  H    0.478557  -0.025681  -0.038471  -0.000000  -0.000000  -0.000000
    20  H   -0.025681   0.449207  -0.025777   0.000000   0.000000   0.000000
    21  H   -0.038471  -0.025777   0.478885  -0.000000  -0.000000  -0.000000
    22  H   -0.000000   0.000000  -0.000000   0.294344   0.121325  -0.000903
    23  C   -0.000000   0.000000  -0.000000   0.121325  14.029631  -0.210963
    24  Cl  -0.000000   0.000000  -0.000000  -0.000903  -0.210963  17.697090
    25  H    0.000000  -0.000000  -0.000000   0.000044   0.030555  -0.033219
    26  H   -0.000000   0.000000  -0.000000  -0.000047  -0.000075   0.001004
    27  F   -0.000000  -0.000000   0.000000  -0.000526   0.142746   0.005195
    28  F   -0.000000   0.000000  -0.000000  -0.000058  -0.033472  -0.030155
    29  F   -0.000000  -0.000000   0.000000   0.000065   0.085960   0.004701
    30  O    0.000000   0.000000   0.000000   0.012124   0.024014   0.000016
    31  O    0.000001   0.000001   0.000000   0.000577   0.000650   0.000010
    32  C    0.000001  -0.000004  -0.000000   0.000944  -0.018435  -0.000202
    33  C   -0.000002   0.000006  -0.000003   0.003971  -0.000334  -0.000097
    34  C    0.000003  -0.000011   0.000003  -0.000270  -0.000350   0.000003
    35  H    0.000000  -0.000000   0.000000  -0.000008  -0.000060   0.000000
    36  H    0.000000  -0.000000   0.000000   0.000004  -0.000053   0.000000
    37  H   -0.000000   0.000000  -0.000000   0.000001  -0.000008  -0.000000
    38  H    0.000000  -0.000000   0.000000  -0.000000   0.000004   0.000000
    39  H   -0.000000   0.000000  -0.000000  -0.000001  -0.000007  -0.000000
              25         26         27         28         29         30
     1  C    0.009361   0.023126  -0.010279   0.047688   0.042789  -0.004696
     2  N   -0.002372  -0.021763   0.000434   0.000505   0.001209  -0.013453
     3  C    0.003459   0.129766  -0.001074   0.000282   0.001392   0.003613
     4  O    0.000329  -0.013776  -0.000006   0.000001  -0.000000  -0.000034
     5  O    0.000044   0.003316  -0.000004   0.000001  -0.000001   0.000183
     6  C    0.000087   0.015269   0.000005  -0.000002   0.000029  -0.000817
     7  C   -0.000002  -0.001161   0.000000  -0.000000   0.000000   0.000356
     8  C    0.000000   0.000145   0.000000   0.000000   0.000000   0.000001
     9  C   -0.037177   0.001725  -0.011707   0.186442   0.072131   0.023974
    10  C    0.133013  -0.032896   0.085850  -0.202826   0.014761  -0.013677
    11  C   -0.050660  -0.024592  -0.022987  -0.054895  -0.026785  -0.000823
    12  C    0.189791  -0.074061  -0.000054   0.115040  -0.001387  -0.004172
    13  C    0.071669   0.307614  -0.008782   0.030628  -0.015641  -0.013244
    14  H   -0.000004  -0.000122   0.000011   0.000001   0.000010   0.012962
    15  H   -0.000000  -0.000055   0.000000  -0.000000   0.000000  -0.000000
    16  H   -0.000000  -0.000099  -0.000000  -0.000000  -0.000000  -0.000000
    17  H    0.000000  -0.000000   0.000000   0.000000   0.000000  -0.000001
    18  H    0.000000  -0.000001  -0.000000   0.000000  -0.000000   0.000000
    19  H    0.000000  -0.000000  -0.000000  -0.000000  -0.000000   0.000000
    20  H   -0.000000   0.000000  -0.000000   0.000000  -0.000000   0.000000
    21  H   -0.000000  -0.000000   0.000000  -0.000000   0.000000   0.000000
    22  H    0.000044  -0.000047  -0.000526  -0.000058   0.000065   0.012124
    23  C    0.030555  -0.000075   0.142746  -0.033472   0.085960   0.024014
    24  Cl  -0.033219   0.001004   0.005195  -0.030155   0.004701   0.000016
    25  H    0.430655  -0.004431   0.000023   0.000050   0.000025  -0.000000
    26  H   -0.004431   0.385013   0.000003  -0.000003  -0.000001  -0.000004
    27  F    0.000023   0.000003   8.950254  -0.027465  -0.054109  -0.000260
    28  F    0.000050  -0.000003  -0.027465   9.096409  -0.026603  -0.000028
    29  F    0.000025  -0.000001  -0.054109  -0.026603   8.954567  -0.001109
    30  O   -0.000000  -0.000004  -0.000260  -0.000028  -0.001109   8.494367
    31  O   -0.000000   0.000004   0.000002  -0.000000  -0.000017  -0.197420
    32  C   -0.000006   0.000037   0.000017  -0.000044   0.000271   0.484630
    33  C   -0.000000   0.000006  -0.000122   0.000023   0.000445  -0.273941
    34  C   -0.000000   0.000001  -0.000014  -0.000000  -0.000008   0.026843
    35  H    0.000000  -0.000000   0.000000  -0.000000   0.000000  -0.002943
    36  H   -0.000000   0.000000  -0.000000  -0.000000   0.000000  -0.002390
    37  H   -0.000000   0.000000  -0.000000  -0.000000  -0.000000  -0.000360
    38  H    0.000000  -0.000000   0.000000   0.000000   0.000000  -0.000051
    39  H    0.000000   0.000000   0.000000   0.000000  -0.000000  -0.000445
              31         32         33         34         35         36
     1  C    0.061270  -0.079982   0.029733   0.011388  -0.000650   0.000285
     2  N   -0.004898  -0.008813  -0.014683   0.003304   0.000024  -0.000016
     3  C   -0.010813   0.020196   0.012312  -0.004285   0.000073  -0.000035
     4  O    0.000225  -0.000082   0.000129  -0.000035  -0.000000  -0.000000
     5  O    0.002511  -0.001028   0.000977  -0.000349   0.000001   0.000000
     6  C   -0.010285   0.004062   0.004211  -0.001094  -0.000002  -0.000015
     7  C    0.005139  -0.000244  -0.000661   0.000042   0.000013   0.000009
     8  C    0.000517  -0.000330   0.000955  -0.000815   0.000000  -0.000000
     9  C   -0.065346   0.063145  -0.030422  -0.008735   0.000639  -0.000354
    10  C   -0.015687   0.028161  -0.018715  -0.002218   0.000180  -0.000029
    11  C    0.001536  -0.003793  -0.002031   0.000277  -0.000005   0.000003
    12  C    0.004824  -0.001068   0.000070   0.000485  -0.000005   0.000003
    13  C    0.026031  -0.021133  -0.008722   0.002479  -0.000041   0.000012
    14  H    0.025707   0.002603   0.010767  -0.002172  -0.000004   0.000005
    15  H    0.000008  -0.000028  -0.000022   0.000010   0.000000   0.000000
    16  H    0.000008   0.000028   0.000005   0.000007   0.000000   0.000000
    17  H   -0.000039   0.000081  -0.000283   0.000214  -0.000000  -0.000000
    18  H   -0.000041   0.000083  -0.000190   0.000195  -0.000000  -0.000000
    19  H    0.000001   0.000001  -0.000002   0.000003   0.000000   0.000000
    20  H    0.000001  -0.000004   0.000006  -0.000011  -0.000000  -0.000000
    21  H    0.000000  -0.000000  -0.000003   0.000003   0.000000   0.000000
    22  H    0.000577   0.000944   0.003971  -0.000270  -0.000008   0.000004
    23  C    0.000650  -0.018435  -0.000334  -0.000350  -0.000060  -0.000053
    24  Cl   0.000010  -0.000202  -0.000097   0.000003   0.000000   0.000000
    25  H   -0.000000  -0.000006  -0.000000  -0.000000   0.000000  -0.000000
    26  H    0.000004   0.000037   0.000006   0.000001  -0.000000   0.000000
    27  F    0.000002   0.000017  -0.000122  -0.000014   0.000000  -0.000000
    28  F   -0.000000  -0.000044   0.000023  -0.000000  -0.000000  -0.000000
    29  F   -0.000017   0.000271   0.000445  -0.000008   0.000000   0.000000
    30  O   -0.197420   0.484630  -0.273941   0.026843  -0.002943  -0.002390
    31  O    8.512954   0.295971  -0.248118   0.068392  -0.000695  -0.000686
    32  C    0.295971   5.973978  -0.945366   0.238642  -0.037369  -0.061338
    33  C   -0.248118  -0.945366   7.599435  -0.593807   0.430845   0.455424
    34  C    0.068392   0.238642  -0.593807   6.141018  -0.062266  -0.062517
    35  H   -0.000695  -0.037369   0.430845  -0.062266   0.468487  -0.030407
    36  H   -0.000686  -0.061338   0.455424  -0.062517  -0.030407   0.467853
    37  H   -0.008673  -0.024420  -0.007067   0.388540  -0.007603   0.006327
    38  H    0.003731   0.071371  -0.133586   0.395824  -0.003914  -0.003879
    39  H   -0.009056  -0.013755  -0.017674   0.388489   0.006365  -0.007609
              37         38         39
     1  C    0.000066   0.000027  -0.000383
     2  N    0.000084  -0.000024   0.000115
     3  C   -0.000080   0.000018  -0.000024
     4  O    0.000000  -0.000000   0.000000
     5  O   -0.000007  -0.000000  -0.000005
     6  C    0.000110  -0.000022   0.000148
     7  C    0.000019  -0.000003   0.000058
     8  C    0.000058  -0.000004   0.000062
     9  C   -0.000208   0.000029   0.000163
    10  C   -0.000033   0.000006  -0.000004
    11  C    0.000001  -0.000000  -0.000000
    12  C    0.000002  -0.000000  -0.000001
    13  C    0.000001   0.000003  -0.000037
    14  H   -0.000042   0.000008  -0.000051
    15  H   -0.000000  -0.000000  -0.000000
    16  H   -0.000000  -0.000000  -0.000000
    17  H   -0.000008   0.000000  -0.000003
    18  H   -0.000003   0.000000  -0.000008
    19  H   -0.000000   0.000000  -0.000000
    20  H    0.000000  -0.000000   0.000000
    21  H   -0.000000   0.000000  -0.000000
    22  H    0.000001  -0.000000  -0.000001
    23  C   -0.000008   0.000004  -0.000007
    24  Cl  -0.000000   0.000000  -0.000000
    25  H   -0.000000   0.000000   0.000000
    26  H    0.000000  -0.000000   0.000000
    27  F   -0.000000   0.000000   0.000000
    28  F   -0.000000   0.000000   0.000000
    29  F   -0.000000   0.000000  -0.000000
    30  O   -0.000360  -0.000051  -0.000445
    31  O   -0.008673   0.003731  -0.009056
    32  C   -0.024420   0.071371  -0.013755
    33  C   -0.007067  -0.133586  -0.017674
    34  C    0.388540   0.395824   0.388489
    35  H   -0.007603  -0.003914   0.006365
    36  H    0.006327  -0.003879  -0.007609
    37  H    0.469987  -0.036184  -0.028057
    38  H   -0.036184   0.529029  -0.036187
    39  H   -0.028057  -0.036187   0.470086
 Mulliken charges:
               1
     1  C    0.031899
     2  N   -0.439224
     3  C   -0.120209
     4  O   -0.328087
     5  O   -0.057908
     6  C   -0.230471
     7  C   -0.197007
     8  C   -1.009090
     9  C   -0.450884
    10  C   -0.793574
    11  C    0.297436
    12  C   -0.031702
    13  C   -0.336747
    14  H    0.497636
    15  H    0.236591
    16  H    0.236259
    17  H    0.266426
    18  H    0.266414
    19  H    0.244200
    20  H    0.261553
    21  H    0.243886
    22  H    0.400266
    23  C    0.197710
    24  Cl   0.402201
    25  H    0.258767
    26  H    0.306060
    27  F   -0.047151
    28  F   -0.101519
    29  F   -0.052693
    30  O   -0.553213
    31  O   -0.438294
    32  C    0.033222
    33  C   -0.253467
    34  C   -0.927212
    35  H    0.239343
    36  H    0.239401
    37  H    0.247556
    38  H    0.213805
    39  H    0.247822
 Sum of Mulliken charges =  -1.00000
 Mulliken charges with hydrogens summed into heavy atoms:
               1
     1  C    0.031899
     2  N    0.058411
     3  C   -0.120209
     4  O   -0.328087
     5  O   -0.057908
     6  C    0.242379
     7  C    0.335833
     8  C   -0.259450
     9  C   -0.050619
    10  C   -0.793574
    11  C    0.297436
    12  C    0.227065
    13  C   -0.030687
    23  C    0.197710
    24  Cl   0.402201
    27  F   -0.047151
    28  F   -0.101519
    29  F   -0.052693
    30  O   -0.553213
    31  O   -0.438294
    32  C    0.033222
    33  C    0.225277
    34  C   -0.218029
 APT charges:
               1
     1  C   -1.065030
     2  N   -0.923719
     3  C   -0.011885
     4  O   -0.067843
     5  O    0.825620
     6  C   -1.342359
     7  C    0.128300
     8  C   -2.814794
     9  C   -0.326314
    10  C   -0.285934
    11  C    1.881814
    12  C    0.017744
    13  C   -1.364485
    14  H    0.471119
    15  H    0.540208
    16  H    0.530922
    17  H    0.360468
    18  H    0.371677
    19  H    0.519787
    20  H    0.942396
    21  H    0.530749
    22  H    0.412275
    23  C   -0.625239
    24  Cl  -0.434728
    25  H    0.940903
    26  H    0.661554
    27  F   -0.145097
    28  F    0.339764
    29  F   -0.129778
    30  O   -0.822174
    31  O   -0.585712
    32  C    0.336016
    33  C   -0.450106
    34  C   -2.100743
    35  H    0.597199
    36  H    0.605431
    37  H    0.235301
    38  H    1.001912
    39  H    0.244779
 Sum of APT charges =  -1.00000
 APT charges with hydrogens summed into heavy atoms:
               1
     1  C   -1.065030
     2  N   -0.452600
     3  C   -0.011885
     4  O   -0.067843
     5  O    0.825620
     6  C   -0.271229
     7  C    0.860445
     8  C   -0.821863
     9  C    0.085962
    10  C   -0.285934
    11  C    1.881814
    12  C    0.958648
    13  C   -0.702930
    23  C   -0.625239
    24  Cl  -0.434728
    27  F   -0.145097
    28  F    0.339764
    29  F   -0.129778
    30  O   -0.822174
    31  O   -0.585712
[...]
 0.00000274,0.00004422,-0.00010452,0.00000551,0.00024341,0.00009552,-0.
 00017503,-0.00007215,0.00002576,0.00006283,-0.00029521,-0.00002973,0.0
 0016096,0.00023885,-0.00004132,-0.00010831,-0.00012352,-0.00025449,0.0
 0005562,-0.00000817,0.00013888,0.00000148,-0.00000232,0.00000409,-0.00
 000007,-0.00000388,0.00000710,0.00000113,-0.00000159,-0.00000465,-0.00
 000005,-0.00000198,-0.00000100,-0.00000131,0.00001526,-0.00000529,-0.0
 0000035,-0.00015133,0.00019523,0.00004988,0.00004505,0.00006095,0.0000
 6246,-0.00004683,0.00002949,0.00006601,-0.00002486,0.00000791,0.000021
 16,-0.00006680,-0.00006116,-0.00022192,0.00006018,0.00000824,0.0000316
 3,-0.00001642,-0.00000732,-0.00000415,0.00001912,-0.00002012,0.0000194
 4,-0.00000777,0.00000787,0.00000329,-0.00000963,-0.00000270,0.00000014
 ,0.00000510,-0.00000144,-0.00000165,0.00000150,-0.00000054,-0.00000132
 ,0.00000148,0.00000142,-0.00000231,0.00000324,0.00000141,-0.00000233,0
 .00000272,0.00000033,0.00000144,0.00000199,0.00000007,-0.00000080,-0.0
 0234324,-0.00045600,0.00298381,-0.00219841,-0.00697538,0.00068664,0.01
 379359,0.00153121,-0.03197104,0.00897640,-0.04412965,-0.01591328,-0.00
 394893,-0.00033181,0.01045248,-0.00766869,0.04908223,-0.00002158,-0.00
 000601,-0.00000154,-0.00000377,-0.00010111,0.00005168,0.00015689,0.000
 02672,-0.00013264,-0.00004519,0.00002819,0.00005665,-0.00018137,-0.000
 02508,0.00013373,0.00021785,0.00002757,-0.00009090,-0.00016510,-0.0001
 4779,0.00008698,0.00001725,0.00007388,-0.00006198,-0.00000573,-0.00000
 782,0.00000069,0.00000057,0.00000134,0.00001034,-0.00000607,0.00000415
 ,-0.00000135,-0.00000207,-0.00000188,0.00000412,0.00000760,0.00000126,
 0.00000088,-0.00004830,0.00001864,-0.00004521,0.00002305,0.00005517,0.
 00003627,-0.00004540,0.00003755,0.00002941,-0.00000991,-0.00002233,0.0
 0002220,-0.00008422,-0.00023554,-0.00020079,0.00003870,0.00000583,0.00
 004423,-0.00003667,0.00000064,-0.00001307,0.00002275,0.00001380,0.0000
 5502,0.00000937,-0.00000009,-0.00001634,-0.00001194,0.00001490,-0.0000
 5240,0.00000366,-0.00000189,0.00000059,0.00000022,0.00000039,-0.000002
 37,0.00000059,0.00000186,-0.00000431,-0.00000389,-0.00000725,0.0000215
 3,0.00001353,-0.00000485,0.00001842,0.00000264,-0.00000240,0.00001247,
 -0.00083185,0.00063212,0.00235685,0.00063186,-0.00240993,0.00097293,0.
 00023512,0.00083766,-0.00824398,0.09057350,-0.01289901,-0.27296786,0.0
 0761830,-0.00105758,-0.01893331,-0.09524311,0.01346783,0.29839006,-0.0
 0009484,0.00004749,0.00003214,0.00016799,-0.00004597,0.00002108,-0.000
 32558,0.00004852,0.00005368,0.00008497,-0.00001950,-0.00001712,0.00024
 504,-0.00011167,-0.00000917,-0.00018146,0.00003300,-0.00003587,0.00007
 871,0.00008295,-0.00002094,0.00000174,-0.00003985,-0.00003604,0.000015
 95,0.00000681,0.00000635,0.00000500,0.00001230,0.00000017,-0.00000269,
 0.00000498,0.00000193,-0.00000925,0.00000622,0.00000489,0.00001681,-0.
 00002423,-0.00001458,0.00005878,-0.00011177,-0.00002753,-0.00000210,0.
 00001384,0.00001626,0.00002302,-0.00003019,0.00000192,-0.00001444,-0.0
 0003159,0.00001677,-0.00006574,0.00007322,-0.00004957,-0.00002727,-0.0
 0004611,0.00001407,0.00004467,0.00000956,-0.00001494,0.00001518,0.0000
 4786,0.00005291,0.00001133,-0.00001178,-0.00000796,-0.00003414,-0.0000
 5826,-0.00001235,0.00001549,-0.00000405,-0.00000321,0.00000006,-0.0000
 0093,-0.00000003,-0.00000659,0.00000583,0.00000062,0.00001259,0.000014
 53,-0.00000359,0.00001423,0.00001072,0.00000704,0.00000507,0.00002824,
 0.00000922,0.00000324,0.00044806,0.00084330,-0.00038302,0.00059126,0.0
 0204417,0.00785073,0.00644831,-0.00305732,-0.21275493,-0.12718783,0.00
 549799,-0.01779591,-0.01269840,0.00098014,-0.01057189,-0.00790031,0.00
 094495,0.23420836,-0.00021145,0.00012744,0.00004790,0.00021293,0.00022
 367,0.00013173,-0.00034109,0.00016283,-0.00005911,0.00008795,-0.000040
 36,0.00002261,0.00013164,-0.00015826,-0.00001756,-0.00000891,0.0000704
 6,-0.00003046,0.00006246,0.00010547,0.00000615,0.00000225,-0.00004759,
 0.00002096,0.00007040,0.00000368,-0.00000267,-0.00000032,0.00001451,0.
 00000286,0.00000690,-0.00000005,-0.00000420,-0.00001753,0.00001555,0.0
 0000642,0.00002487,-0.00003635,-0.00001144,0.00002351,-0.00026411,-0.0
 0016038,0.00006540,0.00005291,0.00000879,-0.00000409,-0.00003180,0.000
 01559,-0.00003613,-0.00002109,0.00000957,0.00015298,-0.00001859,-0.000
 03256,-0.00003032,0.00000549,-0.00002348,-0.00002329,0.00000692,0.0000
 1493,0.00001089,-0.00001782,-0.00001627,-0.00005510,-0.00004526,-0.000
 00087,-0.00001710,-0.00025453,-0.00003031,0.00002956,-0.00000740,-0.00
 000646,0.00000095,-0.00000048,-0.00000054,-0.00000879,0.00001069,-0.00
 000368,0.00001557,0.00004930,-0.00000160,0.00000135,0.00004867,-0.0000
 0444,-0.00001400,0.00014291,0.00003032,0.00447403,0.00236594,-0.000844
 62,0.00446073,-0.00446574,-0.00386870,-0.03054286,-0.01692152,0.002645
 01,-0.13055447,-0.14332225,0.00827693,0.01093597,0.00715166,-0.0004097
 5,0.00238110,0.00115397,0.00023550,0.13779092,0.15328023,0.00007730,0.
 00000281,-0.00001255,-0.00005550,0.00016201,0.00007050,-0.00000872,-0.
 00007065,-0.00007329,0.00001686,0.00006188,0.00005408,0.00002473,0.000
 04044,0.00004504,-0.00000112,0.00002510,-0.00003130,-0.00008858,-0.000
 09253,0.00004796,0.00000992,0.00005053,-0.00004630,-0.00002815,-0.0000
 0435,-0.00001669,0.00000520,-0.00000578,-0.00001417,0.00001370,0.00000
 137,0.00000562,-0.00000498,0.00000225,-0.00000446,-0.00001684,0.000009
 14,0.00000689,0.00006975,-0.00033618,-0.00009034,-0.00000095,0.0000197
 4,0.00000450,-0.00000639,0.00002224,0.00000783,-0.00000961,-0.00002800
 ,0.00001243,-0.00005902,-0.00003203,-0.00015731,0.00002275,-0.00002336
 ,0.00004315,0.00001971,-0.00000191,-0.00002321,0.00001503,0.00003749,0
 .00006081,0.00002544,-0.00000575,0.00003067,0.00003691,0.00002239,0.00
 006360,-0.00001674,0.00000687,0.00000364,-0.00000207,0.00000156,0.0000
 0168,0.00000243,-0.00000216,0.00000022,-0.00000420,-0.00000073,-0.0000
 2063,-0.00002339,-0.00000210,-0.00002305,-0.00000710,-0.00001867,-0.00
 002230,-0.00066043,0.00167041,-0.00065335,0.00151640,-0.00140571,-0.00
 119683,-0.00554816,-0.00572647,-0.00052188,0.00503267,0.00582787,-0.04
 463043,-0.01876046,-0.01445656,0.00067401,0.02478843,0.02000238,-0.001
 16595,-0.00418288,-0.00649185,0.04879009,-0.00011912,0.00007579,0.0000
 4373,0.00029168,0.00018271,0.00005164,-0.00055359,0.00006582,0.0000525
 3,0.00015165,-0.00001266,0.00000184,0.00039566,-0.00016350,-0.00000719
 ,-0.00030691,0.00011933,-0.00011101,0.00012152,-0.00001814,0.00014528,
 0.00014473,-0.00010362,0.00000247,0.00002519,-0.00000917,-0.00000858,0
 .00001098,0.00001371,0.00000017,0.00001092,0.00000455,0.00000097,-0.00
 001960,0.00001304,0.00000624,0.00002245,-0.00003452,-0.00001424,-0.000
 01756,-0.00029369,-0.00005015,-0.00001238,0.00009049,0.00002166,0.0000
 4416,-0.00007037,0.00000792,-0.00009337,-0.00011660,0.00004500,0.00007
 139,0.00032130,-0.00042366,-0.00007853,-0.00004510,0.00001434,-0.00001
 544,0.00010983,0.00003524,0.00012344,0.00003764,0.00000082,0.00000239,
 -0.00002189,0.00000101,-0.00000541,-0.00013331,-0.00001351,0.00001327,
 -0.00000079,-0.00000254,-0.00000049,0.00000009,0.00000001,-0.00000967,
 0.00000898,0.,0.00000771,0.00002660,-0.00000166,-0.00000099,0.00002612
 ,-0.00000338,-0.00000785,0.00007276,0.00001602,0.00052129,0.00098034,0
 .00076611,0.00216326,0.00102172,0.00150314,-0.00107756,-0.00322327,-0.
 00225884,-0.01944184,-0.01304698,0.00147210,-0.21969251,-0.12798347,0.
 01094365,0.00108314,-0.00002721,-0.00012468,-0.00190704,0.00218806,-0.
 00367087,0.23858076,0.00008896,-0.00002065,-0.00001883,-0.00005110,0.0
 0011593,-0.00000469,0.00001615,-0.00010593,-0.00001849,0.00000523,0.00
 005642,0.00002889,0.00000083,0.00006504,-0.00002160,0.00001235,-0.0000
 1136,0.00004947,-0.00023517,-0.00053123,-0.00004024,-0.00008724,0.0000
 1904,0.00014635,-0.00003036,-0.00001428,-0.00000829,0.00000622,-0.0000
 0241,-0.00000130,0.00001621,0.00000095,0.00000056,-0.00000393,-0.00000
 026,-0.00000258,-0.00001079,0.00001024,0.00000953,0.00000874,-0.000177
 63,0.00001486,0.00000508,-0.00004061,-0.00005977,0.00000263,0.00003684
 ,-0.00002052,0.00008458,0.00013089,-0.00000978,0.00010762,0.00000437,0
 .00046586,0.00009109,-0.00005082,-0.00001273,0.00016031,0.00007634,-0.
 00011424,-0.00012783,0.00001306,-0.00009670,0.00002011,-0.00000605,0.0
 0000606,0.00004498,-0.00000521,0.00000526,-0.00002139,0.00000948,0.000
 00534,-0.00000177,0.00000234,0.00000119,0.00000273,-0.00000297,0.00000
 104,-0.00001271,-0.00000189,0.00000519,-0.00001957,0.00000271,-0.00001
 111,-0.00001131,0.00000588,-0.00000030,-0.00047091,0.00032308,-0.00021
 239,0.00026372,-0.00035271,0.00025206,0.00092926,-0.00023082,-0.000239
 04,0.00831642,0.00680071,-0.00131140,-0.12996704,-0.14255376,0.0077427
 3,-0.00064119,0.00044109,-0.00058490,0.00216540,-0.00015916,0.00125192
 ,0.14102555,0.15252008,0.00000622,0.00001511,0.00000311,0.00006104,0.0
 0010377,0.00000013,-0.00020427,0.00001434,0.00005996,0.00005948,-0.000
 01218,-0.00002745,0.00014203,-0.00004725,-0.00007425,-0.00027237,-0.00
 007131,0.00011381,0.00039889,0.00035816,-0.00001782,-0.00005002,-0.000
 04809,0.00028248,-0.00000089,-0.00001207,-0.00000293,0.00000225,0.0000
 0318,-0.00000451,0.00000862,0.00000046,0.00000339,-0.00000600,0.000004
 52,-0.00000111,0.00000126,-0.00000536,-0.00000006,0.00001212,-0.000164
 95,0.00000468,0.00003083,-0.00005185,-0.00002813,0.00006659,-0.0000596
 6,-0.00004651,-0.00008156,-0.00007279,-0.00003610,-0.00028508,0.000406
 53,-0.00020992,-0.00002868,-0.00001631,-0.00012914,0.00011290,-0.00000
 460,-0.00001394,-0.00009417,-0.00015501,-0.00011534,0.00001177,-0.0000
 1254,-0.00000004,0.00002162,-0.00002272,-0.00001722,-0.00000454,0.0000
 0275,0.00000125,-0.00000021,0.00000052,0.00000044,-0.00000154,0.000001
 30,0.00000214,-0.00000739,0.00000033,0.00001067,-0.00000711,0.00000455
 ,-0.00000116,-0.00000727,0.00001703,0.00000766,0.00023636,0.00019093,-
 0.00014706,-0.00001986,0.00033872,-0.00003629,0.00030579,-0.00050685,0
 .00032918,-0.02007744,-0.01470012,0.00101289,0.01111328,0.00748380,-0.
 04715180,0.00079126,-0.00080351,0.00067143,-0.00348652,0.00191129,-0.0
 0270279,-0.00808754,-0.00990700,0.05070420,0.00019642,-0.00001300,-0.0
 0003196,0.00004651,0.00051716,0.00009283,-0.00031753,-0.00011201,-0.00
 003946,0.00010536,0.00010357,0.00007653,0.00021507,-0.00000176,0.00000
 107,-0.00019084,0.00001606,-0.00004177,0.00004054,0.00003075,0.0000438
 1,0.00005426,-0.00001839,-0.00007154,-0.00006597,-0.00005189,-0.000013
 32,0.00001612,-0.00000371,-0.00000857,0.00003248,0.00000670,0.00000238
 ,-0.00001354,0.00000642,-0.00000033,-0.00002692,0.00001486,0.00001904,
 -0.00003354,-0.00085835,-0.00006908,-0.00002456,0.00000934,0.00000505,
 0.00003143,-0.00000874,-0.00000340,-0.00002116,-0.00005881,0.00001424,
 -0.00007366,0.00008383,-0.00016433,-0.00002722,-0.00002012,0.00003379,
 0.00000643,0.00000805,0.00000969,0.00006020,0.00005846,0.00006849,0.00
 006086,-0.00001318,0.00000195,0.00010665,0.00003689,-0.00000428,-0.000
 04340,0.00001896,0.00001228,-0.00000460,0.00000488,0.00000152,0.000002
 66,-0.00000204,0.00000057,-0.00003567,-0.00001733,0.00002235,-0.000041
 11,-0.00000480,-0.00001742,-0.00002612,-0.00001099,0.00000022,-0.00171
 758,0.00284806,-0.00077671,0.00095088,0.00041617,0.00058312,-0.0013468
 7,-0.00306767,-0.00413202,-0.00671764,0.02292155,0.00609224,-0.0701102
 9,0.06949191,0.01395402,0.00088848,-0.00055036,-0.00005762,0.00016998,
 -0.00044901,0.00084248,0.00986269,-0.02447697,-0.00534127,0.07271780,-
 0.00034162,0.00006832,0.00006518,0.00018185,-0.00049528,-0.00005877,0.
 00000072,0.00028134,0.00008867,-0.00002868,-0.00018016,-0.00010069,0.0
 0000785,-0.00016554,0.00000932,0.00003485,0.00005494,-0.00004346,0.000
 09340,0.00013046,0.00005196,0.00006989,-0.00006213,-0.00007851,0.00010
 438,0.00006121,0.00001906,-0.00001759,0.00001400,0.00001174,-0.0000582
 0,-0.00000547,0.00000423,0.00001271,0.00000039,0.00000106,0.00004691,-
 0.00004466,-0.00002620,-0.00003447,0.00085323,0.00000187,0.00001691,0.
 00007861,0.00003383,-0.00001401,-0.00005461,0.00002046,-0.00006034,-0.
 00008921,0.00004023,0.00003354,0.00002317,-0.00021283,-0.00005893,-0.0
 0002860,0.00002239,-0.00004617,0.00003138,0.00003172,0.00008362,0.0000
 4561,0.00007137,-0.00007501,0.00002584,-0.00001281,-0.00018669,-0.0000
 3744,-0.00000152,0.00008018,-0.00003359,-0.00002204,0.00000618,-0.0000
 0817,-0.00000377,-0.00001047,0.00001005,-0.00000264,0.00006004,0.00002
 384,-0.00003424,0.00007522,0.00000237,0.00003519,0.00004590,0.00000376
 ,-0.00000042,0.00163582,-0.00167043,0.00122825,0.00115113,-0.00048735,
 0.00090151,-0.00072605,0.00168969,-0.00029993,0.00063199,-0.00730555,-
 0.00262459,0.06949210,-0.27988065,-0.04174298,-0.00016357,-0.00006928,
 0.00062450,0.00053932,0.00053550,0.00010262,0.00620255,-0.01726693,-0.
 00354194,-0.07853042,0.30481665,0.00006599,0.00001063,-0.00001717,0.00
 006711,0.00030832,0.00007394,-0.00019960,-0.00001868,-0.00004814,0.000
 06329,0.00004347,0.00005356,0.00010189,-0.00002834,0.00001868,-0.00005
 667,0.00001447,-0.00004967,0.00000296,0.00000327,-0.00001315,-0.000005
 36,0.00001056,-0.00003585,-0.00002696,-0.00002673,-0.00000103,0.000005
 42,0.00000435,-0.00000374,0.00000430,0.00000342,0.00000435,-0.00000507
 ,0.00000628,0.00000014,-0.00001072,0.00000206,0.00001277,-0.00005664,-
 0.00048333,-0.00006791,0.00000376,0.00000912,0.00000272,0.00000543,-0.
 00000028,0.00000820,0.00000700,0.00001171,0.00000078,-0.00005063,-0.00
 002644,0.00002675,-0.00000104,-0.00001024,0.00001107,0.00000923,-0.000
 00368,0.00001408,0.00001831,0.00000264,0.00001117,0.00002986,-0.000004
 65,-0.00000460,0.00002100,0.00000775,-0.00000779,-0.00000938,0.0000046
 6,0.00000294,-0.00000232,0.00000187,-0.00000028,0.00000012,0.00000115,
 -0.00000141,-0.00000737,-0.00000419,0.00000807,-0.00000743,-0.00000127
 ,-0.00000240,-0.00000550,-0.00000187,0.00000146,-0.00117960,0.00240875
 ,-0.00016944,0.00108132,-0.00012064,0.00180461,-0.00287050,-0.00310806
 ,-0.00456092,-0.00621944,0.02425572,0.00464079,0.01383781,-0.04162664,
 -0.05633090,0.00102597,-0.00016324,0.00050713,0.00057200,-0.00079355,0
 .00080857,-0.00097168,0.00254851,-0.00140417,-0.01197214,0.04612158,0.
 05760537,-0.00002177,0.00000784,0.00000638,0.00003545,-0.00002010,-0.0
 0000734,-0.00007430,0.00005745,0.00004372,0.00001788,-0.00003385,-0.00
 003466,0.00007475,-0.00005740,-0.00002162,-0.00011473,0.00000403,0.000
 05713,0.00010935,0.00004691,0.00001403,-0.00002787,-0.00000380,0.00011
 708,0.00000951,0.00000060,0.00000225,-0.00000306,0.00000174,0.00000269
 ,-0.00001019,-0.00000037,0.00000167,0.00000335,0.00000126,-0.00000207,
 0.00000144,-0.00000434,0.00000090,0.00000294,0.00002223,0.00000698,0.0
 0001642,-0.00000410,0.00000065,0.00002417,-0.00002733,-0.00001586,-0.0
 0003667,-0.00004797,-0.00000104,-0.00013626,0.00008254,-0.00009126,-0.
 00000476,-0.00005028,-0.00002193,0.00009107,0.00002037,-0.00003919,0.0
 0000858,0.00003214,0.00001091,0.00000128,0.00000277,-0.00000973,-0.000
 02160,0.00002761,-0.00001229,0.00000892,-0.00000428,-0.00000262,0.0000
 0074,-0.00000147,-0.00000003,-0.00000133,0.00000110,0.00000090,0.00000
 414,-0.00000543,0.00000251,0.00001143,-0.00000643,0.00000875,0.0000071
 2,-0.00001504,0.00000144,-0.00003954,-0.00028472,0.00033036,-0.0004673
 7,0.00038272,-0.00005818,0.00056175,0.00021875,-0.00023764,0.00973478,
 -0.00161715,-0.02383447,-0.08471676,0.00598919,0.09534570,-0.00300351,
 0.00207373,-0.00358994,0.00112798,-0.00081593,0.00063646,-0.01028840,0
 .00279512,0.02468144,-0.00472661,-0.00025484,0.00673528,0.09184168,0.0
 0009922,-0.00002365,-0.00000709,-0.00004122,0.00011015,-0.00003162,-0.
 00006605,-0.00006355,0.00005803,0.00002064,0.00002411,-0.00001640,0.00
 008967,0.00003644,-0.00006372,-0.00015057,-0.00002759,0.00008306,0.000
 08225,0.00002754,0.00001593,0.00001189,-0.00002031,0.00006694,-0.00002
 523,-0.00001245,-0.00000541,0.00000350,-0.00000559,-0.00000823,0.00001
 930,0.00000030,0.00000086,-0.00000180,-0.00000172,0.00000021,-0.000014
 18,0.00001156,-0.00000231,0.00001926,-0.00017312,0.00003528,-0.0000170
 2,-0.00004700,-0.00001597,0.00003613,-0.00001164,-0.00003031,-0.000011
 90,-0.00003350,-0.00000999,-0.00007683,0.00013530,-0.00005933,-0.00000
 876,-0.00002594,-0.00001476,0.00006050,0.00000882,-0.00003120,-0.00001
 346,0.00003856,0.00000441,0.00002284,-0.00000537,0.00001057,0.00005826
 ,0.00003721,0.00001206,-0.00002394,0.00000968,0.00000574,-0.00000131,0
 .00000157,0.00000197,0.00000230,-0.00000361,0.00000321,-0.00001889,-0.
 00001202,0.00000674,-0.00002318,-0.00000565,-0.00001175,-0.00001221,-0
 .00001723,-0.00000538,-0.00051383,-0.00000622,-0.00081984,-0.00014285,
 -0.00034388,-0.00130124,0.00045554,0.00065405,0.00229046,-0.00430799,0
 .00028959,0.00899104,0.00707317,-0.04836927,-0.01831761,0.00164376,-0.
 00028621,0.00140599,-0.00010690,0.00028459,-0.00061621,-0.00728272,0.0
 0090020,0.01935885,0.01167590,-0.00086531,-0.02935846,-0.00851328,0.04
 779117,0.00009194,-0.00001678,-0.00002746,-0.00007290,0.00012669,0.000
 04505,0.00007938,-0.00006651,-0.00009349,-0.00001370,0.00005447,0.0000
 6322,-0.00007753,0.00004323,0.00006719,0.00007180,0.00000003,-0.000044
 89,-0.00007362,-0.00006999,0.00000710,0.00000453,0.00003504,-0.0000196
 8,-0.00002664,-0.00002119,0.00000413,0.00000173,-0.00000337,0.00000504
 ,0.00000512,0.00000142,0.00000063,0.00000065,-0.00000053,0.00000111,-0
 .00001303,0.00001617,0.00001449,0.00000356,-0.00017825,-0.00003823,-0.
 00000101,0.00001836,0.00000478,-0.00001393,0.00001987,0.00001414,0.000
 00439,0.00000607,0.00001070,0.00002592,-0.00002036,-0.00001999,0.00001
 767,0.00001550,0.00001129,-0.00002510,-0.00000466,0.00000499,0.0000112
 1,-0.00000181,-0.00000627,0.00001654,-0.00000198,-0.00001842,0.0000299
 2,0.00002932,-0.00005615,-0.00001565,0.00000586,0.00000519,-0.00000169
 ,0.00000246,-0.00000141,0.00000308,-0.00000150,-0.00000369,-0.00001835
 ,-0.00001452,0.00003149,-0.00000276,-0.00000667,0.00001133,-0.00000729
 ,-0.00000541,0.00001363,0.00012513,0.00070021,0.00086838,0.00078000,0.
 00015116,0.00245126,-0.00033575,-0.00271233,-0.00221307,0.00798262,-0.
 00034915,-0.02163004,0.09418405,-0.01626777,-0.27988475,-0.00405619,0.
 00123180,-0.00154962,-0.00014197,-0.00057203,0.00067552,0.00061768,0.0
 0016111,-0.00103970,0.00086754,-0.00067942,-0.00289858,-0.10002734,0.0
 1837548,0.30523474\\0.00000104,0.00000515,-0.00000046,-0.00000269,0.00
 000949,0.00000357,-0.00000523,0.00000286,0.00000283,0.00000714,-0.0000
 0026,-0.00000049,0.00000089,0.00000215,-0.00000038,0.00000452,0.000000
 17,0.00000166,0.00000109,0.00000339,0.00000098,-0.00000028,0.00000053,
 0.00000023,-0.00000129,-0.00000196,0.00000218,-0.00000013,0.00000061,0
 .00000348,-0.00000074,-0.00000029,0.00000004,-0.00000129,-0.00000104,0
 .00000050,-0.00000562,-0.00000014,0.00000025,0.00000108,-0.00002086,-0
 .00000732,-0.00000009,-0.00000101,-0.00000123,-0.00000132,0.00000015,-
 0.00000103,-0.00000103,-0.00000015,0.00000056,-0.00000129,-0.00000018,
 -0.00000260,0.00000019,0.00000006,-0.00000086,0.00000034,0.00000039,-0
 .00000017,0.00000073,0.00000009,-0.00000123,0.00000071,0.00000332,0.00
 000029,0.00000045,0.00000438,0.00000122,-0.00000054,-0.00000282,0.0000
 0137,-0.00000076,-0.00000055,0.00000142,-0.00000046,0.00000099,0.00000
 187,0.00000106,0.00000001,0.00000018,-0.00000275,0.00000153,0.00000035
 ,0.00000231,-0.00000455,-0.00000035,0.00000311,-0.00000369,0.00000328,
 -0.00000615,-0.00000247,-0.00000877,0.00000323,0.00000555,0.00000756,0
 .00000332,-0.00000087,-0.00000142,-0.00000009,-0.00000063,-0.00000091,
 -0.00000112,-0.00000010,-0.00000081,0.00000069,0.00000070,-0.00000251,
 -0.00000057,-0.00000008,-0.00000095,0.00000021,0.00000009,-0.00000108,
 0.00000131,0.00000002,-0.00000125\\\@


 WHEN IT COMES TO CASH FLOW, IT SEEMS LIKE THE TIDE IS ALWAYS GOING OUT.
 Job cpu time:       0 days  8 hours 19 minutes 38.5 seconds.
 Elapsed time:       0 days  8 hours 19 minutes 39.4 seconds.
 File lengths (MBytes):  RWF=   1240 Int=      0 D2E=      0 Chk=     33 Scr=      1
 Normal termination of Gaussian 16 at Mon Mar 22 22:41:17 2021.
