 Entering Gaussian System, Link 0=/apps/gaussian/g16c01/g16/g16
 Initial command:
 /apps/gaussian/g16c01/g16/l1.exe "/jobfs/21660743.gadi-pbs/Gau-563421.inp" -scrdir="/jobfs/21660743.gadi-pbs/"
 Entering Link 1 = /apps/gaussian/g16c01/g16/l1.exe PID=    563422.
  
 Copyright (c) 1988-2019, Gaussian, Inc.  All Rights Reserved.
  
 This is part of the Gaussian(R) 16 program.  It is based on
 the Gaussian(R) 09 system (copyright 2009, Gaussian, Inc.),
 the Gaussian(R) 03 system (copyright 2003, Gaussian, Inc.),
 the Gaussian(R) 98 system (copyright 1998, Gaussian, Inc.),
 the Gaussian(R) 94 system (copyright 1995, Gaussian, Inc.),
 the Gaussian 92(TM) system (copyright 1992, Gaussian, Inc.),
 the Gaussian 90(TM) system (copyright 1990, Gaussian, Inc.),
 the Gaussian 88(TM) system (copyright 1988, Gaussian, Inc.),
 the Gaussian 86(TM) system (copyright 1986, Carnegie Mellon
 University), and the Gaussian 82(TM) system (copyright 1983,
 Carnegie Mellon University). Gaussian is a federally registered
 trademark of Gaussian, Inc.
  
 This software contains proprietary and confidential information,
 including trade secrets, belonging to Gaussian, Inc.
  
 This software is provided under written license and may be
 used, copied, transmitted, or stored only in accord with that
 written license.
  
 The following legend is applicable only to US Government
 contracts under FAR:
  
                    RESTRICTED RIGHTS LEGEND
  
 Use, reproduction and disclosure by the US Government is
 subject to restrictions as set forth in subparagraphs (a)
 and (c) of the Commercial Computer Software - Restricted
 Rights clause in FAR 52.227-19.
  
 Gaussian, Inc.
 340 Quinnipiac St., Bldg. 40, Wallingford CT 06492
  
  
 ---------------------------------------------------------------
 Warning -- This program may not be used in any manner that
 competes with the business of Gaussian, Inc. or will provide
 assistance to any competitor of Gaussian, Inc.  The licensee
 of this program is prohibited from giving any competitor of
 Gaussian, Inc. access to this program.  By using this program,
 the user acknowledges that Gaussian, Inc. is engaged in the
 business of creating and licensing software in the field of
 computational chemistry and represents and warrants to the
 licensee that it is not a competitor of Gaussian, Inc. and that
 it will not use this program in any manner prohibited above.
 ---------------------------------------------------------------
  

 Cite this work as:
 Gaussian 16, Revision C.01,
 M. J. Frisch, G. W. Trucks, H. B. Schlegel, G. E. Scuseria, 
 M. A. Robb, J. R. Cheeseman, G. Scalmani, V. Barone, 
 G. A. Petersson, H. Nakatsuji, X. Li, M. Caricato, A. V. Marenich, 
 J. Bloino, B. G. Janesko, R. Gomperts, B. Mennucci, H. P. Hratchian, 
 J. V. Ortiz, A. F. Izmaylov, J. L. Sonnenberg, D. Williams-Young, 
 F. Ding, F. Lipparini, F. Egidi, J. Goings, B. Peng, A. Petrone, 
 T. Henderson, D. Ranasinghe, V. G. Zakrzewski, J. Gao, N. Rega, 
 G. Zheng, W. Liang, M. Hada, M. Ehara, K. Toyota, R. Fukuda, 
 J. Hasegawa, M. Ishida, T. Nakajima, Y. Honda, O. Kitao, H. Nakai, 
 T. Vreven, K. Throssell, J. A. Montgomery, Jr., J. E. Peralta, 
 F. Ogliaro, M. J. Bearpark, J. J. Heyd, E. N. Brothers, K. N. Kudin, 
 V. N. Staroverov, T. A. Keith, R. Kobayashi, J. Normand, 
 K. Raghavachari, A. P. Rendell, J. C. Burant, S. S. Iyengar, 
 J. Tomasi, M. Cossi, J. M. Millam, M. Klene, C. Adamo, R. Cammi, 
 J. W. Ochterski, R. L. Martin, K. Morokuma, O. Farkas, 
 J. B. Foresman, and D. J. Fox, Gaussian, Inc., Wallingford CT, 2019.
 
 ******************************************
 Gaussian 16:  ES64L-G16RevC.01  3-Jul-2019
                28-Apr-2021 
 ******************************************
 %NprocShared=32
 Will use up to   32 processors via shared memory.
 %Mem=1194000MB
 %chk=29CA_carboxy_c2.DSDPBEP86_AUG-cc-PVTZ.chk
 ----------------------------------------------------------------------
 # DSDPBEP86/AUG-cc-PVTZ SCF=Tight INT(grid=ultrafine) Pop=NBO MaxDisk=
 1400000MB
 ----------------------------------------------------------------------
 1/38=1,172=1/1;
 2/12=2,17=6,18=5,40=1/2;
 3/5=16,6=1,7=10,11=9,25=1,30=1,74=-77,75=-5/1,2,3;
 4//1;
 5/5=2,32=2,38=5/2;
 8/10=1/1;
 9/16=-3/6;
 6/7=2,8=2,9=2,10=2,40=1/1,7;
 99/5=1,9=1/99;
 -------------------------------------
 29CA_carboxy_c2.DSDPBEP86_AUG-cc-PVTZ
 -------------------------------------
 Symbolic Z-matrix:
 Charge = -1 Multiplicity = 1
 C                    -6.42226   1.41831  -0.30313 
 N                    -5.18608   0.93707  -0.69513 
 C                    -3.98669   1.47877  -0.33679 
 O                    -3.7946    2.46204   0.34573 
 O                    -2.99745   0.74951  -0.88795 
 C                    -1.80189   0.6648   -0.11474 
 C                    -0.97171  -0.45618  -0.7049 
 C                     0.25751  -0.74145   0.15197 
 C                    -7.50738   0.53176  -0.41021 
 C                    -8.79342   0.9355   -0.08699 
 C                    -9.01916   2.2408    0.35792 
 C                    -7.95389   3.11694   0.477 
 C                    -6.66234   2.71943   0.15416 
 H                    -5.13938  -0.09974  -0.9035 
 H                    -2.07716   0.42866   0.9158 
 H                    -1.27463   1.62423  -0.1378 
 H                    -0.68097  -0.19829  -1.72832 
 H                    -1.61018  -1.34102  -0.75802 
 H                     0.89387   0.14357   0.25083 
 H                     0.86527  -1.54111  -0.27743 
 H                    -0.04075  -1.05268   1.15644 
 H                    -7.31122  -0.48382  -0.73815 
 C                    -9.92663  -0.04319  -0.22083 
 Cl                   -10.62108   2.80875   0.77573 
 H                    -8.13783   4.12498   0.82952 
 H                    -5.83793   3.40812   0.2658 
 F                    -10.55973  -0.25573   0.94666 
 F                    -10.86325   0.37977  -1.09148 
 F                    -9.51597  -1.23925  -0.65662 
 O                    -5.10035  -1.72403  -0.94643 
 O                    -3.76365  -1.44808   0.83489 
 C                    -4.2366   -2.1101   -0.10206 
 C                    -3.73305  -3.55197  -0.3088 
 C                    -2.68835  -3.99607   0.70608 
 H                    -3.34411  -3.6136   -1.33079 
 H                    -4.60865  -4.20855  -0.28811 
 H                    -1.80791  -3.35051   0.66649 
 H                    -2.36797  -5.02772   0.52847 
 H                    -3.08248  -3.92296   1.72109 
 
                          Input orientation:                          
 ---------------------------------------------------------------------
 Center     Atomic      Atomic             Coordinates (Angstroms)
 Number     Number       Type             X           Y           Z
 ---------------------------------------------------------------------
      1          6           0       -6.422260    1.418308   -0.303132
      2          7           0       -5.186081    0.937067   -0.695128
      3          6           0       -3.986691    1.478774   -0.336788
      4          8           0       -3.794597    2.462039    0.345733
      5          8           0       -2.997454    0.749510   -0.887952
      6          6           0       -1.801885    0.664795   -0.114741
      7          6           0       -0.971705   -0.456185   -0.704898
      8          6           0        0.257509   -0.741447    0.151972
      9          6           0       -7.507376    0.531759   -0.410215
     10          6           0       -8.793418    0.935497   -0.086992
     11          6           0       -9.019159    2.240797    0.357919
     12          6           0       -7.953894    3.116940    0.477004
     13          6           0       -6.662344    2.719427    0.154163
     14          1           0       -5.139381   -0.099745   -0.903496
     15          1           0       -2.077159    0.428656    0.915796
     16          1           0       -1.274628    1.624233   -0.137803
     17          1           0       -0.680968   -0.198286   -1.728320
     18          1           0       -1.610183   -1.341020   -0.758018
     19          1           0        0.893867    0.143574    0.250835
     20          1           0        0.865274   -1.541108   -0.277431
     21          1           0       -0.040749   -1.052683    1.156441
     22          1           0       -7.311220   -0.483825   -0.738147
     23          6           0       -9.926630   -0.043193   -0.220831
     24         17           0      -10.621083    2.808754    0.775729
     25          1           0       -8.137835    4.124976    0.829522
     26          1           0       -5.837927    3.408121    0.265805
     27          9           0      -10.559729   -0.255728    0.946659
     28          9           0      -10.863253    0.379766   -1.091481
     29          9           0       -9.515973   -1.239253   -0.656620
     30          8           0       -5.100354   -1.724031   -0.946425
     31          8           0       -3.763651   -1.448079    0.834887
     32          6           0       -4.236604   -2.110105   -0.102056
     33          6           0       -3.733048   -3.551974   -0.308802
     34          6           0       -2.688352   -3.996066    0.706077
     35          1           0       -3.344113   -3.613595   -1.330790
     36          1           0       -4.608652   -4.208547   -0.288114
     37          1           0       -1.807910   -3.350511    0.666486
     38          1           0       -2.367968   -5.027722    0.528470
     39          1           0       -3.082476   -3.922960    1.721091
 ---------------------------------------------------------------------
                    Distance matrix (angstroms):
                    1          2          3          4          5
     1  C    0.000000
     2  N    1.383255   0.000000
     3  C    2.436552   1.363961   0.000000
     4  O    2.900864   2.311960   1.212248   0.000000
     5  O    3.538164   2.205095   1.346921   2.256140   0.000000
     6  C    4.685204   3.444381   2.342059   2.722686   1.426330
     7  C    5.777862   4.438717   3.601348   4.193873   2.364501
     8  C    7.034982   5.759137   4.814717   5.169083   3.728160
     9  C    1.405316   2.373576   3.646567   4.252313   4.540379
    10  C    2.429447   3.658239   4.843777   5.244597   5.854001
    11  C    2.803098   4.183432   5.137025   5.229258   6.327484
    12  C    2.416581   3.713021   4.368586   4.212586   5.659869
    13  C    1.399882   2.465249   2.989878   2.885641   4.289288
    14  H    2.076222   1.058573   2.035085   3.151468   2.304197
    15  H    4.620076   3.538213   2.513568   2.721986   2.050219
    16  H    5.154401   4.010270   2.723240   2.699253   2.072678
    17  H    6.132452   4.759469   3.959380   4.590610   2.640197
    18  H    5.565690   4.240363   3.711666   4.522520   2.512314
    19  H    7.446982   6.204050   5.093909   5.231250   4.099558
    20  H    7.865555   6.552459   5.715310   6.174780   4.532145
    21  H    6.997131   5.819094   4.920209   5.205947   4.021137
    22  H    2.144201   2.556756   3.881414   4.713761   4.489113
    23  C    3.797810   4.864018   6.132919   6.648233   7.006204
    24  Cl   4.552735   5.933454   6.857237   6.848797   8.070194
    25  H    3.398846   4.604365   5.059117   4.675803   6.384904
    26  H    2.150463   2.730275   2.740908   2.253145   4.058036
    27  F    4.634978   5.744068   6.918133   7.315352   7.846292
    28  F    4.628443   5.718214   7.004605   7.507819   7.877114
    29  F    4.093733   4.846217   6.169516   6.887556   6.819075
    30  O    3.469231   2.674312   3.445267   4.571417   3.247154
    31  O    4.071789   3.170674   3.160543   3.940717   2.895622
    32  C    4.155385   3.246305   3.605219   4.615234   3.214113
    33  C    5.651160   4.734136   5.037216   6.049839   4.402190
    34  C    6.654023   5.704194   5.722510   6.562069   5.015672
    35  H    5.987581   4.950297   5.228113   6.318781   4.399200
    36  H    5.911928   5.193883   5.721435   6.749901   5.247675
    37  H    6.706267   5.625776   5.392182   6.151060   4.543287
    38  H    7.660297   6.709520   6.760430   7.626609   5.981547
    39  H    6.616705   5.820921   5.850743   6.570155   5.352224
                    6          7          8          9         10
     6  C    0.000000
     7  C    1.514623   0.000000
     8  C    2.507939   1.525309   0.000000
     9  C    5.714685   6.616484   7.888634   0.000000
    10  C    6.996827   7.968549   9.208069   1.386139   0.000000
    11  C    7.402447   8.553642   9.746423   2.407556   1.397395
    12  C    6.649089   7.931902   9.078542   2.769421   2.404493
    13  C    5.283737   6.573117   7.737055   2.412155   2.789630
    14  H    3.513621   4.187602   5.536444   2.499905   3.884635
    15  H    1.092494   2.152120   2.720890   5.590724   6.809597
    16  H    1.095012   2.177498   2.833346   6.333629   7.550440
    17  H    2.145927   1.094729   2.170544   6.990723   8.354116
    18  H    2.115148   1.092433   2.162370   6.197189   7.565162
    19  H    2.769909   2.180252   1.094525   8.436146   9.725470
    20  H    3.464999   2.175840   1.092348   8.626452   9.972972
    21  H    2.768977   2.164966   1.093063   7.792008   9.061358
    22  H    5.662220   6.339662   7.625244   1.085093   2.152995
    23  C    8.156223   8.977502  10.214853   2.493837   1.503301
    24  Cl   9.119635  10.293812  11.460225   4.035634   2.755674
    25  H    7.280710   8.642621   9.727433   3.853004   3.382686
    26  H    4.894925   6.289296   7.374701   3.393747   3.869530
    27  F    8.869823   9.731291  10.857259   3.431923   2.367975
    28  F    9.118314   9.934333  11.246095   3.427702   2.366866
    29  F    7.964056   8.580212   9.819501   2.689175   2.361377
    30  O    4.156692   4.325680   5.556855   3.342136   4.631462
    31  O    3.035548   3.339125   4.139496   4.414240   5.641795
    32  C    3.691624   3.709236   4.704765   4.215727   5.480919
    33  C    4.642004   4.167231   4.902645   5.561719   6.767122
    34  C    4.814893   4.179532   4.424668   6.705990   7.888036
    35  H    4.707639   3.998662   4.839370   5.946779   7.206678
    36  H    5.626496   5.242262   5.991159   5.557698   6.634298
    37  H    4.090603   3.310144   3.367179   6.979629   8.230123
    38  H    5.756641   4.936567   5.040539   7.629054   8.787786
    39  H    5.104673   4.728563   4.872337   6.630741   7.712887
                   11         12         13         14         15
    11  C    0.000000
    12  C    1.384412   0.000000
    13  C    2.413541   1.389368   0.000000
    14  H    4.703400   4.491583   3.374283   0.000000
    15  H    7.196280   6.477300   5.181856   3.600866   0.000000
    16  H    7.784834   6.871590   5.505650   4.300546   1.784245
    17  H    8.934592   8.291539   6.916187   4.535139   3.055119
    18  H    8.304677   7.851201   6.545505   3.743951   2.480217
    19  H   10.133010   9.336751   7.983777   6.147501   3.057849
    20  H   10.602287  10.002215   8.660454   6.206881   3.736532
    21  H    9.596691   8.970242   7.686279   5.580993   2.529672
    22  H    3.397349   3.854235   3.387931   2.211728   5.564490
    23  C    2.524889   3.790132   4.292813   4.836008   7.945360
    24  Cl   1.750229   2.701502   4.008234   6.428702   8.870351
    25  H    2.132903   1.083624   2.146801   5.462815   7.099438
    26  H    3.389891   2.146324   1.080012   3.763024   4.841805
    27  F    2.992091   4.287871   4.966810   5.729535   8.510189
    28  F    2.994141   4.291461   4.967220   5.746998   9.012603
    29  F    3.658806   4.764621   4.946890   4.529237   7.783982
    30  O    5.725226   5.796882   4.836882   1.625323   4.152305
    31  O    6.438608   6.206900   5.121905   2.594728   2.524468
    32  C    6.481879   6.440151   5.410567   2.344965   3.484901
    33  C    7.870431   7.931421   6.937261   3.774828   4.481856
    34  C    8.893750   8.852867   7.822728   4.876432   4.471657
    35  H    8.326572   8.355735   7.302254   3.968969   4.795010
    36  H    7.839895   8.089425   7.239480   4.188391   5.418626
    37  H    9.130172   8.923953   7.789233   4.912334   3.796940
    38  H    9.853872   9.876271   8.865668   5.832342   5.477833
    39  H    8.665699   8.650934   7.706622   5.073095   4.538252
                   16         17         18         19         20
    16  H    0.000000
    17  H    2.490732   0.000000
    18  H    3.047948   1.763737   0.000000
    19  H    2.654385   2.552259   3.080920   0.000000
    20  H    3.823357   2.509804   2.529602   1.765796   0.000000
    21  H    3.219224   3.075991   2.492271   1.767671   1.765057
    22  H    6.422208   6.709859   5.765154   8.288255   8.257431
    23  C    8.811602   9.369035   8.434228  10.832382  10.895510
    24  Cl   9.465403  10.682623  10.038393  11.831009  12.327483
    25  H    7.368381   8.990996   8.660695   9.887269  10.695131
    26  H    4.916183   6.601282   6.440216   7.481614   8.350023
    27  F    9.535376  10.234682   9.174865  11.481658  11.562062
    28  F    9.715963  10.218543   9.417623  11.835856  11.912631
    29  F    8.740051   8.960439   7.907096  10.540420  10.392555
    30  O    5.147904   4.740277   3.516175   6.391562   6.005808
    31  O    4.071911   4.199398   2.680715   4.956506   4.761602
    32  C    4.766535   4.352279   2.814226   5.614743   5.136504
    33  C    5.732904   4.751573   3.097849   5.947992   5.018877
    34  C    5.856493   4.937511   3.217964   5.493283   4.429714
    35  H    5.756807   4.349104   2.915335   5.880334   4.808711
    36  H    6.720091   5.795091   4.175444   7.036273   6.089270
    37  H    5.067479   4.116019   2.471105   4.436326   3.363157
    38  H    6.774054   5.591289   3.977569   6.120371   4.822842
    39  H    6.123328   5.615948   3.870406   5.874492   5.025141
                   21         22         23         24         25
    21  H    0.000000
    22  H    7.534773   0.000000
    23  C   10.032277   2.702247   0.000000
    24  Cl  11.269388   4.907962   3.099839   0.000000
    25  H    9.616539   4.937806   4.655821   2.811024   0.000000
    26  H    7.368805   4.280859   5.372697   4.847457   2.474113
    27  F   10.551212   3.666525   1.344998   3.069859   5.006981
    28  F   11.145926   3.672543   1.346919   3.073289   5.014455
    29  F    9.648931   2.332007   1.337577   4.433876   5.734357
    30  O    5.520177   2.543506   5.161845   7.347817   6.825773
    31  O    3.757623   3.998683   6.408631   8.071462   7.084664
    32  C    4.506346   3.535910   6.054967   8.107234   7.413749
    33  C    4.693237   4.732990   7.118970   9.438225   8.923761
    34  C    3.984487   5.982686   8.299218  10.451729   9.780769
    35  H    4.863826   5.087694   7.570291   9.931681   9.355865
    36  H    5.736894   4.623846   6.755411   9.301806   9.118764
    37  H    2.939885   6.362177   8.811316  10.752697   9.796807
    38  H    4.648788   6.832793   9.085171  11.383558  10.823764
    39  H    4.220121   5.979781   8.103462  10.150875   9.545723
                   26         27         28         29         30
    26  H    0.000000
    27  F    6.015211   0.000000
    28  F    6.022214   2.156385   0.000000
    29  F    5.998081   2.151105   2.150696   0.000000
    30  O    5.324707   5.961918   6.136613   4.451595   0.000000
    31  O    5.311229   6.900787   7.579991   5.946210   2.244103
    32  C    5.757636   6.672362   7.147790   5.379374   1.268099
    33  C    7.294081   7.684074   8.179914   6.237939   2.370119
    34  C    8.058266   8.718175   9.445006   7.488215   3.702790
    35  H    7.620546   8.278113   8.517140   6.647095   2.608174
    36  H    7.735087   7.250155   7.798593   5.747547   2.616861
    37  H    7.879130   9.287115   9.950108   8.100757   4.010873
    38  H    9.125407   9.489560  10.199757   8.176240   4.533830
    39  H    7.965872   8.364068   9.325476   7.365166   4.002844
                   31         32         33         34         35
    31  O    0.000000
    32  C    1.240898   0.000000
    33  C    2.394857   1.541201   0.000000
    34  C    2.768592   2.570411   1.522690   0.000000
    35  H    3.091219   2.137010   1.095229   2.173737   0.000000
    36  H    3.097635   2.139274   1.094622   2.172812   1.743617
    37  H    2.733593   2.833341   2.167471   1.092469   2.533426
    38  H    3.854305   3.521626   2.177682   1.094761   2.531691
    39  H    2.715583   2.818213   2.163641   1.091299   3.078659
                   36         37         38         39
    36  H    0.000000
    37  H    3.080851   0.000000
    38  H    2.521611   1.773627   0.000000
    39  H    2.539228   1.750546   1.775772   0.000000
 Stoichiometry    C14H16ClF3NO4(1-)
 Framework group  C1[X(C14H16ClF3NO4)]
 Deg. of freedom   111
 Full point group                 C1      NOp   1
 Largest Abelian subgroup         C1      NOp   1
 Largest concise Abelian subgroup C1      NOp   1
                         Standard orientation:                         
 ---------------------------------------------------------------------
 Center     Atomic      Atomic             Coordinates (Angstroms)
 Number     Number       Type             X           Y           Z
 ---------------------------------------------------------------------
      1          6           0        0.705701   -1.003520   -0.324081
      2          7           0       -0.628992   -0.900901   -0.672587
      3          6           0       -1.598618   -1.795289   -0.325763
      4          8           0       -1.465659   -2.820568    0.307221
      5          8           0       -2.777272   -1.374682   -0.823820
      6          6           0       -3.919565   -1.690269   -0.030103
      7          6           0       -5.065657   -0.846852   -0.548949
      8          6           0       -6.297915   -0.985439    0.339253
      9          6           0        1.470020    0.173302   -0.400378
     10          6           0        2.826887    0.162667   -0.117218
     11          6           0        3.448037   -1.032251    0.255683
     12          6           0        2.699861   -2.193712    0.344222
     13          6           0        1.339629   -2.190686    0.061198
     14          1           0       -0.991703    0.081706   -0.825880
     15          1           0       -3.697877   -1.429049    1.007280
     16          1           0       -4.134045   -2.762072   -0.095598
     17          1           0       -5.295325   -1.133786   -1.580139
     18          1           0       -4.724957    0.190970   -0.565019
     19          1           0       -6.635191   -2.024873    0.400959
     20          1           0       -7.130558   -0.388094   -0.039042
     21          1           0       -6.077690   -0.644585    1.354194
     22          1           0        0.967715    1.095978   -0.672014
     23          6           0        3.608529    1.442968   -0.216117
     24         17           0        5.158210   -1.108130    0.620174
     25          1           0        3.188976   -3.114008    0.640978
     26          1           0        0.764387   -3.100566    0.148616
     27          9           0        4.182428    1.783585    0.951632
     28          9           0        4.602933    1.362681   -1.121050
     29          9           0        2.844269    2.477596   -0.582946
     30          8           0       -1.519042    1.618517   -0.783434
     31          8           0       -2.657593    0.871102    1.000121
     32          6           0       -2.433658    1.686888    0.092282
     33          6           0       -3.353699    2.917115   -0.031677
     34          6           0       -4.453224    2.978331    1.019933
     35          1           0       -3.773093    2.904700   -1.043349
     36          1           0       -2.716098    3.805863    0.010628
     37          1           0       -5.099310    2.099470    0.959398
     38          1           0       -5.074347    3.871960    0.901030
     39          1           0       -4.025634    2.981693    2.023968
 ---------------------------------------------------------------------
 Rotational constants (GHZ):           0.4168964           0.1108308           0.0921815
 Standard basis: Aug-CC-pVTZ (5D, 7F)
 There are  1669 symmetry adapted cartesian basis functions of A   symmetry.
 There are  1430 symmetry adapted basis functions of A   symmetry.
  1430 basis functions,  2130 primitive gaussians,  1669 cartesian basis functions
    92 alpha electrons       92 beta electrons
       nuclear repulsion energy      2171.0799825351 Hartrees.
 NAtoms=   39 NActive=   39 NUniq=   39 SFac= 1.00D+00 NAtFMM=   60 NAOKFM=F Big=F
 Integral buffers will be    131072 words long.
 Regular integral format.
 Two-electron integral symmetry is turned on.
 Nuclear repulsion after empirical dispersion term =     2171.0501677213 Hartrees.
 One-electron integrals computed using PRISM.
 NBasis=  1430 RedAO= T EigKep=  1.03D-06  NBF=  1430
 NBsUse=  1427 1.00D-06 EigRej=  6.15D-07 NBFU=  1427
 ExpMin= 2.53D-02 ExpMax= 4.56D+05 ExpMxC= 1.44D+03 IAcc=3 IRadAn=         5 AccDes= 0.00D+00
 Harris functional with IExCor= 1004 and IRadAn=       5 diagonalized for initial guess.
 HarFok:  IExCor= 1004 AccDes= 0.00D+00 IRadAn=         5 IDoV= 1 UseB2=F ITyADJ=14
 ICtDFT=  3500011 ScaDFX=  1.000000  1.000000  1.000000  1.000000
 FoFCou: FMM=F IPFlag=           0 FMFlag=      100000 FMFlg1=           0
         NFxFlg=           0 DoJE=T BraDBF=F KetDBF=T FulRan=T
         wScrn=  0.000000 ICntrl=       500 IOpCl=  0 I1Cent=   200000004 NGrid=           0
         NMat0=    1 NMatS0=      1 NMatT0=    0 NMatD0=    1 NMtDS0=    0 NMtDT0=    0
 Petite list used in FoFCou.
 Requested convergence on RMS density matrix=1.00D-08 within 128 cycles.
 Requested convergence on MAX density matrix=1.00D-06.
 Requested convergence on             energy=1.00D-06.
 No special actions if energy rises.
 SCF Done:  E(RDSDPBEP86) =  -1654.64775243     A.U. after   13 cycles
            NFock= 13  Conv=0.98D-08     -V/T= 2.0026
 DoSCS=T DFT=T ScalE2(SS,OS)=  0.220000  0.520000
 ExpMin= 2.53D-02 ExpMax= 4.56D+05 ExpMxC= 1.44D+03 IAcc=3 IRadAn=         5 AccDes= 0.00D+00
 HarFok:  IExCor=  205 AccDes= 0.00D+00 IRadAn=         5 IDoV=-2 UseB2=F ITyADJ=14
 ICtDFT= 12500011 ScaDFX=  1.000000  1.000000  1.000000  1.000000
 GSVD:  LWork=        -945 too small for GESVD, short by        4050 words or        4050 for optimal perf.
 Range of M.O.s used for correlation:    28  1427
 NBasis=  1430 NAE=    92 NBE=    92 NFC=    27 NFV=     0
 NROrb=   1400 NOA=    65 NOB=    65 NVA=  1335 NVB=  1335

 **** Warning!!: The largest alpha MO coefficient is  0.88497473D+02

 DoSCS=T DFT=T ScalE2(SS,OS)=  0.220000  0.520000
 Fully direct method using O(OVN) memory.
 JobTyp=1 Pass  1:  I=   1 to  59 NPSUse= 32 ParTrn=T ParDer=T DoDerP=F.
 JobTyp=1 Pass  2:  I=  60 to  65 NPSUse= 32 ParTrn=T ParDer=T DoDerP=F.
 Spin components of T(2) and E(2):
     alpha-alpha T2 =       0.2275336253D+00 E2=     -0.1437478070D+00
     alpha-beta  T2 =       0.1183394130D+01 E2=     -0.1934332009D+01
     beta-beta   T2 =       0.2275336253D+00 E2=     -0.1437478070D+00
 E2(DSDPBEP86) =    -0.2221827623D+01 E(DSDPBEP86) =    -0.16568695800484D+04

 **********************************************************************

            Population analysis using the SCF Density.

 **********************************************************************

 Orbital symmetries:
       Occupied  (A) (A) (A) (A) (A) (A) (A) (A) (A) (A) (A) (A)
                 (A) (A) (A) (A) (A) (A) (A) (A) (A) (A) (A) (A)
                 (A) (A) (A) (A) (A) (A) (A) (A) (A) (A) (A) (A)
                 (A) (A) (A) (A) (A) (A) (A) (A) (A) (A) (A) (A)
                 (A) (A) (A) (A) (A) (A) (A) (A) (A) (A) (A) (A)
                 (A) (A) (A) (A) (A) (A) (A) (A) (A) (A) (A) (A)
                 (A) (A) (A) (A) (A) (A) (A) (A) (A) (A) (A) (A)
                 (A) (A) (A) (A) (A) (A) (A) (A)
       Virtual   (A) (A) (A) (A) (A) (A) (A) (A) (A) (A) (A) (A)
                 (A) (A) (A) (A) (A) (A) (A) (A) (A) (A) (A) (A)
                 (A) (A) (A) (A) (A) (A) (A) (A) (A) (A) (A) (A)
                 (A) (A) (A) (A) (A) (A) (A) (A) (A) (A) (A) (A)
                 (A) (A) (A) (A) (A) (A) (A) (A) (A) (A) (A) (A)
                 (A) (A) (A) (A) (A) (A) (A) (A) (A) (A) (A) (A)
                 (A) (A) (A) (A) (A) (A) (A) (A) (A) (A) (A) (A)
                 (A) (A) (A) (A) (A) (A) (A) (A) (A) (A) (A) (A)
                 (A) (A) (A) (A) (A) (A) (A) (A) (A) (A) (A) (A)
                 (A) (A) (A) (A) (A) (A) (A) (A) (A) (A) (A) (A)
                 (A) (A) (A) (A) (A) (A) (A) (A) (A) (A) (A) (A)
                 (A) (A) (A) (A) (A) (A) (A) (A) (A) (A) (A) (A)
                 (A) (A) (A) (A) (A) (A) (A) (A) (A) (A) (A) (A)
                 (A) (A) (A) (A) (A) (A) (A) (A) (A) (A) (A) (A)
                 (A) (A) (A) (A) (A) (A) (A) (A) (A) (A) (A) (A)
                 (A) (A) (A) (A) (A) (A) (A) (A) (A) (A) (A) (A)
                 (A) (A) (A) (A) (A) (A) (A) (A) (A) (A) (A) (A)
                 (A) (A) (A) (A) (A) (A) (A) (A) (A) (A) (A) (A)
                 (A) (A) (A) (A) (A) (A) (A) (A) (A) (A) (A) (A)
                 (A) (A) (A) (A) (A) (A) (A) (A) (A) (A) (A) (A)
                 (A) (A) (A) (A) (A) (A) (A) (A) (A) (A) (A) (A)
                 (A) (A) (A) (A) (A) (A) (A) (A) (A) (A) (A) (A)
                 (A) (A) (A) (A) (A) (A) (A) (A) (A) (A) (A) (A)
                 (A) (A) (A) (A) (A) (A) (A) (A) (A) (A) (A) (A)
                 (A) (A) (A) (A) (A) (A) (A) (A) (A) (A) (A) (A)
                 (A) (A) (A) (A) (A) (A) (A) (A) (A) (A) (A) (A)
                 (A) (A) (A) (A) (A) (A) (A) (A) (A) (A) (A) (A)
                 (A) (A) (A) (A) (A) (A) (A) (A) (A) (A) (A) (A)
                 (A) (A) (A) (A) (A) (A) (A) (A) (A) (A) (A) (A)
                 (A) (A) (A) (A) (A) (A) (A) (A) (A) (A) (A) (A)
                 (A) (A) (A) (A) (A) (A) (A) (A) (A) (A) (A) (A)
                 (A) (A) (A) (A) (A) (A) (A) (A) (A) (A) (A) (A)
                 (A) (A) (A) (A) (A) (A) (A) (A) (A) (A) (A) (A)
                 (A) (A) (A) (A) (A) (A) (A) (A) (A) (A) (A) (A)
                 (A) (A) (A) (A) (A) (A) (A) (A) (A) (A) (A) (A)
                 (A) (A) (A) (A) (A) (A) (A) (A) (A) (A) (A) (A)
                 (A) (A) (A) (A) (A) (A) (A) (A) (A) (A) (A) (A)
                 (A) (A) (A) (A) (A) (A) (A) (A) (A) (A) (A) (A)
                 (A) (A) (A) (A) (A) (A) (A) (A) (A) (A) (A) (A)
                 (A) (A) (A) (A) (A) (A) (A) (A) (A) (A) (A) (A)
                 (A) (A) (A) (A) (A) (A) (A) (A) (A) (A) (A) (A)
                 (A) (A) (A) (A) (A) (A) (A) (A) (A) (A) (A) (A)
                 (A) (A) (A) (A) (A) (A) (A) (A) (A) (A) (A) (A)
                 (A) (A) (A) (A) (A) (A) (A) (A) (A) (A) (A) (A)
                 (A) (A) (A) (A) (A) (A) (A) (A) (A) (A) (A) (A)
                 (A) (A) (A) (A) (A) (A) (A) (A) (A) (A) (A) (A)
                 (A) (A) (A) (A) (A) (A) (A) (A) (A) (A) (A) (A)
                 (A) (A) (A) (A) (A) (A) (A) (A) (A) (A) (A) (A)
                 (A) (A) (A) (A) (A) (A) (A) (A) (A) (A) (A) (A)
                 (A) (A) (A) (A) (A) (A) (A) (A) (A) (A) (A) (A)
                 (A) (A) (A) (A) (A) (A) (A) (A) (A) (A) (A) (A)
                 (A) (A) (A) (A) (A) (A) (A) (A) (A) (A) (A) (A)
                 (A) (A) (A) (A) (A) (A) (A) (A) (A) (A) (A) (A)
                 (A) (A) (A) (A) (A) (A) (A) (A) (A) (A) (A) (A)
                 (A) (A) (A) (A) (A) (A) (A) (A) (A) (A) (A) (A)
                 (A) (A) (A) (A) (A) (A) (A) (A) (A) (A) (A) (A)
                 (A) (A) (A) (A) (A) (A) (A) (A) (A) (A) (A) (A)
                 (A) (A) (A) (A) (A) (A) (A) (A) (A) (A) (A) (A)
                 (A) (A) (A) (A) (A) (A) (A) (A) (A) (A) (A) (A)
                 (A) (A) (A) (A) (A) (A) (A) (A) (A) (A) (A) (A)
                 (A) (A) (A) (A) (A) (A) (A) (A) (A) (A) (A) (A)
                 (A) (A) (A) (A) (A) (A) (A) (A) (A) (A) (A) (A)
                 (A) (A) (A) (A) (A) (A) (A) (A) (A) (A) (A) (A)
                 (A) (A) (A) (A) (A) (A) (A) (A) (A) (A) (A) (A)
                 (A) (A) (A) (A) (A) (A) (A) (A) (A) (A) (A) (A)
                 (A) (A) (A) (A) (A) (A) (A) (A) (A) (A) (A) (A)
                 (A) (A) (A) (A) (A) (A) (A) (A) (A) (A) (A) (A)
                 (A) (A) (A) (A) (A) (A) (A) (A) (A) (A) (A) (A)
                 (A) (A) (A) (A) (A) (A) (A) (A) (A) (A) (A) (A)
                 (A) (A) (A) (A) (A) (A) (A) (A) (A) (A) (A) (A)
                 (A) (A) (A) (A) (A) (A) (A) (A) (A) (A) (A) (A)
                 (A) (A) (A) (A) (A) (A) (A) (A) (A) (A) (A) (A)
                 (A) (A) (A) (A) (A) (A) (A) (A) (A) (A) (A) (A)
                 (A) (A) (A) (A) (A) (A) (A) (A) (A) (A) (A) (A)
                 (A) (A) (A) (A) (A) (A) (A) (A) (A) (A) (A) (A)
                 (A) (A) (A) (A) (A) (A) (A) (A) (A) (A) (A) (A)
                 (A) (A) (A) (A) (A) (A) (A) (A) (A) (A) (A) (A)
                 (A) (A) (A) (A) (A) (A) (A) (A) (A) (A) (A) (A)
                 (A) (A) (A) (A) (A) (A) (A) (A) (A) (A) (A) (A)
                 (A) (A) (A) (A) (A) (A) (A) (A) (A) (A) (A) (A)
                 (A) (A) (A) (A) (A) (A) (A) (A) (A) (A) (A) (A)
                 (A) (A) (A) (A) (A) (A) (A) (A) (A) (A) (A) (A)
                 (A) (A) (A) (A) (A) (A) (A) (A) (A) (A) (A) (A)
                 (A) (A) (A) (A) (A) (A) (A) (A) (A) (A) (A) (A)
                 (A) (A) (A) (A) (A) (A) (A) (A) (A) (A) (A) (A)
                 (A) (A) (A) (A) (A) (A) (A) (A) (A) (A) (A) (A)
                 (A) (A) (A) (A) (A) (A) (A) (A) (A) (A) (A) (A)
                 (A) (A) (A) (A) (A) (A) (A) (A) (A) (A) (A) (A)
                 (A) (A) (A) (A) (A) (A) (A) (A) (A) (A) (A) (A)
                 (A) (A) (A) (A) (A) (A) (A) (A) (A) (A) (A) (A)
                 (A) (A) (A) (A) (A) (A) (A) (A) (A) (A) (A) (A)
                 (A) (A) (A) (A) (A) (A) (A) (A) (A) (A) (A) (A)
                 (A) (A) (A) (A) (A) (A) (A) (A) (A) (A) (A) (A)
                 (A) (A) (A) (A) (A) (A) (A) (A) (A) (A) (A) (A)
                 (A) (A) (A) (A) (A) (A) (A) (A) (A) (A) (A) (A)
                 (A) (A) (A) (A) (A) (A) (A) (A) (A) (A) (A) (A)
                 (A) (A) (A) (A) (A) (A) (A) (A) (A) (A) (A) (A)
                 (A) (A) (A) (A) (A) (A) (A) (A) (A) (A) (A) (A)
                 (A) (A) (A) (A) (A) (A) (A) (A) (A) (A) (A) (A)
                 (A) (A) (A) (A) (A) (A) (A) (A) (A) (A) (A) (A)
                 (A) (A) (A) (A) (A) (A) (A) (A) (A) (A) (A) (A)
                 (A) (A) (A) (A) (A) (A) (A) (A) (A) (A) (A) (A)
                 (A) (A) (A) (A) (A) (A) (A) (A) (A) (A) (A) (A)
                 (A) (A) (A) (A) (A) (A) (A) (A) (A) (A) (A) (A)
                 (A) (A) (A) (A) (A) (A) (A) (A) (A) (A) (A) (A)
                 (A) (A) (A) (A) (A) (A) (A) (A) (A) (A) (A) (A)
                 (A) (A) (A) (A) (A) (A) (A) (A) (A) (A) (A) (A)
                 (A) (A) (A) (A) (A) (A) (A) (A) (A) (A) (A) (A)
                 (A) (A) (A) (A) (A) (A) (A) (A) (A) (A) (A) (A)
                 (A) (A) (A) (A) (A) (A) (A) (A) (A) (A) (A) (A)
                 (A) (A) (A) (A) (A) (A) (A) (A) (A) (A) (A) (A)
                 (A) (A) (A)
 The electronic state is 1-A.
 Alpha  occ. eigenvalues -- -103.48494 -25.61808 -25.61538 -25.61516 -19.91829
 Alpha  occ. eigenvalues --  -19.86346 -19.80311 -19.80071 -14.97914 -10.99437
 Alpha  occ. eigenvalues --  -10.86062 -10.79802 -10.77710 -10.77165 -10.76366
 Alpha  occ. eigenvalues --  -10.75420 -10.74556 -10.73592 -10.73023 -10.71504
 Alpha  occ. eigenvalues --  -10.70822 -10.68776 -10.68541 -10.05991  -7.63667
 Alpha  occ. eigenvalues --   -7.63203  -7.63197  -1.48263  -1.38868  -1.38558
 Alpha  occ. eigenvalues --   -1.21351  -1.11359  -1.10778  -1.02886  -1.00774
 Alpha  occ. eigenvalues --   -0.98911  -0.91867  -0.87067  -0.86059  -0.81155
 Alpha  occ. eigenvalues --   -0.81049  -0.77194  -0.74446  -0.69316  -0.67245
 Alpha  occ. eigenvalues --   -0.66183  -0.64648  -0.64412  -0.63667  -0.61919
 Alpha  occ. eigenvalues --   -0.57477  -0.55806  -0.52853  -0.52776  -0.52453
 Alpha  occ. eigenvalues --   -0.50913  -0.50205  -0.49372  -0.48960  -0.48368
 Alpha  occ. eigenvalues --   -0.48047  -0.46519  -0.46325  -0.45546  -0.44269
 Alpha  occ. eigenvalues --   -0.43715  -0.43359  -0.43037  -0.42418  -0.41267
 Alpha  occ. eigenvalues --   -0.40026  -0.39110  -0.38645  -0.37181  -0.36492
 Alpha  occ. eigenvalues --   -0.36073  -0.35912  -0.35400  -0.34679  -0.33031
 Alpha  occ. eigenvalues --   -0.32776  -0.32503  -0.31806  -0.30403  -0.28677
 Alpha  occ. eigenvalues --   -0.27995  -0.27199  -0.23779  -0.20903  -0.20716
 Alpha  occ. eigenvalues --   -0.20077  -0.17318
 Alpha virt. eigenvalues --    0.08383   0.09224   0.09465   0.10160   0.10494
 Alpha virt. eigenvalues --    0.11189   0.11611   0.11852   0.12089   0.12336
 Alpha virt. eigenvalues --    0.12964   0.13492   0.13682   0.13737   0.13971
 Alpha virt. eigenvalues --    0.14302   0.14497   0.15370   0.15628   0.15694
 Alpha virt. eigenvalues --    0.16107   0.16559   0.16918   0.17188   0.17608
 Alpha virt. eigenvalues --    0.17761   0.18044   0.18116   0.18567   0.18783
 Alpha virt. eigenvalues --    0.19319   0.19751   0.19935   0.20011   0.20430
 Alpha virt. eigenvalues --    0.20681   0.20863   0.21036   0.21302   0.21437
 Alpha virt. eigenvalues --    0.21590   0.21902   0.22393   0.22553   0.22737
 Alpha virt. eigenvalues --    0.23005   0.23148   0.23511   0.23579   0.24035
 Alpha virt. eigenvalues --    0.24407   0.24699   0.25062   0.25376   0.25555
 Alpha virt. eigenvalues --    0.25791   0.26002   0.26207   0.26586   0.26851
 Alpha virt. eigenvalues --    0.27098   0.27483   0.27806   0.28225   0.28564
 Alpha virt. eigenvalues --    0.28929   0.28966   0.29464   0.29908   0.30002
 Alpha virt. eigenvalues --    0.30842   0.31098   0.31132   0.31553   0.31819
 Alpha virt. eigenvalues --    0.31958   0.32610   0.32686   0.33059   0.33263
 Alpha virt. eigenvalues --    0.33439   0.33598   0.33761   0.34281   0.34341
 Alpha virt. eigenvalues --    0.34608   0.34945   0.35350   0.35436   0.35701
 Alpha virt. eigenvalues --    0.35736   0.35979   0.36342   0.36391   0.36809
 Alpha virt. eigenvalues --    0.37093   0.37257   0.37492   0.37646   0.38154
 Alpha virt. eigenvalues --    0.38232   0.38305   0.38747   0.39007   0.39339
 Alpha virt. eigenvalues --    0.39718   0.39890   0.40044   0.40180   0.40316
 Alpha virt. eigenvalues --    0.40981   0.41168   0.41289   0.41388   0.41661
 Alpha virt. eigenvalues --    0.42037   0.42339   0.42466   0.42844   0.42978
 Alpha virt. eigenvalues --    0.43161   0.43321   0.43455   0.44092   0.44289
 Alpha virt. eigenvalues --    0.44448   0.44743   0.44898   0.44988   0.45319
 Alpha virt. eigenvalues --    0.45561   0.45949   0.45984   0.46304   0.46793
 Alpha virt. eigenvalues --    0.46868   0.47162   0.47463   0.47763   0.47965
 Alpha virt. eigenvalues --    0.48045   0.48386   0.48889   0.49077   0.49328
 Alpha virt. eigenvalues --    0.49365   0.49672   0.49979   0.50339   0.50529
 Alpha virt. eigenvalues --    0.50755   0.50912   0.51263   0.51619   0.51757
 Alpha virt. eigenvalues --    0.52045   0.52332   0.52430   0.52469   0.52797
 Alpha virt. eigenvalues --    0.53096   0.53495   0.53611   0.53893   0.54110
 Alpha virt. eigenvalues --    0.54310   0.54495   0.54919   0.55120   0.55676
 Alpha virt. eigenvalues --    0.55794   0.56155   0.56201   0.56507   0.56605
 Alpha virt. eigenvalues --    0.56846   0.57020   0.57227   0.57472   0.57961
 Alpha virt. eigenvalues --    0.58178   0.58332   0.58777   0.59095   0.59222
 Alpha virt. eigenvalues --    0.59438   0.59742   0.60081   0.60275   0.60405
 Alpha virt. eigenvalues --    0.60592   0.60809   0.61055   0.61364   0.61704
 Alpha virt. eigenvalues --    0.61796   0.62119   0.62614   0.62791   0.63282
 Alpha virt. eigenvalues --    0.63505   0.63550   0.64053   0.64247   0.64525
 Alpha virt. eigenvalues --    0.64839   0.65417   0.65442   0.65943   0.66329
 Alpha virt. eigenvalues --    0.66632   0.66872   0.67009   0.67457   0.67591
 Alpha virt. eigenvalues --    0.67872   0.68049   0.68527   0.68776   0.69513
 Alpha virt. eigenvalues --    0.69600   0.69767   0.70013   0.70129   0.70736
 Alpha virt. eigenvalues --    0.70910   0.71290   0.71820   0.71872   0.72054
 Alpha virt. eigenvalues --    0.72769   0.72961   0.73375   0.73880   0.74113
 Alpha virt. eigenvalues --    0.74182   0.74352   0.74511   0.74995   0.75137
 Alpha virt. eigenvalues --    0.75427   0.75907   0.76120   0.76463   0.77047
 Alpha virt. eigenvalues --    0.77576   0.77947   0.78202   0.78658   0.78779
 Alpha virt. eigenvalues --    0.79156   0.79259   0.79766   0.79992   0.80283
 Alpha virt. eigenvalues --    0.80585   0.81246   0.81394   0.81862   0.81968
 Alpha virt. eigenvalues --    0.82453   0.83127   0.83443   0.83773   0.83918
 Alpha virt. eigenvalues --    0.84907   0.85016   0.85622   0.85834   0.86027
 Alpha virt. eigenvalues --    0.86233   0.86497   0.87041   0.87978   0.88150
 Alpha virt. eigenvalues --    0.88336   0.89115   0.89196   0.89533   0.89839
 Alpha virt. eigenvalues --    0.90078   0.90674   0.90751   0.91070   0.91283
 Alpha virt. eigenvalues --    0.91595   0.92014   0.92427   0.92507   0.93117
 Alpha virt. eigenvalues --    0.93816   0.93883   0.94151   0.94534   0.94659
 Alpha virt. eigenvalues --    0.94857   0.95334   0.95816   0.95973   0.96103
 Alpha virt. eigenvalues --    0.96454   0.96674   0.96782   0.97187   0.97349
 Alpha virt. eigenvalues --    0.97957   0.98229   0.98403   0.98711   0.99056
 Alpha virt. eigenvalues --    0.99214   0.99488   0.99640   1.00190   1.00370
 Alpha virt. eigenvalues --    1.00674   1.01066   1.01208   1.01583   1.02165
 Alpha virt. eigenvalues --    1.02281   1.02444   1.02806   1.02928   1.03119
 Alpha virt. eigenvalues --    1.03725   1.03974   1.03995   1.04077   1.04591
 Alpha virt. eigenvalues --    1.04895   1.05357   1.05835   1.06240   1.06492
 Alpha virt. eigenvalues --    1.06712   1.07179   1.07318   1.07633   1.07892
 Alpha virt. eigenvalues --    1.08484   1.08540   1.08896   1.09067   1.09593
 Alpha virt. eigenvalues --    1.10057   1.10459   1.10818   1.11122   1.11163
 Alpha virt. eigenvalues --    1.11433   1.11783   1.12145   1.12202   1.12484
 Alpha virt. eigenvalues --    1.13071   1.13222   1.13815   1.14080   1.14234
 Alpha virt. eigenvalues --    1.14477   1.14654   1.15160   1.15269   1.15433
 Alpha virt. eigenvalues --    1.15885   1.16301   1.16579   1.17027   1.17175
 Alpha virt. eigenvalues --    1.17404   1.17484   1.17928   1.18197   1.18655
 Alpha virt. eigenvalues --    1.18846   1.19302   1.19596   1.19732   1.20034
 Alpha virt. eigenvalues --    1.20207   1.20599   1.21066   1.21213   1.21401
 Alpha virt. eigenvalues --    1.21914   1.22394   1.22564   1.22727   1.22953
 Alpha virt. eigenvalues --    1.23290   1.23794   1.24158   1.24338   1.24684
 Alpha virt. eigenvalues --    1.24894   1.25483   1.25642   1.26168   1.26346
 Alpha virt. eigenvalues --    1.26764   1.26949   1.27611   1.28061   1.28284
 Alpha virt. eigenvalues --    1.28341   1.28474   1.29342   1.29409   1.29805
 Alpha virt. eigenvalues --    1.29951   1.30508   1.30654   1.31278   1.31546
 Alpha virt. eigenvalues --    1.31938   1.32229   1.32444   1.32728   1.32825
 Alpha virt. eigenvalues --    1.33278   1.33640   1.34315   1.34514   1.34937
 Alpha virt. eigenvalues --    1.35776   1.36099   1.36432   1.36754   1.36904
 Alpha virt. eigenvalues --    1.37221   1.37711   1.38229   1.38555   1.38725
 Alpha virt. eigenvalues --    1.39047   1.39346   1.39683   1.40166   1.40578
 Alpha virt. eigenvalues --    1.40748   1.41016   1.41128   1.41646   1.41870
 Alpha virt. eigenvalues --    1.42725   1.43099   1.43363   1.43543   1.43701
 Alpha virt. eigenvalues --    1.44079   1.44713   1.44952   1.45070   1.45602
 Alpha virt. eigenvalues --    1.45930   1.46191   1.46744   1.47357   1.47542
 Alpha virt. eigenvalues --    1.47627   1.48359   1.49224   1.49507   1.49764
 Alpha virt. eigenvalues --    1.50253   1.50467   1.50811   1.51232   1.51611
 Alpha virt. eigenvalues --    1.51987   1.52055   1.53420   1.53503   1.53929
 Alpha virt. eigenvalues --    1.54094   1.54579   1.54818   1.55289   1.55406
 Alpha virt. eigenvalues --    1.56263   1.56826   1.57283   1.57571   1.57868
 Alpha virt. eigenvalues --    1.58497   1.58802   1.59467   1.60067   1.60462
 Alpha virt. eigenvalues --    1.60600   1.61089   1.61504   1.61925   1.62075
 Alpha virt. eigenvalues --    1.63177   1.63357   1.63780   1.64279   1.64586
 Alpha virt. eigenvalues --    1.65020   1.65488   1.65821   1.66148   1.66308
 Alpha virt. eigenvalues --    1.66648   1.67500   1.67822   1.67956   1.68302
 Alpha virt. eigenvalues --    1.68404   1.69157   1.69599   1.70216   1.70496
 Alpha virt. eigenvalues --    1.70724   1.71057   1.71339   1.71900   1.72158
 Alpha virt. eigenvalues --    1.72530   1.72925   1.73296   1.73607   1.74313
 Alpha virt. eigenvalues --    1.74399   1.74908   1.75073   1.75177   1.75488
 Alpha virt. eigenvalues --    1.76155   1.76640   1.76713   1.77446   1.77577
 Alpha virt. eigenvalues --    1.78363   1.78593   1.78947   1.79488   1.79726
 Alpha virt. eigenvalues --    1.79991   1.80319   1.80965   1.81127   1.82009
 Alpha virt. eigenvalues --    1.82062   1.82366   1.82755   1.82965   1.83073
 Alpha virt. eigenvalues --    1.83775   1.84058   1.84512   1.84980   1.85138
 Alpha virt. eigenvalues --    1.85621   1.85967   1.86104   1.87122   1.87404
 Alpha virt. eigenvalues --    1.87802   1.88205   1.88655   1.88924   1.89260
 Alpha virt. eigenvalues --    1.89429   1.89561   1.90234   1.90496   1.91228
 Alpha virt. eigenvalues --    1.91784   1.91978   1.92613   1.92827   1.93244
 Alpha virt. eigenvalues --    1.93723   1.93990   1.94405   1.94651   1.94762
 Alpha virt. eigenvalues --    1.95299   1.96051   1.96648   1.96687   1.97094
 Alpha virt. eigenvalues --    1.97528   1.97938   1.98397   1.98621   1.99414
 Alpha virt. eigenvalues --    1.99525   1.99853   2.00577   2.01006   2.01369
 Alpha virt. eigenvalues --    2.01753   2.01921   2.03175   2.04064   2.04681
 Alpha virt. eigenvalues --    2.04918   2.05070   2.05432   2.06011   2.06474
 Alpha virt. eigenvalues --    2.06598   2.07016   2.07125   2.07712   2.07871
 Alpha virt. eigenvalues --    2.08717   2.08965   2.09634   2.10034   2.10444
 Alpha virt. eigenvalues --    2.11022   2.11161   2.11651   2.12132   2.12495
 Alpha virt. eigenvalues --    2.12846   2.13182   2.13780   2.14272   2.14915
 Alpha virt. eigenvalues --    2.15878   2.16251   2.17069   2.17386   2.18235
 Alpha virt. eigenvalues --    2.18568   2.19134   2.19768   2.20110   2.21123
 Alpha virt. eigenvalues --    2.21270   2.22006   2.22461   2.22647   2.23208
 Alpha virt. eigenvalues --    2.23698   2.24427   2.24687   2.25298   2.26292
 Alpha virt. eigenvalues --    2.26496   2.26990   2.27726   2.28377   2.29390
 Alpha virt. eigenvalues --    2.29631   2.29815   2.30743   2.31580   2.31863
 Alpha virt. eigenvalues --    2.32668   2.33078   2.33778   2.33883   2.34960
 Alpha virt. eigenvalues --    2.35240   2.35511   2.36076   2.36757   2.37426
 Alpha virt. eigenvalues --    2.38121   2.38756   2.40380   2.40510   2.40675
 Alpha virt. eigenvalues --    2.41315   2.42129   2.42383   2.42839   2.43715
 Alpha virt. eigenvalues --    2.43809   2.45026   2.45336   2.45477   2.46724
 Alpha virt. eigenvalues --    2.47257   2.47914   2.48514   2.49331   2.49899
 Alpha virt. eigenvalues --    2.50472   2.50805   2.51455   2.52226   2.53008
 Alpha virt. eigenvalues --    2.53421   2.54516   2.54758   2.55770   2.56423
 Alpha virt. eigenvalues --    2.57316   2.58015   2.58959   2.59106   2.59667
 Alpha virt. eigenvalues --    2.59804   2.60989   2.61296   2.62069   2.62706
 Alpha virt. eigenvalues --    2.63031   2.64079   2.64598   2.65780   2.67095
 Alpha virt. eigenvalues --    2.67824   2.68255   2.68903   2.70058   2.70553
 Alpha virt. eigenvalues --    2.70955   2.71275   2.72756   2.73197   2.74114
 Alpha virt. eigenvalues --    2.75022   2.75452   2.75599   2.76472   2.77416
 Alpha virt. eigenvalues --    2.77744   2.78672   2.79714   2.80526   2.80660
 Alpha virt. eigenvalues --    2.81920   2.82925   2.83850   2.84540   2.84920
 Alpha virt. eigenvalues --    2.85721   2.85952   2.86849   2.87979   2.88287
 Alpha virt. eigenvalues --    2.88767   2.89168   2.89817   2.90735   2.91603
 Alpha virt. eigenvalues --    2.91853   2.92423   2.93280   2.93998   2.95134
 Alpha virt. eigenvalues --    2.95890   2.96092   2.97296   2.98404   2.98469
 Alpha virt. eigenvalues --    2.99643   3.00540   3.01987   3.02499   3.02839
 Alpha virt. eigenvalues --    3.03486   3.04440   3.05369   3.05680   3.06320
 Alpha virt. eigenvalues --    3.06826   3.08095   3.08813   3.09050   3.09860
 Alpha virt. eigenvalues --    3.10137   3.10493   3.11554   3.11828   3.12520
 Alpha virt. eigenvalues --    3.12996   3.13194   3.13628   3.14734   3.15388
 Alpha virt. eigenvalues --    3.16216   3.16933   3.17495   3.18403   3.19982
 Alpha virt. eigenvalues --    3.20985   3.21140   3.21920   3.22231   3.22594
 Alpha virt. eigenvalues --    3.23197   3.23646   3.23847   3.24857   3.25131
 Alpha virt. eigenvalues --    3.26355   3.26566   3.27275   3.28108   3.28264
 Alpha virt. eigenvalues --    3.28723   3.29457   3.30704   3.31009   3.31745
 Alpha virt. eigenvalues --    3.32570   3.33449   3.33791   3.34488   3.35137
 Alpha virt. eigenvalues --    3.35425   3.36135   3.36758   3.37933   3.38746
 Alpha virt. eigenvalues --    3.39932   3.40271   3.40816   3.41430   3.42401
 Alpha virt. eigenvalues --    3.42689   3.43882   3.44312   3.44782   3.45797
 Alpha virt. eigenvalues --    3.46765   3.47716   3.48003   3.48533   3.49068
 Alpha virt. eigenvalues --    3.49454   3.49796   3.50374   3.51003   3.51527
 Alpha virt. eigenvalues --    3.51793   3.52500   3.53271   3.53532   3.54232
 Alpha virt. eigenvalues --    3.54894   3.56111   3.56420   3.56606   3.57093
 Alpha virt. eigenvalues --    3.57222   3.57831   3.58140   3.59314   3.59513
 Alpha virt. eigenvalues --    3.60195   3.60963   3.61445   3.62006   3.62251
 Alpha virt. eigenvalues --    3.63080   3.63601   3.64023   3.64318   3.65339
 Alpha virt. eigenvalues --    3.66049   3.66944   3.67479   3.67879   3.68416
 Alpha virt. eigenvalues --    3.68900   3.69908   3.70786   3.70994   3.71478
 Alpha virt. eigenvalues --    3.72194   3.72774   3.73042   3.73763   3.74317
 Alpha virt. eigenvalues --    3.74601   3.74888   3.75193   3.75857   3.76098
 Alpha virt. eigenvalues --    3.76572   3.77457   3.78118   3.78616   3.79402
 Alpha virt. eigenvalues --    3.79800   3.80034   3.80864   3.81524   3.82163
 Alpha virt. eigenvalues --    3.83137   3.83289   3.83391   3.83836   3.84404
 Alpha virt. eigenvalues --    3.85733   3.85855   3.86796   3.87185   3.88157
 Alpha virt. eigenvalues --    3.88477   3.89077   3.89621   3.89740   3.90140
 Alpha virt. eigenvalues --    3.90863   3.91407   3.91726   3.92245   3.92803
 Alpha virt. eigenvalues --    3.93298   3.93672   3.94156   3.94894   3.95285
 Alpha virt. eigenvalues --    3.95653   3.96141   3.96526   3.97049   3.97817
 Alpha virt. eigenvalues --    3.98135   3.98776   3.98839   3.99084   3.99996
 Alpha virt. eigenvalues --    4.00887   4.02472   4.02796   4.02977   4.03747
 Alpha virt. eigenvalues --    4.04436   4.04693   4.05515   4.05683   4.06243
 Alpha virt. eigenvalues --    4.06915   4.07229   4.08059   4.08807   4.09416
 Alpha virt. eigenvalues --    4.10169   4.10845   4.11492   4.11609   4.11964
 Alpha virt. eigenvalues --    4.12718   4.13182   4.13945   4.14372   4.14884
 Alpha virt. eigenvalues --    4.15821   4.16127   4.17015   4.17398   4.17880
 Alpha virt. eigenvalues --    4.18261   4.19338   4.19441   4.20195   4.20660
 Alpha virt. eigenvalues --    4.21211   4.21939   4.22185   4.23068   4.23541
 Alpha virt. eigenvalues --    4.24870   4.25075   4.25529   4.25688   4.26294
 Alpha virt. eigenvalues --    4.27416   4.27679   4.28013   4.28092   4.29072
 Alpha virt. eigenvalues --    4.29972   4.30466   4.30950   4.31594   4.32283
 Alpha virt. eigenvalues --    4.33243   4.33497   4.34833   4.35428   4.35657
 Alpha virt. eigenvalues --    4.35999   4.36153   4.36494   4.37157   4.37819
 Alpha virt. eigenvalues --    4.38265   4.39257   4.39603   4.40096   4.40724
 Alpha virt. eigenvalues --    4.41927   4.42175   4.43245   4.44156   4.44543
 Alpha virt. eigenvalues --    4.45484   4.46506   4.46539   4.47703   4.48163
 Alpha virt. eigenvalues --    4.48813   4.49638   4.50498   4.51041   4.51923
 Alpha virt. eigenvalues --    4.52335   4.52734   4.53284   4.54186   4.54883
 Alpha virt. eigenvalues --    4.55628   4.57196   4.57353   4.58025   4.58349
 Alpha virt. eigenvalues --    4.59258   4.60159   4.61121   4.62542   4.62857
 Alpha virt. eigenvalues --    4.63833   4.64704   4.64931   4.65508   4.66194
 Alpha virt. eigenvalues --    4.66430   4.67102   4.67896   4.68784   4.68861
 Alpha virt. eigenvalues --    4.69413   4.70213   4.70837   4.71347   4.72318
 Alpha virt. eigenvalues --    4.73225   4.73978   4.74306   4.76294   4.76370
 Alpha virt. eigenvalues --    4.77026   4.77304   4.77928   4.79109   4.79985
 Alpha virt. eigenvalues --    4.80425   4.81561   4.81927   4.82748   4.83355
 Alpha virt. eigenvalues --    4.84267   4.85174   4.86235   4.86854   4.87114
 Alpha virt. eigenvalues --    4.88853   4.89168   4.89803   4.90382   4.90696
 Alpha virt. eigenvalues --    4.90921   4.91205   4.92953   4.93769   4.94278
 Alpha virt. eigenvalues --    4.94525   4.95366   4.96268   4.97532   4.98751
 Alpha virt. eigenvalues --    4.99502   5.00206   5.01279   5.01630   5.02816
 Alpha virt. eigenvalues --    5.03211   5.03997   5.06161   5.06987   5.07589
 Alpha virt. eigenvalues --    5.07925   5.08489   5.11667   5.12166   5.12771
 Alpha virt. eigenvalues --    5.13445   5.14391   5.14880   5.15462   5.15919
 Alpha virt. eigenvalues --    5.16952   5.17166   5.18489   5.18956   5.19586
 Alpha virt. eigenvalues --    5.20299   5.21385   5.21682   5.21968   5.22377
 Alpha virt. eigenvalues --    5.24649   5.25650   5.26294   5.27270   5.27636
 Alpha virt. eigenvalues --    5.28499   5.28640   5.29854   5.30476   5.31421
 Alpha virt. eigenvalues --    5.32794   5.33159   5.34795   5.35191   5.35950
 Alpha virt. eigenvalues --    5.37576   5.37939   5.39025   5.39624   5.40847
 Alpha virt. eigenvalues --    5.41115   5.42337   5.42890   5.44827   5.45077
 Alpha virt. eigenvalues --    5.47558   5.49041   5.49456   5.50990   5.52478
 Alpha virt. eigenvalues --    5.52834   5.54350   5.55630   5.56804   5.58817
 Alpha virt. eigenvalues --    5.59267   5.60133   5.61492   5.61829   5.63123
 Alpha virt. eigenvalues --    5.64580   5.64996   5.65583   5.66576   5.68730
 Alpha virt. eigenvalues --    5.69824   5.70687   5.71634   5.72504   5.73101
 Alpha virt. eigenvalues --    5.73887   5.75180   5.77135   5.77491   5.78481
 Alpha virt. eigenvalues --    5.80489   5.81504   5.82568   5.83912   5.84367
 Alpha virt. eigenvalues --    5.85374   5.86140   5.88220   5.90000   5.91163
 Alpha virt. eigenvalues --    5.92227   5.95026   5.97205   5.98733   5.99861
 Alpha virt. eigenvalues --    6.01367   6.02015   6.04918   6.06183   6.07337
 Alpha virt. eigenvalues --    6.08712   6.10111   6.10764   6.14196   6.14866
 Alpha virt. eigenvalues --    6.17133   6.17219   6.18089   6.20098   6.20835
 Alpha virt. eigenvalues --    6.22945   6.24365   6.24806   6.27110   6.29432
 Alpha virt. eigenvalues --    6.31734   6.33482   6.34218   6.37101   6.37955
 Alpha virt. eigenvalues --    6.40154   6.45026   6.46850   6.47625   6.49890
 Alpha virt. eigenvalues --    6.54977   6.60710   6.63476   6.69607   6.70881
 Alpha virt. eigenvalues --    6.73782   6.76263   6.79007   6.79396   6.80953
 Alpha virt. eigenvalues --    6.82212   6.83033   6.83403   6.87149   6.88729
 Alpha virt. eigenvalues --    6.91484   6.92736   6.94775   6.95486   6.97045
 Alpha virt. eigenvalues --    6.99482   6.99953   7.02083   7.03334   7.05198
 Alpha virt. eigenvalues --    7.06746   7.08581   7.09636   7.10083   7.14893
 Alpha virt. eigenvalues --    7.18771   7.20195   7.22515   7.23850   7.24853
 Alpha virt. eigenvalues --    7.25254   7.28989   7.29563   7.30807   7.36043
 Alpha virt. eigenvalues --    7.36373   7.38929   7.39203   7.40738   7.41978
 Alpha virt. eigenvalues --    7.47086   7.49051   7.51982   7.54127   7.55741
 Alpha virt. eigenvalues --    7.58600   7.61736   7.67164   7.69438   7.71236
 Alpha virt. eigenvalues --    7.75036   7.78511   7.82442   7.82790   7.84726
 Alpha virt. eigenvalues --    7.91324   7.92236   7.96639   8.00505   8.01651
 Alpha virt. eigenvalues --    8.07091   8.15356   8.18706   8.38454   8.48590
 Alpha virt. eigenvalues --    8.49599   8.55989   8.81596   8.84536   8.87858
 Alpha virt. eigenvalues --    8.90349   8.91529   8.96789   9.05877   9.06319
 Alpha virt. eigenvalues --    9.17779   9.21256   9.23032   9.23248   9.24093
 Alpha virt. eigenvalues --    9.26172   9.28947   9.29421   9.32365   9.33764
 Alpha virt. eigenvalues --    9.38169   9.38781   9.39020   9.40662   9.44644
 Alpha virt. eigenvalues --    9.46890   9.47357   9.48603   9.55921   9.57646
 Alpha virt. eigenvalues --    9.58898   9.61271   9.69334   9.80671   9.82605
 Alpha virt. eigenvalues --    9.88503  10.02800  10.09552  15.22046  15.85278
 Alpha virt. eigenvalues --   15.86338  15.96923  16.16553  16.35195  16.42092
 Alpha virt. eigenvalues --   16.61909  17.13617  17.50403  17.85258  17.96335
 Alpha virt. eigenvalues --   18.32088  18.51983  18.83886  19.12482  19.39707
 Alpha virt. eigenvalues --   20.01105  20.39348  20.52992  21.11775  21.25690
          Condensed to atoms (all electrons):
               1          2          3          4          5          6
     1  C    8.703204  -0.385361  -0.866529   0.106422   0.019489  -0.039878
     2  N   -0.385361   9.209817   0.548801  -0.172463  -0.262030   0.010175
     3  C   -0.866529   0.548801   6.436338   0.108363   0.229231  -0.223670
     4  O    0.106422  -0.172463   0.108363   8.993966  -0.152440   0.051706
     5  O    0.019489  -0.262030   0.229231  -0.152440   8.704027   0.281035
     6  C   -0.039878   0.010175  -0.223670   0.051706   0.281035   5.871732
     7  C   -0.003564   0.001703   0.004283  -0.027653   0.008642  -0.053675
     8  C   -0.000196   0.005847  -0.020105  -0.003922   0.007303  -0.002481
     9  C   -1.043125  -0.383314  -0.203091  -0.013157  -0.059032  -0.052851
    10  C   -0.051672   0.216512   0.059605   0.009587   0.003835  -0.003928
    11  C   -0.147658  -0.015929   0.014774  -0.000793   0.006525   0.003382
    12  C    0.014884   0.123516   0.005392   0.016979  -0.004574  -0.002466
    13  C   -0.480420  -0.608261   0.083211  -0.088301   0.007857  -0.028881
    14  H   -0.053497  -0.237067  -0.222811   0.005997   0.101184   0.015043
    15  H   -0.019963   0.046200  -0.012496   0.051914  -0.020765   0.353635
    16  H   -0.000214  -0.041064   0.042207  -0.008872  -0.182651   0.147459
    17  H    0.001139  -0.002506  -0.004562   0.009355   0.000773   0.064521
    18  H    0.008940  -0.016715  -0.027888  -0.003239  -0.057213  -0.027390
    19  H    0.000917   0.000177   0.003251  -0.000916   0.006654  -0.000872
    20  H   -0.000218   0.000059   0.001505  -0.000212   0.000340  -0.002918
    21  H    0.000687   0.000789  -0.002673   0.000187  -0.002102  -0.002900
    22  H   -0.641995  -0.206597  -0.161257   0.008831  -0.028337  -0.032153
    23  C    0.069069  -0.012188  -0.000727   0.000503  -0.000983  -0.000652
    24  Cl  -0.085204  -0.002309  -0.005605   0.000118  -0.000019  -0.000116
    25  H   -0.046780   0.011250  -0.007734  -0.000738   0.000162  -0.000248
    26  H   -0.097205  -0.219200  -0.031609  -0.022882   0.005172  -0.008160
    27  F    0.014852  -0.000849   0.001728  -0.000013  -0.000022   0.000074
    28  F    0.009782   0.003770   0.001292   0.000001   0.000051   0.000010
    29  F   -0.024047   0.008263   0.000290   0.000028   0.000035   0.000092
    30  O    0.027507  -0.204534   0.055904  -0.010095   0.000210   0.000843
    31  O    0.030869  -0.015617  -0.056430   0.019200  -0.032723  -0.031454
    32  C    0.044344  -0.008166  -0.067824   0.005270  -0.059689  -0.032644
    33  C    0.016254  -0.020914  -0.008533   0.000006  -0.006132   0.014716
    34  C    0.003015  -0.009874   0.005753  -0.000724  -0.000706  -0.001482
    35  H    0.001432   0.003614  -0.007229   0.000259  -0.002109  -0.000004
    36  H    0.001162   0.001525  -0.001246   0.000184  -0.000413   0.001003
    37  H    0.000246  -0.000893  -0.000505   0.000247   0.000005   0.007308
    38  H    0.000289  -0.000414  -0.000082  -0.000018  -0.000070   0.000571
    39  H   -0.000699  -0.000121   0.001549  -0.000264   0.000520  -0.001097
               7          8          9         10         11         12
     1  C   -0.003564  -0.000196  -1.043125  -0.051672  -0.147658   0.014884
     2  N    0.001703   0.005847  -0.383314   0.216512  -0.015929   0.123516
     3  C    0.004283  -0.020105  -0.203091   0.059605   0.014774   0.005392
     4  O   -0.027653  -0.003922  -0.013157   0.009587  -0.000793   0.016979
     5  O    0.008642   0.007303  -0.059032   0.003835   0.006525  -0.004574
     6  C   -0.053675  -0.002481  -0.052851  -0.003928   0.003382  -0.002466
     7  C    6.007466   0.073121   0.002220   0.000480  -0.000270   0.000879
     8  C    0.073121   5.840517  -0.002198   0.000157  -0.000030  -0.000026
     9  C    0.002220  -0.002198  10.440521  -1.403738   0.145459  -0.268974
    10  C    0.000480   0.000157  -1.403738   8.295089  -0.580046   0.097164
    11  C   -0.000270  -0.000030   0.145459  -0.580046   6.628703  -0.435662
    12  C    0.000879  -0.000026  -0.268974   0.097164  -0.435662   8.181898
    13  C   -0.001279  -0.001003  -0.302996  -0.137013   0.176391  -0.522347
    14  H    0.000551   0.001075  -0.082103  -0.000991   0.014367  -0.011531
    15  H    0.023837  -0.031163   0.003399  -0.000272   0.000395  -0.001150
    16  H   -0.095255  -0.011693  -0.002361   0.000403  -0.000107   0.000124
    17  H    0.394107  -0.098201   0.000549  -0.000069  -0.000005  -0.000074
    18  H    0.242093   0.006089  -0.002165   0.000195  -0.000199   0.000570
    19  H   -0.004775   0.428326  -0.000140   0.000003   0.000007  -0.000005
    20  H   -0.013640   0.439300  -0.000205   0.000012  -0.000002  -0.000001
    21  H    0.028052   0.354076   0.000071   0.000056  -0.000047   0.000095
    22  H    0.002192  -0.000441   0.707244  -0.693047  -0.099798   0.032675
    23  C    0.000112  -0.000008  -0.512787  -0.270763  -0.085906   0.053564
    24  Cl   0.000009   0.000000   0.143719   0.066130  -0.266547  -0.217024
    25  H    0.000014  -0.000002   0.009483   0.101338  -0.133361   0.325455
    26  H    0.000652   0.000020   0.002286  -0.067346   0.052252  -0.528879
    27  F    0.000007  -0.000000  -0.069343   0.076365  -0.007719   0.000353
    28  F   -0.000004  -0.000000  -0.077668   0.070697   0.002941  -0.003947
    29  F   -0.000005  -0.000001   0.000731  -0.010555   0.008298  -0.007166
    30  O    0.011701  -0.002362   0.022991   0.034569  -0.001387   0.000371
    31  O   -0.002773   0.004920   0.020444  -0.003608  -0.000276  -0.000988
    32  C   -0.025391   0.009908  -0.019741  -0.004066  -0.001675   0.000236
    33  C   -0.008044  -0.001399  -0.003121   0.000619   0.000689   0.000134
    34  C   -0.006701  -0.004572  -0.003509   0.000905   0.000140  -0.000227
    35  H   -0.001296   0.000745  -0.000917   0.000042  -0.000006   0.000060
    36  H   -0.000908   0.000066  -0.002667  -0.000448   0.000117  -0.000071
    37  H   -0.003509   0.003229  -0.000265  -0.000103   0.000149  -0.000214
    38  H   -0.001975  -0.001302  -0.000386   0.000101  -0.000011   0.000003
    39  H    0.001678   0.000441   0.000497   0.000025  -0.000034   0.000052
              13         14         15         16         17         18
     1  C   -0.480420  -0.053497  -0.019963  -0.000214   0.001139   0.008940
     2  N   -0.608261  -0.237067   0.046200  -0.041064  -0.002506  -0.016715
     3  C    0.083211  -0.222811  -0.012496   0.042207  -0.004562  -0.027888
     4  O   -0.088301   0.005997   0.051914  -0.008872   0.009355  -0.003239
     5  O    0.007857   0.101184  -0.020765  -0.182651   0.000773  -0.057213
     6  C   -0.028881   0.015043   0.353635   0.147459   0.064521  -0.027390
     7  C   -0.001279   0.000551   0.023837  -0.095255   0.394107   0.242093
     8  C   -0.001003   0.001075  -0.031163  -0.011693  -0.098201   0.006089
     9  C   -0.302996  -0.082103   0.003399  -0.002361   0.000549  -0.002165
    10  C   -0.137013  -0.000991  -0.000272   0.000403  -0.000069   0.000195
    11  C    0.176391   0.014367   0.000395  -0.000107  -0.000005  -0.000199
    12  C   -0.522347  -0.011531  -0.001150   0.000124  -0.000074   0.000570
    13  C    8.585046   0.057200   0.000702   0.001456   0.000263  -0.001497
    14  H    0.057200   1.192855  -0.002364  -0.000896   0.001344   0.004102
    15  H    0.000702  -0.002364   0.572525  -0.110360   0.043419  -0.040801
    16  H    0.001456  -0.000896  -0.110360   0.718135  -0.043449   0.032889
    17  H    0.000263   0.001344   0.043419  -0.043449   0.559243  -0.101185
    18  H   -0.001497   0.004102  -0.040801   0.032889  -0.101185   0.517295
    19  H    0.000066   0.000231   0.003419  -0.026660   0.010338  -0.008777
    20  H   -0.000068   0.000087  -0.002610   0.000276  -0.013008   0.003674
    21  H   -0.000036   0.000016  -0.032656   0.008320  -0.007209  -0.001979
    22  H   -0.107261  -0.156447  -0.003008  -0.001033   0.000419   0.001923
    23  C    0.029572  -0.006862  -0.000094  -0.000055   0.000013   0.000257
    24  Cl   0.052725  -0.001848  -0.000024  -0.000015   0.000002  -0.000001
    25  H   -0.166462  -0.002002  -0.000129   0.000069   0.000002   0.000011
    26  H   -0.115344  -0.003087  -0.002714   0.000366  -0.000308   0.000221
    27  F   -0.002343  -0.000263  -0.000003   0.000005  -0.000000   0.000028
    28  F    0.003683   0.000396   0.000006   0.000005  -0.000001  -0.000009
    29  F    0.001689  -0.002530  -0.000004  -0.000005   0.000005  -0.000009
    30  O    0.001751  -0.133465   0.004238   0.001203  -0.001093   0.003297
    31  O    0.003078  -0.060371  -0.049521   0.009765   0.000782  -0.006605
    32  C   -0.000052   0.019315  -0.038038   0.003489   0.005274  -0.010701
    33  C   -0.000459  -0.043501   0.006115   0.004871  -0.002364   0.001236
    34  C    0.000265   0.000207  -0.002427   0.000335  -0.000605   0.008144
    35  H    0.000139  -0.003209  -0.001080   0.000268  -0.002449  -0.002047
    36  H   -0.000007  -0.000626   0.000183   0.000157   0.000042   0.005637
    37  H   -0.000073   0.001723   0.003568   0.000503   0.002110  -0.009207
    38  H    0.000050   0.000283  -0.000307   0.000056  -0.000084   0.001096
    39  H    0.000003   0.000570   0.000421  -0.000190  -0.000238  -0.001708
              19         20         21         22         23         24
     1  C    0.000917  -0.000218   0.000687  -0.641995   0.069069  -0.085204
     2  N    0.000177   0.000059   0.000789  -0.206597  -0.012188  -0.002309
     3  C    0.003251   0.001505  -0.002673  -0.161257  -0.000727  -0.005605
     4  O   -0.000916  -0.000212   0.000187   0.008831   0.000503   0.000118
     5  O    0.006654   0.000340  -0.002102  -0.028337  -0.000983  -0.000019
     6  C   -0.000872  -0.002918  -0.002900  -0.032153  -0.000652  -0.000116
     7  C   -0.004775  -0.013640   0.028052   0.002192   0.000112   0.000009
     8  C    0.428326   0.439300   0.354076  -0.000441  -0.000008   0.000000
     9  C   -0.000140  -0.000205   0.000071   0.707244  -0.512787   0.143719
    10  C    0.000003   0.000012   0.000056  -0.693047  -0.270763   0.066130
    11  C    0.000007  -0.000002  -0.000047  -0.099798  -0.085906  -0.266547
    12  C   -0.000005  -0.000001   0.000095   0.032675   0.053564  -0.217024
    13  C    0.000066  -0.000068  -0.000036  -0.107261   0.029572   0.052725
    14  H    0.000231   0.000087   0.000016  -0.156447  -0.006862  -0.001848
    15  H    0.003419  -0.002610  -0.032656  -0.003008  -0.000094  -0.000024
    16  H   -0.026660   0.000276   0.008320  -0.001033  -0.000055  -0.000015
    17  H    0.010338  -0.013008  -0.007209   0.000419   0.000013   0.000002
    18  H   -0.008777   0.003674  -0.001979   0.001923   0.000257  -0.000001
    19  H    0.370493  -0.001421  -0.006911   0.000042   0.000000   0.000000
    20  H   -0.001421   0.318744   0.006822  -0.000091  -0.000003  -0.000000
    21  H   -0.006911   0.006822   0.348489   0.000102   0.000009   0.000001
    22  H    0.000042  -0.000091   0.000102   2.037092  -0.067876   0.008223
    23  C    0.000000  -0.000003   0.000009  -0.067876   5.111645  -0.050802
    24  Cl   0.000000  -0.000000   0.000001   0.008223  -0.050802  17.869859
    25  H   -0.000003  -0.000000   0.000007   0.005974   0.010117   0.030202
    26  H    0.000093   0.000006  -0.000041  -0.001361  -0.002329  -0.007235
    27  F   -0.000000  -0.000000   0.000000  -0.001471   0.181870  -0.014222
    28  F   -0.000000   0.000000  -0.000000  -0.005162   0.182180  -0.015622
    29  F    0.000000  -0.000000  -0.000000  -0.006690   0.192854   0.010458
    30  O   -0.000480   0.000300  -0.000017  -0.012801  -0.005177  -0.000062
    31  O   -0.001007   0.000464   0.009763   0.014581  -0.000034  -0.000003
    32  C    0.003623  -0.003301   0.001472   0.031418   0.001882   0.000298
    33  C   -0.002094   0.000953   0.002490  -0.008871  -0.000027  -0.000010
    34  C    0.000995  -0.001921  -0.003237  -0.002057  -0.000071  -0.000001
    35  H   -0.000184   0.000349   0.000163  -0.000197  -0.000060   0.000003
    36  H   -0.000097   0.000052   0.000079   0.000642  -0.000094  -0.000012
    37  H   -0.000096  -0.000351  -0.001537  -0.001100  -0.000061  -0.000001
    38  H    0.000072  -0.000443  -0.000198   0.000095   0.000006   0.000000
    39  H    0.000146   0.000062  -0.000823   0.000107   0.000025   0.000001
              25         26         27         28         29         30
     1  C   -0.046780  -0.097205   0.014852   0.009782  -0.024047   0.027507
     2  N    0.011250  -0.219200  -0.000849   0.003770   0.008263  -0.204534
     3  C   -0.007734  -0.031609   0.001728   0.001292   0.000290   0.055904
     4  O   -0.000738  -0.022882  -0.000013   0.000001   0.000028  -0.010095
     5  O    0.000162   0.005172  -0.000022   0.000051   0.000035   0.000210
     6  C   -0.000248  -0.008160   0.000074   0.000010   0.000092   0.000843
     7  C    0.000014   0.000652   0.000007  -0.000004  -0.000005   0.011701
     8  C   -0.000002   0.000020  -0.000000  -0.000000  -0.000001  -0.002362
     9  C    0.009483   0.002286  -0.069343  -0.077668   0.000731   0.022991
    10  C    0.101338  -0.067346   0.076365   0.070697  -0.010555   0.034569
    11  C   -0.133361   0.052252  -0.007719   0.002941   0.008298  -0.001387
    12  C    0.325455  -0.528879   0.000353  -0.003947  -0.007166   0.000371
    13  C   -0.166462  -0.115344  -0.002343   0.003683   0.001689   0.001751
    14  H   -0.002002  -0.003087  -0.000263   0.000396  -0.002530  -0.133465
    15  H   -0.000129  -0.002714  -0.000003   0.000006  -0.000004   0.004238
    16  H    0.000069   0.000366   0.000005   0.000005  -0.000005   0.001203
    17  H    0.000002  -0.000308  -0.000000  -0.000001   0.000005  -0.001093
    18  H    0.000011   0.000221   0.000028  -0.000009  -0.000009   0.003297
    19  H   -0.000003   0.000093  -0.000000  -0.000000   0.000000  -0.000480
    20  H   -0.000000   0.000006  -0.000000   0.000000  -0.000000   0.000300
    21  H    0.000007  -0.000041   0.000000  -0.000000  -0.000000  -0.000017
    22  H    0.005974  -0.001361  -0.001471  -0.005162  -0.006690  -0.012801
    23  C    0.010117  -0.002329   0.181870   0.182180   0.192854  -0.005177
    24  Cl   0.030202  -0.007235  -0.014222  -0.015622   0.010458  -0.000062
    25  H    0.641245  -0.164675  -0.001427  -0.001772  -0.000406   0.000027
    26  H   -0.164675   1.701619  -0.000345   0.000228   0.000333   0.000152
    27  F   -0.001427  -0.000345   9.335525  -0.017630  -0.072720  -0.000072
    28  F   -0.001772   0.000228  -0.017630   9.340547  -0.071063  -0.000094
    29  F   -0.000406   0.000333  -0.072720  -0.071063   9.335747  -0.002390
    30  O    0.000027   0.000152  -0.000072  -0.000094  -0.002390   9.183529
    31  O   -0.000156  -0.000291  -0.000007   0.000027  -0.000146  -0.058138
    32  C    0.000371  -0.002078   0.000502  -0.000688   0.003572   0.060160
    33  C    0.000038   0.000149  -0.000016  -0.000000   0.000049  -0.050966
    34  C   -0.000012   0.000158  -0.000000  -0.000004  -0.000014  -0.009959
    35  H    0.000007  -0.000059  -0.000007   0.000015  -0.000006   0.033157
    36  H   -0.000001  -0.000006  -0.000025  -0.000032   0.000102  -0.025661
    37  H   -0.000008   0.000001  -0.000004  -0.000002   0.000010   0.009681
    38  H   -0.000000   0.000006  -0.000000  -0.000000  -0.000007  -0.008649
    39  H    0.000003   0.000017   0.000011   0.000001  -0.000004   0.005182
              31         32         33         34         35         36
     1  C    0.030869   0.044344   0.016254   0.003015   0.001432   0.001162
     2  N   -0.015617  -0.008166  -0.020914  -0.009874   0.003614   0.001525
     3  C   -0.056430  -0.067824  -0.008533   0.005753  -0.007229  -0.001246
     4  O    0.019200   0.005270   0.000006  -0.000724   0.000259   0.000184
     5  O   -0.032723  -0.059689  -0.006132  -0.000706  -0.002109  -0.000413
     6  C   -0.031454  -0.032644   0.014716  -0.001482  -0.000004   0.001003
     7  C   -0.002773  -0.025391  -0.008044  -0.006701  -0.001296  -0.000908
     8  C    0.004920   0.009908  -0.001399  -0.004572   0.000745   0.000066
     9  C    0.020444  -0.019741  -0.003121  -0.003509  -0.000917  -0.002667
    10  C   -0.003608  -0.004066   0.000619   0.000905   0.000042  -0.000448
    11  C   -0.000276  -0.001675   0.000689   0.000140  -0.000006   0.000117
    12  C   -0.000988   0.000236   0.000134  -0.000227   0.000060  -0.000071
    13  C    0.003078  -0.000052  -0.000459   0.000265   0.000139  -0.000007
    14  H   -0.060371   0.019315  -0.043501   0.000207  -0.003209  -0.000626
    15  H   -0.049521  -0.038038   0.006115  -0.002427  -0.001080   0.000183
    16  H    0.009765   0.003489   0.004871   0.000335   0.000268   0.000157
    17  H    0.000782   0.005274  -0.002364  -0.000605  -0.002449   0.000042
    18  H   -0.006605  -0.010701   0.001236   0.008144  -0.002047   0.005637
    19  H   -0.001007   0.003623  -0.002094   0.000995  -0.000184  -0.000097
    20  H    0.000464  -0.003301   0.000953  -0.001921   0.000349   0.000052
    21  H    0.009763   0.001472   0.002490  -0.003237   0.000163   0.000079
    22  H    0.014581   0.031418  -0.008871  -0.002057  -0.000197   0.000642
    23  C   -0.000034   0.001882  -0.000027  -0.000071  -0.000060  -0.000094
    24  Cl  -0.000003   0.000298  -0.000010  -0.000001   0.000003  -0.000012
    25  H   -0.000156   0.000371   0.000038  -0.000012   0.000007  -0.000001
    26  H   -0.000291  -0.002078   0.000149   0.000158  -0.000059  -0.000006
    27  F   -0.000007   0.000502  -0.000016  -0.000000  -0.000007  -0.000025
    28  F    0.000027  -0.000688  -0.000000  -0.000004   0.000015  -0.000032
    29  F   -0.000146   0.003572   0.000049  -0.000014  -0.000006   0.000102
    30  O   -0.058138   0.060160  -0.050966  -0.009959   0.033157  -0.025661
    31  O    9.164254   0.120201  -0.050833   0.002388  -0.008442  -0.031093
    32  C    0.120201   5.292639  -0.216074   0.017654  -0.012623  -0.055599
    33  C   -0.050833  -0.216074   5.714321   0.069613   0.416814   0.399816
    34  C    0.002388   0.017654   0.069613   6.056253  -0.014827  -0.076455
    35  H   -0.008442  -0.012623   0.416814  -0.014827   0.539692  -0.047564
    36  H   -0.031093  -0.055599   0.399816  -0.076455  -0.047564   0.488417
    37  H    0.033771  -0.079802   0.110705   0.098445  -0.013712   0.017075
    38  H   -0.016893   0.037685  -0.068760   0.532219  -0.012367  -0.007567
    39  H    0.007639  -0.021892   0.032008   0.406158   0.010000  -0.013015
              37         38         39
     1  C    0.000246   0.000289  -0.000699
     2  N   -0.000893  -0.000414  -0.000121
     3  C   -0.000505  -0.000082   0.001549
     4  O    0.000247  -0.000018  -0.000264
     5  O    0.000005  -0.000070   0.000520
     6  C    0.007308   0.000571  -0.001097
     7  C   -0.003509  -0.001975   0.001678
     8  C    0.003229  -0.001302   0.000441
     9  C   -0.000265  -0.000386   0.000497
    10  C   -0.000103   0.000101   0.000025
    11  C    0.000149  -0.000011  -0.000034
    12  C   -0.000214   0.000003   0.000052
    13  C   -0.000073   0.000050   0.000003
    14  H    0.001723   0.000283   0.000570
    15  H    0.003568  -0.000307   0.000421
    16  H    0.000503   0.000056  -0.000190
    17  H    0.002110  -0.000084  -0.000238
    18  H   -0.009207   0.001096  -0.001708
    19  H   -0.000096   0.000072   0.000146
    20  H   -0.000351  -0.000443   0.000062
    21  H   -0.001537  -0.000198  -0.000823
    22  H   -0.001100   0.000095   0.000107
    23  C   -0.000061   0.000006   0.000025
    24  Cl  -0.000001   0.000000   0.000001
    25  H   -0.000008  -0.000000   0.000003
    26  H    0.000001   0.000006   0.000017
    27  F   -0.000004  -0.000000   0.000011
    28  F   -0.000002  -0.000000   0.000001
    29  F    0.000010  -0.000007  -0.000004
    30  O    0.009681  -0.008649   0.005182
    31  O    0.033771  -0.016893   0.007639
    32  C   -0.079802   0.037685  -0.021892
    33  C    0.110705  -0.068760   0.032008
    34  C    0.098445   0.532219   0.406158
    35  H   -0.013712  -0.012367   0.010000
    36  H    0.017075  -0.007567  -0.013015
    37  H    0.408334  -0.067667   0.008862
    38  H   -0.067667   0.408849  -0.003260
    39  H    0.008862  -0.003260   0.341208
 Mulliken charges:
               1
     1  C    0.913721
     2  N   -0.365630
     3  C    0.329129
     4  O   -0.882420
     5  O   -0.511039
     6  C   -0.273386
     7  C   -0.553079
     8  C   -0.994034
     9  C   -0.989758
    10  C    0.193776
    11  C    0.722878
    12  C   -0.849078
    13  C   -0.441044
    14  H    0.608926
    15  H    0.257972
    16  H    0.552519
    17  H    0.183712
    18  H    0.481640
    19  H    0.225582
    20  H    0.267409
    21  H    0.300620
    22  H    0.387492
    23  C    1.183883
    24  Cl  -0.515063
    25  H    0.390142
    26  H    0.511424
    27  F   -0.422818
    28  F   -0.421931
    29  F   -0.364790
    30  O   -0.929370
    31  O   -1.014736
    32  C    1.000729
    33  C   -0.299476
    34  C   -1.063264
    35  H    0.123636
    36  H    0.347348
    37  H    0.473139
    38  H    0.209079
    39  H    0.226164
 Sum of Mulliken charges =  -1.00000
 Mulliken charges with hydrogens summed into heavy atoms:
               1
     1  C    0.913721
     2  N    0.243296
     3  C    0.329129
     4  O   -0.882420
     5  O   -0.511039
     6  C    0.537104
     7  C    0.112272
     8  C   -0.200423
     9  C   -0.602266
    10  C    0.193776
    11  C    0.722878
    12  C   -0.458937
    13  C    0.070380
    23  C    1.183883
    24  Cl  -0.515063
    27  F   -0.422818
    28  F   -0.421931
    29  F   -0.364790
    30  O   -0.929370
    31  O   -1.014736
    32  C    1.000729
    33  C    0.171507
    34  C   -0.154882
 Electronic spatial extent (au):  <R**2>=          11033.4323
 Charge=             -1.0000 electrons
 Dipole moment (field-independent basis, Debye):
    X=              1.7760    Y=             -1.7127    Z=             -0.7652  Tot=              2.5832
 Quadrupole moment (field-independent basis, Debye-Ang):
   XX=           -192.4092   YY=           -162.9175   ZZ=           -153.3374
[...]
  1333. RY*(  18) H  37                  0.00000     4.26822   
  1334. RY*(  19) H  37                  0.00000     2.56740   
  1335. RY*(  20) H  37                  0.00000     4.57786   
  1336. RY*(  21) H  37                  0.00000     4.61274   
  1337. RY*(  22) H  37                  0.00000     4.21796   
  1338. RY*(   1) H  38                  0.00095     0.75675   
  1339. RY*(   2) H  38                  0.00033     1.39648   
  1340. RY*(   3) H  38                  0.00018     1.61322   
  1341. RY*(   4) H  38                  0.00012     2.16501   
  1342. RY*(   5) H  38                  0.00007     2.54323   
  1343. RY*(   6) H  38                  0.00004     1.28157   
  1344. RY*(   7) H  38                  0.00003     2.41614   
  1345. RY*(   8) H  38                  0.00000     5.24995   
  1346. RY*(   9) H  38                  0.00000     3.58793   
  1347. RY*(  10) H  38                  0.00000     3.69360   
  1348. RY*(  11) H  38                  0.00001     2.84266   
  1349. RY*(  12) H  38                  0.00000     3.92795   
  1350. RY*(  13) H  38                  0.00000     2.54712   
  1351. RY*(  14) H  38                  0.00000     4.56134   
  1352. RY*(  15) H  38                  0.00000     1.74929   
  1353. RY*(  16) H  38                  0.00000     4.46086   
  1354. RY*(  17) H  38                  0.00001     1.98559   
  1355. RY*(  18) H  38                  0.00000     4.47385   
  1356. RY*(  19) H  38                  0.00000     1.97492   
  1357. RY*(  20) H  38                  0.00000     4.72293   
  1358. RY*(  21) H  38                  0.00000     2.23206   
  1359. RY*(  22) H  38                  0.00000     4.88908   
  1360. RY*(   1) H  39                  0.00090     0.87031   
  1361. RY*(   2) H  39                  0.00030     1.76533   
  1362. RY*(   3) H  39                  0.00021     2.45707   
  1363. RY*(   4) H  39                  0.00019     1.93530   
  1364. RY*(   5) H  39                  0.00009     2.30039   
  1365. RY*(   6) H  39                  0.00006     3.48235   
  1366. RY*(   7) H  39                  0.00002     5.02134   
  1367. RY*(   8) H  39                  0.00001     3.49053   
  1368. RY*(   9) H  39                  0.00000     3.77213   
  1369. RY*(  10) H  39                  0.00001     3.58949   
  1370. RY*(  11) H  39                  0.00001     4.96903   
  1371. RY*(  12) H  39                  0.00001     3.90333   
  1372. RY*(  13) H  39                  0.00001     1.70900   
  1373. RY*(  14) H  39                  0.00000     1.51548   
  1374. RY*(  15) H  39                  0.00000     5.01633   
  1375. RY*(  16) H  39                  0.00000     4.47046   
  1376. RY*(  17) H  39                  0.00000     7.55909   
  1377. RY*(  18) H  39                  0.00000     4.80472   
  1378. RY*(  19) H  39                  0.00000     5.76428   
  1379. RY*(  20) H  39                  0.00000     3.74210   
  1380. RY*(  21) H  39                  0.00000     3.49976   
  1381. RY*(  22) H  39                  0.00000     4.93682   
  1415. BD*(   1) O  30 - C  32          0.05024     8.12238   
  1416. BD*(   1) O  31 - C  32          0.04237     6.85189   
  1417. BD*(   2) O  31 - C  32          0.30659     6.05395  1374(r),1423(r),1307(r)
                                                    1380(r),1359(r),1366(r)
                                                    1381(r),1303(r),1269(r)
                                                    1369(r),1283(r),1365(r)
                                                    1265(r),1268(r),1325(r)
                                                    1241(r),1322(r),1289(r)
                                                    1180(g),1261(r),1418(g)
                                                    1226(v),1216(v),1378(r)
                                                    1137(g),1242(r),1247(r)
                                                    1251(r),1345(r),1197(v)
                                                    1358(r),1424(r),1245(r)
                                                    1222(v),1376(r),1267(r)
                                                    1324(r),1302(r),1205(v)
                                                    1292(r),1408(r),1256(r)
                                                    1202(v),1375(r),1362(r)
                                                    1238(r),1328(r),1244(r)
                                                    1171(g),1264(r),1176(g)
                                                    1285(r),1228(v),1126(g)
                                                    1347(r),1364(r),1257(r)
                                                    1250(r),1221(v),1213(v)
                                                    1321(r),1363(r),1188(g)
                                                    1279(r),1344(r),1201(v)
                                                    1361(r),1217(v),1167(g)
                                                    1271(r),1138(g),1294(r)
                                                    1346(r),1231(r),1207(v)
                                                    1318(r),1306(r),1214(v)
                                                    1252(r),1419(v),1209(v)
                                                    1198(v),1179(g),1337(r)
                                                    1379(r),1121(g),1243(r)
                                                    1330(r),691(r),1254(r)
                                                    1230(v),1339(r),1220(v)
                                                    1255(r),1280(r),1170(g)
                                                    1211(v),1299(r),246(r)
                                                    1232(r),1295(r),281(r)
                                                    1282(r),1199(v),731(r)
                                                    1263(r),1377(r),1405(r)
                                                    1357(r),1084(v),1308(r)
                                                    1426(r),1258(r),1387(r)
                                                    1275(r),1272(r),1336(r)
                                                    1319(r),1388(r),1192(v)
                                                    1082(v),1136(g),1293(r)
                                                    1163(g),737(r),1146(g)
                                                    1348(r),1246(r),1210(v)
                                                    1184(g),1284(r),1356(r)
                                                    762(r),1083(v),1422(r)
                                                    285(r),1240(r),1208(v)
                                                    1141(g),1352(r),1309(r)
                                                    1218(v),1111(g),1373(r)
                                                    1107(v),1270(r),1350(r)
                                                    1301(r),1327(r),1368(r)
                                                    1087(v),1372(r),1370(r)
                                                    1297(r),359(r),1239(r)
                                                    335(r),714(r),1298(r)
                                                    1236(r),302(r),1162(g)
                                                    1165(g),256(r),1235(r)
                                                    1124(g),716(r),1164(g)
                                                    739(r),97(r),1195(v),1212(v)
                                                    1253(r),1427(r),1144(g)
                                                    1161(g),293(r),1190(v)
                                                    327(r),235(r),1414(r)
                                                    1407(r),636(r),1079(v)
                                                    1333(r),1332(r),1394(r)
                                                    274(r),305(r),1384(r)
                                                    1151(g),1134(g),1385(r)
                                                    1313(r),1215(v),1219(v)
                                                    1305(r),362(r),1288(r)
                                                    200(r),1260(r),1090(v)
                                                    1367(r),446(r),1400(r)
                                                    101(r),1077(v),197(r)
                                                    1194(v),1177(g),1122(g)
                                                    1133(g),1300(r),1101(v)
                                                    668(r),377(r),1287(r),717(r)
                                                    788(r),1342(r),1191(v)
                                                    1404(r),1174(g),1168(g)
                                                    1193(v),698(r),705(r),100(r)
                                                    1118(g),1182(g),354(r)
                                                    700(r),690(r),465(r),1355(r)
                                                    766(r),1187(g),406(r),169(r)
                                                    334(r),622(r),1155(g),401(r)
                                                    1234(r),1125(g),1276(r)
                                                    1227(v),1354(r),1312(r)
                                                    1341(r),1390(r),1117(g)
                                                    1169(g),610(r),431(r)
                                                    1152(g),1189(g),342(r)
                                                    1097(v),1076(v),128(r)
                                                    394(r),697(r),1421(v),558(r)
                                                    338(r),1175(g),289(r)
                                                    1371(r),1310(r),778(r)
                                                    539(r),760(r),188(r),234(r)
                                                    1142(g),1120(g),805(r)
                                                    314(r),395(r),707(r),419(r)
                                                    1185(g),1335(r),1143(g)
                                                    1173(g),1415(g),1401(r)
                                                    631(r),1186(g),320(r),460(r)
                                                    721(r),677(r),1315(r)
                                                    1392(r),807(r),353(r),633(r)
                                                    1110(g),350(r),114(r),288(r)
                                                    386(r),1411(r),491(r),385(r)
                                                    1360(r),785(r),326(r),728(r)
                                                    345(r),789(r),1304(r),427(r)
                                                    1085(v),1123(g),1396(r)
                                                    1157(g),657(r),1078(v)
                                                    364(r),793(r),1158(g)
                                                    1416(g),719(r),1091(v)
                                                    730(r),1329(r),360(r),699(r)
                                                    1266(r),661(r),190(r),96(r)
                                                    349(r),239(r),448(r),806(r)
                                                    1391(r),718(r),621(r),757(r)
                                                    759(r),259(r),501(r),381(r)
                                                    726(r),783(r),389(r),810(r)
                                                    1398(r),1037(r),373(r)
                                                    397(r),311(r),603(r),554(r)
                                                    732(r),250(r),193(r),727(r)
                                                    740(r),444(r),706(r),861(r)
                                                    484(r),309(r),767(r),292(r)
                                                    858(r),724(r),423(r),765(r)
                                                    439(r),842(r),167(r),786(r)
                                                    262(r),191(r),430(r),751(r)
                                                    596(r),108(r),277(r),399(r)
                                                    784(r),764(r),774(r),645(r)
                                                    642(r),649(r),109(r),356(r)
                                                    299(r),106(r),437(r),654(r)
                                                    834(r),358(r),438(r),605(r)
                                                    276(r),195(r),665(r),768(r)
                                                    330(r),347(r),110(r),301(r)
                                                    758(r),782(r),361(r),1057(r)
                                                    352(r),346(r),612(r),1413(r)
                                                    318(r),242(r),105(r),214(r)
                                                    126(r),341(r),368(r),725(r)
                                                    147(r),117(r),771(r),284(r)
                                                    638(r),949(r),755(r),122(r)
                                                    296(r),779(r),632(r),412(r)
                                                    307(r),720(r),157(r),736(r)
                                                    403(r),752(r),628(r),681(r)
                                                    336(r),708(r),348(r),763(r)
                                                    495(r),656(r),435(r),641(r)
                                                    379(r),520(r),321(r),161(r)
                                                    709(r),795(r),1393(r),770(r)
                                                    1041(r),1397(r),487(r)
                                                    553(r),756(r),781(r),1036(r)
                                                    676(r),634(r),792(r),761(r)
                                                    1030(r),599(r),408(r),601(r)
                                                    684(r),172(r),686(r),1429(r)
                                                    295(r),833(r),569(r),143(r)
                                                    968(r),508(r),604(r),808(r)
                                                    357(r),481(r),474(r),264(r)
                                                    75(r),748(r),146(r),187(r)
                                                    351(r),565(r),261(r),388(r)
                                                    990(r),516(r),303(r),608(r)
                                                    155(r),160(r),283(r),436(r)
                                                    696(r),845(r),479(r),130(r)
                                                    102(r),272(r),355(r),247(r)
                                                    210(r),802(r),306(r),384(r)
                                                    747(r),671(r),526(r),812(r)
                                                    152(r),1399(r),602(r),461(r)
                                                    325(r),620(r),614(r),414(r)
                                                    1029(r),592(r),416(r),111(r)
                                                    648(r),209(r),339(r),454(r)
                                                    616(r),224(r),729(r),120(r)
                                                    142(r),817(r),655(r),420(r)
                                                    650(r),797(r),809(r),396(r)
                                                    703(r),138(r),433(r),643(r)
                                                    750(r),594(r),158(r),613(r)
                                                    993(r),387(r),402(r),164(r)
                                                    447(r),328(r),950(r),1049(r)
                                                    255(r),1038(r),637(r),426(r)
                                                    852(r),624(r),972(r),202(r)
                                                    798(r),404(r),476(r),482(r)
                                                    113(r),459(r),502(r),854(r)
                                                    304(r),166(r),572(r),711(r)
                                                    205(r),658(r)
  1418. BD*(   1) C  32 - C  33          0.08370     1.16403   
  1419. BD*(   1) C  33 - C  34          0.00661     9.23632   
  1420. BD*(   1) C  33 - H  35          0.01183     1.50395   
  1421. BD*(   1) C  33 - H  36          0.01179     7.27562   
  1422. BD*(   1) C  34 - H  37          0.00797     0.97092   
  1423. BD*(   1) C  34 - H  38          0.00755     5.04209   
  1424. BD*(   1) C  34 - H  39          0.00782     0.96633   
       -------------------------------
              Total Lewis   39.30242  ( 98.4776%)
        Valence non-Lewis    0.53646  (  1.3442%)
        Rydberg non-Lewis    0.07114  (  0.1782%)
       -------------------------------
            Total unit  2   39.91002  (100.0000%)
           Charge unit  2   -0.91002
 Unable to Open any file for archive entry.
 1\1\GINC-GADI-HMEM-CLX-0041\SP\RDSDPBEP86-FC\Aug-CC-pVTZ\C14H16Cl1F3N1
 O4(1-)\HIO507\28-Apr-2021\0\\# DSDPBEP86/AUG-cc-PVTZ SCF=Tight INT(gri
 d=ultrafine) Pop=NBO MaxDisk=1400000MB\\29CA_carboxy_c2.DSDPBEP86_AUG-
 cc-PVTZ\\-1,1\C,0,-6.4222601564,1.4183083535,-0.3031322016\N,0,-5.1860
 807491,0.9370669026,-0.6951275925\C,0,-3.9866908264,1.4787735708,-0.33
 67876123\O,0,-3.7945968187,2.4620385979,0.3457330784\O,0,-2.9974541498
 ,0.7495097861,-0.8879516169\C,0,-1.8018852063,0.664795326,-0.114740647
 9\C,0,-0.971705387,-0.4561848771,-0.704898468\C,0,0.2575091305,-0.7414
 465475,0.1519716541\C,0,-7.5073759977,0.531759087,-0.410214523\C,0,-8.
 7934181194,0.9354971633,-0.0869921911\C,0,-9.0191586907,2.2407969726,0
 .357918767\C,0,-7.9538936089,3.1169398385,0.4770035081\C,0,-6.66234404
 19,2.7194266758,0.1541633191\H,0,-5.1393810542,-0.0997445505,-0.903495
 5561\H,0,-2.0771588673,0.4286564469,0.9157960893\H,0,-1.2746280517,1.6
 242325046,-0.1378032552\H,0,-0.6809684898,-0.1982860248,-1.7283197168\
 H,0,-1.6101829276,-1.3410204357,-0.7580179465\H,0,0.8938670562,0.14357
 36297,0.2508346549\H,0,0.8652738516,-1.5411083586,-0.2774307935\H,0,-0
 .040749125,-1.0526828384,1.1564414846\H,0,-7.3112199554,-0.4838248326,
 -0.7381466458\C,0,-9.9266295398,-0.0431929544,-0.22083095\Cl,0,-10.621
 0828086,2.8087540501,0.7757292057\H,0,-8.1378347613,4.1249764769,0.829
 522463\H,0,-5.8379273158,3.4081211477,0.2658046787\F,0,-10.5597286383,
 -0.2557279854,0.9466591741\F,0,-10.8632532079,0.3797663465,-1.09148141
 44\F,0,-9.5159733305,-1.2392534674,-0.6566198606\O,0,-5.1003535036,-1.
 7240313423,-0.9464254467\O,0,-3.7636507807,-1.4480787649,0.8348872892\
 C,0,-4.2366042851,-2.1101049102,-0.1020562998\C,0,-3.7330480454,-3.551
 9744165,-0.3088024327\C,0,-2.6883524798,-3.9960664781,0.7060767507\H,0
 ,-3.3441127227,-3.6135952312,-1.3307904263\H,0,-4.6086521933,-4.208546
 7696,-0.2881139375\H,0,-1.8079098697,-3.3505105158,0.6664859409\H,0,-2
 .3679682287,-5.027721702,0.5284700937\H,0,-3.0824761038,-3.9229598732,
 1.7210913837\\Version=ES64L-G16RevC.01\State=1-A\HF=-1654.6477524\MP2=
 -1656.86958\RMSD=9.840e-09\PG=C01 [X(C14H16Cl1F3N1O4)]\\@
 The archive entry for this job was punched.


 If fifty million people say a stupid thing,
 it is still a stupid thing.
                   -- Anatole France
 Job cpu time:       7 days  8 hours 34 minutes 30.4 seconds.
 Elapsed time:       0 days  5 hours 33 minutes 25.8 seconds.
 File lengths (MBytes):  RWF=   1053 Int=      0 D2E=      0 Chk=    134 Scr=      1
 Normal termination of Gaussian 16 at Wed Apr 28 17:36:06 2021.
