 Entering Gaussian System, Link 0=/apps/gaussian/g16c01/g16/g16
 Initial command:
 /apps/gaussian/g16c01/g16/l1.exe "/jobfs/19478645.gadi-pbs/Gau-381429.inp" -scrdir="/jobfs/19478645.gadi-pbs/"
 Entering Link 1 = /apps/gaussian/g16c01/g16/l1.exe PID=    381430.
  
 Copyright (c) 1988-2019, Gaussian, Inc.  All Rights Reserved.
  
 This is part of the Gaussian(R) 16 program.  It is based on
 the Gaussian(R) 09 system (copyright 2009, Gaussian, Inc.),
 the Gaussian(R) 03 system (copyright 2003, Gaussian, Inc.),
 the Gaussian(R) 98 system (copyright 1998, Gaussian, Inc.),
 the Gaussian(R) 94 system (copyright 1995, Gaussian, Inc.),
 the Gaussian 92(TM) system (copyright 1992, Gaussian, Inc.),
 the Gaussian 90(TM) system (copyright 1990, Gaussian, Inc.),
 the Gaussian 88(TM) system (copyright 1988, Gaussian, Inc.),
 the Gaussian 86(TM) system (copyright 1986, Carnegie Mellon
 University), and the Gaussian 82(TM) system (copyright 1983,
 Carnegie Mellon University). Gaussian is a federally registered
 trademark of Gaussian, Inc.
  
 This software contains proprietary and confidential information,
 including trade secrets, belonging to Gaussian, Inc.
  
 This software is provided under written license and may be
 used, copied, transmitted, or stored only in accord with that
 written license.
  
 The following legend is applicable only to US Government
 contracts under FAR:
  
                    RESTRICTED RIGHTS LEGEND
  
 Use, reproduction and disclosure by the US Government is
 subject to restrictions as set forth in subparagraphs (a)
 and (c) of the Commercial Computer Software - Restricted
 Rights clause in FAR 52.227-19.
  
 Gaussian, Inc.
 340 Quinnipiac St., Bldg. 40, Wallingford CT 06492
  
  
 ---------------------------------------------------------------
 Warning -- This program may not be used in any manner that
 competes with the business of Gaussian, Inc. or will provide
 assistance to any competitor of Gaussian, Inc.  The licensee
 of this program is prohibited from giving any competitor of
 Gaussian, Inc. access to this program.  By using this program,
 the user acknowledges that Gaussian, Inc. is engaged in the
 business of creating and licensing software in the field of
 computational chemistry and represents and warrants to the
 licensee that it is not a competitor of Gaussian, Inc. and that
 it will not use this program in any manner prohibited above.
 ---------------------------------------------------------------
  

 Cite this work as:
 Gaussian 16, Revision C.01,
 M. J. Frisch, G. W. Trucks, H. B. Schlegel, G. E. Scuseria, 
 M. A. Robb, J. R. Cheeseman, G. Scalmani, V. Barone, 
 G. A. Petersson, H. Nakatsuji, X. Li, M. Caricato, A. V. Marenich, 
 J. Bloino, B. G. Janesko, R. Gomperts, B. Mennucci, H. P. Hratchian, 
 J. V. Ortiz, A. F. Izmaylov, J. L. Sonnenberg, D. Williams-Young, 
 F. Ding, F. Lipparini, F. Egidi, J. Goings, B. Peng, A. Petrone, 
 T. Henderson, D. Ranasinghe, V. G. Zakrzewski, J. Gao, N. Rega, 
 G. Zheng, W. Liang, M. Hada, M. Ehara, K. Toyota, R. Fukuda, 
 J. Hasegawa, M. Ishida, T. Nakajima, Y. Honda, O. Kitao, H. Nakai, 
 T. Vreven, K. Throssell, J. A. Montgomery, Jr., J. E. Peralta, 
 F. Ogliaro, M. J. Bearpark, J. J. Heyd, E. N. Brothers, K. N. Kudin, 
 V. N. Staroverov, T. A. Keith, R. Kobayashi, J. Normand, 
 K. Raghavachari, A. P. Rendell, J. C. Burant, S. S. Iyengar, 
 J. Tomasi, M. Cossi, J. M. Millam, M. Klene, C. Adamo, R. Cammi, 
 J. W. Ochterski, R. L. Martin, K. Morokuma, O. Farkas, 
 J. B. Foresman, and D. J. Fox, Gaussian, Inc., Wallingford CT, 2019.
 
 ******************************************
 Gaussian 16:  ES64L-G16RevC.01  3-Jul-2019
                22-Mar-2021 
 ******************************************
 %NprocShared=32
 Will use up to   32 processors via shared memory.
 %Mem=10000MB
 %chk=29CA_carboxy_c2.M062X_6-311pGd_opt_Pentadecane_GD3.chk
 ----------------------------------------------------------------------
 # M062X/6-311+G* SCF=Tight INT(grid=ultrafine) OPT=CalcFC IOP(2/17=4) 
 EmpiricalDispersion=GD3 SCRF=(SMD,Solvent=n-Pentadecane) MaxDisk=10000
 MB
 ----------------------------------------------------------------------
 1/10=4,18=20,19=15,26=6,38=1/1,3;
 2/9=110,12=2,17=4,18=5,40=1/2;
 3/5=4,6=6,7=11,11=2,25=1,30=1,70=32201,71=2,72=151,74=-55,75=-5,124=31,140=1/1,2,3;
 4//1;
 5/5=2,32=2,38=5,53=151/2;
 8/6=4,10=90,11=11/1;
 11/6=1,8=1,9=11,15=111,16=1/1,2,10;
 10/6=1,13=1/2;
 6/7=2,8=2,9=2,10=2,28=1/1;
 7/10=1,25=1/1,2,3,16;
 1/10=4,18=20,19=15,26=6/3(2);
 2/9=110,17=4/2;
 99//99;
 2/9=110,17=4/2;
 3/5=4,6=6,7=11,11=2,25=1,30=1,70=32205,71=1,72=151,74=-55,75=-5,124=31/1,2,3;
 4/5=5,16=3,69=1/1;
 5/5=2,32=2,38=5,53=151/2;
 7//1,2,3,16;
 1/18=20,19=15,26=6/3(-5);
 2/9=110,17=4/2;
 6/7=2,8=2,9=2,10=2,19=2,28=1/1;
 99/9=1/99;
 --------------------------------------------------
 29CA_carboxy_c2.M062X_6-311pGd_opt_Pentadecane_GD3
 --------------------------------------------------
 Symbolic Z-matrix:
 Charge = -1 Multiplicity = 1
 C                    -6.28739   1.36986  -0.05085 
 N                    -4.9497    0.83543  -0.03747 
 C                    -3.76993   1.5242   -0.03273 
 O                    -3.73774   2.74465  -0.04043 
 O                    -2.60606   0.8238   -0.01982 
 C                    -1.35601   1.41091  -0.0163 
 C                    -0.27908   0.32812  -0.00032 
 C                     1.11819   0.94258   0.00317 
 C                    -7.4633    0.59309  -0.17669 
 C                    -8.74388   1.18466  -0.18221 
 C                    -8.84614   2.59326  -0.05801 
 C                    -7.68664   3.36056   0.06608 
 C                    -6.43042   2.76001   0.06952 
 H                    -4.85594  -0.30613  -0.03052 
 H                    -1.24961   2.05325   0.88617 
 H                    -1.23776   2.03833  -0.92775 
 H                    -0.38994  -0.31672  -0.89908 
 H                    -0.40135  -0.30129   0.90785 
 H                     1.27004   1.5621   -0.90652 
 H                     1.88076   0.13574   0.01495 
 H                     1.25867   1.57786   0.90377 
 H                    -7.43246  -0.47616  -0.2734 
 C                    -9.93166   0.24849  -0.32334 
 Cl                   -10.37216   3.47393  -0.04839 
 H                    -7.75447   4.43696   0.16142 
 H                    -5.46561   3.45469   0.17798 
 F                    -9.92433  -0.65468   0.72462 
 F                    -11.15222   0.89221  -0.32121 
 F                    -9.82009  -0.44963  -1.51253 
 O                    -6.53182  -3.22013  -0.03243 
 O                    -4.33186  -2.82768  -0.01031 
 C                    -5.2483   -3.64313  -0.0157 
 C                    -4.97378  -5.12355  -0.00394 
 C                    -3.4834   -5.461     0.01496 
 H                    -5.43209  -5.57669  -0.90887 
 H                    -5.4525   -5.56613   0.89563 
 H                    -2.98329  -5.05081  -0.88828 
 H                    -3.35285  -6.56377   0.02287 
 H                    -3.00394  -5.04026   0.92452 
 
 Add virtual bond connecting atoms O31        and H14        Dist= 4.87D+00.

 GradGradGradGradGradGradGradGradGradGradGradGradGradGradGradGradGradGrad
 Berny optimization.
 Initialization pass.
                           ----------------------------
                           !    Initial Parameters    !
                           ! (Angstroms and Degrees)  !
 --------------------------                            --------------------------
 ! Name  Definition              Value          Derivative Info.                !
 --------------------------------------------------------------------------------
 ! R1    R(1,2)                  1.4406         calculate D2E/DX2 analytically  !
 ! R2    R(1,9)                  1.4149         calculate D2E/DX2 analytically  !
 ! R3    R(1,13)                 1.4027         calculate D2E/DX2 analytically  !
 ! R4    R(2,3)                  1.3661         calculate D2E/DX2 analytically  !
 ! R5    R(2,14)                 1.1454         calculate D2E/DX2 analytically  !
 ! R6    R(3,4)                  1.2209         calculate D2E/DX2 analytically  !
 ! R7    R(3,5)                  1.3584         calculate D2E/DX2 analytically  !
 ! R8    R(5,6)                  1.3811         calculate D2E/DX2 analytically  !
 ! R9    R(6,7)                  1.5272         calculate D2E/DX2 analytically  !
 ! R10   R(6,15)                 1.1128         calculate D2E/DX2 analytically  !
 ! R11   R(6,16)                 1.1128         calculate D2E/DX2 analytically  !
 ! R12   R(7,8)                  1.5264         calculate D2E/DX2 analytically  !
 ! R13   R(7,17)                 1.1117         calculate D2E/DX2 analytically  !
 ! R14   R(7,18)                 1.1117         calculate D2E/DX2 analytically  !
 ! R15   R(8,19)                 1.111          calculate D2E/DX2 analytically  !
 ! R16   R(8,20)                 1.1102         calculate D2E/DX2 analytically  !
 ! R17   R(8,21)                 1.111          calculate D2E/DX2 analytically  !
 ! R18   R(9,10)                 1.4106         calculate D2E/DX2 analytically  !
 ! R19   R(9,22)                 1.0741         calculate D2E/DX2 analytically  !
 ! R20   R(10,11)                1.4178         calculate D2E/DX2 analytically  !
 ! R21   R(10,23)                1.5189         calculate D2E/DX2 analytically  !
 ! R22   R(11,12)                1.3959         calculate D2E/DX2 analytically  !
 ! R23   R(11,24)                1.7619         calculate D2E/DX2 analytically  !
 ! R24   R(12,13)                1.3924         calculate D2E/DX2 analytically  !
 ! R25   R(12,25)                1.0827         calculate D2E/DX2 analytically  !
 ! R26   R(13,26)                1.1938         calculate D2E/DX2 analytically  !
 ! R27   R(14,31)                2.5755         calculate D2E/DX2 analytically  !
 ! R28   R(23,27)                1.3835         calculate D2E/DX2 analytically  !
 ! R29   R(23,28)                1.3799         calculate D2E/DX2 analytically  !
 ! R30   R(23,29)                1.3835         calculate D2E/DX2 analytically  !
 ! R31   R(30,32)                1.3515         calculate D2E/DX2 analytically  !
 ! R32   R(31,32)                1.2267         calculate D2E/DX2 analytically  !
 ! R33   R(32,33)                1.5057         calculate D2E/DX2 analytically  !
 ! R34   R(33,34)                1.5282         calculate D2E/DX2 analytically  !
 ! R35   R(33,35)                1.111          calculate D2E/DX2 analytically  !
 ! R36   R(33,36)                1.111          calculate D2E/DX2 analytically  !
 ! R37   R(34,37)                1.1109         calculate D2E/DX2 analytically  !
 ! R38   R(34,38)                1.1105         calculate D2E/DX2 analytically  !
 ! R39   R(34,39)                1.1109         calculate D2E/DX2 analytically  !
 ! A1    A(2,1,9)              124.6732         calculate D2E/DX2 analytically  !
 ! A2    A(2,1,13)             117.4885         calculate D2E/DX2 analytically  !
 ! A3    A(9,1,13)             117.8383         calculate D2E/DX2 analytically  !
 ! A4    A(1,2,3)              127.9455         calculate D2E/DX2 analytically  !
 ! A5    A(1,2,14)             116.4748         calculate D2E/DX2 analytically  !
 ! A6    A(3,2,14)             115.5798         calculate D2E/DX2 analytically  !
 ! A7    A(2,3,4)              121.7856         calculate D2E/DX2 analytically  !
 ! A8    A(2,3,5)              118.6845         calculate D2E/DX2 analytically  !
 ! A9    A(4,3,5)              119.5299         calculate D2E/DX2 analytically  !
 ! A10   A(3,5,6)              123.8029         calculate D2E/DX2 analytically  !
 ! A11   A(5,6,7)              109.687          calculate D2E/DX2 analytically  !
 ! A12   A(5,6,15)             109.5113         calculate D2E/DX2 analytically  !
 ! A13   A(5,6,16)             109.4981         calculate D2E/DX2 analytically  !
 ! A14   A(7,6,15)             109.4711         calculate D2E/DX2 analytically  !
 ! A15   A(7,6,16)             109.4735         calculate D2E/DX2 analytically  !
 ! A16   A(15,6,16)            109.1851         calculate D2E/DX2 analytically  !
 ! A17   A(6,7,8)              111.1069         calculate D2E/DX2 analytically  !
 ! A18   A(6,7,17)             109.4186         calculate D2E/DX2 analytically  !
 ! A19   A(6,7,18)             109.4143         calculate D2E/DX2 analytically  !
 ! A20   A(8,7,17)             109.0645         calculate D2E/DX2 analytically  !
 ! A21   A(8,7,18)             109.07           calculate D2E/DX2 analytically  !
 ! A22   A(17,7,18)            108.7276         calculate D2E/DX2 analytically  !
 ! A23   A(7,8,19)             110.347          calculate D2E/DX2 analytically  !
 ! A24   A(7,8,20)             109.6466         calculate D2E/DX2 analytically  !
 ! A25   A(7,8,21)             110.3511         calculate D2E/DX2 analytically  !
 ! A26   A(19,8,20)            108.6652         calculate D2E/DX2 analytically  !
 ! A27   A(19,8,21)            109.1221         calculate D2E/DX2 analytically  !
 ! A28   A(20,8,21)            108.6682         calculate D2E/DX2 analytically  !
 ! A29   A(1,9,10)             121.6404         calculate D2E/DX2 analytically  !
 ! A30   A(1,9,22)             122.0512         calculate D2E/DX2 analytically  !
 ! A31   A(10,9,22)            116.3085         calculate D2E/DX2 analytically  !
 ! A32   A(9,10,11)            118.8026         calculate D2E/DX2 analytically  !
 ! A33   A(9,10,23)            116.8583         calculate D2E/DX2 analytically  !
 ! A34   A(11,10,23)           124.3391         calculate D2E/DX2 analytically  !
 ! A35   A(10,11,12)           119.6038         calculate D2E/DX2 analytically  !
 ! A36   A(10,11,24)           124.0248         calculate D2E/DX2 analytically  !
 ! A37   A(12,11,24)           116.3714         calculate D2E/DX2 analytically  !
 ! A38   A(11,12,13)           120.8333         calculate D2E/DX2 analytically  !
 ! A39   A(11,12,25)           120.1487         calculate D2E/DX2 analytically  !
 ! A40   A(13,12,25)           119.018          calculate D2E/DX2 analytically  !
 ! A41   A(1,13,12)            121.2817         calculate D2E/DX2 analytically  !
 ! A42   A(1,13,26)            120.1386         calculate D2E/DX2 analytically  !
 ! A43   A(12,13,26)           118.5797         calculate D2E/DX2 analytically  !
 ! A44   A(10,23,27)           109.1375         calculate D2E/DX2 analytically  !
 ! A45   A(10,23,28)           113.8299         calculate D2E/DX2 analytically  !
 ! A46   A(10,23,29)           109.1362         calculate D2E/DX2 analytically  !
 ! A47   A(27,23,28)           107.9423         calculate D2E/DX2 analytically  !
 ! A48   A(27,23,29)           108.739          calculate D2E/DX2 analytically  !
 ! A49   A(28,23,29)           107.9423         calculate D2E/DX2 analytically  !
 ! A50   A(14,31,32)           119.9179         calculate D2E/DX2 analytically  !
 ! A51   A(30,32,31)           120.0977         calculate D2E/DX2 analytically  !
 ! A52   A(30,32,33)           118.7485         calculate D2E/DX2 analytically  !
 ! A53   A(31,32,33)           121.1538         calculate D2E/DX2 analytically  !
 ! A54   A(32,33,34)           113.2664         calculate D2E/DX2 analytically  !
 ! A55   A(32,33,35)           108.6297         calculate D2E/DX2 analytically  !
 ! A56   A(32,33,36)           108.6292         calculate D2E/DX2 analytically  !
 ! A57   A(34,33,35)           108.8034         calculate D2E/DX2 analytically  !
 ! A58   A(34,33,36)           108.7991         calculate D2E/DX2 analytically  !
 ! A59   A(35,33,36)           108.6201         calculate D2E/DX2 analytically  !
 ! A60   A(33,34,37)           110.3304         calculate D2E/DX2 analytically  !
 ! A61   A(33,34,38)           109.5125         calculate D2E/DX2 analytically  !
 ! A62   A(33,34,39)           110.3278         calculate D2E/DX2 analytically  !
 ! A63   A(37,34,38)           108.6342         calculate D2E/DX2 analytically  !
 ! A64   A(37,34,39)           109.3621         calculate D2E/DX2 analytically  !
 ! A65   A(38,34,39)           108.6338         calculate D2E/DX2 analytically  !
 ! A66   L(2,14,31,5,-1)       172.9538         calculate D2E/DX2 analytically  !
 ! A67   L(2,14,31,5,-2)       179.9429         calculate D2E/DX2 analytically  !
 ! D1    D(9,1,2,3)            173.9987         calculate D2E/DX2 analytically  !
 ! D2    D(9,1,2,14)            -5.9618         calculate D2E/DX2 analytically  !
 ! D3    D(13,1,2,3)            -5.9927         calculate D2E/DX2 analytically  !
 ! D4    D(13,1,2,14)          174.0469         calculate D2E/DX2 analytically  !
 ! D5    D(2,1,9,10)          -179.9987         calculate D2E/DX2 analytically  !
 ! D6    D(2,1,9,22)            -0.0185         calculate D2E/DX2 analytically  !
 ! D7    D(13,1,9,10)           -0.0073         calculate D2E/DX2 analytically  !
 ! D8    D(13,1,9,22)          179.9729         calculate D2E/DX2 analytically  !
 ! D9    D(2,1,13,12)         -179.9948         calculate D2E/DX2 analytically  !
 ! D10   D(2,1,13,26)           -0.0063         calculate D2E/DX2 analytically  !
 ! D11   D(9,1,13,12)            0.0133         calculate D2E/DX2 analytically  !
 ! D12   D(9,1,13,26)         -179.9983         calculate D2E/DX2 analytically  !
 ! D13   D(1,2,3,4)             -0.0285         calculate D2E/DX2 analytically  !
 ! D14   D(1,2,3,5)           -179.9921         calculate D2E/DX2 analytically  !
 ! D15   D(14,2,3,4)           179.9323         calculate D2E/DX2 analytically  !
 ! D16   D(14,2,3,5)            -0.0313         calculate D2E/DX2 analytically  !
 ! D17   D(1,2,31,32)            0.1918         calculate D2E/DX2 analytically  !
 ! D18   D(3,2,31,32)         -179.811          calculate D2E/DX2 analytically  !
 ! D19   D(2,3,5,6)            179.8825         calculate D2E/DX2 analytically  !
 ! D20   D(4,3,5,6)             -0.082          calculate D2E/DX2 analytically  !
 ! D21   D(3,5,6,7)            179.973          calculate D2E/DX2 analytically  !
 ! D22   D(3,5,6,15)            59.8158         calculate D2E/DX2 analytically  !
 ! D23   D(3,5,6,16)           -59.8749         calculate D2E/DX2 analytically  !
 ! D24   D(5,6,7,8)            179.9684         calculate D2E/DX2 analytically  !
 ! D25   D(5,6,7,17)            59.4833         calculate D2E/DX2 analytically  !
 ! D26   D(5,6,7,18)           -59.5424         calculate D2E/DX2 analytically  !
 ! D27   D(15,6,7,8)           -59.8499         calculate D2E/DX2 analytically  !
 ! D28   D(15,6,7,17)          179.665          calculate D2E/DX2 analytically  !
 ! D29   D(15,6,7,18)           60.6393         calculate D2E/DX2 analytically  !
 ! D30   D(16,6,7,8)            59.8014         calculate D2E/DX2 analytically  !
 ! D31   D(16,6,7,17)          -60.6838         calculate D2E/DX2 analytically  !
 ! D32   D(16,6,7,18)         -179.7094         calculate D2E/DX2 analytically  !
 ! D33   D(6,7,8,19)           -60.3484         calculate D2E/DX2 analytically  !
 ! D34   D(6,7,8,20)           179.9933         calculate D2E/DX2 analytically  !
 ! D35   D(6,7,8,21)            60.3287         calculate D2E/DX2 analytically  !
 ! D36   D(17,7,8,19)           60.3459         calculate D2E/DX2 analytically  !
 ! D37   D(17,7,8,20)          -59.3124         calculate D2E/DX2 analytically  !
 ! D38   D(17,7,8,21)         -178.9771         calculate D2E/DX2 analytically  !
 ! D39   D(18,7,8,19)          178.9592         calculate D2E/DX2 analytically  !
 ! D40   D(18,7,8,20)           59.3008         calculate D2E/DX2 analytically  !
 ! D41   D(18,7,8,21)          -60.3638         calculate D2E/DX2 analytically  !
 ! D42   D(1,9,10,11)           -0.0039         calculate D2E/DX2 analytically  !
 ! D43   D(1,9,10,23)          179.9936         calculate D2E/DX2 analytically  !
 ! D44   D(22,9,10,11)        -179.9851         calculate D2E/DX2 analytically  !
 ! D45   D(22,9,10,23)           0.0123         calculate D2E/DX2 analytically  !
 ! D46   D(9,10,11,12)           0.0094         calculate D2E/DX2 analytically  !
 ! D47   D(9,10,11,24)        -179.9957         calculate D2E/DX2 analytically  !
 ! D48   D(23,10,11,12)       -179.9878         calculate D2E/DX2 analytically  !
 ! D49   D(23,10,11,24)          0.0071         calculate D2E/DX2 analytically  !
 ! D50   D(9,10,23,27)          59.3503         calculate D2E/DX2 analytically  !
 ! D51   D(9,10,23,28)         179.9966         calculate D2E/DX2 analytically  !
 ! D52   D(9,10,23,29)         -59.358          calculate D2E/DX2 analytically  !
 ! D53   D(11,10,23,27)       -120.6524         calculate D2E/DX2 analytically  !
 ! D54   D(11,10,23,28)         -0.0061         calculate D2E/DX2 analytically  !
 ! D55   D(11,10,23,29)        120.6393         calculate D2E/DX2 analytically  !
 ! D56   D(10,11,12,13)         -0.0037         calculate D2E/DX2 analytically  !
 ! D57   D(10,11,12,25)        179.9971         calculate D2E/DX2 analytically  !
 ! D58   D(24,11,12,13)       -179.999          calculate D2E/DX2 analytically  !
 ! D59   D(24,11,12,25)          0.0018         calculate D2E/DX2 analytically  !
 ! D60   D(11,12,13,1)          -0.008          calculate D2E/DX2 analytically  !
 ! D61   D(11,12,13,26)       -179.9966         calculate D2E/DX2 analytically  !
 ! D62   D(25,12,13,1)         179.9913         calculate D2E/DX2 analytically  !
 ! D63   D(25,12,13,26)          0.0027         calculate D2E/DX2 analytically  !
 ! D64   D(14,31,32,30)          0.0103         calculate D2E/DX2 analytically  !
 ! D65   D(14,31,32,33)       -179.9885         calculate D2E/DX2 analytically  !
 ! D66   D(30,32,33,34)       -179.9846         calculate D2E/DX2 analytically  !
 ! D67   D(30,32,33,35)         59.0044         calculate D2E/DX2 analytically  !
 ! D68   D(30,32,33,36)        -58.9793         calculate D2E/DX2 analytically  !
 ! D69   D(31,32,33,34)          0.0142         calculate D2E/DX2 analytically  !
 ! D70   D(31,32,33,35)       -120.9969         calculate D2E/DX2 analytically  !
 ! D71   D(31,32,33,36)        121.0195         calculate D2E/DX2 analytically  !
 ! D72   D(32,33,34,37)        -60.4739         calculate D2E/DX2 analytically  !
 ! D73   D(32,33,34,38)       -179.9994         calculate D2E/DX2 analytically  !
 ! D74   D(32,33,34,39)         60.4772         calculate D2E/DX2 analytically  !
 ! D75   D(35,33,34,37)         60.4391         calculate D2E/DX2 analytically  !
 ! D76   D(35,33,34,38)        -59.0864         calculate D2E/DX2 analytically  !
 ! D77   D(35,33,34,39)       -178.6098         calculate D2E/DX2 analytically  !
 ! D78   D(36,33,34,37)        178.6168         calculate D2E/DX2 analytically  !
 ! D79   D(36,33,34,38)         59.0912         calculate D2E/DX2 analytically  !
 ! D80   D(36,33,34,39)        -60.4322         calculate D2E/DX2 analytically  !
 --------------------------------------------------------------------------------
 Trust Radius=3.00D-01 FncErr=5.00D-06 GrdErr=5.00D-06 EigMax=2.50D+02 EigMin=1.00D-04
 Number of steps in this run=    196 maximum allowed number of steps=    234.
 GradGradGradGradGradGradGradGradGradGradGradGradGradGradGradGradGradGrad

                          Input orientation:                          
 ---------------------------------------------------------------------
 Center     Atomic      Atomic             Coordinates (Angstroms)
 Number     Number       Type             X           Y           Z
 ---------------------------------------------------------------------
      1          6           0       -6.287390    1.369860   -0.050850
      2          7           0       -4.949700    0.835430   -0.037470
      3          6           0       -3.769930    1.524200   -0.032730
      4          8           0       -3.737740    2.744650   -0.040430
      5          8           0       -2.606060    0.823800   -0.019820
      6          6           0       -1.356010    1.410910   -0.016300
      7          6           0       -0.279080    0.328120   -0.000320
      8          6           0        1.118190    0.942580    0.003170
      9          6           0       -7.463300    0.593090   -0.176690
     10          6           0       -8.743880    1.184660   -0.182210
     11          6           0       -8.846140    2.593260   -0.058010
     12          6           0       -7.686640    3.360560    0.066080
     13          6           0       -6.430420    2.760010    0.069520
     14          1           0       -4.855940   -0.306130   -0.030520
     15          1           0       -1.249610    2.053250    0.886170
     16          1           0       -1.237760    2.038330   -0.927750
     17          1           0       -0.389940   -0.316720   -0.899080
     18          1           0       -0.401350   -0.301290    0.907850
     19          1           0        1.270040    1.562100   -0.906520
     20          1           0        1.880760    0.135740    0.014950
     21          1           0        1.258670    1.577860    0.903770
     22          1           0       -7.432460   -0.476160   -0.273400
     23          6           0       -9.931660    0.248490   -0.323340
     24         17           0      -10.372160    3.473930   -0.048390
     25          1           0       -7.754470    4.436960    0.161420
     26          1           0       -5.465610    3.454690    0.177980
     27          9           0       -9.924330   -0.654680    0.724620
     28          9           0      -11.152220    0.892210   -0.321210
     29          9           0       -9.820090   -0.449630   -1.512530
     30          8           0       -6.531820   -3.220130   -0.032430
     31          8           0       -4.331860   -2.827680   -0.010310
     32          6           0       -5.248300   -3.643130   -0.015700
     33          6           0       -4.973780   -5.123550   -0.003940
     34          6           0       -3.483400   -5.461000    0.014960
     35          1           0       -5.432090   -5.576690   -0.908870
     36          1           0       -5.452500   -5.566130    0.895630
     37          1           0       -2.983290   -5.050810   -0.888280
     38          1           0       -3.352850   -6.563770    0.022870
     39          1           0       -3.003940   -5.040260    0.924520
 ---------------------------------------------------------------------
                    Distance matrix (angstroms):
                    1          2          3          4          5
     1  C    0.000000
     2  N    1.440559   0.000000
     3  C    2.522252   1.366120   0.000000
     4  O    2.896700   2.261410   1.220899   0.000000
     5  O    3.721738   2.343735   1.358426   2.229527   0.000000
     6  C    4.931672   3.639538   2.416633   2.729850   1.381063
     7  C    6.098161   4.698237   3.690216   4.219426   2.379268
     8  C    7.418093   6.068972   4.922732   5.179712   3.726215
     9  C    1.414910   2.529090   3.811650   4.304367   4.865246
    10  C    2.466961   3.812966   4.987766   5.245485   6.150563
    11  C    2.836188   4.274650   5.187623   5.110673   6.486220
    12  C    2.436075   3.725298   4.326962   3.998062   5.679333
    13  C    1.402663   2.430635   2.935283   2.694968   4.287496
    14  H    2.204179   1.145425   2.128269   3.249266   2.517701
    15  H    5.169551   4.003356   2.734279   2.743613   2.042626
    16  H    5.168614   4.002258   2.734461   2.745200   2.042465
    17  H    6.192250   4.781342   3.945109   4.617037   2.642929
    18  H    6.193328   4.782599   3.945179   4.616111   2.643321
    19  H    7.608145   6.322062   5.115295   5.217892   4.044190
    20  H    8.261117   6.866404   5.818968   6.194919   4.539404
    21  H    7.609046   6.323053   5.115343   5.216994   4.044473
    22  H    2.183690   2.817806   4.180130   4.907020   5.004831
    23  C    3.822620   5.024554   6.299112   6.683973   7.354422
    24  Cl   4.594830   6.030330   6.884122   6.674387   8.205871
    25  H    3.406536   4.569170   4.939476   4.363345   6.292368
    26  H    2.252599   2.678265   2.578085   1.880796   3.890724
    27  F    4.234082   5.248633   6.572498   7.100327   7.503144
    28  F    4.895694   6.209266   7.414906   7.647541   8.551746
    29  F    4.234031   5.248607   6.533778   7.026058   7.476098
    30  O    4.596531   4.353240   5.489691   6.586771   5.636055
    31  O    4.630884   3.714948   4.388066   5.603994   4.038785
    32  C    5.119669   4.488556   5.374678   6.564003   5.189886
    33  C    6.625115   5.959123   6.755935   7.964779   6.401353
    34  C    7.384263   6.465123   6.991237   8.209778   6.345837
    35  H    7.051404   6.489015   7.345273   8.536376   7.052881
    36  H    7.049881   6.488717   7.346133   8.537311   7.054890
    37  H    7.269344   6.264062   6.676940   7.877642   5.950426
    38  H    8.459282   7.569791   8.098908   9.316589   7.425342
    39  H    7.267877   6.263796   6.677964   7.878732   5.952922
                    6          7          8          9         10
     6  C    0.000000
     7  C    1.527242   0.000000
     8  C    2.518209   1.526413   0.000000
     9  C    6.163890   7.191268   8.590487   0.000000
    10  C    7.393195   8.509970   9.866782   1.410628   0.000000
    11  C    7.582990   8.861642  10.100315   2.434545   1.417758
    12  C    6.624560   8.004502   9.131025   2.787061   2.431860
    13  C    5.251388   6.614979   7.764597   2.413090   2.810194
    14  H    3.898453   4.620696   6.103330   2.761936   4.166718
    15  H    1.112822   2.168840   2.760390   6.470833   7.619709
    16  H    1.112825   2.168873   2.760033   6.435072   7.591207
    17  H    2.167325   1.111701   2.162024   7.168126   8.518002
    18  H    2.167270   1.111701   2.162096   7.200506   8.543658
    19  H    2.776957   2.177999   1.111035   8.817191  10.047173
    20  H    3.479039   2.168445   1.110244   9.357209  10.678112
    21  H    2.776860   2.178050   1.111034   8.843638  10.069010
    22  H    6.367918   7.203630   8.671962   1.074057   2.118127
    23  C    8.659519   9.658312  11.076441   2.496609   1.518932
    24  Cl   9.249218  10.572071  11.765991   4.095994   2.812465
    25  H    7.080173   8.531716   9.537286   3.869682   3.416792
    26  H    4.593865   6.058657   7.048949   3.507893   4.003727
    27  F    8.844870   9.722257  11.180741   2.902750   2.366215
    28  F    9.814670  10.892490  12.274800   3.703848   2.430010
    29  F    8.794371   9.691365  11.130210   2.902790   2.366196
    30  O    6.945200   7.189427   8.709310   3.927991   4.931310
    31  O    5.178935   5.136555   6.627072   4.640611   5.966099
    32  C    6.379125   6.361149   7.846100   4.783064   5.962748
    33  C    7.469108   7.194507   8.597097   6.237590   7.351119
    34  C    7.193741   6.616782   7.885468   7.247644   8.477990
    35  H    8.138652   7.889598   9.286488   6.536672   7.563851
    36  H    8.141986   7.893617   9.291596   6.567281   7.587364
    37  H    6.720284   6.085566   7.316935   7.240888   8.518452
    38  H    8.220975   7.546307   8.737041   8.255681   9.441580
    39  H    6.724464   6.090952   7.323607   7.268644   8.539402
                   11         12         13         14         15
    11  C    0.000000
    12  C    1.395918   0.000000
    13  C    2.424824   1.392394   0.000000
    14  H    4.932435   4.633229   3.448218   0.000000
    15  H    7.674005   6.619438   5.292185   4.405974   0.000000
    16  H    7.678010   6.657630   5.336580   4.403719   1.814020
    17  H    8.982355   8.227743   6.847763   4.549688   3.089160
    18  H    8.979186   8.197144   6.813519   4.552355   2.502773
    19  H   10.203938   9.187085   7.853962   6.464154   3.131070
    20  H   11.005049  10.096396   8.715818   6.751329   3.772941
    21  H   10.201139   9.159602   7.824037   6.466125   2.552993
    22  H    3.386181   3.860087   3.405066   2.593522   6.780129
    23  C    2.597441   3.857038   4.326749   5.114321   8.949752
    24  Cl   1.761933   2.690348   4.007605   6.687141   9.279690
    25  H    2.153862   1.082741   2.138625   5.561944   6.965669
    26  H    3.496532   2.225838   1.193818   3.815617   4.498914
    27  F    3.510572   4.643607   4.929165   5.136176   9.088991
    28  F    2.877647   4.272352   5.092813   6.415891  10.043280
    29  F    3.510468   4.643400   4.928949   5.182637   9.245069
    30  O    6.257175   6.681975   5.981868   3.361543   7.520246
    31  O    7.054615   7.039510   5.969305   2.575516   5.841868
    32  C    7.199917   7.416459   6.511902   3.360020   7.017951
    33  C    8.634075   8.907561   8.017338   4.818934   8.134384
    34  C    9.676539   9.771886   8.733436   5.334662   7.887508
    35  H    8.895380   9.268655   8.453075   5.374221   8.884328
    36  H    8.888299   9.239336   8.423977   5.374127   8.701685
    37  H    9.669238   9.684186   8.591216   5.172481   7.524758
    38  H   10.678669  10.829401   9.818681   6.435852   8.911899
    39  H    9.662675   9.656002   8.562476   5.172426   7.307327
                   16         17         18         19         20
    16  H    0.000000
    17  H    2.503174   0.000000
    18  H    3.089147   1.807032   0.000000
    19  H    2.552706   2.507101   3.091554   0.000000
    20  H    3.772757   2.489227   2.489235   1.804602   0.000000
    21  H    3.130281   3.091539   2.507367   1.810394   1.804635
    22  H    6.717525   7.072057   7.131791   8.960405   9.337753
    23  C    8.896782   9.575769   9.625222  11.293527  11.817801
    24  Cl   9.288244  10.711555  10.704379  11.829298  12.699668
    25  H    7.029027   8.829407   8.779325   9.531374  10.552706
    26  H    4.593847   6.414516   6.347190   7.080044   8.062950
    27  F    9.243329   9.677562   9.531296  11.527734  11.852786
    28  F    9.998900  10.845373  10.886516  12.454071  13.059243
    29  F    8.954792   9.451017   9.725889  11.287395  11.814641
    30  O    7.515322   6.848618   6.854664   9.192539   9.057351
    31  O    5.838939   4.757475   4.761783   7.173189   6.883251
    32  C    7.013933   5.953908   5.959343   8.389084   8.068723
    33  C    8.130424   6.702125   6.707657   9.192271   8.639746
    34  C    7.884894   6.071950   6.076092   8.530431   7.752271
    35  H    8.693750   7.286334   7.512567   9.791878   9.325399
    36  H    8.883499   7.510446   7.296082   9.962527   9.330789
    37  H    7.300982   5.397887   5.696529   7.862679   7.167643
    38  H    8.909176   6.975275   6.979484   9.394926   8.501422
    39  H    7.527067   5.698275   5.406625   8.075319   7.174858
                   21         22         23         24         25
    21  H    0.000000
    22  H    9.007800   0.000000
    23  C   11.335630   2.602616   0.000000
    24  Cl  11.822770   4.929064   3.266971   0.000000
    25  H    9.484842   4.942824   4.745359   2.797096   0.000000
    26  H    7.018918   4.418577   5.520565   4.911807   2.490785
    27  F   11.405079   2.690229   1.383470   4.224159   5.563298
    28  F   12.490031   3.963753   1.379908   2.710757   4.933851
    29  F   11.519034   2.690153   1.383471   4.224075   5.563062
    30  O    9.197223   2.898032   4.865682   7.717442   7.756512
    31  O    7.176235   3.900331   6.396762   8.729087   8.032356
    32  C    8.393141   3.855731   6.096984   8.769695   8.461685
    33  C    9.196536   5.264594   7.317199  10.151904   9.958059
    34  C    8.533625   6.366071   8.619326  11.282376  10.781146
    35  H    9.961903   5.515497   7.383881  10.346905  10.334997
    36  H    9.801860   5.585219   7.440334  10.335227  10.290770
    37  H    8.071241   6.410976   8.756802  11.312471  10.671636
    38  H    9.398311   7.334166   9.476681  12.248723  11.849452
    39  H    7.872089   6.471307   8.804620  11.301710  10.628620
                   26         27         28         29         30
    26  H    0.000000
    27  F    6.088179   0.000000
    28  F    6.257238   2.234803   0.000000
    29  F    6.087942   2.248945   2.234804   0.000000
    30  O    6.762714   4.320160   6.192159   4.547426   0.000000
    31  O    6.386628   6.044648   7.775060   6.167046   2.234800
    32  C    7.103787   5.598586   7.451102   5.774098   1.351530
    33  C    8.594253   6.708915   8.629203   6.899862   2.459941
    34  C    9.134838   8.067832   9.964291   8.221964   3.783729
    35  H    9.096603   6.861100   8.655166   6.775374   2.744254
    36  H    9.049331   6.644460   8.699291   7.145184   2.744074
    37  H    8.924256   8.372899  10.117928   8.264525   4.083618
    38  H   10.239988   8.865334  10.795379   9.031354   4.613983
    39  H    8.875884   8.195430  10.155812   8.571639   4.083450
                   31         32         33         34         35
    31  O    0.000000
    32  C    1.226723   0.000000
    33  C    2.383930   1.505703   0.000000
    34  C    2.766748   2.533863   1.528222   0.000000
    35  H    3.094345   2.137799   1.110983   2.159685   0.000000
    36  H    3.094458   2.137791   1.110980   2.159627   1.804646
    37  H    2.744409   2.805928   2.179312   1.110949   2.504715
    38  H    3.862374   3.482005   2.168494   1.110499   2.483084
    39  H    2.744593   2.805911   2.179276   1.110947   3.089496
                   36         37         38         39
    36  H    0.000000
    37  H    3.089480   0.000000
    38  H    2.483048   1.804388   0.000000
    39  H    2.504560   1.812948   1.804382   0.000000
 Stoichiometry    C14H16ClF3NO4(1-)
 Framework group  C1[X(C14H16ClF3NO4)]
 Deg. of freedom   111
 Full point group                 C1      NOp   1
 Largest Abelian subgroup         C1      NOp   1
 Largest concise Abelian subgroup C1      NOp   1
                         Standard orientation:                         
 ---------------------------------------------------------------------
 Center     Atomic      Atomic             Coordinates (Angstroms)
 Number     Number       Type             X           Y           Z
 ---------------------------------------------------------------------
      1          6           0       -0.557504   -1.018972   -0.034272
      2          7           0        0.880077   -0.928026   -0.016969
      3          6           0        1.786143   -1.949980    0.013646
      4          8           0        1.436094   -3.119494    0.030903
      5          8           0        3.110339   -1.647194    0.025749
      6          6           0        4.114828   -2.594429    0.058669
      7          6           0        5.475711   -1.901284    0.062726
      8          6           0        6.611519   -2.920358    0.099669
      9          6           0       -1.435168    0.087189    0.055639
     10          6           0       -2.836137   -0.075952    0.032361
     11          6           0       -3.369616   -1.384315   -0.084357
     12          6           0       -2.504626   -2.476341   -0.173010
     13          6           0       -1.124044   -2.297049   -0.148345
     14          1           0        1.325158    0.127313   -0.029663
     15          1           0        4.035764   -3.251270   -0.836139
     16          1           0        4.011262   -3.213877    0.977330
     17          1           0        5.551401   -1.240734    0.953693
     18          1           0        5.576006   -1.278644   -0.852774
     19          1           0        6.542372   -3.542792    1.017380
     20          1           0        7.587673   -2.391432    0.101790
     21          1           0        6.566987   -3.581078   -0.792442
     22          1           0       -1.074706    1.094958    0.145463
     23          6           0       -3.675727    1.185586    0.136111
     24         17           0       -5.093515   -1.745921   -0.127033
     25          1           0       -2.902485   -3.479362   -0.262367
     26          1           0       -0.421702   -3.259206   -0.226914
     27          9           0       -3.363870    2.025898   -0.917744
     28          9           0       -5.035769    0.954088    0.107106
     29          9           0       -3.378611    1.831790    1.322759
     30          8           0        0.641575    3.418031   -0.091818
     31          8           0        2.609489    2.359614   -0.054384
     32          6           0        1.993038    3.419924   -0.078464
     33          6           0        2.715566    4.740857   -0.093728
     34          6           0        4.236905    4.597005   -0.076596
     35          1           0        2.401312    5.327575    0.795817
     36          1           0        2.418833    5.297131   -1.008487
     37          1           0        4.563972    4.064899    0.842153
     38          1           0        4.704863    5.604015   -0.089023
     39          1           0        4.581452    4.034416   -0.970455
 ---------------------------------------------------------------------
 Rotational constants (GHZ):           0.2362393           0.1123277           0.0775349
 Standard basis: 6-311+G(d) (5D, 7F)
 There are   585 symmetry adapted cartesian basis functions of A   symmetry.
 There are   562 symmetry adapted basis functions of A   symmetry.
   562 basis functions,   925 primitive gaussians,   585 cartesian basis functions
    92 alpha electrons       92 beta electrons
       nuclear repulsion energy      2034.4274962290 Hartrees.
 NAtoms=   39 NActive=   39 NUniq=   39 SFac= 1.00D+00 NAtFMM=   60 NAOKFM=F Big=F
 Integral buffers will be    131072 words long.
 Raffenetti 2 integral format.
 Two-electron integral symmetry is turned on.
 Nuclear repulsion after empirical dispersion term =     2034.4254231714 Hartrees.
 Force inversion solution in PCM.
 ------------------------------------------------------------------------------
 Polarizable Continuum Model (PCM)
 =================================
 Model                : PCM.
 Atomic radii         : SMD-Coulomb.
 Polarization charges : Total charges.
 Charge compensation  : None.
 Solution method      : Matrix inversion.
 Cavity type          : VdW (van der Waals Surface) (Alpha=1.000).
 Cavity algorithm     : GePol (No added spheres)
                        Default sphere list used, NSphG=   39.
                        Lebedev-Laikov grids with approx.  5.0 points / Ang**2.
                        Smoothing algorithm: York/Karplus (Gamma=1.0000).
                        Polarization charges: spherical gaussians, with
                                              point-specific exponents (IZeta= 3).
                        Self-potential: point-specific (ISelfS= 7).
                        Self-field    : sphere-specific E.n sum rule (ISelfD= 2).
 1st derivatives      : Analytical E(r).r(x)/FMM algorithm (CHGder, D1EAlg=3).
                        Cavity 1st derivative terms included.
 2nd derivatives      : Analytical E(r).r(xy)/FMM algorithm (CHGder, D2EAlg=3).
                        Cavity 2nd derivative terms included.
 Solvent              : n-Pentadecane, Eps=   2.033300 Eps(inf)=   2.049192
 ------------------------------------------------------------------------------
 ------------------------------------------------------------------------------
 Atomic radii for non-electrostatic terms: SMD-CDS.
 ------------------------------------------------------------------------------
 Nuclear repulsion after PCM non-electrostatic terms =     2034.4178709365 Hartrees.
 One-electron integrals computed using PRISM.
 NBasis=   562 RedAO= T EigKep=  2.39D-06  NBF=   562
 NBsUse=   559 1.00D-06 EigRej=  9.65D-07 NBFU=   559
 ExpMin= 4.38D-02 ExpMax= 1.06D+05 ExpMxC= 3.62D+03 IAcc=3 IRadAn=         5 AccDes= 0.00D+00
 Harris functional with IExCor= 1009 and IRadAn=       5 diagonalized for initial guess.
 HarFok:  IExCor= 1009 AccDes= 0.00D+00 IRadAn=         5 IDoV= 1 UseB2=F ITyADJ=14
 ICtDFT=  3500011 ScaDFX=  1.000000  1.000000  1.000000  1.000000
 FoFCou: FMM=F IPFlag=           0 FMFlag=      100000 FMFlg1=           0
         NFxFlg=           0 DoJE=T BraDBF=F KetDBF=T FulRan=T
         wScrn=  0.000000 ICntrl=       500 IOpCl=  0 I1Cent=   200000004 NGrid=           0
         NMat0=    1 NMatS0=      1 NMatT0=    0 NMatD0=    1 NMtDS0=    0 NMtDT0=    0
 Petite list used in FoFCou.
 Requested convergence on RMS density matrix=1.00D-08 within 128 cycles.
 Requested convergence on MAX density matrix=1.00D-06.
 Requested convergence on             energy=1.00D-06.
 No special actions if energy rises.
 Inv3:  Mode=1 IEnd=    34293483.
 Iteration    1 A*A^-1 deviation from unit magnitude is 8.77D-15 for   3381.
 Iteration    1 A*A^-1 deviation from orthogonality  is 3.55D-15 for   3373   3169.
 Iteration    1 A^-1*A deviation from unit magnitude is 9.21D-15 for   3381.
 Iteration    1 A^-1*A deviation from orthogonality  is 2.63D-15 for   3379   3229.
 Error on total polarization charges =  0.01558
 SCF Done:  E(RM062X) =  -1658.48518103     A.U. after   16 cycles
            NFock= 16  Conv=0.41D-08     -V/T= 2.0037
 SMD-CDS (non-electrostatic) energy       (kcal/mol) =      -4.74
 (included in total energy above)
 DoSCS=F DFT=T ScalE2(SS,OS)=  1.000000  1.000000
 Range of M.O.s used for correlation:     1   559
 NBasis=   562 NAE=    92 NBE=    92 NFC=     0 NFV=     0
 NROrb=    559 NOA=    92 NOB=    92 NVA=   467 NVB=   467

 **** Warning!!: The largest alpha MO coefficient is  0.96951601D+02

 Symmetrizing basis deriv contribution to polar:
 IMax=3 JMax=2 DiffMx= 0.00D+00
 G2DrvN: will do    40 centers at a time, making    1 passes.
 Calling FoFCou, ICntrl=  3107 FMM=F I1Cent=   0 AccDes= 0.00D+00.
 NEqPCM:  Using equilibrium solvation (IEInf=0, Eps=   2.0333, EpsInf=   2.0492)
 G2PCM: DoFxE=T DoFxN=T DoGrad=T DoDP/DQ/DG/TGxP=FFFF NFrqRd=   0 IEInf=0 SqF1=F DoCFld=F IF1Alg=4.
 End of G2Drv F.D. properties file   721 does not exist.
 End of G2Drv F.D. properties file   722 does not exist.
 End of G2Drv F.D. properties file   788 does not exist.
          IDoAtm=111111111111111111111111111111111111111
 NEqPCM:  Using equilibrium solvation (IEInf=0, Eps=   2.0333, EpsInf=   2.0492)
          Differentiating once with respect to nuclear coordinates.
 CalDSu exits because no D1Ps are significant.
          There are   120 degrees of freedom in the 1st order CPHF.  IDoFFX=6 NUNeed=     0.
    114 vectors produced by pass  0 Test12= 4.30D-14 1.00D-09 XBig12= 3.22D-01 1.73D-01.
 AX will form    64 AO Fock derivatives at one time.
    114 vectors produced by pass  1 Test12= 4.30D-14 1.00D-09 XBig12= 2.39D-02 4.58D-02.
    114 vectors produced by pass  2 Test12= 4.30D-14 1.00D-09 XBig12= 1.05D-03 4.23D-03.
    114 vectors produced by pass  3 Test12= 4.30D-14 1.00D-09 XBig12= 9.14D-06 3.22D-04.
    114 vectors produced by pass  4 Test12= 4.30D-14 1.00D-09 XBig12= 6.33D-08 2.54D-05.
    114 vectors produced by pass  5 Test12= 4.30D-14 1.00D-09 XBig12= 3.98D-10 1.81D-06.
     96 vectors produced by pass  6 Test12= 4.30D-14 1.00D-09 XBig12= 1.88D-12 1.13D-07.
     34 vectors produced by pass  7 Test12= 4.30D-14 1.00D-09 XBig12= 7.25D-15 6.09D-09.
 InvSVY:  IOpt=1 It=  1 EMax= 1.05D-15
 Solved reduced A of dimension   814 with   120 vectors.
 End of Minotr F.D. properties file   721 does not exist.
 End of Minotr F.D. properties file   722 does not exist.
 End of Minotr F.D. properties file   788 does not exist.

 **********************************************************************

            Population analysis using the SCF Density.

 **********************************************************************

 Orbital symmetries:
       Occupied  (A) (A) (A) (A) (A) (A) (A) (A) (A) (A) (A) (A)
                 (A) (A) (A) (A) (A) (A) (A) (A) (A) (A) (A) (A)
                 (A) (A) (A) (A) (A) (A) (A) (A) (A) (A) (A) (A)
                 (A) (A) (A) (A) (A) (A) (A) (A) (A) (A) (A) (A)
                 (A) (A) (A) (A) (A) (A) (A) (A) (A) (A) (A) (A)
                 (A) (A) (A) (A) (A) (A) (A) (A) (A) (A) (A) (A)
                 (A) (A) (A) (A) (A) (A) (A) (A) (A) (A) (A) (A)
                 (A) (A) (A) (A) (A) (A) (A) (A)
       Virtual   (A) (A) (A) (A) (A) (A) (A) (A) (A) (A) (A) (A)
                 (A) (A) (A) (A) (A) (A) (A) (A) (A) (A) (A) (A)
                 (A) (A) (A) (A) (A) (A) (A) (A) (A) (A) (A) (A)
                 (A) (A) (A) (A) (A) (A) (A) (A) (A) (A) (A) (A)
                 (A) (A) (A) (A) (A) (A) (A) (A) (A) (A) (A) (A)
                 (A) (A) (A) (A) (A) (A) (A) (A) (A) (A) (A) (A)
                 (A) (A) (A) (A) (A) (A) (A) (A) (A) (A) (A) (A)
                 (A) (A) (A) (A) (A) (A) (A) (A) (A) (A) (A) (A)
                 (A) (A) (A) (A) (A) (A) (A) (A) (A) (A) (A) (A)
                 (A) (A) (A) (A) (A) (A) (A) (A) (A) (A) (A) (A)
                 (A) (A) (A) (A) (A) (A) (A) (A) (A) (A) (A) (A)
                 (A) (A) (A) (A) (A) (A) (A) (A) (A) (A) (A) (A)
                 (A) (A) (A) (A) (A) (A) (A) (A) (A) (A) (A) (A)
                 (A) (A) (A) (A) (A) (A) (A) (A) (A) (A) (A) (A)
                 (A) (A) (A) (A) (A) (A) (A) (A) (A) (A) (A) (A)
                 (A) (A) (A) (A) (A) (A) (A) (A) (A) (A) (A) (A)
                 (A) (A) (A) (A) (A) (A) (A) (A) (A) (A) (A) (A)
                 (A) (A) (A) (A) (A) (A) (A) (A) (A) (A) (A) (A)
                 (A) (A) (A) (A) (A) (A) (A) (A) (A) (A) (A) (A)
                 (A) (A) (A) (A) (A) (A) (A) (A) (A) (A) (A) (A)
                 (A) (A) (A) (A) (A) (A) (A) (A) (A) (A) (A) (A)
                 (A) (A) (A) (A) (A) (A) (A) (A) (A) (A) (A) (A)
                 (A) (A) (A) (A) (A) (A) (A) (A) (A) (A) (A) (A)
                 (A) (A) (A) (A) (A) (A) (A) (A) (A) (A) (A) (A)
                 (A) (A) (A) (A) (A) (A) (A) (A) (A) (A) (A) (A)
                 (A) (A) (A) (A) (A) (A) (A) (A) (A) (A) (A) (A)
                 (A) (A) (A) (A) (A) (A) (A) (A) (A) (A) (A) (A)
                 (A) (A) (A) (A) (A) (A) (A) (A) (A) (A) (A) (A)
                 (A) (A) (A) (A) (A) (A) (A) (A) (A) (A) (A) (A)
                 (A) (A) (A) (A) (A) (A) (A) (A) (A) (A) (A) (A)
                 (A) (A) (A) (A) (A) (A) (A) (A) (A) (A) (A) (A)
                 (A) (A) (A) (A) (A) (A) (A) (A) (A) (A) (A) (A)
                 (A) (A) (A) (A) (A) (A) (A) (A) (A) (A) (A) (A)
                 (A) (A) (A) (A) (A) (A) (A) (A) (A) (A) (A) (A)
                 (A) (A) (A) (A) (A) (A) (A) (A) (A) (A) (A) (A)
                 (A) (A) (A) (A) (A) (A) (A) (A) (A) (A) (A) (A)
                 (A) (A) (A) (A) (A) (A) (A) (A) (A) (A) (A) (A)
                 (A) (A) (A) (A) (A) (A) (A) (A) (A) (A) (A) (A)
                 (A) (A) (A) (A) (A) (A) (A) (A) (A) (A) (A)
 The electronic state is 1-A.
 Alpha  occ. eigenvalues -- -102.64526 -25.24448 -25.23811 -25.23686 -19.62478
 Alpha  occ. eigenvalues --  -19.55994 -19.47547 -19.44581 -14.76128 -10.77877
 Alpha  occ. eigenvalues --  -10.67011 -10.58844 -10.57913 -10.56013 -10.55637
 Alpha  occ. eigenvalues --  -10.53266 -10.53096 -10.52645 -10.52263 -10.50348
 Alpha  occ. eigenvalues --  -10.50133 -10.46295 -10.46134  -9.78791  -7.51309
 Alpha  occ. eigenvalues --   -7.50631  -7.50604  -1.40727  -1.32990  -1.32514
 Alpha  occ. eigenvalues --   -1.20413  -1.10649  -1.04975  -1.00576  -0.96514
 Alpha  occ. eigenvalues --   -0.91578  -0.90487  -0.86076  -0.85128  -0.80790
 Alpha  occ. eigenvalues --   -0.78937  -0.76970  -0.75363  -0.68720  -0.68214
 Alpha  occ. eigenvalues --   -0.65615  -0.64667  -0.64244  -0.63538  -0.63077
 Alpha  occ. eigenvalues --   -0.60560  -0.58004  -0.54861  -0.54300  -0.53507
 Alpha  occ. eigenvalues --   -0.53204  -0.53168  -0.51010  -0.49892  -0.49543
 Alpha  occ. eigenvalues --   -0.49522  -0.49230  -0.48444  -0.47644  -0.47459
 Alpha  occ. eigenvalues --   -0.46408  -0.45488  -0.44903  -0.43981  -0.43143
 Alpha  occ. eigenvalues --   -0.43087  -0.41383  -0.40956  -0.39796  -0.39472
 Alpha  occ. eigenvalues --   -0.39064  -0.38604  -0.36642  -0.36635  -0.36062
 Alpha  occ. eigenvalues --   -0.35770  -0.34358  -0.33551  -0.33011  -0.32808
 Alpha  occ. eigenvalues --   -0.32263  -0.30737  -0.28990  -0.24384  -0.22264
 Alpha  occ. eigenvalues --   -0.20346  -0.19376
 Alpha virt. eigenvalues --    0.02862   0.03902   0.04950   0.05191   0.06099
 Alpha virt. eigenvalues --    0.06657   0.07109   0.07276   0.07667   0.08012
 Alpha virt. eigenvalues --    0.08851   0.08897   0.09647   0.09854   0.09966
 Alpha virt. eigenvalues --    0.10287   0.10410   0.10637   0.11509   0.11556
 Alpha virt. eigenvalues --    0.11909   0.12082   0.12545   0.12863   0.13047
 Alpha virt. eigenvalues --    0.13283   0.13878   0.14274   0.14510   0.14980
 Alpha virt. eigenvalues --    0.15061   0.15951   0.16253   0.16469   0.16796
 Alpha virt. eigenvalues --    0.17046   0.17519   0.17608   0.18257   0.18445
 Alpha virt. eigenvalues --    0.18699   0.18788   0.19430   0.20032   0.20346
 Alpha virt. eigenvalues --    0.20766   0.21348   0.21490   0.21868   0.22361
 Alpha virt. eigenvalues --    0.22456   0.22540   0.23411   0.23998   0.24100
 Alpha virt. eigenvalues --    0.24659   0.24809   0.24926   0.25335   0.25445
 Alpha virt. eigenvalues --    0.25828   0.26594   0.26708   0.27005   0.27393
 Alpha virt. eigenvalues --    0.27518   0.27619   0.27986   0.28331   0.28843
 Alpha virt. eigenvalues --    0.29400   0.29924   0.29972   0.30538   0.30871
 Alpha virt. eigenvalues --    0.31467   0.31569   0.31894   0.32135   0.32402
 Alpha virt. eigenvalues --    0.32603   0.32816   0.33294   0.33405   0.33897
 Alpha virt. eigenvalues --    0.33967   0.34320   0.34846   0.35092   0.35726
 Alpha virt. eigenvalues --    0.36195   0.36640   0.36704   0.36979   0.37554
 Alpha virt. eigenvalues --    0.38382   0.38530   0.39283   0.39478   0.39934
 Alpha virt. eigenvalues --    0.40513   0.40859   0.40985   0.41214   0.41872
 Alpha virt. eigenvalues --    0.42196   0.42842   0.43644   0.43927   0.44195
 Alpha virt. eigenvalues --    0.44615   0.45172   0.45926   0.46370   0.46990
 Alpha virt. eigenvalues --    0.47297   0.48218   0.48948   0.49285   0.49984
 Alpha virt. eigenvalues --    0.50336   0.50685   0.50827   0.51867   0.51934
 Alpha virt. eigenvalues --    0.52575   0.52983   0.53153   0.53612   0.54924
 Alpha virt. eigenvalues --    0.55057   0.55802   0.56594   0.57626   0.58075
 Alpha virt. eigenvalues --    0.58887   0.60513   0.60782   0.61090   0.61456
 Alpha virt. eigenvalues --    0.62565   0.63099   0.63171   0.63970   0.64193
 Alpha virt. eigenvalues --    0.65118   0.65951   0.66657   0.66955   0.67905
 Alpha virt. eigenvalues --    0.68942   0.69169   0.70125   0.70455   0.70904
 Alpha virt. eigenvalues --    0.71825   0.72231   0.72837   0.73277   0.73338
 Alpha virt. eigenvalues --    0.74057   0.75225   0.75462   0.75835   0.76133
 Alpha virt. eigenvalues --    0.76804   0.77146   0.77589   0.77727   0.78289
 Alpha virt. eigenvalues --    0.79462   0.80096   0.80283   0.80392   0.80893
 Alpha virt. eigenvalues --    0.81197   0.82200   0.82696   0.83849   0.84398
 Alpha virt. eigenvalues --    0.84705   0.85821   0.87850   0.89521   0.90891
 Alpha virt. eigenvalues --    0.92613   0.93973   0.94549   0.95747   0.96410
 Alpha virt. eigenvalues --    0.96594   0.97547   0.97959   0.98542   0.98918
 Alpha virt. eigenvalues --    0.99316   1.00630   1.01977   1.03308   1.04945
 Alpha virt. eigenvalues --    1.05422   1.06304   1.07949   1.08143   1.08986
 Alpha virt. eigenvalues --    1.10831   1.12067   1.12232   1.14776   1.14949
 Alpha virt. eigenvalues --    1.16029   1.16421   1.17318   1.17969   1.18886
 Alpha virt. eigenvalues --    1.22791   1.24309   1.24486   1.24621   1.26404
 Alpha virt. eigenvalues --    1.26844   1.27822   1.28838   1.29717   1.31069
 Alpha virt. eigenvalues --    1.31867   1.34103   1.34754   1.35539   1.36199
 Alpha virt. eigenvalues --    1.37315   1.38333   1.38484   1.41352   1.42496
 Alpha virt. eigenvalues --    1.43034   1.43657   1.45802   1.47420   1.48834
 Alpha virt. eigenvalues --    1.49367   1.50042   1.50402   1.51205   1.51692
 Alpha virt. eigenvalues --    1.52291   1.53838   1.54821   1.56266   1.57506
 Alpha virt. eigenvalues --    1.57689   1.58538   1.59592   1.61256   1.61697
 Alpha virt. eigenvalues --    1.62399   1.63326   1.64364   1.65159   1.65578
 Alpha virt. eigenvalues --    1.66398   1.67791   1.68248   1.69092   1.69133
 Alpha virt. eigenvalues --    1.70643   1.72053   1.72421   1.74306   1.75293
 Alpha virt. eigenvalues --    1.76911   1.77276   1.79491   1.80310   1.81866
 Alpha virt. eigenvalues --    1.81958   1.82400   1.83887   1.86085   1.86198
 Alpha virt. eigenvalues --    1.87292   1.88032   1.88179   1.90166   1.90591
 Alpha virt. eigenvalues --    1.91744   1.92602   1.94646   1.95578   1.95910
 Alpha virt. eigenvalues --    1.96155   1.97840   1.99148   2.02753   2.03657
 Alpha virt. eigenvalues --    2.03920   2.06713   2.07478   2.08076   2.09376
 Alpha virt. eigenvalues --    2.14182   2.14799   2.17425   2.22294   2.23182
 Alpha virt. eigenvalues --    2.23621   2.25153   2.25404   2.28610   2.31077
 Alpha virt. eigenvalues --    2.34530   2.38394   2.40298   2.40740   2.43338
 Alpha virt. eigenvalues --    2.45585   2.50556   2.51392   2.53136   2.55723
 Alpha virt. eigenvalues --    2.57531   2.57873   2.58784   2.58891   2.61439
 Alpha virt. eigenvalues --    2.61874   2.62715   2.63761   2.64015   2.65695
 Alpha virt. eigenvalues --    2.66485   2.69918   2.71457   2.73512   2.74133
 Alpha virt. eigenvalues --    2.78407   2.80638   2.82831   2.83360   2.85953
 Alpha virt. eigenvalues --    2.87979   2.88940   2.93786   2.98107   3.00397
 Alpha virt. eigenvalues --    3.00813   3.01401   3.02863   3.03316   3.05368
 Alpha virt. eigenvalues --    3.06227   3.08019   3.08621   3.08858   3.09279
 Alpha virt. eigenvalues --    3.10977   3.11991   3.13211   3.14661   3.15678
 Alpha virt. eigenvalues --    3.17186   3.20659   3.21968   3.23214   3.23606
 Alpha virt. eigenvalues --    3.24006   3.26582   3.30771   3.30854   3.31538
 Alpha virt. eigenvalues --    3.31924   3.32228   3.35136   3.36125   3.36266
 Alpha virt. eigenvalues --    3.40212   3.44760   3.45255   3.45940   3.46526
 Alpha virt. eigenvalues --    3.47461   3.50455   3.54747   3.56562   3.69493
 Alpha virt. eigenvalues --    3.70070   3.72842   3.76680   3.77344   3.82630
 Alpha virt. eigenvalues --    3.83086   3.85018   3.88510   3.89180   3.90285
 Alpha virt. eigenvalues --    3.90773   3.91216   3.93568   3.94483   3.98738
 Alpha virt. eigenvalues --    4.02693   4.02986   4.05336   4.06196   4.10742
 Alpha virt. eigenvalues --    4.11677   4.20725   4.21035   4.23148   4.25291
 Alpha virt. eigenvalues --    4.27363   4.28817   4.30050   4.50033   4.75132
 Alpha virt. eigenvalues --    4.83944   4.97295   4.99860   5.10255   5.15480
 Alpha virt. eigenvalues --    5.21520   5.27589   5.32212   5.42831   5.43459
 Alpha virt. eigenvalues --    5.47552   5.50922   5.76929   5.85588   6.05062
 Alpha virt. eigenvalues --    6.07202   6.48645   6.52970   6.54509   6.55675
 Alpha virt. eigenvalues --    6.57582   6.63930   6.65959   6.85668   6.88735
 Alpha virt. eigenvalues --   10.01647  23.46190  23.61774  23.63664  23.67843
 Alpha virt. eigenvalues --   23.77156  23.84149  23.87281  23.92979  23.94378
 Alpha virt. eigenvalues --   23.95918  24.02269  24.06954  24.10734  24.19966
 Alpha virt. eigenvalues --   25.97893  26.32326  26.78961  35.69010  50.07011
 Alpha virt. eigenvalues --   50.15052  50.18542  50.24538  66.91678  66.94783
 Alpha virt. eigenvalues --   67.00536 216.12092
          Condensed to atoms (all electrons):
               1          2          3          4          5          6
     1  C   21.070855  -0.317671  -1.100069  -0.199197  -0.193113  -0.651201
     2  N   -0.317671   7.623051   0.238624  -0.011844  -0.248435  -0.365324
     3  C   -1.100069   0.238624   8.965833   0.477879   0.281157  -0.659484
     4  O   -0.199197  -0.011844   0.477879   8.155110  -0.204859  -0.208052
     5  O   -0.193113  -0.248435   0.281157  -0.204859   8.417017   0.357591
     6  C   -0.651201  -0.365324  -0.659484  -0.208052   0.357591   8.304839
     7  C    0.002694   0.052012   0.230687   0.033395  -0.174384  -0.944487
     8  C   -0.012482  -0.009669  -0.235612  -0.000139   0.026002   0.337033
     9  C    0.180293   0.075975   0.989403  -0.062492  -0.034931   0.196032
    10  C   -4.708953  -0.029828   0.030171  -0.038300   0.005523  -0.007112
    11  C   -0.401338   0.044722  -0.894573  -0.002382  -0.016052  -0.058115
    12  C   -3.442084   0.214162  -1.231554   0.125122  -0.019593  -0.156386
    13  C   -1.723577   0.061565  -1.153398   0.288448  -0.061601  -0.519291
    14  H   -0.073431   0.172474   0.019935  -0.000378   0.030113   0.006459
    15  H    0.002644   0.005622   0.035431   0.000535  -0.051810   0.365458
    16  H    0.014492   0.001989   0.039179   0.000859  -0.048874   0.362346
    17  H   -0.000561  -0.000772   0.004381  -0.000285   0.001432  -0.061734
    18  H    0.000150  -0.001063   0.002787  -0.000264   0.001489  -0.056380
    19  H   -0.000058  -0.000061  -0.001925  -0.000073  -0.000397  -0.042326
    20  H    0.000091   0.000031   0.006658   0.000025  -0.000879   0.084780
    21  H   -0.000176  -0.000020  -0.001197  -0.000054  -0.000354  -0.044474
    22  H   -0.096657  -0.007897   0.001958  -0.000019  -0.000215  -0.000040
    23  C   -2.467408  -0.002006  -0.067626  -0.003482   0.001918  -0.001695
    24  Cl  -0.057491   0.001185  -0.037119  -0.000327   0.000019  -0.001063
    25  H    0.011780  -0.002237   0.003418   0.000279   0.000042   0.000085
    26  H    0.010333  -0.020145   0.123097  -0.011512   0.003033   0.014584
    27  F   -0.007887   0.000449  -0.001098  -0.000006  -0.000004   0.000005
    28  F    0.048512   0.000486   0.000250   0.000001   0.000001  -0.000002
    29  F    0.044206   0.001218   0.001313   0.000000  -0.000001   0.000028
    30  O    0.004959  -0.011988   0.003732  -0.000031   0.000175  -0.000752
    31  O    0.046383  -0.003293  -0.009653   0.000213   0.002700  -0.009305
    32  C   -0.070759  -0.007543   0.019355  -0.000023  -0.000989   0.003808
    33  C    0.028468  -0.012011   0.011238   0.000122   0.000988   0.004414
    34  C    0.008397   0.002570  -0.003630  -0.000038  -0.000387  -0.001139
    35  H   -0.000510   0.000018   0.000054  -0.000000   0.000000  -0.000006
    36  H    0.000177  -0.000007  -0.000026  -0.000000   0.000000  -0.000013
    37  H    0.000028   0.000076  -0.000080   0.000000  -0.000005   0.000109
    38  H    0.000033  -0.000021   0.000017  -0.000000   0.000000  -0.000019
    39  H   -0.000369   0.000101  -0.000013   0.000000  -0.000005   0.000119
               7          8          9         10         11         12
     1  C    0.002694  -0.012482   0.180293  -4.708953  -0.401338  -3.442084
     2  N    0.052012  -0.009669   0.075975  -0.029828   0.044722   0.214162
     3  C    0.230687  -0.235612   0.989403   0.030171  -0.894573  -1.231554
     4  O    0.033395  -0.000139  -0.062492  -0.038300  -0.002382   0.125122
     5  O   -0.174384   0.026002  -0.034931   0.005523  -0.016052  -0.019593
     6  C   -0.944487   0.337033   0.196032  -0.007112  -0.058115  -0.156386
     7  C    6.473076  -0.272501   0.009879  -0.001870   0.002153   0.002342
     8  C   -0.272501   6.262536   0.002913  -0.000012  -0.000564  -0.002850
     9  C    0.009879   0.002913  11.379241  -2.581607   1.097190   0.891871
    10  C   -0.001870  -0.000012  -2.581607  22.925174  -1.543362  -6.600295
    11  C    0.002153  -0.000564   1.097190  -1.543362  13.361901   1.045852
    12  C    0.002342  -0.002850   0.891871  -6.600295   1.045852  17.453944
    13  C    0.016592  -0.018415  -3.007040   1.455851  -5.867306  -1.378243
    14  H   -0.001090  -0.000204  -0.012622   0.030399  -0.008422  -0.002284
    15  H   -0.019141  -0.019683   0.000668   0.000108   0.000097   0.000324
    16  H   -0.021511  -0.018477  -0.000272   0.000073  -0.000021  -0.001012
    17  H    0.457168  -0.068429   0.000050   0.000005   0.000005   0.000034
    18  H    0.451190  -0.066209  -0.000095   0.000002   0.000001   0.000013
    19  H    0.015779   0.368179   0.000005  -0.000000   0.000000  -0.000001
    20  H   -0.143479   0.401129  -0.000009   0.000000   0.000000   0.000001
    21  H    0.021240   0.364082   0.000006  -0.000001   0.000001   0.000006
    22  H    0.000008   0.000001   0.275855   0.045209  -0.027622  -0.033715
    23  C   -0.000380  -0.000006  -3.221714  -2.044702  -0.433617  -1.396272
    24  Cl  -0.000011  -0.000004   0.076116  -0.115358  -0.403460   0.327278
    25  H   -0.000002   0.000000  -0.034409   0.122933  -0.051742   0.195189
    26  H   -0.001098   0.000129   0.001701  -0.031380  -0.025777  -0.066863
    27  F    0.000000   0.000000  -0.007473   0.077039  -0.022603   0.000624
    28  F   -0.000000   0.000000   0.185475  -0.200860  -0.053044   0.110547
    29  F    0.000000   0.000000   0.074853   0.004074  -0.026298  -0.000270
    30  O    0.000312  -0.000001   0.018552  -0.018488  -0.000554  -0.003510
    31  O    0.004735   0.000483  -0.054287  -0.010994   0.001259   0.004200
    32  C   -0.000395  -0.000372   0.053330   0.026211  -0.003707  -0.000720
    33  C   -0.000796   0.000926  -0.027578  -0.018313  -0.001962  -0.000062
    34  C    0.000212  -0.000768  -0.006408  -0.001149   0.000217   0.000370
    35  H    0.000012   0.000000   0.000517   0.000156  -0.000004  -0.000004
    36  H    0.000010  -0.000000  -0.000217  -0.000017   0.000002   0.000001
    37  H    0.000023   0.000055  -0.000151  -0.000027   0.000000   0.000001
    38  H   -0.000004  -0.000004   0.000011   0.000004  -0.000000  -0.000000
    39  H    0.000062   0.000056   0.000185   0.000000  -0.000000  -0.000001
              13         14         15         16         17         18
     1  C   -1.723577  -0.073431   0.002644   0.014492  -0.000561   0.000150
     2  N    0.061565   0.172474   0.005622   0.001989  -0.000772  -0.001063
     3  C   -1.153398   0.019935   0.035431   0.039179   0.004381   0.002787
     4  O    0.288448  -0.000378   0.000535   0.000859  -0.000285  -0.000264
     5  O   -0.061601   0.030113  -0.051810  -0.048874   0.001432   0.001489
     6  C   -0.519291   0.006459   0.365458   0.362346  -0.061734  -0.056380
     7  C    0.016592  -0.001090  -0.019141  -0.021511   0.457168   0.451190
     8  C   -0.018415  -0.000204  -0.019683  -0.018477  -0.068429  -0.066209
     9  C   -3.007040  -0.012622   0.000668  -0.000272   0.000050  -0.000095
    10  C    1.455851   0.030399   0.000108   0.000073   0.000005   0.000002
    11  C   -5.867306  -0.008422   0.000097  -0.000021   0.000005   0.000001
    12  C   -1.378243  -0.002284   0.000324  -0.001012   0.000034   0.000013
    13  C   17.034083   0.029580   0.000614  -0.006416   0.000377   0.000049
    14  H    0.029580   0.262445   0.000020  -0.000005  -0.000003  -0.000013
    15  H    0.000614   0.000020   0.475917  -0.044227   0.005359  -0.008406
    16  H   -0.006416  -0.000005  -0.044227   0.474856  -0.008231   0.005340
    17  H    0.000377  -0.000003   0.005359  -0.008231   0.437606  -0.029474
    18  H    0.000049  -0.000013  -0.008406   0.005340  -0.029474   0.437904
    19  H   -0.000025  -0.000000  -0.000865   0.004304  -0.007955   0.006373
    20  H    0.000048  -0.000000  -0.000194  -0.000204  -0.003731  -0.003750
    21  H    0.000079   0.000000   0.004365  -0.000817   0.006373  -0.008015
    22  H    0.011731   0.004470  -0.000000  -0.000000  -0.000000  -0.000000
    23  C    1.467010   0.008955   0.000005  -0.000004   0.000001   0.000000
    24  Cl  -0.644200   0.000054   0.000000  -0.000000   0.000000   0.000000
    25  H    0.072798  -0.000002  -0.000000  -0.000000   0.000000   0.000000
    26  H    0.316634  -0.000087  -0.000064  -0.000076  -0.000000  -0.000001
    27  F   -0.008292   0.000008   0.000000  -0.000000  -0.000000  -0.000000
    28  F    0.028167   0.000001  -0.000000  -0.000000   0.000000   0.000000
    29  F   -0.014762   0.000010   0.000000  -0.000000   0.000000  -0.000000
    30  O   -0.013048   0.012373  -0.000000  -0.000000  -0.000001   0.000000
    31  O    0.024029   0.023045   0.000009   0.000008  -0.000035  -0.000038
    32  C   -0.020179   0.001917  -0.000022   0.000021   0.000095   0.000089
    33  C   -0.009073   0.008701  -0.000019   0.000003  -0.000252  -0.000187
    34  C    0.002103  -0.001669   0.000008   0.000007   0.000189   0.000181
    35  H   -0.000028  -0.000002   0.000000   0.000000  -0.000000  -0.000000
    36  H   -0.000000   0.000004   0.000000   0.000000  -0.000000  -0.000000
    37  H   -0.000007  -0.000036  -0.000000  -0.000000  -0.000008  -0.000003
    38  H    0.000003   0.000006  -0.000000  -0.000000   0.000000   0.000000
    39  H   -0.000029  -0.000043  -0.000000  -0.000000  -0.000003  -0.000008
              19         20         21         22         23         24
     1  C   -0.000058   0.000091  -0.000176  -0.096657  -2.467408  -0.057491
     2  N   -0.000061   0.000031  -0.000020  -0.007897  -0.002006   0.001185
     3  C   -0.001925   0.006658  -0.001197   0.001958  -0.067626  -0.037119
     4  O   -0.000073   0.000025  -0.000054  -0.000019  -0.003482  -0.000327
     5  O   -0.000397  -0.000879  -0.000354  -0.000215   0.001918   0.000019
     6  C   -0.042326   0.084780  -0.044474  -0.000040  -0.001695  -0.001063
     7  C    0.015779  -0.143479   0.021240   0.000008  -0.000380  -0.000011
     8  C    0.368179   0.401129   0.364082   0.000001  -0.000006  -0.000004
     9  C    0.000005  -0.000009   0.000006   0.275855  -3.221714   0.076116
    10  C   -0.000000   0.000000  -0.000001   0.045209  -2.044702  -0.115358
    11  C    0.000000   0.000000   0.000001  -0.027622  -0.433617  -0.403460
    12  C   -0.000001   0.000001   0.000006  -0.033715  -1.396272   0.327278
    13  C   -0.000025   0.000048   0.000079   0.011731   1.467010  -0.644200
    14  H   -0.000000  -0.000000   0.000000   0.004470   0.008955   0.000054
    15  H   -0.000865  -0.000194   0.004365  -0.000000   0.000005   0.000000
    16  H    0.004304  -0.000204  -0.000817  -0.000000  -0.000004  -0.000000
    17  H   -0.007955  -0.003731   0.006373  -0.000000   0.000001   0.000000
    18  H    0.006373  -0.003750  -0.008015  -0.000000   0.000000   0.000000
    19  H    0.467342  -0.024492  -0.036957  -0.000000  -0.000000  -0.000000
    20  H   -0.024492   0.437725  -0.024574   0.000000   0.000000   0.000000
    21  H   -0.036957  -0.024574   0.467647  -0.000000  -0.000000  -0.000000
    22  H   -0.000000   0.000000  -0.000000   0.308134   0.120813  -0.000829
    23  C   -0.000000   0.000000  -0.000000   0.120813  13.791525  -0.193311
    24  Cl  -0.000000   0.000000  -0.000000  -0.000829  -0.193311  17.691594
    25  H    0.000000  -0.000000  -0.000000   0.000045   0.028336  -0.029662
    26  H   -0.000000   0.000000  -0.000000  -0.000052  -0.000139   0.001004
    27  F   -0.000000  -0.000000   0.000000  -0.000516   0.140388   0.004915
    28  F   -0.000000   0.000000  -0.000000   0.000013  -0.026346  -0.028407
    29  F   -0.000000  -0.000000   0.000000   0.000111   0.088656   0.004433
    30  O    0.000000   0.000000   0.000000   0.009877   0.020500   0.000010
    31  O    0.000000   0.000001   0.000000   0.000736   0.001074   0.000011
    32  C    0.000001  -0.000003  -0.000000   0.000977  -0.018106  -0.000209
    33  C   -0.000002   0.000005  -0.000003   0.003460  -0.001139  -0.000097
    34  C    0.000003  -0.000009   0.000003  -0.000188  -0.000229   0.000003
    35  H    0.000000  -0.000000   0.000000  -0.000008  -0.000054   0.000000
    36  H    0.000000  -0.000000   0.000000   0.000004  -0.000045   0.000000
    37  H   -0.000000   0.000000  -0.000000   0.000001  -0.000007  -0.000000
    38  H    0.000000  -0.000000   0.000000  -0.000000   0.000003   0.000000
    39  H   -0.000000   0.000000  -0.000000  -0.000000  -0.000006  -0.000000
              25         26         27         28         29         30
     1  C    0.011780   0.010333  -0.007887   0.048512   0.044206   0.004959
     2  N   -0.002237  -0.020145   0.000449   0.000486   0.001218  -0.011988
     3  C    0.003418   0.123097  -0.001098   0.000250   0.001313   0.003732
     4  O    0.000279  -0.011512  -0.000006   0.000001   0.000000  -0.000031
     5  O    0.000042   0.003033  -0.000004   0.000001  -0.000001   0.000175
     6  C    0.000085   0.014584   0.000005  -0.000002   0.000028  -0.000752
     7  C   -0.000002  -0.001098   0.000000  -0.000000   0.000000   0.000312
     8  C    0.000000   0.000129   0.000000   0.000000   0.000000  -0.000001
     9  C   -0.034409   0.001701  -0.007473   0.185475   0.074853   0.018552
    10  C    0.122933  -0.031380   0.077039  -0.200860   0.004074  -0.018488
    11  C   -0.051742  -0.025777  -0.022603  -0.053044  -0.026298  -0.000554
    12  C    0.195189  -0.066863   0.000624   0.110547  -0.000270  -0.003510
    13  C    0.072798   0.316634  -0.008292   0.028167  -0.014762  -0.013048
    14  H   -0.000002  -0.000087   0.000008   0.000001   0.000010   0.012373
    15  H   -0.000000  -0.000064   0.000000  -0.000000   0.000000  -0.000000
    16  H   -0.000000  -0.000076  -0.000000  -0.000000  -0.000000  -0.000000
    17  H    0.000000  -0.000000  -0.000000   0.000000   0.000000  -0.000001
    18  H    0.000000  -0.000001  -0.000000   0.000000  -0.000000   0.000000
    19  H    0.000000  -0.000000  -0.000000  -0.000000  -0.000000   0.000000
    20  H   -0.000000   0.000000  -0.000000   0.000000  -0.000000   0.000000
    21  H   -0.000000  -0.000000   0.000000  -0.000000   0.000000   0.000000
    22  H    0.000045  -0.000052  -0.000516   0.000013   0.000111   0.009877
    23  C    0.028336  -0.000139   0.140388  -0.026346   0.088656   0.020500
    24  Cl  -0.029662   0.001004   0.004915  -0.028407   0.004433   0.000010
    25  H    0.405571  -0.003975   0.000020   0.000039   0.000021  -0.000000
    26  H   -0.003975   0.375907   0.000003  -0.000003  -0.000001  -0.000004
    27  F    0.000020   0.000003   8.959990  -0.026440  -0.053128  -0.000242
    28  F    0.000039  -0.000003  -0.026440   9.090940  -0.025801  -0.000027
    29  F    0.000021  -0.000001  -0.053128  -0.025801   8.960675  -0.001122
    30  O   -0.000000  -0.000004  -0.000242  -0.000027  -0.001122   8.538964
    31  O   -0.000000   0.000003   0.000007  -0.000000  -0.000013  -0.197771
    32  C   -0.000005   0.000033   0.000014  -0.000041   0.000253   0.467195
    33  C   -0.000000   0.000005  -0.000116   0.000023   0.000452  -0.267109
    34  C   -0.000000   0.000001  -0.000012  -0.000000  -0.000007   0.025415
    35  H    0.000000  -0.000000   0.000000  -0.000000   0.000000  -0.002662
    36  H   -0.000000   0.000000  -0.000000  -0.000000  -0.000000  -0.001944
    37  H   -0.000000   0.000000  -0.000000  -0.000000  -0.000000  -0.000334
    38  H    0.000000  -0.000000   0.000000   0.000000   0.000000  -0.000088
    39  H    0.000000   0.000000   0.000000   0.000000  -0.000000  -0.000463
              31         32         33         34         35         36
     1  C    0.046383  -0.070759   0.028468   0.008397  -0.000510   0.000177
     2  N   -0.003293  -0.007543  -0.012011   0.002570   0.000018  -0.000007
     3  C   -0.009653   0.019355   0.011238  -0.003630   0.000054  -0.000026
     4  O    0.000213  -0.000023   0.000122  -0.000038  -0.000000  -0.000000
     5  O    0.002700  -0.000989   0.000988  -0.000387   0.000000   0.000000
     6  C   -0.009305   0.003808   0.004414  -0.001139  -0.000006  -0.000013
     7  C    0.004735  -0.000395  -0.000796   0.000212   0.000012   0.000010
     8  C    0.000483  -0.000372   0.000926  -0.000768   0.000000  -0.000000
     9  C   -0.054287   0.053330  -0.027578  -0.006408   0.000517  -0.000217
    10  C   -0.010994   0.026211  -0.018313  -0.001149   0.000156  -0.000017
    11  C    0.001259  -0.003707  -0.001962   0.000217  -0.000004   0.000002
    12  C    0.004200  -0.000720  -0.000062   0.000370  -0.000004   0.000001
    13  C    0.024029  -0.020179  -0.009073   0.002103  -0.000028  -0.000000
    14  H    0.023045   0.001917   0.008701  -0.001669  -0.000002   0.000004
    15  H    0.000009  -0.000022  -0.000019   0.000008   0.000000   0.000000
    16  H    0.000008   0.000021   0.000003   0.000007   0.000000   0.000000
    17  H   -0.000035   0.000095  -0.000252   0.000189  -0.000000  -0.000000
    18  H   -0.000038   0.000089  -0.000187   0.000181  -0.000000  -0.000000
    19  H    0.000000   0.000001  -0.000002   0.000003   0.000000   0.000000
    20  H    0.000001  -0.000003   0.000005  -0.000009  -0.000000  -0.000000
    21  H    0.000000  -0.000000  -0.000003   0.000003   0.000000   0.000000
    22  H    0.000736   0.000977   0.003460  -0.000188  -0.000008   0.000004
    23  C    0.001074  -0.018106  -0.001139  -0.000229  -0.000054  -0.000045
    24  Cl   0.000011  -0.000209  -0.000097   0.000003   0.000000   0.000000
    25  H   -0.000000  -0.000005  -0.000000  -0.000000   0.000000  -0.000000
    26  H    0.000003   0.000033   0.000005   0.000001  -0.000000   0.000000
    27  F    0.000007   0.000014  -0.000116  -0.000012   0.000000  -0.000000
    28  F   -0.000000  -0.000041   0.000023  -0.000000  -0.000000  -0.000000
    29  F   -0.000013   0.000253   0.000452  -0.000007   0.000000  -0.000000
    30  O   -0.197771   0.467195  -0.267109   0.025415  -0.002662  -0.001944
    31  O    8.517373   0.298817  -0.234298   0.059427  -0.000672  -0.000755
    32  C    0.298817   5.859008  -0.805165   0.224066  -0.035542  -0.056635
    33  C   -0.234298  -0.805165   7.386868  -0.525393   0.423755   0.445439
    34  C    0.059427   0.224066  -0.525393   6.099555  -0.058217  -0.058593
    35  H   -0.000672  -0.035542   0.423755  -0.058217   0.458585  -0.029710
    36  H   -0.000755  -0.056635   0.445439  -0.058593  -0.029710   0.457991
    37  H   -0.007629  -0.021542  -0.012642   0.388670  -0.007476   0.006239
    38  H    0.003402   0.061253  -0.115973   0.392783  -0.003697  -0.003669
    39  H   -0.007877  -0.010641  -0.023702   0.388792   0.006271  -0.007448
              37         38         39
     1  C    0.000028   0.000033  -0.000369
     2  N    0.000076  -0.000021   0.000101
     3  C   -0.000080   0.000017  -0.000013
     4  O    0.000000  -0.000000   0.000000
     5  O   -0.000005   0.000000  -0.000005
     6  C    0.000109  -0.000019   0.000119
     7  C    0.000023  -0.000004   0.000062
     8  C    0.000055  -0.000004   0.000056
     9  C   -0.000151   0.000011   0.000185
    10  C   -0.000027   0.000004   0.000000
    11  C    0.000000  -0.000000  -0.000000
    12  C    0.000001  -0.000000  -0.000001
    13  C   -0.000007   0.000003  -0.000029
    14  H   -0.000036   0.000006  -0.000043
    15  H   -0.000000  -0.000000  -0.000000
    16  H   -0.000000  -0.000000  -0.000000
    17  H   -0.000008   0.000000  -0.000003
    18  H   -0.000003   0.000000  -0.000008
    19  H   -0.000000   0.000000  -0.000000
    20  H    0.000000  -0.000000   0.000000
    21  H   -0.000000   0.000000  -0.000000
    22  H    0.000001  -0.000000  -0.000000
    23  C   -0.000007   0.000003  -0.000006
    24  Cl  -0.000000   0.000000  -0.000000
    25  H   -0.000000   0.000000   0.000000
    26  H    0.000000  -0.000000   0.000000
    27  F   -0.000000   0.000000   0.000000
    28  F   -0.000000   0.000000   0.000000
    29  F   -0.000000   0.000000  -0.000000
    30  O   -0.000334  -0.000088  -0.000463
    31  O   -0.007629   0.003402  -0.007877
    32  C   -0.021542   0.061253  -0.010641
    33  C   -0.012642  -0.115973  -0.023702
    34  C    0.388670   0.392783   0.388792
    35  H   -0.007476  -0.003697   0.006271
    36  H    0.006239  -0.003669  -0.007448
    37  H    0.466230  -0.033432  -0.029079
    38  H   -0.033432   0.501897  -0.033417
    39  H   -0.029079  -0.033417   0.466176
 Mulliken charges:
               1
     1  C    0.050499
     2  N   -0.444495
     3  C   -0.089499
     4  O   -0.338232
     5  O   -0.072313
     6  C   -0.249292
     7  C   -0.192432
     8  C   -1.037129
     9  C   -0.458818
    10  C   -0.770303
    11  C    0.289123
    12  C   -0.036161
    13  C   -0.364831
[...]
 0067021,-0.00017522,0.00023668,0.00013181,0.00000168,-0.00008127,-0.00
 015626,0.00000813,-0.00008538,-0.00002533,0.00000049,0.00007011,0.0000
 2229,0.00000121,-0.00000541,-0.00000575,-0.00000381,0.00000004,0.00000
 467,0.00000068,0.00009139,0.00001260,0.00002114,-0.00002202,-0.0000010
 7,0.00000511,0.00000145,-0.00001407,0.00000304,0.00000825,-0.00000038,
 0.00000165,0.00003016,-0.00003416,0.00002325,0.00016889,0.00103605,0.0
 0039616,-0.00000857,-0.00000491,-0.00000204,-0.00000825,-0.00000648,0.
 00000216,0.00000312,0.,0.00000042,0.00000432,-0.00000224,0.00000239,-0
 .00000119,-0.00000224,0.00000089,-0.00000519,0.00000056,-0.00000070,-0
 .00000009,-0.00000093,-0.00000041,-0.00008956,0.00007914,-0.00006911,-
 0.00004136,-0.00026023,-0.00007332,0.00003992,-0.00001679,0.00000450,0
 .00000552,-0.00000322,-0.00000186,-0.00000552,0.00000100,-0.00000330,0
 .00001435,0.00013097,0.00003090,0.00000371,0.00004915,0.00002627,0.000
 03427,0.00005262,0.00004077,0.00412394,0.00073611,0.00296719,0.0030354
 4,-0.00536139,0.00345293,-0.02981815,-0.01204324,-0.01747951,-0.091720
 76,-0.09332545,-0.05285056,0.00683639,0.00280748,0.00357576,0.09521150
 ,0.10013638,-0.00006494,-0.00000398,0.00000263,0.00000432,-0.00015636,
 0.00001481,0.00010337,0.00007316,0.00000584,-0.00003115,-0.00006291,-0
 .00000395,-0.00005766,-0.00001207,0.00000916,0.00004415,0.00001197,0.0
 0000159,-0.00000195,-0.00000338,-0.00001525,-0.00000136,0.00000323,0.0
 0000443,0.00003443,0.00000293,0.00000326,-0.00001990,0.00000534,-0.000
 00448,-0.00001897,-0.00000862,0.00000175,0.00001709,-0.00000186,-0.000
 00134,0.00000145,-0.00000371,-0.00000098,-0.00001062,0.00024912,-0.000
 02602,-0.00000525,0.00000151,-0.00000133,-0.00000421,-0.00000372,0.000
 00239,0.00000069,-0.00000240,0.00001054,0.00000319,-0.00000605,-0.0000
 0187,-0.00000057,-0.00000160,0.00000100,-0.00000422,0.00000048,-0.0000
 0152,0.00000177,0.00000159,-0.00000010,-0.00004854,0.00008658,-0.00003
 521,-0.00007665,-0.00010653,0.00003842,0.00002813,-0.00001403,0.000002
 86,0.00000247,-0.00000168,0.00000097,-0.00000141,-0.00000068,0.0000003
 4,0.00002848,0.00005279,-0.00000959,0.00003244,0.00002063,-0.00002019,
 0.00002565,0.00002138,-0.00000305,0.00178049,-0.00098840,-0.00011972,-
 0.00010979,-0.00011943,-0.00045904,-0.00252019,0.00124815,-0.00149175,
 -0.09152520,-0.04970823,-0.09581172,0.01647965,0.00873681,0.00866003,0
 .09753008,0.05445971,0.10264034,0.00004545,0.00000687,-0.00000735,-0.0
 0000138,0.00013055,-0.00000882,-0.00009131,-0.00006981,0.00000362,0.00
 002837,0.00005968,-0.00000030,0.00005254,0.00001871,-0.00001956,-0.000
 03445,-0.00000916,0.00000120,-0.00000065,0.00000009,0.00002966,-0.0000
 0005,-0.00000211,-0.00000877,-0.00002116,-0.00001311,0.00001784,0.0000
 1050,0.00000294,0.00000306,0.00002022,0.00000656,-0.00000308,-0.000016
 46,0.00000542,-0.00000077,0.00000007,0.00000223,0.00000187,0.00003427,
 -0.00026077,0.00001252,0.00000522,-0.00000041,-0.00000028,0.00000392,0
 .00000851,-0.00000264,0.00000257,0.00000023,-0.00000473,-0.00000387,0.
 00000157,-0.00000918,0.00000273,0.00000494,-0.00000156,0.00000199,-0.0
 0000081,0.00000334,-0.00000165,-0.00000238,-0.00000089,0.00002959,-0.0
 0008199,0.00001281,0.00008230,-0.00001129,-0.00004038,-0.00002149,0.00
 001191,-0.00000232,-0.00000179,0.00000207,-0.00000032,0.00000063,0.000
 00135,0.00000115,-0.00002012,0.00001135,0.00001255,-0.00003625,0.00000
 036,0.00003239,-0.00002366,-0.00000160,-0.00000002,-0.00075271,0.00099
 449,0.00197609,0.00051050,0.00046623,0.00001507,-0.00145020,-0.0008477
 8,-0.00524755,-0.04818197,0.00973522,-0.01831990,0.00239080,-0.0117959
 5,0.02704207,-0.00255825,0.01171452,-0.02382270,0.05233963,-0.00036694
 ,0.00001465,-0.00001376,0.00007326,-0.00115418,-0.00006975,0.00048591,
 0.00016718,0.00006777,-0.00015368,-0.00022376,-0.00002412,-0.00020679,
 0.00000174,-0.00003527,0.00011637,0.00002130,0.00001749,-0.00000639,-0
 .00002410,0.00002301,-0.00000556,0.00001372,-0.00000693,0.00004360,0.0
 0011137,-0.00004310,-0.00000413,0.00002261,-0.00000835,-0.00001810,-0.
 00000842,0.00000343,0.00000081,-0.00001118,0.00000315,0.00008189,-0.00
 004160,0.00000342,-0.00018388,0.00179987,0.00009459,-0.00001711,-0.000
 01383,-0.00000429,-0.00001755,-0.00000516,-0.00000313,0.00000479,-0.00
 000058,-0.00000121,-0.00000311,0.00000378,-0.00001122,0.00000418,0.000
 00276,-0.00000266,-0.00000913,-0.00000035,0.00000181,-0.00000029,-0.00
 000389,0.00000020,-0.00005705,-0.00000276,0.00004807,-0.00006939,-0.00
 002479,0.00003632,0.00003649,-0.00001439,0.00000298,0.00000852,-0.0000
 0494,0.00000224,-0.00000781,0.00000828,-0.00000123,0.00002029,0.000002
 56,-0.00000624,0.00003031,0.00000413,-0.00002790,0.00002020,0.00000783
 ,0.00000141,-0.00181057,0.00176837,-0.00347522,-0.00170295,-0.00817003
 ,-0.00267166,0.00368411,-0.01079379,0.03396933,0.01123117,-0.08843084,
 0.10027433,-0.00031289,0.00245739,-0.00799088,-0.00072981,0.00593292,-
 0.01378119,-0.01081483,0.09605679,0.00011549,-0.00001971,0.00000521,0.
 00000173,0.00021603,0.00004398,-0.00009314,-0.00009664,-0.00003416,0.0
 0003304,0.00009222,0.00001390,0.00003840,0.00003765,0.00002850,-0.0000
 4304,-0.00001824,-0.00001161,0.00000457,-0.00000300,-0.00002594,-0.000
 00368,0.00000094,0.00000603,-0.00003777,-0.00001924,0.00001021,0.00000
 868,-0.00001087,0.00000624,0.00002234,-0.00000072,-0.00000015,-0.00000
 657,0.00000106,0.00000198,-0.00001907,0.00001353,0.00000007,-0.0000284
 4,-0.00034481,-0.00008348,0.00000348,0.00000993,0.00000647,0.00000471,
 0.00000054,-0.00000084,-0.00000870,-0.00000120,0.00001460,-0.00000188,
 -0.00000344,-0.00000077,-0.00000002,-0.00000146,-0.00000059,0.00000294
 ,-0.00000216,-0.00000361,0.00000398,0.00000707,0.00000489,0.00001201,0
 .00003664,-0.00002835,0.00006066,-0.00000249,-0.00006994,-0.00002434,0
 .00001130,-0.00000171,-0.00000233,0.00000187,-0.00000254,0.00000354,-0
 .00000405,-0.00000351,-0.00001286,0.00000120,0.00002271,-0.00003343,0.
 00000122,0.00003572,-0.00001078,0.00000074,0.00001691,0.00000561,-0.00
 094614,0.00157413,-0.00113399,0.00030692,0.00060943,0.00313546,-0.0026
 6114,0.00123420,-0.01856555,0.09904100,-0.26646114,-0.00144918,0.00587
 754,-0.01464184,-0.00175956,0.00597415,-0.01365917,0.01642710,-0.10607
 279,0.29063748,0.00003175,-0.00001407,0.00000499,-0.00006166,-0.000039
 08,0.00001030,0.00011292,-0.00001713,-0.00001616,-0.00002697,0.0000037
 1,0.00000360,-0.00006715,0.00003339,0.00003783,0.00001282,-0.00000836,
 -0.00000322,0.00000525,-0.00001091,-0.00006149,-0.00000579,0.00000630,
 0.00001634,-0.00001012,0.00000693,-0.00001134,-0.00000419,0.00000031,-
 0.00000841,-0.00000458,0.00000105,0.00000583,0.00000370,-0.00000341,-0
 .00000235,-0.00000352,0.00000921,0.00000066,0.00002170,0.00006551,-0.0
 0001559,-0.00000655,0.00000697,0.00000592,-0.00000035,-0.00000784,0.00
 000018,-0.00001270,-0.00000223,0.00001632,0.00000310,0.00000431,0.0000
 1430,-0.00000196,-0.00000668,-0.00000067,-0.00000029,-0.00000057,-0.00
 000677,0.00000639,0.00000810,0.00000640,0.00000791,-0.00000892,0.00002
 041,0.00000052,0.00003733,0.00004262,-0.00000397,0.00000051,-0.0000009
 8,0.00000026,-0.00000011,-0.00000008,0.00000208,-0.00000154,-0.0000002
 4,0.00000024,-0.00001555,-0.00001175,0.00000633,-0.00000681,-0.0000149
 2,-0.00000706,-0.00000985,-0.00001769,0.00011836,0.00016655,-0.0004825
 8,0.00009613,0.00027871,-0.00041998,0.00022831,-0.00066004,0.00055231,
 0.00290063,-0.01179415,0.02820826,-0.04884209,0.00932172,-0.02510589,0
 .00128182,-0.00071509,-0.00071129,-0.00453158,0.00167233,0.00325771,0.
 05347564,0.00010794,-0.00001341,0.00001143,-0.00001813,0.00022641,0.00
 000857,-0.00007512,-0.00009558,-0.00002125,0.00002990,0.00008428,0.000
 00542,0.00003892,0.00003737,0.00002524,-0.00005526,-0.00001967,-0.0000
 0550,0.00000786,-0.00000049,-0.00001937,-0.00000150,0.00000101,0.00000
 678,-0.00003091,-0.00001880,-0.00001084,0.00000821,-0.00000315,0.00000
 387,0.00001698,0.00000283,-0.00000178,-0.00000831,0.00000229,-0.000000
 47,-0.00001475,0.00001077,-0.00000122,-0.00001243,-0.00036098,-0.00003
 215,0.00000549,0.00000602,0.00000461,0.00000553,0.00000252,-0.00000169
 ,-0.00001206,0.00000191,0.00000554,-0.00000011,0.00000299,0.00000399,-
 0.00000039,0.00000109,-0.00000105,0.00000525,-0.00000149,0.00000057,0.
 00000340,0.00000272,0.00000136,0.00003057,-0.00003697,0.00001687,0.000
 05882,0.00001867,0.00001917,-0.00002273,0.00001106,-0.00000322,-0.0000
 0246,0.00000241,-0.00000021,0.00000283,-0.00000181,0.00000002,-0.00001
 334,-0.00000177,-0.00000604,-0.00001774,-0.00000434,0.00000522,-0.0000
 2551,-0.00000897,-0.00002020,-0.00040874,0.00014378,0.00041672,-0.0000
 7420,-0.00061704,-0.00028500,0.00020294,-0.00005591,-0.00103034,-0.001
 37280,0.00248426,-0.00597203,0.00929172,-0.08788532,0.09763793,-0.0003
 9591,0.00015931,0.00043406,0.00108566,0.00018369,-0.00103579,-0.010743
 88,0.09148308,0.00007842,-0.00002027,-0.00000670,-0.00001708,0.0001268
 0,0.00003650,-0.00001332,-0.00006371,-0.00004402,0.00001045,0.00005381
 ,0.00001537,-0.00000052,0.00003025,0.00005501,-0.00003319,-0.00001511,
 -0.00001607,0.00000836,-0.00000269,-0.00005622,-0.00000286,0.00000083,
 0.00001677,-0.00001162,-0.00002591,0.00001855,0.00000376,-0.00000949,0
 .00001069,0.00000816,-0.00000010,-0.00000354,-0.00000113,-0.00000130,0
 .00000288,-0.00001478,0.00000870,0.00000486,-0.00002765,-0.00021430,-0
 .00003921,0.00000174,0.00001163,0.00000729,0.00000395,-0.00000651,0.00
 000187,-0.00001838,-0.00000098,0.00001127,0.00000446,0.00000490,0.0000
 1599,-0.00000334,-0.00000628,0.00000148,0.00000392,-0.00000026,-0.0000
 0572,0.00000563,0.00000816,0.00000454,0.00000532,0.00002505,-0.0000320
 2,0.00002549,0.00003656,-0.00006093,-0.00001150,0.00000478,-0.00000018
 ,-0.00000122,0.00000048,-0.00000226,0.00000257,-0.00000394,-0.00000383
 ,-0.00000270,-0.00002190,0.00001826,-0.00001801,-0.00000627,0.00002331
 ,-0.00000117,-0.00000556,0.00001894,-0.00053847,-0.00093199,0.00071002
 ,-0.00135731,-0.00056910,0.00101547,0.00125876,0.00307058,-0.00173439,
 -0.00147480,0.00599115,-0.01653696,-0.02336937,0.09530761,-0.27818935,
 0.00013775,0.00008230,0.00094362,0.00350322,-0.00094913,-0.00028945,0.
 02294699,-0.10583198,0.30188290,0.00001392,0.00003276,0.00000229,0.000
 07686,0.00021997,0.00001165,-0.00025617,-0.00005522,-0.00001184,0.0000
 6727,0.00005911,0.00000185,0.00013374,-0.00003846,-0.00000586,-0.00005
 059,-0.00000555,-0.00000224,-0.00000019,0.00002734,0.00001427,0.000011
 07,-0.00001794,-0.00000304,-0.00004177,0.00001140,-0.00004037,0.000020
 73,0.00001499,-0.00000463,0.00003433,0.00001025,0.00000438,-0.00002983
 ,0.00000982,-0.00000696,0.00001592,-0.00000452,0.00000485,-0.00000965,
 -0.00035873,-0.00001493,0.00000761,-0.00000211,-0.00000158,0.00000731,
 0.00000050,0.00000140,0.00000846,0.00000028,-0.00002565,0.00001030,0.0
 0000997,0.00002010,-0.00000500,-0.00000219,0.00000116,0.00000188,0.000
 00149,0.00000034,-0.00000670,-0.00000329,-0.00000221,0.00006869,-0.000
 16246,0.00009346,0.00011723,-0.00005248,0.00003417,-0.00003264,0.00001
 961,-0.00000454,-0.00000226,0.00000322,-0.00000014,-0.00000117,0.00000
 501,0.00000011,-0.00003434,0.00004601,-0.00001750,-0.00003652,0.000008
 24,0.00001527,-0.00004609,-0.00000046,-0.00003701,-0.00178226,0.003044
 47,0.00143585,0.00123763,0.00080980,-0.00048878,-0.00340698,-0.0046571
 8,0.00275147,-0.00404441,0.02991909,0.00069413,-0.05569597,0.04153146,
 0.00200162,0.00070794,-0.00029248,-0.00101487,0.00109489,-0.00067578,-
 0.00009674,-0.00226164,0.00310212,0.00025474,0.05805540,-0.00018730,0.
 00000926,-0.00001553,-0.00000194,-0.00045730,-0.00001778,0.00018638,0.
 00024308,0.00002414,-0.00007233,-0.00020890,-0.00000903,-0.00009975,-0
 .00008973,-0.00001445,0.00012031,0.00004775,0.00000779,-0.00001249,0.0
 0001552,0.00001037,0.00001293,-0.00000921,-0.00000319,0.00007624,0.000
 02675,0.00002403,-0.00002507,-0.00000445,-0.00000493,-0.00005671,-0.00
 000859,0.00000097,0.00003301,-0.00000944,0.00000024,0.00001392,-0.0000
 1787,0.00000602,0.00001699,0.00079263,0.00005421,-0.00001083,-0.000013
 59,-0.00000926,-0.00001198,-0.00001370,0.00000739,0.00002298,0.0000045
 7,-0.00002401,0.00001647,0.00000331,0.00002200,-0.00000659,-0.00000739
 ,0.00000388,-0.00001270,0.00000598,-0.00000090,-0.00000767,-0.00000742
 ,-0.00000500,-0.00009528,0.00016276,-0.00006160,-0.00017769,0.00006439
 ,-0.00001778,0.00006057,-0.00003227,0.00000851,0.00000541,-0.00000648,
 0.00000094,-0.00000530,0.00000141,-0.00000102,0.00004655,-0.00005796,0
 .00001280,0.00006152,-0.00001078,-0.00003479,0.00006572,0.00000132,0.0
 0004289,0.00145998,-0.00099477,-0.00117321,0.00123159,-0.00091982,-0.0
 0091234,-0.00110624,0.00162482,0.00108305,-0.00088174,-0.00375492,0.00
 076938,0.04195210,-0.30160248,-0.01941002,0.00061421,0.00029234,0.0000
 9185,0.00019258,0.00028299,-0.00062910,0.00116080,-0.01108670,-0.00133
 624,-0.04689098,0.32824342,-0.00000538,-0.00001771,-0.00000370,-0.0000
 2317,-0.00009107,0.00001397,0.00008272,0.00005213,-0.00000466,-0.00002
 503,-0.00004443,0.00000018,-0.00004850,-0.00001111,0.00001512,0.000027
 99,0.00000643,-0.00000195,-0.00000115,0.00000132,-0.00000657,0.0000018
 5,-0.00000111,0.00000315,0.00002401,-0.00000947,0.00002543,-0.00001100
 ,-0.00000971,0.00000362,-0.00001596,-0.00000503,-0.00000526,0.00001519
 ,-0.00000539,0.00000349,-0.00000917,0.00000048,-0.00000092,-0.00001892
 ,0.00015622,-0.00001269,-0.00000299,-0.00000210,-0.00000018,-0.0000043
 6,-0.00000521,0.00000103,-0.00000234,0.00000068,-0.00000521,0.00000899
 ,0.00000435,0.00000919,-0.00000248,-0.00000145,-0.00000040,-0.00000309
 ,0.00000073,0.00000070,-0.00000003,-0.00000128,-0.00000010,-0.00004079
 ,0.00010053,-0.00005154,-0.00005815,0.00004365,-0.00001207,0.00001615,
 -0.00001020,0.00000262,0.00000132,-0.00000184,0.00000005,0.00000034,-0
 .00000295,-0.00000070,0.00001605,-0.00003275,0.00000787,0.00001945,-0.
 00000725,-0.00001150,0.00002147,-0.00000313,0.00001741,0.00104794,-0.0
 0200294,-0.00080480,-0.00074857,-0.00029901,0.00115282,0.00293356,0.00
 335916,-0.00136383,0.00224708,-0.01972678,-0.00187829,0.00191527,-0.01
 931979,-0.05110974,-0.00039698,0.00064197,0.00056978,-0.00081257,0.000
 04051,0.00018424,-0.00440875,0.02975702,0.00508938,-0.00556625,0.02167
 388,0.05010760,-0.00013947,0.00004779,-0.00000848,0.00013413,-0.000053
 59,0.00002389,-0.00022356,0.00011749,-0.00001807,0.00004328,-0.0000756
 4,0.00000555,0.00011598,-0.00012540,0.00002402,0.00001642,0.00001635,-
 0.00000815,0.00001692,0.00006660,-0.00000536,0.00001237,-0.00001944,0.
 00000442,0.00001916,0.00003070,0.00001124,0.00000055,0.00001588,-0.000
 00543,0.00000616,-0.00000337,0.00000175,-0.00000766,0.00000726,-0.0000
 0113,0.00002824,-0.00002261,0.00000155,-0.00003318,0.00013302,-0.00001
 625,0.00000058,-0.00000392,-0.00000555,0.00000023,-0.00001183,0.000008
 62,-0.00000271,-0.00001009,-0.00002238,0.00005002,0.00004622,0.0000398
 4,-0.00001050,-0.00000941,0.00000601,0.00000028,0.00000326,-0.00000228
 ,-0.00000692,-0.00000362,-0.00000546,-0.00001368,-0.00002673,-0.000007
 47,-0.00000428,-0.00014392,-0.00001727,0.00001280,-0.00000254,0.000000
 98,0.00000163,-0.00000052,-0.00000059,-0.00000638,0.00000565,-0.000003
 52,-0.00000226,0.00007632,0.00000124,-0.00000301,0.00002697,0.00001372
 ,0.00000780,0.00002828,0.00000795,0.00060035,0.00077682,-0.00023611,0.
 00141785,0.00081502,-0.00049297,-0.00128898,-0.00300967,0.00068735,-0.
 02297024,-0.01104719,-0.01235279,-0.21846795,-0.09107532,-0.09342889,-
 0.00364864,0.00153266,0.00393360,0.00109278,-0.00034049,0.00018962,-0.
 00246370,-0.00069784,-0.00134527,0.00605301,0.00231234,0.00382622,0.23
 966259,0.00010705,-0.00001166,0.00000605,-0.00003178,0.00021495,0.0000
 1323,-0.00000951,-0.00013558,-0.00000661,0.00001912,0.00011615,0.00000
 424,0.00001253,0.00009322,0.00001178,-0.00008059,-0.00004402,-0.000007
 27,0.00003702,0.00000228,-0.00000765,-0.00001595,0.00001454,0.00000387
 ,-0.00003820,-0.00001618,-0.00001490,0.00001043,0.00000067,0.00000957,
 0.00001808,0.00000156,-0.00000094,-0.00000962,0.00000301,0.00000064,-0
 .00001420,0.00001290,-0.00000194,0.00000595,-0.00035969,-0.00004455,0.
 00000608,0.00001182,0.00000661,0.00000838,0.00000958,-0.00000397,-0.00
 004447,-0.00002053,0.00003101,0.00001197,0.00004115,-0.00001812,0.0000
 0751,0.00000394,-0.00000047,0.00001443,-0.00000310,-0.00000074,0.00000
 886,0.00000699,0.00000291,0.00003033,-0.00003711,0.00001290,0.00005786
 ,-0.00001292,-0.00000370,-0.00002344,0.00001271,-0.00000286,-0.0000026
 7,0.00000265,-0.00000063,0.00000350,-0.00000206,0.00000061,-0.00001233
 ,0.00001482,-0.00000147,-0.00002156,0.00000261,0.00001459,-0.00001982,
 -0.00000153,-0.00001158,-0.00042100,0.00019878,0.00018390,-0.00033924,
 -0.00080797,-0.00051919,0.00113061,-0.00003600,0.00020365,0.00519891,0
 .00276934,0.00348112,-0.09279774,-0.09685334,-0.04998822,0.00150563,0.
 00030338,-0.00051446,-0.00055201,0.00006465,0.00024144,0.01128249,0.00
 534395,0.00525941,-0.02566710,-0.01250853,-0.01422733,0.10062449,0.101
 60459,-0.00005838,0.00002362,-0.00000554,0.00009182,0.00000456,-0.0000
 1228,-0.00019001,0.00005868,0.00001538,0.00004312,-0.00003563,-0.00000
 422,0.00012858,-0.00007160,-0.00004688,-0.00004136,0.00000791,-0.00000
 544,0.00000211,0.00003766,0.00011002,0.00001600,-0.00001878,-0.0000311
 6,0.00001117,0.00000735,-0.00000211,0.00000460,0.00000265,0.00000200,0
 .00000218,-0.00000019,-0.00000050,-0.00000442,0.00000309,0.00000016,0.
 00001089,-0.00001404,0.00000128,-0.00002014,0.00001214,0.00001342,0.00
 001282,-0.00001853,-0.00000849,0.00000312,0.00000131,0.00000226,0.0000
 1639,0.00001510,-0.00007119,0.00001267,0.00002976,0.00001652,-0.000002
 81,0.00000081,0.00000387,0.00000830,0.00000415,0.00000892,-0.00001529,
 -0.00001700,-0.00001066,-0.00000314,-0.00000516,0.00000629,-0.00001094
 ,-0.00002289,-0.00001196,0.00000618,-0.00000117,0.00000041,0.00000003,
 -0.00000049,0.00000023,-0.00000399,0.00000311,-0.00000032,0.00000009,0
 .00000930,0.00000182,0.00000220,0.00000506,0.00000121,0.00000617,0.000
 00601,0.00000803,-0.00012508,0.00029643,-0.00032411,0.00022764,-0.0003
 5672,-0.00102618,-0.00059787,-0.00045975,0.00087093,0.01626608,0.00880
 978,0.00890439,-0.09409437,-0.04951810,-0.09865781,0.00373048,-0.00104
 905,-0.00124746,-0.00078188,0.00060998,0.00086194,-0.02385081,-0.01408
 424,-0.01288409,0.00000199,-0.00016417,-0.00193352,0.09919586,0.055889
 08,0.10545482\\0.00000988,0.00000139,0.00000253,-0.00000337,-0.0000074
 5,0.00001566,-0.00000307,0.00000522,-0.00000074,-0.00000083,0.00000614
 ,0.00002013,-0.00000423,-0.00000700,0.00000602,-0.00000116,0.00000711,
 0.00000447,-0.00000204,0.00000405,-0.00000232,0.00000079,0.00000553,-0
 .00000032,-0.00000598,-0.00000621,0.00000409,-0.00000086,-0.00000415,0
 .00001167,-0.00000238,-0.00000487,0.00001800,-0.00000528,-0.00000269,0
 .00002233,-0.00000558,0.00000548,0.00002176,-0.00000214,-0.00000354,-0
 .00000010,0.00000046,-0.00000269,0.00000827,-0.00000195,0.00000727,0.0
 0001077,0.00000062,0.00000961,-0.00000437,0.00000242,-0.00000178,-0.00
 000702,-0.00000272,0.00000917,0.00000415,-0.00000054,0.00000667,-0.000
 00557,-0.00000059,-0.00000084,0.00000186,0.00000276,-0.00000471,-0.000
 00084,-0.00000095,-0.00000359,0.00000034,-0.00000575,-0.00000986,0.000
 02558,-0.00000592,-0.00000035,0.00002954,-0.00000635,-0.00000154,0.000
 02217,-0.00000132,-0.00000556,-0.00000019,0.00000164,-0.00001055,0.000
 00991,-0.00000075,0.00000108,0.00000329,0.00001951,-0.00001153,-0.0000
 1930,-0.00000385,-0.00000759,-0.00000173,-0.00000670,0.00000969,-0.000
 01543,0.00000456,-0.00000159,-0.00002320,0.00001197,0.00000831,-0.0000
 2600,0.00000471,-0.00000092,-0.00002510,0.00000448,-0.00000570,-0.0000
 2583,0.00000286,0.00000990,-0.00002348,0.00000514,0.00000646,-0.000034
 06,0.00000249,0.00000161,-0.00002694\\\@


  THE LARGE PRINT GIVETH,
  AND THE SMALL PRINT TAKETH AWAY.

                     -- TOM WAITS
 Job cpu time:       0 days  8 hours  1 minutes 42.9 seconds.
 Elapsed time:       0 days  8 hours  1 minutes 43.3 seconds.
 File lengths (MBytes):  RWF=   1399 Int=      0 D2E=      0 Chk=     40 Scr=      1
 Normal termination of Gaussian 16 at Mon Mar 22 23:02:21 2021.
