 Entering Gaussian System, Link 0=/apps/gaussian/g09e01/g09/g09
 Initial command:
 /apps/gaussian/g09e01/g09/l1.exe "/jobfs/local/3588072.r-man2/Gau-1477.inp" -scrdir="/jobfs/local/3588072.r-man2/"
 Entering Link 1 = /apps/gaussian/g09e01/g09/l1.exe PID=      1478.
  
 Copyright (c) 1988,1990,1992,1993,1995,1998,2003,2009,2015,
            Gaussian, Inc.  All Rights Reserved.
  
 This is part of the Gaussian(R) 09 program.  It is based on
 the Gaussian(R) 03 system (copyright 2003, Gaussian, Inc.),
 the Gaussian(R) 98 system (copyright 1998, Gaussian, Inc.),
 the Gaussian(R) 94 system (copyright 1995, Gaussian, Inc.),
 the Gaussian 92(TM) system (copyright 1992, Gaussian, Inc.),
 the Gaussian 90(TM) system (copyright 1990, Gaussian, Inc.),
 the Gaussian 88(TM) system (copyright 1988, Gaussian, Inc.),
 the Gaussian 86(TM) system (copyright 1986, Carnegie Mellon
 University), and the Gaussian 82(TM) system (copyright 1983,
 Carnegie Mellon University). Gaussian is a federally registered
 trademark of Gaussian, Inc.
  
 This software contains proprietary and confidential information,
 including trade secrets, belonging to Gaussian, Inc.
  
 This software is provided under written license and may be
 used, copied, transmitted, or stored only in accord with that
 written license.
  
 The following legend is applicable only to US Government
 contracts under FAR:
  
                    RESTRICTED RIGHTS LEGEND
  
 Use, reproduction and disclosure by the US Government is
 subject to restrictions as set forth in subparagraphs (a)
 and (c) of the Commercial Computer Software - Restricted
 Rights clause in FAR 52.227-19.
  
 Gaussian, Inc.
 340 Quinnipiac St., Bldg. 40, Wallingford CT 06492
  
  
 ---------------------------------------------------------------
 Warning -- This program may not be used in any manner that
 competes with the business of Gaussian, Inc. or will provide
 assistance to any competitor of Gaussian, Inc.  The licensee
 of this program is prohibited from giving any competitor of
 Gaussian, Inc. access to this program.  By using this program,
 the user acknowledges that Gaussian, Inc. is engaged in the
 business of creating and licensing software in the field of
 computational chemistry and represents and warrants to the
 licensee that it is not a competitor of Gaussian, Inc. and that
 it will not use this program in any manner prohibited above.
 ---------------------------------------------------------------
  

 Cite this work as:
 Gaussian 09, Revision E.01,
 M. J. Frisch, G. W. Trucks, H. B. Schlegel, G. E. Scuseria, 
 M. A. Robb, J. R. Cheeseman, G. Scalmani, V. Barone, B. Mennucci, 
 G. A. Petersson, H. Nakatsuji, M. Caricato, X. Li, H. P. Hratchian, 
 A. F. Izmaylov, J. Bloino, G. Zheng, J. L. Sonnenberg, M. Hada, 
 M. Ehara, K. Toyota, R. Fukuda, J. Hasegawa, M. Ishida, T. Nakajima, 
 Y. Honda, O. Kitao, H. Nakai, T. Vreven, J. A. Montgomery, Jr., 
 J. E. Peralta, F. Ogliaro, M. Bearpark, J. J. Heyd, E. Brothers, 
 K. N. Kudin, V. N. Staroverov, T. Keith, R. Kobayashi, J. Normand, 
 K. Raghavachari, A. Rendell, J. C. Burant, S. S. Iyengar, J. Tomasi, 
 M. Cossi, N. Rega, J. M. Millam, M. Klene, J. E. Knox, J. B. Cross, 
 V. Bakken, C. Adamo, J. Jaramillo, R. Gomperts, R. E. Stratmann, 
 O. Yazyev, A. J. Austin, R. Cammi, C. Pomelli, J. W. Ochterski, 
 R. L. Martin, K. Morokuma, V. G. Zakrzewski, G. A. Voth, 
 P. Salvador, J. J. Dannenberg, S. Dapprich, A. D. Daniels, 
 O. Farkas, J. B. Foresman, J. V. Ortiz, J. Cioslowski, 
 and D. J. Fox, Gaussian, Inc., Wallingford CT, 2013.
 
 ******************************************
 Gaussian 09:  ES64L-G09RevE.01 30-Nov-2015
                14-Nov-2019 
 ******************************************
 %chk=29CA.M062X_6-311pGd_opt_water_GD3.chk
 %mem=196608000
 %nproc=4
 Will use up to    4 processors via shared memory.
 ----------------------------------------------------------------------
 # M062X/6-311+G* SCF=Tight INT(grid=ultrafine) OPT IOP(2/17=4) Empiric
 alDispersion=GD3 SCRF=(SMD,Solvent=h2o) maxdisk=2147483648
 ----------------------------------------------------------------------
 1/14=-1,18=20,19=15,26=4,38=1/1,3;
 2/9=110,12=2,17=4,18=5,40=1/2;
 3/5=4,6=6,7=11,11=2,16=1,25=1,30=1,70=32201,71=1,72=1,74=-55,75=-5,124=31/1,2,3;
 4//1;
 5/5=2,32=2,38=5,53=1/2;
 6/7=2,8=2,9=2,10=2,28=1/1;
 7//1,2,3,16;
 1/14=-1,18=20,19=15,26=4/3(2);
 2/9=110,17=4/2;
 99//99;
 2/9=110,17=4/2;
 3/5=4,6=6,7=11,11=2,16=1,25=1,30=1,70=32205,71=1,72=1,74=-55,75=-5,124=31/1,2,3;
 4/5=5,16=3,69=1/1;
 5/5=2,32=2,38=5,53=1/2;
 7//1,2,3,16;
 1/14=-1,18=20,19=15,26=4/3(-5);
 2/9=110,17=4/2;
 6/7=2,8=2,9=2,10=2,19=2,28=1/1;
 99/9=1/99;
 ---------------------------------
 29CA.M062X_6-311pGd_opt_water_GD3
 ---------------------------------
 Symbolic Z-matrix:
 Charge =  0 Multiplicity = 1
 C                    -6.18581   1.27921  -0.02053 
 N                    -4.89985   0.72633  -0.06591 
 C                    -3.70956   1.38605  -0.01517 
 O                    -3.56241   2.59042   0.05915 
 O                    -2.70004   0.50789  -0.0587 
 C                    -1.36977   1.06694  -0.01201 
 C                    -0.3881   -0.08101  -0.07128 
 C                     1.04395   0.44137  -0.03118 
 C                    -6.44205   2.64837  -0.10135 
 C                    -7.75367   3.11109  -0.05598 
 C                    -8.81416   2.21632   0.06204 
 C                    -8.56176   0.85338   0.13489 
 C                    -7.25812   0.39018   0.09465 
 H                    -4.84397  -0.28485  -0.08344 
 H                    -1.264     1.63739   0.91302 
 H                    -1.2464    1.74338  -0.8603 
 H                    -0.55824  -0.65137  -0.98847 
 H                    -0.57075  -0.753     0.77168 
 H                     1.24551   1.10292  -0.87745 
 H                     1.7595   -0.38138  -0.07226 
 H                     1.23267   1.00378   0.88672 
 H                    -5.63184   3.3527   -0.20152 
 C                    -8.00043   4.59268  -0.14105 
 Cl                   -10.4693   2.76212   0.1217 
 H                    -9.38392   0.15444   0.22547 
 H                    -7.06773  -0.67606   0.15418 
 F                    -6.86405   5.29047  -0.25503 
 F                    -8.75994   4.92123  -1.19988 
 F                    -8.63251   5.06453   0.94731 
 

 GradGradGradGradGradGradGradGradGradGradGradGradGradGradGradGradGradGrad
 Berny optimization.
 Initialization pass.
                           ----------------------------
                           !    Initial Parameters    !
                           ! (Angstroms and Degrees)  !
 --------------------------                            --------------------------
 ! Name  Definition              Value          Derivative Info.                !
 --------------------------------------------------------------------------------
 ! R1    R(1,2)                  1.4005         estimate D2E/DX2                !
 ! R2    R(1,9)                  1.3953         estimate D2E/DX2                !
 ! R3    R(1,13)                 1.3977         estimate D2E/DX2                !
 ! R4    R(2,3)                  1.3618         estimate D2E/DX2                !
 ! R5    R(2,14)                 1.0129         estimate D2E/DX2                !
 ! R6    R(3,4)                  1.2156         estimate D2E/DX2                !
 ! R7    R(3,5)                  1.3387         estimate D2E/DX2                !
 ! R8    R(5,6)                  1.4437         estimate D2E/DX2                !
 ! R9    R(6,7)                  1.5116         estimate D2E/DX2                !
 ! R10   R(6,15)                 1.0919         estimate D2E/DX2                !
 ! R11   R(6,16)                 1.092          estimate D2E/DX2                !
 ! R12   R(7,8)                  1.5249         estimate D2E/DX2                !
 ! R13   R(7,17)                 1.0934         estimate D2E/DX2                !
 ! R14   R(7,18)                 1.0934         estimate D2E/DX2                !
 ! R15   R(8,19)                 1.0929         estimate D2E/DX2                !
 ! R16   R(8,20)                 1.0912         estimate D2E/DX2                !
 ! R17   R(8,21)                 1.0929         estimate D2E/DX2                !
 ! R18   R(9,10)                 1.3916         estimate D2E/DX2                !
 ! R19   R(9,22)                 1.0782         estimate D2E/DX2                !
 ! R20   R(10,11)                1.3925         estimate D2E/DX2                !
 ! R21   R(10,23)                1.5044         estimate D2E/DX2                !
 ! R22   R(11,12)                1.388          estimate D2E/DX2                !
 ! R23   R(11,24)                1.7438         estimate D2E/DX2                !
 ! R24   R(12,13)                1.3841         estimate D2E/DX2                !
 ! R25   R(12,25)                1.0829         estimate D2E/DX2                !
 ! R26   R(13,26)                1.0847         estimate D2E/DX2                !
 ! R27   R(23,27)                1.3384         estimate D2E/DX2                !
 ! R28   R(23,28)                1.3438         estimate D2E/DX2                !
 ! R29   R(23,29)                1.3441         estimate D2E/DX2                !
 ! A1    A(2,1,9)              123.6514         estimate D2E/DX2                !
 ! A2    A(2,1,13)             117.1308         estimate D2E/DX2                !
 ! A3    A(9,1,13)             119.2122         estimate D2E/DX2                !
 ! A4    A(1,2,3)              127.5965         estimate D2E/DX2                !
 ! A5    A(1,2,14)             116.4445         estimate D2E/DX2                !
 ! A6    A(3,2,14)             115.8519         estimate D2E/DX2                !
 ! A7    A(2,3,4)              126.018          estimate D2E/DX2                !
 ! A8    A(2,3,5)              109.8841         estimate D2E/DX2                !
 ! A9    A(4,3,5)              124.0979         estimate D2E/DX2                !
 ! A10   A(3,5,6)              116.0894         estimate D2E/DX2                !
 ! A11   A(5,6,7)              107.6411         estimate D2E/DX2                !
 ! A12   A(5,6,15)             108.5994         estimate D2E/DX2                !
 ! A13   A(5,6,16)             108.5931         estimate D2E/DX2                !
 ! A14   A(7,6,15)             111.5342         estimate D2E/DX2                !
 ! A15   A(7,6,16)             111.507          estimate D2E/DX2                !
 ! A16   A(15,6,16)            108.877          estimate D2E/DX2                !
 ! A17   A(6,7,8)              110.408          estimate D2E/DX2                !
 ! A18   A(6,7,17)             109.1461         estimate D2E/DX2                !
 ! A19   A(6,7,18)             109.1485         estimate D2E/DX2                !
 ! A20   A(8,7,17)             110.2979         estimate D2E/DX2                !
 ! A21   A(8,7,18)             110.313          estimate D2E/DX2                !
 ! A22   A(17,7,18)            107.4649         estimate D2E/DX2                !
 ! A23   A(7,8,19)             111.1122         estimate D2E/DX2                !
 ! A24   A(7,8,20)             110.889          estimate D2E/DX2                !
 ! A25   A(7,8,21)             111.133          estimate D2E/DX2                !
 ! A26   A(19,8,20)            107.8378         estimate D2E/DX2                !
 ! A27   A(19,8,21)            107.8777         estimate D2E/DX2                !
 ! A28   A(20,8,21)            107.843          estimate D2E/DX2                !
 ! A29   A(1,9,10)             119.8346         estimate D2E/DX2                !
 ! A30   A(1,9,22)             120.5561         estimate D2E/DX2                !
 ! A31   A(10,9,22)            119.6091         estimate D2E/DX2                !
 ! A32   A(9,10,11)            120.4575         estimate D2E/DX2                !
 ! A33   A(9,10,23)            118.6999         estimate D2E/DX2                !
 ! A34   A(11,10,23)           120.8423         estimate D2E/DX2                !
 ! A35   A(10,11,12)           119.7949         estimate D2E/DX2                !
 ! A36   A(10,11,24)           121.6418         estimate D2E/DX2                !
 ! A37   A(12,11,24)           118.5633         estimate D2E/DX2                !
 ! A38   A(11,12,13)           119.8916         estimate D2E/DX2                !
 ! A39   A(11,12,25)           120.0066         estimate D2E/DX2                !
 ! A40   A(13,12,25)           120.1017         estimate D2E/DX2                !
 ! A41   A(1,13,12)            120.8073         estimate D2E/DX2                !
 ! A42   A(1,13,26)            119.676          estimate D2E/DX2                !
 ! A43   A(12,13,26)           119.5167         estimate D2E/DX2                !
 ! A44   A(10,23,27)           112.2721         estimate D2E/DX2                !
 ! A45   A(10,23,28)           112.2123         estimate D2E/DX2                !
 ! A46   A(10,23,29)           112.1518         estimate D2E/DX2                !
 ! A47   A(27,23,28)           106.5774         estimate D2E/DX2                !
 ! A48   A(27,23,29)           106.5711         estimate D2E/DX2                !
 ! A49   A(28,23,29)           106.6416         estimate D2E/DX2                !
 ! D1    D(9,1,2,3)              9.3631         estimate D2E/DX2                !
 ! D2    D(9,1,2,14)          -174.5831         estimate D2E/DX2                !
 ! D3    D(13,1,2,3)          -171.5097         estimate D2E/DX2                !
 ! D4    D(13,1,2,14)            4.5441         estimate D2E/DX2                !
 ! D5    D(2,1,9,10)           179.6154         estimate D2E/DX2                !
 ! D6    D(2,1,9,22)            -0.2196         estimate D2E/DX2                !
 ! D7    D(13,1,9,10)            0.5054         estimate D2E/DX2                !
 ! D8    D(13,1,9,22)         -179.3296         estimate D2E/DX2                !
 ! D9    D(2,1,13,12)         -179.4551         estimate D2E/DX2                !
 ! D10   D(2,1,13,26)            0.5973         estimate D2E/DX2                !
 ! D11   D(9,1,13,12)           -0.2875         estimate D2E/DX2                !
 ! D12   D(9,1,13,26)          179.7648         estimate D2E/DX2                !
 ! D13   D(1,2,3,4)             -1.2113         estimate D2E/DX2                !
 ! D14   D(1,2,3,5)            178.7629         estimate D2E/DX2                !
 ! D15   D(14,2,3,4)          -177.2851         estimate D2E/DX2                !
 ! D16   D(14,2,3,5)             2.6891         estimate D2E/DX2                !
 ! D17   D(2,3,5,6)           -179.9684         estimate D2E/DX2                !
 ! D18   D(4,3,5,6)              0.0064         estimate D2E/DX2                !
 ! D19   D(3,5,6,7)            179.9648         estimate D2E/DX2                !
 ! D20   D(3,5,6,15)            59.0734         estimate D2E/DX2                !
 ! D21   D(3,5,6,16)           -59.1801         estimate D2E/DX2                !
 ! D22   D(5,6,7,8)            179.7842         estimate D2E/DX2                !
 ! D23   D(5,6,7,17)            58.3865         estimate D2E/DX2                !
 ! D24   D(5,6,7,18)           -58.7978         estimate D2E/DX2                !
 ! D25   D(15,6,7,8)           -61.1844         estimate D2E/DX2                !
 ! D26   D(15,6,7,17)          177.4179         estimate D2E/DX2                !
 ! D27   D(15,6,7,18)           60.2337         estimate D2E/DX2                !
 ! D28   D(16,6,7,8)            60.7764         estimate D2E/DX2                !
 ! D29   D(16,6,7,17)          -60.6214         estimate D2E/DX2                !
 ! D30   D(16,6,7,18)         -177.8056         estimate D2E/DX2                !
 ! D31   D(6,7,8,19)           -60.1515         estimate D2E/DX2                !
 ! D32   D(6,7,8,20)           179.9264         estimate D2E/DX2                !
 ! D33   D(6,7,8,21)            59.9839         estimate D2E/DX2                !
 ! D34   D(17,7,8,19)           60.5605         estimate D2E/DX2                !
 ! D35   D(17,7,8,20)          -59.3616         estimate D2E/DX2                !
 ! D36   D(17,7,8,21)         -179.304          estimate D2E/DX2                !
 ! D37   D(18,7,8,19)          179.1236         estimate D2E/DX2                !
 ! D38   D(18,7,8,20)           59.2015         estimate D2E/DX2                !
 ! D39   D(18,7,8,21)          -60.7409         estimate D2E/DX2                !
 ! D40   D(1,9,10,11)           -0.3645         estimate D2E/DX2                !
 ! D41   D(1,9,10,23)          179.8185         estimate D2E/DX2                !
 ! D42   D(22,9,10,11)         179.4721         estimate D2E/DX2                !
 ! D43   D(22,9,10,23)          -0.345          estimate D2E/DX2                !
 ! D44   D(9,10,11,12)          -0.0032         estimate D2E/DX2                !
 ! D45   D(9,10,11,24)        -179.9984         estimate D2E/DX2                !
 ! D46   D(23,10,11,12)        179.8099         estimate D2E/DX2                !
 ! D47   D(23,10,11,24)         -0.1853         estimate D2E/DX2                !
 ! D48   D(9,10,23,27)           0.0419         estimate D2E/DX2                !
 ! D49   D(9,10,23,28)         120.0597         estimate D2E/DX2                !
 ! D50   D(9,10,23,29)        -119.9248         estimate D2E/DX2                !
 ! D51   D(11,10,23,27)       -179.7744         estimate D2E/DX2                !
 ! D52   D(11,10,23,28)        -59.7566         estimate D2E/DX2                !
 ! D53   D(11,10,23,29)         60.2589         estimate D2E/DX2                !
 ! D54   D(10,11,12,13)          0.2244         estimate D2E/DX2                !
 ! D55   D(10,11,12,25)       -179.9237         estimate D2E/DX2                !
 ! D56   D(24,11,12,13)       -179.7803         estimate D2E/DX2                !
 ! D57   D(24,11,12,25)          0.0717         estimate D2E/DX2                !
 ! D58   D(11,12,13,1)          -0.0782         estimate D2E/DX2                !
 ! D59   D(11,12,13,26)        179.8696         estimate D2E/DX2                !
 ! D60   D(25,12,13,1)        -179.9299         estimate D2E/DX2                !
 ! D61   D(25,12,13,26)          0.0178         estimate D2E/DX2                !
 --------------------------------------------------------------------------------
 Trust Radius=3.00D-01 FncErr=1.00D-07 GrdErr=1.00D-06
 Number of steps in this run=    149 maximum allowed number of steps=    174.
 GradGradGradGradGradGradGradGradGradGradGradGradGradGradGradGradGradGrad

                          Input orientation:                          
 ---------------------------------------------------------------------
 Center     Atomic      Atomic             Coordinates (Angstroms)
 Number     Number       Type             X           Y           Z
 ---------------------------------------------------------------------
      1          6           0       -6.185806    1.279209   -0.020528
      2          7           0       -4.899853    0.726329   -0.065915
      3          6           0       -3.709561    1.386046   -0.015174
      4          8           0       -3.562410    2.590419    0.059149
      5          8           0       -2.700040    0.507887   -0.058703
      6          6           0       -1.369766    1.066935   -0.012011
      7          6           0       -0.388095   -0.081008   -0.071278
      8          6           0        1.043952    0.441365   -0.031178
      9          6           0       -6.442054    2.648372   -0.101354
     10          6           0       -7.753674    3.111089   -0.055978
     11          6           0       -8.814163    2.216323    0.062040
     12          6           0       -8.561765    0.853377    0.134892
     13          6           0       -7.258118    0.390178    0.094652
     14          1           0       -4.843973   -0.284853   -0.083438
     15          1           0       -1.263998    1.637393    0.913025
     16          1           0       -1.246405    1.743380   -0.860303
     17          1           0       -0.558243   -0.651372   -0.988472
     18          1           0       -0.570750   -0.753003    0.771684
     19          1           0        1.245510    1.102916   -0.877448
     20          1           0        1.759499   -0.381384   -0.072260
     21          1           0        1.232666    1.003783    0.886716
     22          1           0       -5.631840    3.352698   -0.201518
     23          6           0       -8.000434    4.592681   -0.141054
     24         17           0      -10.469296    2.762124    0.121702
     25          1           0       -9.383923    0.154445    0.225470
     26          1           0       -7.067729   -0.676062    0.154178
     27          9           0       -6.864050    5.290468   -0.255030
     28          9           0       -8.759942    4.921234   -1.199879
     29          9           0       -8.632507    5.064532    0.947313
 ---------------------------------------------------------------------
                    Distance matrix (angstroms):
                    1          2          3          4          5
     1  C    0.000000
     2  N    1.400504   0.000000
     3  C    2.478554   1.361836   0.000000
     4  O    2.933910   2.297658   1.215604   0.000000
     5  O    3.570288   2.210643   1.338727   2.257103   0.000000
     6  C    4.820724   3.546891   2.361458   2.670909   1.443727
     7  C    5.955352   4.583425   3.631464   4.150881   2.385801
     8  C    7.278152   5.950733   4.846500   5.083813   3.744684
     9  C    1.395278   2.464526   3.011214   2.884696   4.311167
    10  C    2.411483   3.719069   4.396850   4.225050   5.684706
    11  C    2.791641   4.190260   5.172261   5.265061   6.349475
    12  C    2.418816   3.669613   4.883660   5.293071   5.875088
    13  C    1.397676   2.387508   3.687285   4.301231   4.562176
    14  H    2.061738   1.012876   2.020755   3.151179   2.285934
    15  H    5.022351   3.873990   2.627833   2.630600   2.069362
    16  H    5.031735   3.874678   2.628511   2.631871   2.069314
    17  H    6.027730   4.647445   3.876750   4.542217   2.606846
    18  H    6.023815   4.650928   3.879022   4.542709   2.610223
    19  H    7.482636   6.210144   5.037500   5.119177   4.073299
    20  H    8.117150   6.750855   5.747842   6.096852   4.547360
    21  H    7.478816   6.212269   5.038367   5.118109   4.075036
    22  H    2.153831   2.729836   2.756374   2.220711   4.087639
    23  C    3.779748   4.956605   5.358166   4.872904   6.692271
    24  Cl   4.535146   5.932820   6.899735   6.909303   8.091691
    25  H    3.399053   4.529773   5.811466   6.312817   6.699251
    26  H    2.152068   2.591298   3.944396   4.792306   4.530316
    27  F    4.074948   4.972444   5.025221   4.276657   6.344336
    28  F    4.613176   5.812348   6.277534   5.833712   7.583029
    29  F    4.609960   5.812000   6.220373   5.711038   7.547797
                    6          7          8          9         10
     6  C    0.000000
     7  C    1.511610   0.000000
     8  C    2.493539   1.524874   0.000000
     9  C    5.313853   6.640846   7.804876   0.000000
    10  C    6.703341   8.027545   9.193816   1.391586   0.000000
    11  C    7.532970   8.734651  10.017065   2.416664   1.392541
    12  C    7.196669   8.229487   9.615982   2.787650   2.405557
    13  C    5.928075   6.888161   8.303181   2.409112   2.769769
    14  H    3.728612   4.460554   5.932771   3.340358   4.472084
    15  H    1.091925   2.165402   2.765616   5.372458   6.725075
    16  H    1.091968   2.165098   2.761960   5.328207   6.697919
    17  H    2.136499   1.093394   2.162756   6.804008   8.173120
    18  H    2.136534   1.093400   2.162952   6.841328   8.198209
    19  H    2.754985   2.172614   1.092908   7.879682   9.257045
    20  H    3.448704   2.168499   1.091152   8.743326  10.134007
    21  H    2.753970   2.172877   1.092912   7.910897   9.278132
    22  H    4.840031   6.269303   7.284989   1.078218   2.140499
    23  C    7.510879   8.932858   9.952206   2.492080   1.504408
    24  Cl   9.257051  10.476223  11.745814   4.035018   2.743710
    25  H    8.069434   9.003801  10.434978   3.870540   3.388018
    26  H    5.960910   6.709876   8.190382   3.392437   3.854504
    27  F    6.934295   8.415730   9.279030   2.679994   2.362360
    28  F    8.419107   9.817535  10.842113   3.427136   2.365948
    29  F    8.345567   9.771614  10.768703   3.425728   2.365350
                   11         12         13         14         15
    11  C    0.000000
    12  C    1.388033   0.000000
    13  C    2.399405   1.384076   0.000000
    14  H    4.694620   3.894254   2.513062   0.000000
    15  H    7.619995   7.380892   6.176954   4.183801   0.000000
    16  H    7.638413   7.436196   6.235687   4.202350   1.776579
    17  H    8.802697   8.220862   6.866317   4.395555   3.058141
    18  H    8.790584   8.175713   6.818074   4.383017   2.492903
    19  H   10.164612   9.862542   8.588636   6.295884   3.128752
    20  H   10.888915  10.396925   9.052104   6.604187   3.766668
    21  H   10.153282   9.824395   8.549696   6.287076   2.575944
    22  H    3.389394   3.865778   3.392495   3.723769   4.823123
    23  C    2.520016   3.791258   4.274064   5.810069   7.431310
    24  Cl   1.743824   2.698548   3.992308   6.400813   9.307455
    25  H    2.145385   1.082892   2.142832   4.571604   8.282817
    26  H    3.380002   2.138153   1.084739   2.270374   6.293744
    27  F    3.654291   4.766765   4.928530   5.932483   6.787480
    28  F    2.985284   4.285831   4.945883   6.609433   8.452050
    29  F    2.988143   4.289389   4.946267   6.635613   8.126585
                   16         17         18         19         20
    16  H    0.000000
    17  H    2.494962   0.000000
    18  H    3.058074   1.763132   0.000000
    19  H    2.572961   2.518606   3.076178   0.000000
    20  H    3.764452   2.506844   2.506073   1.765123   0.000000
    21  H    3.121678   3.076236   2.520285   1.766994   1.765185
    22  H    4.717620   6.511010   6.589274   7.267485   8.282027
    23  C    7.365646   9.143545   9.198350   9.910005  10.954559
    24  Cl   9.330803  10.541034  10.524249  11.873834  12.627854
    25  H    8.361987   8.945146   8.876590  10.728507  11.160270
    26  H    6.385193   6.609059   6.526713   8.563817   8.835048
    27  F    6.671291   8.695206   8.785403   9.148112  10.323222
    28  F    8.165005   9.917989  10.156126  10.714130  11.834185
    29  F    8.297712  10.080306   9.943163  10.798119  11.776728
                   21         22         23         24         25
    21  H    0.000000
    22  H    7.336423   0.000000
    23  C    9.959249   2.674220   0.000000
    24  Cl  11.858032   4.884079   3.084681   0.000000
    25  H   10.671017   4.948663   4.663295   2.826445   0.000000
    26  H    8.500298   4.291760   5.358802   4.836614   2.461622
    27  F    9.232338   2.296989   1.338382   4.419530   5.741025
    28  F   10.934008   3.638964   1.343841   3.054541   5.014304
    29  F   10.668411   3.640631   1.344136   3.058841   5.019426
                   26         27         28         29
    26  H    0.000000
    27  F    5.984013   0.000000
    28  F    6.002231   2.150228   0.000000
    29  F    6.002667   2.150376   2.155738   0.000000
 Stoichiometry    C11H11ClF3NO2
 Framework group  C1[X(C11H11ClF3NO2)]
 Deg. of freedom    81
 Full point group                 C1      NOp   1
 Largest Abelian subgroup         C1      NOp   1
 Largest concise Abelian subgroup C1      NOp   1
                         Standard orientation:                         
 ---------------------------------------------------------------------
 Center     Atomic      Atomic             Coordinates (Angstroms)
 Number     Number       Type             X           Y           Z
 ---------------------------------------------------------------------
      1          6           0        0.084856   -1.029843   -0.054784
      2          7           0        1.482329   -1.108796   -0.102182
      3          6           0        2.376536   -0.088076    0.012368
      4          8           0        2.104401    1.087745    0.157561
      5          8           0        3.624935   -0.566388   -0.057687
      6          6           0        4.685055    0.407689    0.050318
      7          6           0        5.999218   -0.332330   -0.051237
      8          6           0        7.167530    0.642326    0.050421
      9          6           0       -0.622370    0.172880   -0.064284
     10          6           0       -2.013256    0.158490   -0.022543
     11          6           0       -2.705690   -1.048906    0.021071
     12          6           0       -2.004184   -2.246621    0.022874
     13          6           0       -0.620641   -2.235705   -0.013947
     14          1           0        1.879412   -2.037723   -0.175246
     15          1           0        4.588250    0.923033    1.008102
     16          1           0        4.572303    1.135801   -0.755618
     17          1           0        6.035447   -0.869946   -1.002639
     18          1           0        6.054719   -1.076100    0.748294
     19          1           0        7.133366    1.382922   -0.752572
     20          1           0        8.120662    0.115928   -0.020702
     21          1           0        7.151463    1.178755    1.002494
     22          1           0       -0.100391    1.115386   -0.106420
     23          6           0       -2.749858    1.470211   -0.029752
     24         17           0       -4.447871   -1.102967    0.074000
     25          1           0       -2.539211   -3.187545    0.055475
     26          1           0       -0.078496   -3.175239   -0.010167
     27          9           0       -1.918968    2.518300   -0.078692
     28          9           0       -3.573700    1.584431   -1.085284
     29          9           0       -3.507096    1.632291    1.068893
 ---------------------------------------------------------------------
 Rotational constants (GHZ):      0.8917727      0.1424111      0.1258590
 Standard basis: 6-311+G(d) (5D, 7F)
 There are   455 symmetry adapted cartesian basis functions of A   symmetry.
 There are   437 symmetry adapted basis functions of A   symmetry.
   437 basis functions,   720 primitive gaussians,   455 cartesian basis functions
    72 alpha electrons       72 beta electrons
       nuclear repulsion energy      1450.6484288193 Hartrees.
 NAtoms=   29 NActive=   29 NUniq=   29 SFac= 1.00D+00 NAtFMM=   60 NAOKFM=F Big=F
 Integral buffers will be    131072 words long.
 Raffenetti 2 integral format.
 Two-electron integral symmetry is turned on.
 Nuclear repulsion after empirical dispersion term =     1450.6471596975 Hartrees.
 ------------------------------------------------------------------------------
 Polarizable Continuum Model (PCM)
 =================================
 Model                : PCM (using non-symmetric T matrix).
 Atomic radii         : SMD-Coulomb.
 Polarization charges : Total charges.
 Charge compensation  : None.
 Solution method      : On-the-fly selection.
 Cavity type          : VdW (van der Waals Surface) (Alpha=1.000).
 Cavity algorithm     : GePol (No added spheres)
                        Default sphere list used, NSphG=   29.
                        Lebedev-Laikov grids with approx.  5.0 points / Ang**2.
                        Smoothing algorithm: York/Karplus (Gamma=1.0000).
                        Polarization charges: spherical gaussians, with
                                              point-specific exponents (IZeta= 3).
                        Self-potential: point-specific (ISelfS= 7).
                        Self-field    : sphere-specific E.n sum rule (ISelfD= 2).
 1st derivatives      : Analytical E(r).r(x)/FMM algorithm (CHGder, D1EAlg=3).
                        Cavity 1st derivative terms included.
 Solvent              : Water, Eps=  78.355300 Eps(inf)=   1.777849
 ------------------------------------------------------------------------------
 ------------------------------------------------------------------------------
 Atomic radii for non-electrostatic terms: SMD-CDS.
 ------------------------------------------------------------------------------
 Nuclear repulsion after PCM non-electrostatic terms =     1450.6598690809 Hartrees.
 One-electron integrals computed using PRISM.
 NBasis=   437 RedAO= T EigKep=  1.08D-06  NBF=   437
 NBsUse=   436 1.00D-06 EigRej=  2.89D-07 NBFU=   436
 ExpMin= 4.38D-02 ExpMax= 1.06D+05 ExpMxC= 3.62D+03 IAcc=3 IRadAn=         5 AccDes= 0.00D+00
 Harris functional with IExCor= 1009 and IRadAn=       5 diagonalized for initial guess.
 HarFok:  IExCor= 1009 AccDes= 0.00D+00 IRadAn=         5 IDoV= 1 UseB2=F ITyADJ=14
 ICtDFT=  3500011 ScaDFX=  1.000000  1.000000  1.000000  1.000000
 FoFCou: FMM=F IPFlag=           0 FMFlag=      100000 FMFlg1=           0
         NFxFlg=           0 DoJE=T BraDBF=F KetDBF=T FulRan=T
         wScrn=  0.000000 ICntrl=     500 IOpCl=  0 I1Cent=   200000004 NGrid=           0
         NMat0=    1 NMatS0=      1 NMatT0=    0 NMatD0=    1 NMtDS0=    0 NMtDT0=    0
 Petite list used in FoFCou.
 Requested convergence on RMS density matrix=1.00D-08 within 128 cycles.
 Requested convergence on MAX density matrix=1.00D-06.
 Requested convergence on             energy=1.00D-06.
 No special actions if energy rises.
 Inv3:  Mode=1 IEnd=    16147200.
 Iteration    1 A*A^-1 deviation from unit magnitude is 5.88D-15 for   2299.
 Iteration    1 A*A^-1 deviation from orthogonality  is 3.26D-15 for   1143    324.
 Iteration    1 A^-1*A deviation from unit magnitude is 5.33D-15 for   2299.
 Iteration    1 A^-1*A deviation from orthogonality  is 2.04D-10 for   1087   1059.
 Iteration    2 A*A^-1 deviation from unit magnitude is 2.44D-15 for    324.
 Iteration    2 A*A^-1 deviation from orthogonality  is 3.09D-15 for   2003    347.
 Iteration    2 A^-1*A deviation from unit magnitude is 8.88D-16 for    733.
 Iteration    2 A^-1*A deviation from orthogonality  is 4.61D-16 for   1992    509.
 Error on total polarization charges =  0.04438
 SCF Done:  E(RM062X) =  -1390.68089651     A.U. after   15 cycles
            NFock= 15  Conv=0.59D-08     -V/T= 2.0028
 SMD-CDS (non-electrostatic) energy       (kcal/mol) =       7.98
 (included in total energy above)

 **********************************************************************

            Population analysis using the SCF density.

 **********************************************************************

 Orbital symmetries:
       Occupied  (A) (A) (A) (A) (A) (A) (A) (A) (A) (A) (A) (A)
                 (A) (A) (A) (A) (A) (A) (A) (A) (A) (A) (A) (A)
                 (A) (A) (A) (A) (A) (A) (A) (A) (A) (A) (A) (A)
                 (A) (A) (A) (A) (A) (A) (A) (A) (A) (A) (A) (A)
                 (A) (A) (A) (A) (A) (A) (A) (A) (A) (A) (A) (A)
                 (A) (A) (A) (A) (A) (A) (A) (A) (A) (A) (A) (A)
       Virtual   (A) (A) (A) (A) (A) (A) (A) (A) (A) (A) (A) (A)
                 (A) (A) (A) (A) (A) (A) (A) (A) (A) (A) (A) (A)
                 (A) (A) (A) (A) (A) (A) (A) (A) (A) (A) (A) (A)
                 (A) (A) (A) (A) (A) (A) (A) (A) (A) (A) (A) (A)
                 (A) (A) (A) (A) (A) (A) (A) (A) (A) (A) (A) (A)
                 (A) (A) (A) (A) (A) (A) (A) (A) (A) (A) (A) (A)
                 (A) (A) (A) (A) (A) (A) (A) (A) (A) (A) (A) (A)
                 (A) (A) (A) (A) (A) (A) (A) (A) (A) (A) (A) (A)
                 (A) (A) (A) (A) (A) (A) (A) (A) (A) (A) (A) (A)
                 (A) (A) (A) (A) (A) (A) (A) (A) (A) (A) (A) (A)
                 (A) (A) (A) (A) (A) (A) (A) (A) (A) (A) (A) (A)
                 (A) (A) (A) (A) (A) (A) (A) (A) (A) (A) (A) (A)
                 (A) (A) (A) (A) (A) (A) (A) (A) (A) (A) (A) (A)
                 (A) (A) (A) (A) (A) (A) (A) (A) (A) (A) (A) (A)
                 (A) (A) (A) (A) (A) (A) (A) (A) (A) (A) (A) (A)
                 (A) (A) (A) (A) (A) (A) (A) (A) (A) (A) (A) (A)
                 (A) (A) (A) (A) (A) (A) (A) (A) (A) (A) (A) (A)
                 (A) (A) (A) (A) (A) (A) (A) (A) (A) (A) (A) (A)
                 (A) (A) (A) (A) (A) (A) (A) (A) (A) (A) (A) (A)
                 (A) (A) (A) (A) (A) (A) (A) (A) (A) (A) (A) (A)
                 (A) (A) (A) (A) (A) (A) (A) (A) (A) (A) (A) (A)
                 (A) (A) (A) (A) (A) (A) (A) (A) (A) (A) (A) (A)
                 (A) (A) (A) (A) (A) (A) (A) (A) (A) (A) (A) (A)
                 (A) (A) (A) (A) (A) (A) (A) (A) (A) (A) (A) (A)
                 (A) (A) (A) (A) (A) (A) (A) (A) (A) (A) (A) (A)
                 (A) (A) (A) (A) (A) (A) (A) (A) (A) (A) (A) (A)
                 (A) (A) (A) (A) (A) (A) (A) (A) (A) (A) (A) (A)
                 (A) (A) (A) (A) (A) (A) (A) (A) (A) (A) (A) (A)
                 (A) (A) (A) (A) (A) (A) (A) (A) (A) (A) (A) (A)
                 (A) (A) (A) (A) (A) (A) (A) (A) (A) (A) (A) (A)
                 (A) (A) (A) (A)
 The electronic state is 1-A.
 Alpha  occ. eigenvalues -- -102.68962 -25.28881 -25.28516 -25.28508 -19.67590
 Alpha  occ. eigenvalues --  -19.62061 -14.79981 -10.81517 -10.71630 -10.62526
 Alpha  occ. eigenvalues --  -10.61608 -10.59226 -10.59005 -10.56923 -10.56870
 Alpha  occ. eigenvalues --  -10.56583 -10.53073 -10.51907  -9.83241  -7.55756
 Alpha  occ. eigenvalues --   -7.55076  -7.55064  -1.48132  -1.38728  -1.38392
 Alpha  occ. eigenvalues --   -1.25629  -1.15716  -1.07718  -1.01854  -0.95436
 Alpha  occ. eigenvalues --   -0.90831  -0.89329  -0.85340  -0.82270  -0.79066
 Alpha  occ. eigenvalues --   -0.75019  -0.73056  -0.70689  -0.70458  -0.68979
 Alpha  occ. eigenvalues --   -0.67361  -0.66758  -0.63923  -0.60048  -0.59264
 Alpha  occ. eigenvalues --   -0.58684  -0.58624  -0.58147  -0.56403  -0.54712
 Alpha  occ. eigenvalues --   -0.54445  -0.53776  -0.53415  -0.52340  -0.51989
 Alpha  occ. eigenvalues --   -0.50928  -0.49484  -0.49324  -0.46947  -0.46349
 Alpha  occ. eigenvalues --   -0.45266  -0.44423  -0.43484  -0.42718  -0.40124
 Alpha  occ. eigenvalues --   -0.40110  -0.39168  -0.38549  -0.37922  -0.37738
 Alpha  occ. eigenvalues --   -0.33903  -0.28807
 Alpha virt. eigenvalues --   -0.01449  -0.00250   0.01133   0.02000   0.02682
 Alpha virt. eigenvalues --    0.03089   0.03815   0.03957   0.04244   0.05184
 Alpha virt. eigenvalues --    0.05308   0.05738   0.06385   0.06917   0.07270
 Alpha virt. eigenvalues --    0.07362   0.07668   0.08262   0.08283   0.08961
 Alpha virt. eigenvalues --    0.09119   0.09327   0.09790   0.10647   0.11334
 Alpha virt. eigenvalues --    0.11852   0.12136   0.12772   0.13228   0.13566
 Alpha virt. eigenvalues --    0.13845   0.14520   0.14601   0.15924   0.16087
 Alpha virt. eigenvalues --    0.16759   0.17401   0.17937   0.18173   0.18684
 Alpha virt. eigenvalues --    0.19156   0.20143   0.20203   0.20840   0.21126
 Alpha virt. eigenvalues --    0.21267   0.21433   0.21648   0.21954   0.22286
 Alpha virt. eigenvalues --    0.23331   0.23503   0.23639   0.23735   0.24157
 Alpha virt. eigenvalues --    0.24336   0.25140   0.25699   0.26303   0.26457
 Alpha virt. eigenvalues --    0.26937   0.27331   0.27422   0.28208   0.28515
 Alpha virt. eigenvalues --    0.28805   0.29454   0.29757   0.30246   0.30331
 Alpha virt. eigenvalues --    0.30549   0.30917   0.31566   0.31870   0.32009
 Alpha virt. eigenvalues --    0.32691   0.32837   0.33099   0.33708   0.34197
 Alpha virt. eigenvalues --    0.34778   0.36003   0.36783   0.37094   0.37505
 Alpha virt. eigenvalues --    0.38679   0.39269   0.39415   0.40055   0.41447
 Alpha virt. eigenvalues --    0.41702   0.42569   0.43186   0.43797   0.44611
 Alpha virt. eigenvalues --    0.45031   0.45771   0.46197   0.47597   0.48264
 Alpha virt. eigenvalues --    0.49254   0.49748   0.50227   0.50737   0.51518
 Alpha virt. eigenvalues --    0.51918   0.53044   0.55270   0.56070   0.56433
 Alpha virt. eigenvalues --    0.57318   0.59481   0.59757   0.60849   0.62224
 Alpha virt. eigenvalues --    0.62405   0.62993   0.63751   0.64038   0.64829
 Alpha virt. eigenvalues --    0.65136   0.66420   0.67927   0.68411   0.68963
 Alpha virt. eigenvalues --    0.69369   0.69873   0.70292   0.71206   0.72237
 Alpha virt. eigenvalues --    0.73153   0.73610   0.73903   0.74798   0.75864
 Alpha virt. eigenvalues --    0.76423   0.77147   0.77826   0.78635   0.79009
 Alpha virt. eigenvalues --    0.79715   0.81451   0.84024   0.84360   0.85527
 Alpha virt. eigenvalues --    0.88451   0.89315   0.90938   0.92481   0.92683
 Alpha virt. eigenvalues --    0.93749   0.94292   0.94841   0.95804   0.96387
 Alpha virt. eigenvalues --    0.96555   0.99560   1.00586   1.01308   1.03436
 Alpha virt. eigenvalues --    1.04809   1.04911   1.05347   1.07566   1.08200
 Alpha virt. eigenvalues --    1.09872   1.11823   1.12441   1.12547   1.13706
 Alpha virt. eigenvalues --    1.15812   1.19149   1.19786   1.21348   1.22479
 Alpha virt. eigenvalues --    1.23184   1.24044   1.25225   1.26264   1.31176
 Alpha virt. eigenvalues --    1.32257   1.33090   1.34020   1.36106   1.38165
 Alpha virt. eigenvalues --    1.39714   1.41016   1.43628   1.44766   1.45998
 Alpha virt. eigenvalues --    1.47781   1.49173   1.49483   1.50650   1.51537
 Alpha virt. eigenvalues --    1.52617   1.52829   1.53705   1.55866   1.57291
 Alpha virt. eigenvalues --    1.57443   1.58149   1.59471   1.60540   1.62287
 Alpha virt. eigenvalues --    1.62751   1.63923   1.64357   1.66778   1.68764
 Alpha virt. eigenvalues --    1.70925   1.74085   1.74412   1.77530   1.79478
 Alpha virt. eigenvalues --    1.79528   1.79830   1.79996   1.82883   1.85203
 Alpha virt. eigenvalues --    1.85841   1.86755   1.87403   1.88125   1.89785
 Alpha virt. eigenvalues --    1.90868   1.95361   1.96485   1.98145   1.98770
 Alpha virt. eigenvalues --    1.99548   2.03307   2.04948   2.07509   2.09252
 Alpha virt. eigenvalues --    2.09961   2.11491   2.18445   2.19687   2.20655
 Alpha virt. eigenvalues --    2.25145   2.27038   2.31369   2.31711   2.34734
 Alpha virt. eigenvalues --    2.35947   2.36615   2.41219   2.44772   2.48256
 Alpha virt. eigenvalues --    2.51513   2.53090   2.55244   2.56168   2.57370
 Alpha virt. eigenvalues --    2.58566   2.60920   2.61093   2.62850   2.66115
 Alpha virt. eigenvalues --    2.70058   2.70617   2.74635   2.75903   2.80715
 Alpha virt. eigenvalues --    2.81595   2.85591   2.86245   2.91273   2.92868
 Alpha virt. eigenvalues --    2.94194   2.96147   3.01096   3.01261   3.02902
 Alpha virt. eigenvalues --    3.04284   3.04607   3.07694   3.10363   3.12088
 Alpha virt. eigenvalues --    3.12837   3.19124   3.19240   3.22078   3.22974
 Alpha virt. eigenvalues --    3.24779   3.30096   3.30208   3.30864   3.35059
 Alpha virt. eigenvalues --    3.38917   3.39840   3.41784   3.43004   3.44172
 Alpha virt. eigenvalues --    3.53327   3.54176   3.67570   3.70357   3.73640
 Alpha virt. eigenvalues --    3.77860   3.79557   3.81904   3.83336   3.83635
 Alpha virt. eigenvalues --    3.85917   3.86505   3.87854   3.90739   3.96141
 Alpha virt. eigenvalues --    3.98262   4.00011   4.01446   4.02726   4.07978
 Alpha virt. eigenvalues --    4.10635   4.11634   4.18752   4.22203   4.26824
 Alpha virt. eigenvalues --    4.30969   4.56764   4.75976   4.81364   4.97435
 Alpha virt. eigenvalues --    5.01876   5.09068   5.10564   5.16170   5.36567
 Alpha virt. eigenvalues --    5.49394   5.80080   5.96367   6.44260   6.48003
 Alpha virt. eigenvalues --    6.49121   6.52832   6.55313   6.57209   6.62817
 Alpha virt. eigenvalues --    6.86363   6.90762   9.99706  23.44101  23.58076
 Alpha virt. eigenvalues --   23.65499  23.73111  23.82937  23.92086  23.94065
 Alpha virt. eigenvalues --   23.95428  24.08209  24.12653  24.19816  25.95415
 Alpha virt. eigenvalues --   26.30900  26.80663  35.66779  50.01982  50.12853
 Alpha virt. eigenvalues --   66.87996  66.91333  66.96525 216.10657
          Condensed to atoms (all electrons):
               1          2          3          4          5          6
     1  C   25.250717  -0.188997  -0.945231  -0.224680  -0.294695  -0.666912
     2  N   -0.188997   7.497587   0.291814  -0.032214  -0.145671  -0.340791
     3  C   -0.945231   0.291814   8.511780   0.576940   0.371097  -0.642392
     4  O   -0.224680  -0.032214   0.576940   8.176630  -0.183937  -0.169696
     5  O   -0.294695  -0.145671   0.371097  -0.183937   8.279674   0.312874
     6  C   -0.666912  -0.340791  -0.642392  -0.169696   0.312874   8.421363
     7  C    0.015349   0.034301   0.172867   0.032709  -0.163191  -1.019105
     8  C   -0.018093  -0.010098  -0.260444  -0.000951   0.031048   0.349246
     9  C   -2.894742   0.134550   0.938838   0.311395   0.049627  -0.083127
    10  C   -5.941088   0.106306  -0.068070   0.037253   0.021467  -0.003853
    11  C   -5.208160  -0.002746  -0.955425  -0.019467  -0.018461  -0.104102
    12  C    2.369591   0.131233   1.048523   0.003083   0.016569   0.077437
    13  C   -1.789870  -0.254668  -3.203806  -0.077469  -0.131124  -0.431047
    14  H   -0.024172   0.261010   0.021643  -0.000620   0.015565   0.009872
    15  H    0.004875   0.004663   0.038022  -0.000491  -0.041250   0.352138
    16  H    0.000133   0.003735   0.016278  -0.000935  -0.042081   0.379963
    17  H   -0.000525  -0.000898   0.004957  -0.000293   0.001642  -0.060723
    18  H   -0.000647  -0.000661   0.002422  -0.000296   0.001686  -0.066185
    19  H   -0.000095  -0.000017  -0.001296  -0.000065  -0.000295  -0.050996
    20  H    0.000137   0.000043   0.008388   0.000027  -0.000612   0.088903
    21  H   -0.000082  -0.000051  -0.001475  -0.000071  -0.000335  -0.048100
    22  H    0.004376  -0.021025   0.087254   0.003513   0.002043   0.009949
    23  C   -2.953325   0.041670  -0.041077  -0.009332   0.003089  -0.005238
    24  Cl   0.002415  -0.003082  -0.069152   0.000408  -0.000091  -0.002014
    25  H   -0.046399  -0.002374   0.000022  -0.000005  -0.000014  -0.000002
    26  H    0.119239  -0.016199   0.006849  -0.000005  -0.000431   0.000351
    27  F    0.239495  -0.000851   0.007792  -0.000107  -0.000025   0.000169
    28  F   -0.006848   0.000586   0.001057  -0.000012   0.000001  -0.000002
    29  F    0.022517   0.000513   0.003860   0.000000  -0.000001   0.000026
               7          8          9         10         11         12
     1  C    0.015349  -0.018093  -2.894742  -5.941088  -5.208160   2.369591
     2  N    0.034301  -0.010098   0.134550   0.106306  -0.002746   0.131233
     3  C    0.172867  -0.260444   0.938838  -0.068070  -0.955425   1.048523
     4  O    0.032709  -0.000951   0.311395   0.037253  -0.019467   0.003083
     5  O   -0.163191   0.031048   0.049627   0.021467  -0.018461   0.016569
     6  C   -1.019105   0.349246  -0.083127  -0.003853  -0.104102   0.077437
     7  C    6.539450  -0.181997  -0.033890  -0.012009   0.003620  -0.002312
     8  C   -0.181997   6.148417  -0.010461  -0.000423  -0.000722   0.000541
     9  C   -0.033890  -0.010461  17.097978   4.523550  -8.821421   1.225662
    10  C   -0.012009  -0.000423   4.523550  39.059587 -14.622657 -12.051961
    11  C    0.003620  -0.000722  -8.821421 -14.622657  43.766315  -7.124293
    12  C   -0.002312   0.000541   1.225662 -12.051961  -7.124293  25.643237
    13  C    0.048955  -0.004904  -7.245341  -2.178060   2.229736  -4.161529
    14  H   -0.003126  -0.000203   0.080105   0.022019  -0.015656   0.024593
    15  H   -0.020357  -0.017164   0.001853   0.000277   0.000158  -0.000086
    16  H   -0.024865  -0.011723   0.000552   0.000461   0.000142  -0.000033
    17  H    0.441487  -0.045017   0.001069   0.000077   0.000003  -0.000027
    18  H    0.449470  -0.044893   0.000080  -0.000001   0.000005   0.000008
    19  H    0.016636   0.379604  -0.000007  -0.000005  -0.000000   0.000000
    20  H   -0.128946   0.381903   0.000022  -0.000000   0.000000  -0.000000
    21  H    0.010284   0.383257   0.000012  -0.000000   0.000000  -0.000000
    22  H   -0.000504   0.000059   0.345895  -0.088648  -0.032511  -0.003161
    23  C   -0.001824  -0.000103   0.085772  -3.060050  -1.987704  -0.485307
    24  Cl   0.000013  -0.000006  -0.014194   1.166745  -1.794611  -0.556938
    25  H    0.000001  -0.000000  -0.015324   0.133015   0.161671   0.089467
    26  H   -0.000038   0.000005   0.011250  -0.020349  -0.087225   0.054662
    27  F    0.000021  -0.000001   0.198781  -0.334662  -0.192502  -0.008565
    28  F   -0.000000   0.000000  -0.023331   0.117962  -0.096244   0.099765
    29  F   -0.000001   0.000000   0.016820   0.094492  -0.109428   0.123203
              13         14         15         16         17         18
     1  C   -1.789870  -0.024172   0.004875   0.000133  -0.000525  -0.000647
     2  N   -0.254668   0.261010   0.004663   0.003735  -0.000898  -0.000661
     3  C   -3.203806   0.021643   0.038022   0.016278   0.004957   0.002422
     4  O   -0.077469  -0.000620  -0.000491  -0.000935  -0.000293  -0.000296
     5  O   -0.131124   0.015565  -0.041250  -0.042081   0.001642   0.001686
     6  C   -0.431047   0.009872   0.352138   0.379963  -0.060723  -0.066185
     7  C    0.048955  -0.003126  -0.020357  -0.024865   0.441487   0.449470
     8  C   -0.004904  -0.000203  -0.017164  -0.011723  -0.045017  -0.044893
     9  C   -7.245341   0.080105   0.001853   0.000552   0.001069   0.000080
    10  C   -2.178060   0.022019   0.000277   0.000461   0.000077  -0.000001
    11  C    2.229736  -0.015656   0.000158   0.000142   0.000003   0.000005
    12  C   -4.161529   0.024593  -0.000086  -0.000033  -0.000027   0.000008
    13  C   22.629614  -0.133092  -0.000051  -0.000277  -0.000670   0.000189
    14  H   -0.133092   0.253003  -0.000019  -0.000022   0.000025  -0.000016
    15  H   -0.000051  -0.000019   0.427132  -0.038855   0.004975  -0.007595
    16  H   -0.000277  -0.000022  -0.038855   0.427185  -0.007486   0.005033
    17  H   -0.000670   0.000025   0.004975  -0.007486   0.431874  -0.036305
    18  H    0.000189  -0.000016  -0.007595   0.005033  -0.036305   0.431816
    19  H    0.000023  -0.000000  -0.000338   0.003204  -0.007651   0.005720
    20  H    0.000003  -0.000000  -0.000151  -0.000137  -0.003184  -0.003143
    21  H   -0.000003  -0.000000   0.003177  -0.000372   0.005704  -0.007542
    22  H   -0.032627   0.000169  -0.000004  -0.000033   0.000000  -0.000000
    23  C    0.695421   0.002813   0.000002  -0.000049   0.000001  -0.000001
    24  Cl   0.464779  -0.000069   0.000000   0.000000  -0.000000   0.000000
    25  H   -0.002027  -0.000002   0.000000   0.000000  -0.000000  -0.000000
    26  H    0.255615   0.004361  -0.000000  -0.000000  -0.000000  -0.000000
    27  F   -0.002514  -0.000006   0.000000   0.000000   0.000000   0.000000
    28  F   -0.016721   0.000002  -0.000000   0.000000   0.000000   0.000000
    29  F   -0.037141   0.000003   0.000000  -0.000000  -0.000000  -0.000000
              19         20         21         22         23         24
     1  C   -0.000095   0.000137  -0.000082   0.004376  -2.953325   0.002415
     2  N   -0.000017   0.000043  -0.000051  -0.021025   0.041670  -0.003082
     3  C   -0.001296   0.008388  -0.001475   0.087254  -0.041077  -0.069152
     4  O   -0.000065   0.000027  -0.000071   0.003513  -0.009332   0.000408
     5  O   -0.000295  -0.000612  -0.000335   0.002043   0.003089  -0.000091
     6  C   -0.050996   0.088903  -0.048100   0.009949  -0.005238  -0.002014
     7  C    0.016636  -0.128946   0.010284  -0.000504  -0.001824   0.000013
     8  C    0.379604   0.381903   0.383257   0.000059  -0.000103  -0.000006
     9  C   -0.000007   0.000022   0.000012   0.345895   0.085772  -0.014194
    10  C   -0.000005  -0.000000  -0.000000  -0.088648  -3.060050   1.166745
    11  C   -0.000000   0.000000   0.000000  -0.032511  -1.987704  -1.794611
    12  C    0.000000  -0.000000  -0.000000  -0.003161  -0.485307  -0.556938
    13  C    0.000023   0.000003  -0.000003  -0.032627   0.695421   0.464779
    14  H   -0.000000  -0.000000  -0.000000   0.000169   0.002813  -0.000069
    15  H   -0.000338  -0.000151   0.003177  -0.000004   0.000002   0.000000
    16  H    0.003204  -0.000137  -0.000372  -0.000033  -0.000049   0.000000
    17  H   -0.007651  -0.003184   0.005704   0.000000   0.000001  -0.000000
    18  H    0.005720  -0.003143  -0.007542  -0.000000  -0.000001   0.000000
    19  H    0.443711  -0.024051  -0.036263  -0.000000  -0.000000  -0.000000
    20  H   -0.024051   0.420941  -0.024079   0.000000   0.000000   0.000000
    21  H   -0.036263  -0.024079   0.443552  -0.000000  -0.000000  -0.000000
    22  H   -0.000000   0.000000  -0.000000   0.338006   0.040720  -0.001883
    23  C   -0.000000   0.000000  -0.000000   0.040720  13.035214  -0.372365
    24  Cl  -0.000000   0.000000  -0.000000  -0.001883  -0.372365  17.830677
    25  H    0.000000  -0.000000   0.000000   0.000036   0.015625  -0.014703
    26  H   -0.000000   0.000000  -0.000000  -0.000013   0.003323  -0.000188
    27  F    0.000000  -0.000000   0.000000   0.013900   0.229161   0.012800
    28  F   -0.000000  -0.000000  -0.000000   0.000263   0.089352  -0.025428
    29  F   -0.000000   0.000000  -0.000000   0.000299   0.051155  -0.025048
              25         26         27         28         29
     1  C   -0.046399   0.119239   0.239495  -0.006848   0.022517
     2  N   -0.002374  -0.016199  -0.000851   0.000586   0.000513
     3  C    0.000022   0.006849   0.007792   0.001057   0.003860
     4  O   -0.000005  -0.000005  -0.000107  -0.000012   0.000000
     5  O   -0.000014  -0.000431  -0.000025   0.000001  -0.000001
     6  C   -0.000002   0.000351   0.000169  -0.000002   0.000026
     7  C    0.000001  -0.000038   0.000021  -0.000000  -0.000001
     8  C   -0.000000   0.000005  -0.000001   0.000000   0.000000
     9  C   -0.015324   0.011250   0.198781  -0.023331   0.016820
    10  C    0.133015  -0.020349  -0.334662   0.117962   0.094492
    11  C    0.161671  -0.087225  -0.192502  -0.096244  -0.109428
    12  C    0.089467   0.054662  -0.008565   0.099765   0.123203
    13  C   -0.002027   0.255615  -0.002514  -0.016721  -0.037141
    14  H   -0.000002   0.004361  -0.000006   0.000002   0.000003
    15  H    0.000000  -0.000000   0.000000  -0.000000   0.000000
    16  H    0.000000  -0.000000   0.000000   0.000000  -0.000000
    17  H   -0.000000  -0.000000   0.000000   0.000000  -0.000000
    18  H   -0.000000  -0.000000   0.000000   0.000000  -0.000000
    19  H    0.000000  -0.000000   0.000000  -0.000000  -0.000000
    20  H   -0.000000   0.000000  -0.000000  -0.000000   0.000000
    21  H    0.000000  -0.000000   0.000000  -0.000000  -0.000000
    22  H    0.000036  -0.000013   0.013900   0.000263   0.000299
    23  C    0.015625   0.003323   0.229161   0.089352   0.051155
    24  Cl  -0.014703  -0.000188   0.012800  -0.025428  -0.025048
    25  H    0.359913  -0.003487   0.000027  -0.000041  -0.000043
    26  H   -0.003487   0.364202  -0.000007   0.000002   0.000004
    27  F    0.000027  -0.000007   9.045010  -0.034744  -0.035798
    28  F   -0.000041   0.000002  -0.034744   8.993294  -0.043616
    29  F   -0.000043   0.000004  -0.035798  -0.043616   8.994809
 Mulliken charges:
               1
     1  C   -0.824282
     2  N   -0.487668
     3  C    0.077966
     4  O   -0.421312
     5  O   -0.084169
     6  C   -0.308007
     7  C   -0.172998
     8  C   -1.066877
     9  C    0.118027
    10  C   -0.901374
    11  C    1.031683
    12  C   -0.513361
    13  C   -0.621395
    14  H    0.481820
    15  H    0.289089
    16  H    0.290182
    17  H    0.270965
    18  H    0.270858
    19  H    0.272183
    20  H    0.283936
    21  H    0.272390
    22  H    0.333925
    23  C    0.623057
    24  Cl   0.401938
    25  H    0.324640
    26  H    0.308080
    27  F   -0.137375
    28  F   -0.055296
    29  F   -0.056626
 Sum of Mulliken charges =  -0.00000
 Mulliken charges with hydrogens summed into heavy atoms:
               1
     1  C   -0.824282
     2  N   -0.005848
     3  C    0.077966
     4  O   -0.421312
     5  O   -0.084169
     6  C    0.271265
     7  C    0.368824
     8  C   -0.238368
     9  C    0.451952
    10  C   -0.901374
    11  C    1.031683
    12  C   -0.188721
    13  C   -0.313315
    23  C    0.623057
    24  Cl   0.401938
    27  F   -0.137375
    28  F   -0.055296
    29  F   -0.056626
 Electronic spatial extent (au):  <R**2>=           7992.9497
 Charge=             -0.0000 electrons
 Dipole moment (field-independent basis, Debye):
    X=              6.3631    Y=             -6.5267    Z=             -0.3926  Tot=              9.1237
 Quadrupole moment (field-independent basis, Debye-Ang):
   XX=           -105.2433   YY=           -103.7798   ZZ=           -113.4600
   XY=              2.7108   XZ=             -0.4435   YZ=             -0.4613
 Traceless Quadrupole moment (field-independent basis, Debye-Ang):
   XX=              2.2510   YY=              3.7146   ZZ=             -5.9657
   XY=              2.7108   XZ=             -0.4435   YZ=             -0.4613
 Octapole moment (field-independent basis, Debye-Ang**2):
  XXX=            143.3996  YYY=            -23.9612  ZZZ=              0.1597  XYY=            -12.7290
  XXY=             -4.8736  XXZ=              0.6187  XZZ=             -0.0216  YZZ=             14.5609
  YYZ=             -1.6698  XYZ=             -0.9171
 Hexadecapole moment (field-independent basis, Debye-Ang**3):
 XXXX=          -8185.7178 YYYY=          -1133.2213 ZZZZ=           -206.6277 XXXY=            -20.4825
 XXXZ=             -0.2841 YYYX=            -70.0062 YYYZ=             -1.1401 ZZZX=              2.7176
 ZZZY=             -0.3645 XXYY=          -1683.3895 XXZZ=          -1503.5506 YYZZ=           -254.3534
 XXYZ=             -4.9198 YYXZ=             -5.5413 ZZXY=            -25.1821
 N-N= 1.450659869081D+03 E-N=-6.180504947806D+03  KE= 1.386732220337D+03
 D1PCM: PCM CHGder 1st derivatives, ID1Alg=3 FixD1E=F DoIter=F DoCFld=F I1PDM=0.
 Calling FoFJK, ICntrl=      2127 FMM=F ISym2X=0 I1Cent= 0 IOpClX= 0 NMat=1 NMatS=1 NMatT=0.
 ***** Axes restored to original set *****
 -------------------------------------------------------------------
 Center     Atomic                   Forces (Hartrees/Bohr)
 Number     Number              X              Y              Z
 -------------------------------------------------------------------
      1        6          -0.000000847    0.000001826   -0.000001742
      2        7          -0.000000671   -0.000000640    0.000001224
      3        6           0.000000593    0.000000988    0.000000073
      4        8           0.000000956   -0.000001091    0.000000470
      5        8          -0.000001151   -0.000002613   -0.000000180
      6        6          -0.000000467   -0.000002838    0.000001012
      7        6          -0.000001877   -0.000004174    0.000001283
      8        6          -0.000000984   -0.000005341    0.000001567
      9        6           0.000001013    0.000001912   -0.000000208
     10        6           0.000002160    0.000002855   -0.000002125
     11        6           0.000000293    0.000004174   -0.000001149
     12        6          -0.000000528    0.000004116   -0.000001468
     13        6          -0.000001200    0.000002767   -0.000000777
     14        1          -0.000001671    0.000000937   -0.000000589
     15        1          -0.000000377   -0.000003143    0.000000980
     16        1           0.000000264   -0.000003186    0.000001177
     17        1          -0.000001956   -0.000003689    0.000001195
     18        1          -0.000002744   -0.000003886    0.000000802
     19        1          -0.000000228   -0.000005511    0.000002019
     20        1          -0.000001953   -0.000005878    0.000001703
     21        1          -0.000000928   -0.000005854    0.000001617
     22        1           0.000001824    0.000000828    0.000000079
     23        6           0.000002619    0.000003479    0.000001012
     24       17           0.000001111    0.000006251   -0.000001785
     25        1          -0.000001504    0.000004785   -0.000001737
     26        1          -0.000002329    0.000002290   -0.000001092
     27        9           0.000002795    0.000002613   -0.000000713
     28        9           0.000004117    0.000004188   -0.000001048
     29        9           0.000003671    0.000003835   -0.000001600
 -------------------------------------------------------------------
 Cartesian Forces:  Max     0.000006251 RMS     0.000002460

 GradGradGradGradGradGradGradGradGradGradGradGradGradGradGradGradGradGrad
 Berny optimization.
 FormGI is forming the generalized inverse of G from B-inverse, IUseBI=4.
 GSVD:  received Info=                   1 from GESDD.
 Internal  Forces:  Max     0.000001385 RMS     0.000000326
 Search for a local minimum.
 Step number   1 out of a maximum of  149
 All quantities printed in internal units (Hartrees-Bohrs-Radians)
 Mixed Optimization -- En-DIIS/RFO-DIIS
 Second derivative matrix not updated -- first step.
 ITU=  0
     Eigenvalues ---    0.00437   0.00612   0.00708   0.01113   0.01604
     Eigenvalues ---    0.01685   0.01948   0.02003   0.02147   0.02174
     Eigenvalues ---    0.02195   0.02197   0.02207   0.02219   0.02250
     Eigenvalues ---    0.02275   0.02295   0.02502   0.03892   0.05010
     Eigenvalues ---    0.05442   0.05548   0.05577   0.05751   0.08034
     Eigenvalues ---    0.10636   0.10652   0.11242   0.11951   0.13585
     Eigenvalues ---    0.15984   0.16000   0.16000   0.16000   0.16000
     Eigenvalues ---    0.16000   0.16000   0.21889   0.21983   0.22006
     Eigenvalues ---    0.22371   0.23488   0.24610   0.24997   0.25000
     Eigenvalues ---    0.25000   0.25000   0.25000   0.25000   0.25000
     Eigenvalues ---    0.25000   0.25000   0.29902   0.31093   0.31189
     Eigenvalues ---    0.31919   0.34423   0.34423   0.34478   0.34479
     Eigenvalues ---    0.34586   0.34591   0.34680   0.35428   0.35647
     Eigenvalues ---    0.36210   0.39079   0.42649   0.42919   0.45494
     Eigenvalues ---    0.45537   0.46354   0.46751   0.47331   0.47990
     Eigenvalues ---    0.52578   0.56288   0.56353   0.57491   0.57569
     Eigenvalues ---    0.97358
 RFO step:  Lambda= 0.00000000D+00 EMin= 4.36915798D-03
 Linear search not attempted -- first point.
 Iteration  1 RMS(Cart)=  0.00001025 RMS(Int)=  0.00000000
 Iteration  2 RMS(Cart)=  0.00000000 RMS(Int)=  0.00000000
 Variable       Old X    -DE/DX   Delta X   Delta X   Delta X     New X
                                 (Linear)    (Quad)   (Total)
    R1        2.64657   0.00000   0.00000   0.00000   0.00000   2.64657
    R2        2.63669  -0.00000   0.00000  -0.00000  -0.00000   2.63669
    R3        2.64122   0.00000   0.00000   0.00000   0.00000   2.64122
    R4        2.57350   0.00000   0.00000   0.00000   0.00000   2.57350
    R5        1.91406  -0.00000   0.00000  -0.00000  -0.00000   1.91406
    R6        2.29716  -0.00000   0.00000  -0.00000  -0.00000   2.29716
    R7        2.52983  -0.00000   0.00000  -0.00000  -0.00000   2.52983
    R8        2.72825  -0.00000   0.00000  -0.00000  -0.00000   2.72825
    R9        2.85653  -0.00000   0.00000  -0.00000  -0.00000   2.85653
   R10        2.06344  -0.00000   0.00000  -0.00000  -0.00000   2.06344
   R11        2.06352  -0.00000   0.00000  -0.00000  -0.00000   2.06352
   R12        2.88159   0.00000   0.00000   0.00000   0.00000   2.88159
   R13        2.06621  -0.00000   0.00000  -0.00000  -0.00000   2.06621
   R14        2.06623  -0.00000   0.00000  -0.00000  -0.00000   2.06623
   R15        2.06530  -0.00000   0.00000  -0.00000  -0.00000   2.06530
   R16        2.06198  -0.00000   0.00000  -0.00000  -0.00000   2.06198
   R17        2.06530  -0.00000   0.00000  -0.00000  -0.00000   2.06530
   R18        2.62972  -0.00000   0.00000  -0.00000  -0.00000   2.62972
   R19        2.03754  -0.00000   0.00000  -0.00000  -0.00000   2.03754
   R20        2.63152  -0.00000   0.00000  -0.00000  -0.00000   2.63152
   R21        2.84292  -0.00000   0.00000  -0.00000  -0.00000   2.84292
   R22        2.62300   0.00000   0.00000   0.00000   0.00000   2.62300
   R23        3.29535   0.00000   0.00000   0.00000   0.00000   3.29535
   R24        2.61552   0.00000   0.00000   0.00000   0.00000   2.61553
   R25        2.04637   0.00000   0.00000   0.00000   0.00000   2.04637
   R26        2.04986   0.00000   0.00000   0.00000   0.00000   2.04986
   R27        2.52917  -0.00000   0.00000  -0.00000  -0.00000   2.52917
   R28        2.53949  -0.00000   0.00000  -0.00000  -0.00000   2.53949
   R29        2.54005  -0.00000   0.00000  -0.00000  -0.00000   2.54005
    A1        2.15812  -0.00000   0.00000  -0.00000  -0.00000   2.15812
    A2        2.04432   0.00000   0.00000   0.00000   0.00000   2.04432
    A3        2.08065   0.00000   0.00000   0.00000   0.00000   2.08065
    A4        2.22698   0.00000   0.00000   0.00000   0.00000   2.22698
    A5        2.03234   0.00000   0.00000   0.00000   0.00000   2.03234
    A6        2.02200  -0.00000   0.00000  -0.00000  -0.00000   2.02200
    A7        2.19943   0.00000   0.00000   0.00000   0.00000   2.19943
    A8        1.91784  -0.00000   0.00000  -0.00001  -0.00001   1.91783
    A9        2.16592   0.00000   0.00000   0.00000   0.00000   2.16592
   A10        2.02614  -0.00000   0.00000  -0.00000  -0.00000   2.02614
   A11        1.87869  -0.00000   0.00000  -0.00000  -0.00000   1.87869
   A12        1.89542   0.00000   0.00000  -0.00000  -0.00000   1.89542
   A13        1.89531   0.00000   0.00000  -0.00000  -0.00000   1.89531
   A14        1.94664   0.00000   0.00000   0.00000   0.00000   1.94664
   A15        1.94616   0.00000   0.00000   0.00000   0.00000   1.94617
   A16        1.90026  -0.00000   0.00000   0.00000   0.00000   1.90026
   A17        1.92698  -0.00000   0.00000  -0.00000  -0.00000   1.92698
   A18        1.90496  -0.00000   0.00000  -0.00000  -0.00000   1.90496
   A19        1.90500   0.00000   0.00000   0.00000   0.00000   1.90500
   A20        1.92506   0.00000   0.00000   0.00000   0.00000   1.92506
   A21        1.92532   0.00000   0.00000   0.00000   0.00000   1.92533
   A22        1.87562  -0.00000   0.00000  -0.00000  -0.00000   1.87562
   A23        1.93927   0.00000   0.00000   0.00000   0.00000   1.93927
   A24        1.93538   0.00000   0.00000   0.00000   0.00000   1.93538
   A25        1.93964  -0.00000   0.00000  -0.00000  -0.00000   1.93964
   A26        1.88212  -0.00000   0.00000  -0.00000  -0.00000   1.88212
   A27        1.88282  -0.00000   0.00000  -0.00000  -0.00000   1.88282
   A28        1.88222  -0.00000   0.00000  -0.00000  -0.00000   1.88222
   A29        2.09151  -0.00000   0.00000  -0.00000  -0.00000   2.09151
   A30        2.10410  -0.00000   0.00000  -0.00000  -0.00000   2.10410
   A31        2.08757   0.00000   0.00000   0.00000   0.00000   2.08758
   A32        2.10238   0.00000   0.00000   0.00000   0.00000   2.10238
   A33        2.07170   0.00000   0.00000   0.00000   0.00000   2.07171
   A34        2.10910  -0.00000   0.00000  -0.00000  -0.00000   2.10909
   A35        2.09082  -0.00000   0.00000  -0.00000  -0.00000   2.09082
   A36        2.12305  -0.00000   0.00000  -0.00000  -0.00000   2.12305
   A37        2.06932   0.00000   0.00000   0.00000   0.00000   2.06932
   A38        2.09250  -0.00000   0.00000   0.00000   0.00000   2.09250
   A39        2.09451   0.00000   0.00000  -0.00000  -0.00000   2.09451
   A40        2.09617   0.00000   0.00000   0.00000   0.00000   2.09617
   A41        2.10848  -0.00000   0.00000  -0.00000  -0.00000   2.10848
   A42        2.08874   0.00000   0.00000   0.00000   0.00000   2.08874
   A43        2.08596   0.00000   0.00000  -0.00000  -0.00000   2.08596
   A44        1.95952   0.00000   0.00000   0.00000   0.00000   1.95952
   A45        1.95847  -0.00000   0.00000  -0.00000  -0.00000   1.95847
   A46        1.95742   0.00000   0.00000   0.00000   0.00000   1.95742
   A47        1.86013  -0.00000   0.00000  -0.00000  -0.00000   1.86012
   A48        1.86002  -0.00000   0.00000  -0.00000  -0.00000   1.86002
   A49        1.86125   0.00000   0.00000   0.00000   0.00000   1.86125
    D1        0.16342  -0.00000   0.00000  -0.00001  -0.00001   0.16340
    D2       -3.04705   0.00000   0.00000   0.00001   0.00001  -3.04704
    D3       -2.99341  -0.00000   0.00000  -0.00001  -0.00001  -2.99341
    D4        0.07931   0.00000   0.00000   0.00002   0.00002   0.07933
    D5        3.13488   0.00000   0.00000   0.00000   0.00000   3.13488
    D6       -0.00383  -0.00000   0.00000  -0.00000  -0.00000  -0.00383
    D7        0.00882  -0.00000   0.00000  -0.00001  -0.00001   0.00882
    D8       -3.12989  -0.00000   0.00000  -0.00001  -0.00001  -3.12990
    D9       -3.13208  -0.00000   0.00000  -0.00001  -0.00001  -3.13209
   D10        0.01042  -0.00000   0.00000  -0.00000  -0.00000   0.01042
   D11       -0.00502   0.00000   0.00000   0.00000   0.00000  -0.00502
   D12        3.13749   0.00000   0.00000   0.00000   0.00000   3.13749
   D13       -0.02114   0.00000   0.00000   0.00002   0.00002  -0.02112
   D14        3.12000   0.00000   0.00000   0.00002   0.00002   3.12002
   D15       -3.09421  -0.00000   0.00000  -0.00000  -0.00000  -3.09421
   D16        0.04693   0.00000   0.00000  -0.00000  -0.00000   0.04693
   D17       -3.14104   0.00000   0.00000   0.00001   0.00001  -3.14103
   D18        0.00011   0.00000   0.00000   0.00001   0.00001   0.00012
   D19        3.14098  -0.00000   0.00000  -0.00000  -0.00000   3.14097
   D20        1.03103  -0.00000   0.00000  -0.00000  -0.00000   1.03102
   D21       -1.03289  -0.00000   0.00000  -0.00000  -0.00000  -1.03289
   D22        3.13783  -0.00000   0.00000   0.00000   0.00000   3.13783
   D23        1.01904  -0.00000   0.00000   0.00000   0.00000   1.01904
   D24       -1.02621   0.00000   0.00000   0.00000   0.00000  -1.02621
   D25       -1.06787  -0.00000   0.00000   0.00000   0.00000  -1.06787
   D26        3.09653  -0.00000   0.00000   0.00000   0.00000   3.09653
   D27        1.05128   0.00000   0.00000   0.00000   0.00000   1.05128
   D28        1.06075   0.00000   0.00000   0.00000   0.00000   1.06075
   D29       -1.05804   0.00000   0.00000   0.00000   0.00000  -1.05804
   D30       -3.10329   0.00000   0.00000   0.00001   0.00001  -3.10329
   D31       -1.04984   0.00000   0.00000   0.00001   0.00001  -1.04983
   D32        3.14031   0.00000   0.00000   0.00001   0.00001   3.14032
   D33        1.04692   0.00000   0.00000   0.00001   0.00001   1.04693
   D34        1.05698   0.00000   0.00000   0.00001   0.00001   1.05699
   D35       -1.03606  -0.00000   0.00000   0.00001   0.00001  -1.03604
   D36       -3.12945  -0.00000   0.00000   0.00001   0.00001  -3.12943
   D37        3.12630   0.00000   0.00000   0.00001   0.00001   3.12631
   D38        1.03326   0.00000   0.00000   0.00001   0.00001   1.03327
   D39       -1.06013   0.00000   0.00000   0.00001   0.00001  -1.06012
   D40       -0.00636   0.00000   0.00000   0.00001   0.00001  -0.00636
   D41        3.13842  -0.00000   0.00000  -0.00001  -0.00001   3.13842
   D42        3.13238   0.00000   0.00000   0.00001   0.00001   3.13239
   D43       -0.00602  -0.00000   0.00000  -0.00000  -0.00000  -0.00602
   D44       -0.00006  -0.00000   0.00000  -0.00000  -0.00000  -0.00006
   D45       -3.14157  -0.00000   0.00000  -0.00001  -0.00001  -3.14157
   D46        3.13827   0.00000   0.00000   0.00001   0.00001   3.13828
   D47       -0.00323   0.00000   0.00000   0.00001   0.00001  -0.00323
   D48        0.00073   0.00000   0.00000   0.00002   0.00002   0.00075
   D49        2.09544  -0.00000   0.00000   0.00002   0.00002   2.09545
   D50       -2.09308   0.00000   0.00000   0.00002   0.00002  -2.09307
   D51       -3.13765   0.00000   0.00000   0.00001   0.00001  -3.13765
   D52       -1.04295  -0.00000   0.00000   0.00000   0.00000  -1.04295
   D53        1.05172  -0.00000   0.00000   0.00000   0.00000   1.05172
   D54        0.00392   0.00000   0.00000   0.00000   0.00000   0.00392
   D55       -3.14026  -0.00000   0.00000  -0.00000  -0.00000  -3.14026
   D56       -3.13776   0.00000   0.00000   0.00000   0.00000  -3.13775
   D57        0.00125   0.00000   0.00000   0.00000   0.00000   0.00125
   D58       -0.00136  -0.00000   0.00000  -0.00000  -0.00000  -0.00136
   D59        3.13932  -0.00000   0.00000  -0.00000  -0.00000   3.13931
   D60       -3.14037   0.00000   0.00000   0.00000   0.00000  -3.14037
   D61        0.00031   0.00000   0.00000   0.00000   0.00000   0.00031
         Item               Value     Threshold  Converged?
 Maximum Force            0.000001     0.000450     YES
 RMS     Force            0.000000     0.000300     YES
 Maximum Displacement     0.000039     0.001800     YES
 RMS     Displacement     0.000010     0.001200     YES
 Predicted change in Energy=-5.583222D-11
 Optimization completed.
    -- Stationary point found.
                           ----------------------------
                           !   Optimized Parameters   !
                           ! (Angstroms and Degrees)  !
 --------------------------                            --------------------------
 ! Name  Definition              Value          Derivative Info.                !
 --------------------------------------------------------------------------------
 ! R1    R(1,2)                  1.4005         -DE/DX =    0.0                 !
 ! R2    R(1,9)                  1.3953         -DE/DX =    0.0                 !
 ! R3    R(1,13)                 1.3977         -DE/DX =    0.0                 !
 ! R4    R(2,3)                  1.3618         -DE/DX =    0.0                 !
 ! R5    R(2,14)                 1.0129         -DE/DX =    0.0                 !
 ! R6    R(3,4)                  1.2156         -DE/DX =    0.0                 !
 ! R7    R(3,5)                  1.3387         -DE/DX =    0.0                 !
 ! R8    R(5,6)                  1.4437         -DE/DX =    0.0                 !
 ! R9    R(6,7)                  1.5116         -DE/DX =    0.0                 !
 ! R10   R(6,15)                 1.0919         -DE/DX =    0.0                 !
 ! R11   R(6,16)                 1.092          -DE/DX =    0.0                 !
 ! R12   R(7,8)                  1.5249         -DE/DX =    0.0                 !
 ! R13   R(7,17)                 1.0934         -DE/DX =    0.0                 !
 ! R14   R(7,18)                 1.0934         -DE/DX =    0.0                 !
 ! R15   R(8,19)                 1.0929         -DE/DX =    0.0                 !
 ! R16   R(8,20)                 1.0912         -DE/DX =    0.0                 !
 ! R17   R(8,21)                 1.0929         -DE/DX =    0.0                 !
 ! R18   R(9,10)                 1.3916         -DE/DX =    0.0                 !
 ! R19   R(9,22)                 1.0782         -DE/DX =    0.0                 !
 ! R20   R(10,11)                1.3925         -DE/DX =    0.0                 !
 ! R21   R(10,23)                1.5044         -DE/DX =    0.0                 !
 ! R22   R(11,12)                1.388          -DE/DX =    0.0                 !
 ! R23   R(11,24)                1.7438         -DE/DX =    0.0                 !
 ! R24   R(12,13)                1.3841         -DE/DX =    0.0                 !
 ! R25   R(12,25)                1.0829         -DE/DX =    0.0                 !
 ! R26   R(13,26)                1.0847         -DE/DX =    0.0                 !
 ! R27   R(23,27)                1.3384         -DE/DX =    0.0                 !
 ! R28   R(23,28)                1.3438         -DE/DX =    0.0                 !
 ! R29   R(23,29)                1.3441         -DE/DX =    0.0                 !
 ! A1    A(2,1,9)              123.6514         -DE/DX =    0.0                 !
 ! A2    A(2,1,13)             117.1308         -DE/DX =    0.0                 !
 ! A3    A(9,1,13)             119.2122         -DE/DX =    0.0                 !
 ! A4    A(1,2,3)              127.5965         -DE/DX =    0.0                 !
 ! A5    A(1,2,14)             116.4445         -DE/DX =    0.0                 !
 ! A6    A(3,2,14)             115.8519         -DE/DX =    0.0                 !
 ! A7    A(2,3,4)              126.018          -DE/DX =    0.0                 !
 ! A8    A(2,3,5)              109.8841         -DE/DX =    0.0                 !
 ! A9    A(4,3,5)              124.0979         -DE/DX =    0.0                 !
 ! A10   A(3,5,6)              116.0894         -DE/DX =    0.0                 !
 ! A11   A(5,6,7)              107.6411         -DE/DX =    0.0                 !
 ! A12   A(5,6,15)             108.5994         -DE/DX =    0.0                 !
 ! A13   A(5,6,16)             108.5931         -DE/DX =    0.0                 !
 ! A14   A(7,6,15)             111.5342         -DE/DX =    0.0                 !
 ! A15   A(7,6,16)             111.507          -DE/DX =    0.0                 !
 ! A16   A(15,6,16)            108.877          -DE/DX =    0.0                 !
 ! A17   A(6,7,8)              110.408          -DE/DX =    0.0                 !
 ! A18   A(6,7,17)             109.1461         -DE/DX =    0.0                 !
 ! A19   A(6,7,18)             109.1485         -DE/DX =    0.0                 !
 ! A20   A(8,7,17)             110.2979         -DE/DX =    0.0                 !
 ! A21   A(8,7,18)             110.313          -DE/DX =    0.0                 !
 ! A22   A(17,7,18)            107.4649         -DE/DX =    0.0                 !
 ! A23   A(7,8,19)             111.1122         -DE/DX =    0.0                 !
 ! A24   A(7,8,20)             110.889          -DE/DX =    0.0                 !
 ! A25   A(7,8,21)             111.133          -DE/DX =    0.0                 !
 ! A26   A(19,8,20)            107.8378         -DE/DX =    0.0                 !
 ! A27   A(19,8,21)            107.8777         -DE/DX =    0.0                 !
 ! A28   A(20,8,21)            107.843          -DE/DX =    0.0                 !
 ! A29   A(1,9,10)             119.8346         -DE/DX =    0.0                 !
 ! A30   A(1,9,22)             120.5561         -DE/DX =    0.0                 !
 ! A31   A(10,9,22)            119.6091         -DE/DX =    0.0                 !
 ! A32   A(9,10,11)            120.4575         -DE/DX =    0.0                 !
 ! A33   A(9,10,23)            118.6999         -DE/DX =    0.0                 !
 ! A34   A(11,10,23)           120.8423         -DE/DX =    0.0                 !
 ! A35   A(10,11,12)           119.7949         -DE/DX =    0.0                 !
 ! A36   A(10,11,24)           121.6418         -DE/DX =    0.0                 !
 ! A37   A(12,11,24)           118.5633         -DE/DX =    0.0                 !
 ! A38   A(11,12,13)           119.8916         -DE/DX =    0.0                 !
 ! A39   A(11,12,25)           120.0066         -DE/DX =    0.0                 !
 ! A40   A(13,12,25)           120.1017         -DE/DX =    0.0                 !
 ! A41   A(1,13,12)            120.8073         -DE/DX =    0.0                 !
 ! A42   A(1,13,26)            119.676          -DE/DX =    0.0                 !
 ! A43   A(12,13,26)           119.5167         -DE/DX =    0.0                 !
 ! A44   A(10,23,27)           112.2721         -DE/DX =    0.0                 !
 ! A45   A(10,23,28)           112.2123         -DE/DX =    0.0                 !
 ! A46   A(10,23,29)           112.1518         -DE/DX =    0.0                 !
 ! A47   A(27,23,28)           106.5774         -DE/DX =    0.0                 !
 ! A48   A(27,23,29)           106.5711         -DE/DX =    0.0                 !
 ! A49   A(28,23,29)           106.6416         -DE/DX =    0.0                 !
 ! D1    D(9,1,2,3)              9.3631         -DE/DX =    0.0                 !
 ! D2    D(9,1,2,14)          -174.5831         -DE/DX =    0.0                 !
 ! D3    D(13,1,2,3)          -171.5097         -DE/DX =    0.0                 !
[...]
 59,0.00000881,0.00000393,-0.00000409,0.00000850,0.00000349,0.00000481,
 0.00000103,-0.00000279,-0.00000183,0.00000094,-0.00000304,0.00000203,-
 0.00000072,0.00000126,0.00000109,0.00000546,-0.00000083,0.00000009,-0.
 00000062,0.00000141,-0.00000070,-0.00273837,0.00063611,-0.00015865,0.5
 1830570,0.00405586,0.00195198,0.00012497,-0.00521046,0.00106647,0.0000
 4264,0.00490978,0.00244937,0.00016377,-0.00188585,-0.00154000,-0.00019
 218,-0.00235422,0.00064757,0.00004200,0.00057322,0.00028517,0.00001703
 ,-0.00007720,-0.00011973,-0.00000751,-0.00001415,0.00007197,0.00000487
 ,0.01577033,-0.00953857,-0.00031100,0.02223504,-0.21085833,0.00864024,
 -0.01384499,-0.01920251,0.00186920,-0.00187685,0.00236330,0.00034693,-
 0.00161662,0.00311149,-0.00019206,-0.00033658,-0.00034219,-0.00001076,
 -0.00010295,-0.00003216,-0.00001041,-0.00010517,-0.00003278,0.00000361
 ,0.00000068,0.00001159,0.00000401,0.00000043,0.00001176,-0.00000204,-0
 .00000252,-0.00000408,0.00000390,-0.00003235,-0.00000724,-0.00000061,-
 0.00000249,-0.00000363,-0.00000454,-0.00124549,-0.00026229,-0.00012143
 ,-0.00410881,0.59908613,0.00048366,0.00005994,0.00695355,0.00031585,-0
 .00004071,0.00017641,-0.00028902,-0.00018443,0.00007850,0.00004201,0.0
 0012664,0.00002927,0.00012853,-0.00002259,-0.00000638,-0.00002884,-0.0
 0000898,0.00000415,0.00000454,0.00000654,0.00000023,0.00000159,-0.0000
 0353,-0.00000127,-0.00109004,-0.00069630,0.00227030,0.00047313,0.00910
 568,-0.06406458,-0.00011227,0.00234342,-0.00162046,0.00058277,0.000653
 43,0.00536923,0.00030733,-0.00021489,-0.00112784,0.00001069,0.00000742
 ,-0.00009123,0.00000234,0.00000128,-0.00000244,0.00001240,0.00000176,-
 0.00000329,-0.00000023,-0.00000317,-0.00000166,-0.00000080,0.00000259,
 -0.00000031,0.00000130,0.00000203,-0.00000111,0.00000166,0.00000022,0.
 00000112,-0.00000181,-0.00000064,-0.00000123,0.00006648,-0.00031863,-0
 .00401107,-0.00301919,-0.00884579,0.47031869,0.00258896,-0.00315602,0.
 00003979,-0.00609042,0.00050461,0.00006763,0.00435890,0.00266443,-0.00
 003237,-0.00113151,-0.00166902,-0.00015874,-0.00197246,0.00064108,0.00
 004877,0.00047222,0.00020734,0.00003766,-0.00005894,-0.00009835,-0.000
 00437,-0.00001385,0.00005906,0.00000174,-0.00222279,-0.00393793,0.0007
 4715,-0.03350150,0.01377928,0.00128839,-0.15822073,0.03759467,0.005213
 13,-0.02719045,0.01168651,0.00118180,0.00362402,0.00232227,-0.00022821
 ,-0.00014714,-0.00034018,0.00008386,-0.00008943,-0.00002561,-0.0000078
 9,-0.00009070,-0.00002723,0.00000183,0.00000035,0.00000968,0.00000464,
 0.,0.00001044,-0.00000329,-0.00000129,-0.00000326,0.00000170,-0.000026
 01,-0.00000490,-0.00000066,-0.00000117,-0.00000323,-0.00000234,-0.0009
 7923,0.00129020,0.00005431,-0.00301100,0.00570374,-0.00043380,0.224036
 33,0.00011178,0.00274336,-0.00021325,0.00184976,-0.00001486,-0.0000478
 7,-0.00124146,-0.00093886,-0.00003246,0.00013945,0.00059621,0.00001855
 ,0.00056680,-0.00015171,0.00000199,-0.00012960,-0.00006070,-0.00000732
 ,0.00001815,0.00002781,0.00000174,0.00000404,-0.00001657,-0.00000041,0
 .00042891,-0.00377891,0.00044532,-0.01118915,0.00873647,0.00022111,0.0
 3883230,-0.05187627,-0.00012379,0.03848940,-0.01013837,-0.00130719,-0.
 00369791,-0.00441372,0.00079248,-0.00002208,0.00010042,-0.00001824,0.0
 0002578,0.00000686,0.00000267,0.00002484,0.00000818,-0.00000226,-0.000
 00066,-0.00000241,-0.00000135,-0.00000059,-0.00000229,0.00000088,0.000
 00051,0.00000090,-0.00000065,0.00000740,0.00000144,0.00000015,0.000000
 41,0.00000087,0.00000083,-0.00037120,0.00020610,0.00004999,0.00145811,
 -0.00293959,-0.00006455,-0.05957570,0.06515668,-0.00025698,-0.00003885
 ,-0.00049434,0.00023716,-0.00000693,-0.00059307,-0.00019215,-0.0000688
 1,-0.00025281,0.00012251,0.00004770,-0.00000699,0.00006846,-0.00003784
 ,0.00008155,-0.00001536,-0.00000363,0.00003014,0.00000148,0.00000409,0
 .00000095,0.00000085,-0.00000377,-0.00000078,0.00043688,0.00066429,0.0
 0388402,0.00270977,-0.00122328,0.00233417,0.00530156,0.00001966,-0.020
 84775,-0.00065332,0.00019297,0.00371283,0.00026071,0.00049146,0.004748
 72,0.00001163,0.00000025,0.00002606,0.00000979,-0.00000274,-0.00000411
 ,-0.00000304,0.00000492,-0.00000281,0.00000071,-0.00000139,-0.00000004
 ,-0.00000045,-0.00000009,-0.00000011,0.00000063,0.00000015,-0.00000018
 ,0.00000106,0.00000009,-0.00000002,-0.00000021,0.00000020,0.00000025,0
 .00008333,-0.00003595,0.00057878,-0.00010182,-0.00027276,-0.00289947,-
 0.00822536,-0.00018500,0.01257242,-0.00264815,0.00268560,0.00037256,-0
 .00144802,-0.00117169,0.00005110,0.00052780,0.00071415,0.00009369,-0.0
 0011407,-0.00031420,-0.00001925,-0.00044772,0.00000839,-0.00001345,0.0
 0008597,0.00006933,0.00000248,-0.00001999,-0.00002674,-0.00000180,-0.0
 0000334,0.00001502,0.00000086,-0.00040518,0.00079988,-0.00011249,0.000
 58112,0.00172141,0.00016975,0.00664016,0.00692782,-0.00063747,-0.22662
 566,-0.14646339,0.01990933,-0.01646007,-0.01885761,0.00241072,0.000046
 79,-0.00010273,-0.00002290,-0.00001687,-0.00000649,-0.00000240,-0.0000
 1507,-0.00000664,0.00000153,0.00000042,0.00000199,0.00000144,0.0000003
 6,0.00000220,-0.00000119,-0.00000016,-0.00000079,0.00000047,-0.0000064
 7,-0.00000138,-0.00000011,-0.00000009,-0.00000077,-0.00000062,0.000035
 75,-0.00009852,-0.00002112,0.00042099,0.00032075,-0.00001282,0.0010048
 3,0.00098721,-0.00028640,0.23749827,0.00310277,-0.00011983,0.00030792,
 0.00038426,0.00067097,-0.00001697,0.00004722,-0.00018305,-0.00005449,0
 .00000707,0.00003834,0.00000138,0.00013722,0.00002724,0.00001043,-0.00
 001556,-0.00002730,-0.00000019,0.00000753,0.00000811,0.00000070,0.0000
 0169,-0.00000498,-0.00000016,0.00097140,-0.00021178,-0.00009734,0.0021
 4412,-0.00478394,0.00054011,-0.02251774,-0.01529101,0.00241795,-0.1443
 5884,-0.18164285,0.01708579,0.01015073,0.01172639,-0.00107159,-0.00004
 276,0.00001265,0.00002034,0.00000361,0.00000203,0.00000087,0.00000238,
 0.00000227,-0.00000077,-0.00000020,-0.00000032,-0.00000030,-0.00000015
 ,-0.00000026,0.00000021,-0.00000001,0.00000017,-0.00000002,0.00000195,
 0.00000056,0.00000002,-0.00000007,0.00000015,0.00000007,-0.00007809,0.
 00004165,-0.00002275,-0.00135799,0.00065873,0.00007471,-0.00097738,0.0
 0054962,-0.00015436,0.15276631,0.18897619,0.00032865,0.00042101,0.0074
 6008,0.00007661,0.00004039,0.00005607,-0.00003919,-0.00000304,-0.00016
 453,0.00003215,0.00000963,0.00003063,0.00001632,-0.00000415,-0.0000103
 6,-0.00000444,-0.00000147,0.00000335,0.00000064,0.00000113,0.00000252,
 0.00000032,-0.00000089,0.00000011,-0.00005731,-0.00017123,-0.00109832,
 0.00018125,0.00055901,0.00548687,0.00120202,0.00072221,0.00288832,0.01
 983709,0.01716300,-0.03973381,0.00039743,0.00060530,0.00422194,0.00000
 011,-0.00000042,0.00002684,0.00000307,-0.00000093,-0.00000035,-0.00000
 081,0.00000068,-0.00000039,0.,-0.00000028,-0.00000024,-0.00000008,0.00
 000007,-0.00000002,0.00000025,0.00000016,-0.00000006,0.00000030,0.0000
 0003,-0.00000006,-0.00000019,-0.00000013,-0.00000005,-0.00001710,-0.00
 003214,-0.00047211,0.00008722,-0.00001034,0.00065208,-0.00017804,-0.00
 022072,-0.00239538,-0.02155177,-0.01877015,0.02791318,0.00687057,-0.02
 303816,0.00143981,0.00106003,-0.00260434,0.00020495,-0.00033642,-0.000
 36748,-0.00008059,0.00002286,0.00030884,0.00003090,0.00020505,-0.00000
 619,0.00001582,-0.00004821,-0.00002854,-0.00000296,0.00000929,0.000012
 17,0.00000048,0.00000201,-0.00000661,0.00000030,-0.00344819,-0.0030559
 5,0.00068674,-0.00130461,0.00003190,0.00004614,-0.00349955,0.00111206,
 0.00051097,-0.00143188,0.02993972,-0.00163620,-0.06873086,0.04921574,-
 0.00171947,-0.00203661,-0.00050279,0.00046035,0.00001047,0.00000356,0.
 00000159,0.00000894,0.00000431,-0.00000186,-0.00000023,-0.00000090,-0.
 00000043,-0.00000023,-0.00000050,0.00000023,0.00000012,0.00000036,-0.0
 0000037,0.00000305,0.00000060,0.00000002,0.,0.00000032,0.00000039,0.00
 045131,-0.00104897,0.00002665,-0.00009388,-0.00023087,-0.00000660,-0.0
 0118229,0.00128421,-0.00001561,0.00122895,-0.00050891,-0.00028041,0.07
 202163,0.00604545,-0.01403591,0.00092060,0.00163050,0.00144150,-0.0004
 2841,-0.00043717,0.00002563,-0.00012035,0.00011700,0.00035388,0.000045
 51,0.00003095,-0.00003835,0.00001370,-0.00001465,0.00000067,0.00000245
 ,-0.00000008,0.00000012,0.00000035,0.00000015,-0.00000086,0.00000049,-
 0.00324410,-0.00110157,0.00058714,-0.00052287,0.00050647,-0.00003638,0
 .00082390,0.00177307,0.00032203,0.00013770,-0.00457454,0.00052664,0.04
 668184,-0.33889314,0.01729860,-0.00131247,-0.00012896,0.00026160,0.000
 00662,0.00000028,-0.00000036,0.00000257,0.00000126,-0.00000090,-0.0000
 0023,0.00000040,0.00000056,-0.00000025,0.00000063,-0.00000093,0.000000
 37,0.00000005,-0.00000006,0.00000063,0.00000029,-0.00000002,0.00000011
 ,0.00000003,-0.00000003,0.00052928,-0.00058229,-0.00002139,-0.00009395
 ,0.00010211,-0.00003492,0.00023830,-0.00025119,0.00001054,-0.00003885,
 0.00057853,-0.00033895,-0.05068575,0.35503827,-0.00005394,0.00239264,0
 .00531309,0.00007026,-0.00000405,-0.00302776,-0.00019167,-0.00006769,-
 0.00081343,-0.00002186,0.00003937,0.00021532,0.00002997,-0.00004081,0.
 00008407,-0.00000683,-0.00000195,0.00007240,-0.00000109,-0.00000016,0.
 00000169,0.00000010,0.00000032,0.00000027,0.00062746,0.00052166,0.0054
 7181,0.00003608,-0.00004912,-0.00058976,0.00053792,0.00032959,0.007407
 10,0.00031938,-0.00102996,0.00412329,-0.00186125,0.01720358,-0.0394828
 6,0.00049234,0.00008721,0.00005116,0.00001513,0.00000083,-0.00000512,-
 0.00001296,0.00000140,-0.00000408,0.00000043,-0.00000120,-0.00000094,0
 .00000013,-0.00000017,-0.00000057,0.00000044,0.00000037,-0.00000023,0.
 00000007,-0.00000011,-0.00000032,-0.00000045,-0.00000056,-0.00000040,-
 0.00003028,0.00004646,-0.00039792,-0.00002606,-0.00004803,-0.00060311,
 0.00005193,-0.00005054,-0.00000029,-0.00030121,-0.00031714,-0.00459075
 ,0.00034670,-0.01901393,0.02683552,0.00094666,0.00012384,-0.00008413,0
 .00056936,-0.00013999,0.00000619,-0.00036988,-0.00041942,-0.00001303,-
 0.00003179,0.00020548,0.00001027,0.00015746,-0.00001465,-0.00000089,-0
 .00003655,-0.00002262,-0.00000351,0.00000594,0.00000779,0.00000085,0.0
 0000040,-0.00000474,0.00000016,-0.00427453,0.00402256,-0.00011263,-0.0
 1122098,-0.01050192,0.00186399,0.00332055,-0.00152055,0.00002232,-0.00
 102369,-0.00033283,0.00005126,0.00017008,0.00014450,-0.00000813,0.0000
 1471,0.00003380,0.00000151,0.00000860,0.00000168,0.00000349,0.00000895
 ,0.00000222,-0.00000320,-0.00000014,-0.00000025,0.00000063,-0.00000042
 ,0.00000014,-0.00000082,0.00000093,-0.00000024,-0.00000096,0.00000122,
 0.00000124,0.00000006,0.00000064,-0.00000032,0.00000074,0.00175767,0.0
 0277090,-0.00033031,-0.19082025,-0.10105706,0.01488433,0.00004402,-0.0
 0030495,0.00003932,0.00011437,-0.00032013,-0.00000469,0.00017293,0.000
 05067,-0.00000796,0.32749134,-0.00238109,0.00084742,0.00012110,0.00179
 768,-0.00018394,-0.00003465,-0.00159776,-0.00080264,-0.00000974,0.0006
 2463,0.00053837,0.00005631,0.00073695,-0.00020730,-0.00001326,-0.00018
 087,-0.00008746,-0.00000878,0.00002449,0.00003770,0.00000141,0.0000041
 3,-0.00002205,-0.00000093,-0.00081385,-0.00320103,0.00018050,-0.044197
 65,-0.02747014,0.00502399,0.00851792,-0.00672661,0.00010523,-0.0029683
 4,-0.00161462,0.00022935,0.00018851,-0.00063835,0.00005027,0.00008132,
 0.00011440,-0.00000910,0.00003274,0.00000960,0.00000319,0.00003399,0.0
 0000927,-0.00000203,-0.00000044,-0.00000354,-0.00000103,-0.00000038,-0
 .00000322,0.00000032,0.00000092,0.00000122,-0.00000154,0.00000978,0.00
 000250,0.00000019,0.00000082,0.00000094,0.00000166,0.00006815,-0.00463
 228,0.00044771,-0.08626513,-0.15357317,0.01073402,-0.00065881,0.000512
 75,0.00001985,0.00022295,-0.00078277,0.00001421,0.00006509,-0.00011978
 ,0.00000148,0.13768449,0.16767434,0.00011049,-0.00006840,-0.00000889,-
 0.00014714,0.00002077,0.00003551,0.00012952,0.00007221,0.00003539,-0.0
 0003668,-0.00005036,-0.00001525,-0.00005597,0.00001306,0.00000174,0.00
 001273,0.00000595,-0.00000458,-0.00000201,-0.00000245,-0.00000194,-0.0
 0000046,0.00000136,-0.00000015,0.00032245,-0.00017714,0.00016550,0.004
 02361,0.00306247,0.00745308,-0.00067132,0.00067364,0.00163958,0.000234
 47,0.00009167,-0.00046983,-0.00001992,0.00004260,0.00006267,-0.0000062
 1,-0.00000834,0.00001349,-0.00000216,-0.00000043,0.00000031,-0.0000024
 4,-0.00000113,0.00000064,-0.00000003,0.00000099,0.00000041,0.00000030,
 -0.00000038,0.00000036,-0.00000046,-0.00000029,0.00000023,-0.00000073,
 -0.00000021,-0.00000005,0.00000032,0.00000005,0.00000015,-0.00016892,0
 .00029732,-0.00003250,0.01383368,0.01181561,-0.06868726,0.00005444,-0.
 00000623,0.00026049,-0.00003464,0.00005731,-0.00022869,-0.00001547,0.0
 0000510,-0.00000582,-0.02467409,-0.01387521,0.08311234,0.00061540,0.00
 033044,0.00099622,-0.00043055,0.00023894,0.00004105,0.00059833,0.00017
 666,0.00000381,-0.00030483,-0.00011236,-0.00001537,-0.00031632,0.00009
 873,0.00000740,0.00007887,0.00003784,0.00000523,-0.00001072,-0.0000168
 8,-0.00000127,-0.00000239,0.00001025,0.00000070,0.00147536,0.00099058,
 -0.00055306,-0.00447170,0.01109499,-0.01890893,-0.00488144,0.00105989,
 -0.00007255,0.00020924,0.00078116,0.00073006,0.00005101,0.00048330,-0.
 00015060,-0.00006844,-0.00004368,-0.00003167,-0.00001219,-0.00000555,0
 .00000038,-0.00001331,-0.00000521,-0.00000093,-0.00000015,0.00000214,0
 .00000121,-0.00000019,0.00000175,-0.00000058,-0.00000011,-0.00000091,0
 .00000014,-0.00000500,-0.00000056,-0.00000022,0.00000016,-0.00000067,-
 0.00000010,0.00044260,-0.00033761,-0.00057629,-0.12445672,0.03912866,-
 0.07919863,0.00001154,-0.00377040,0.00160928,0.00001617,0.00023422,0.0
 0002275,0.00001877,0.00002366,-0.00011173,-0.06912881,-0.00935460,-0.0
 4653244,0.18437690,-0.00054683,-0.00106000,-0.00168598,0.00126301,-0.0
 0055612,-0.00017885,-0.00138269,-0.00066324,-0.00002851,0.00052298,0.0
 0042631,0.00003642,0.00066625,-0.00017560,-0.00001220,-0.00016391,-0.0
 0008138,-0.00000466,0.00002289,0.00003476,0.00000114,0.00000448,-0.000
 02043,-0.00000059,-0.00340891,-0.00326311,0.00207987,0.02712701,-0.011
 57909,0.03253867,0.00293388,0.00077558,-0.00064346,0.00004833,0.000169
 57,-0.00078107,0.00104846,-0.00069553,0.00023642,0.00015898,0.00009893
 ,0.00001203,0.00002897,0.00000954,0.00000251,0.00002975,0.00000925,-0.
 00000067,-0.00000035,-0.00000335,-0.00000131,-0.00000028,-0.00000300,0
 .00000074,0.00000055,0.00000140,-0.00000107,0.00000934,0.00000192,0.00
 000021,0.00000037,0.00000105,0.00000102,-0.00011414,0.00024866,0.00083
 702,0.03595621,-0.09896638,0.04898650,-0.00290098,-0.00192171,0.002000
 60,-0.00007249,-0.00011345,0.00001084,0.00005560,-0.00004285,0.0000553
 8,-0.01886005,0.01356481,-0.01603341,-0.03686894,0.08919681,-0.0000500
 5,0.00017126,0.00054624,-0.00084574,0.00049596,0.00010734,0.00095753,0
 .00039873,0.00002054,-0.00038771,-0.00025112,-0.00003236,-0.00047298,0
 .00013698,0.00001255,0.00011334,0.00005551,-0.00000401,-0.00001508,-0.
 00002385,-0.00000248,-0.00000353,0.00001470,0.00000098,0.00177845,0.00
 328936,-0.00127771,-0.01623509,0.00869059,-0.01024384,-0.00248512,-0.0
 0070876,0.00092890,0.00015186,0.00044378,0.00029931,-0.00026223,0.0002
 8213,-0.00011980,-0.00014118,-0.00006660,-0.00000089,-0.00001954,-0.00
 000663,-0.00000012,-0.00002105,-0.00000780,0.00000059,-0.00000059,0.00
 000383,0.00000185,-0.00000024,0.00000182,-0.00000046,-0.00000061,-0.00
 000138,0.00000059,-0.00000674,-0.00000114,-0.00000022,0.00000031,-0.00
 000048,-0.00000005,0.00041077,-0.00016215,-0.00028131,-0.07757843,0.05
 506428,-0.17047297,0.00218753,0.00102308,-0.00079727,0.00003906,0.0001
 2133,-0.00003358,-0.00000108,0.00005330,-0.00002717,-0.03676639,-0.010
 07645,-0.00472228,0.14222751,-0.05630800,0.27714025,0.00053933,0.00021
 952,-0.00097803,-0.00034764,0.00014468,-0.00003677,0.00050004,0.000136
 94,0.00002787,-0.00026597,-0.00009186,-0.00003778,-0.00026566,0.000082
 64,0.00000180,0.00006695,0.00003295,0.00000301,-0.00000847,-0.00001389
 ,-0.00000067,-0.00000175,0.00000854,0.00000074,0.00137890,0.00062810,0
 .00012346,-0.00078995,0.01253386,0.01649422,-0.00456277,0.00115003,0.0
 0055457,0.00011378,0.00062811,-0.00081592,0.00007043,0.00048381,0.0000
 8073,-0.00004502,-0.00003550,0.00001168,-0.00001149,-0.00000388,-0.000
 00037,-0.00001048,-0.00000402,-0.00000119,0.00000002,0.00000124,0.0000
 0063,-0.00000030,0.00000193,-0.00000086,0.00000010,-0.00000044,0.00000
 001,-0.00000417,-0.00000049,-0.00000003,-0.00000028,-0.00000064,-0.000
 00036,0.00044801,-0.00023969,0.00053826,-0.10780409,0.04140615,0.06687
 543,-0.00021024,-0.00392538,-0.00114446,0.00000891,0.00021539,-0.00005
 212,0.00002699,0.00003068,0.00009895,-0.05787878,-0.00167566,0.0536490
 9,0.01620853,-0.00555750,-0.01257297,0.15284508,-0.00039937,-0.0008923
 4,0.00184738,0.00143084,-0.00051050,0.00020389,-0.00150177,-0.00072391
 ,-0.00006538,0.00057670,0.00046923,0.00007347,0.00072580,-0.00019208,-
 0.00000892,-0.00017713,-0.00008893,-0.00001034,0.00002451,0.00003744,0
 .00000272,0.00000431,-0.00002191,-0.00000196,-0.00392199,-0.00386155,-
 0.00114236,0.02513450,-0.01739955,-0.03498351,0.00331047,0.00082978,0.
 00030742,0.00008449,0.00027669,0.00080098,0.00108649,-0.00077111,-0.00
 027092,0.00015208,0.00010113,0.00001069,0.00003154,0.00001015,0.000003
 28,0.00003203,0.00001052,-0.00000035,-0.00000026,-0.00000323,-0.000001
 11,-0.00000009,-0.00000398,0.00000094,0.00000045,0.00000118,-0.0000009
 0,0.00001020,0.00000215,0.00000013,0.00000084,0.00000130,0.00000144,-0
 .00025749,0.00014521,-0.00089343,0.03889612,-0.11439499,-0.06166706,-0
 .00333300,-0.00214049,-0.00142137,-0.00008072,-0.00013206,0.00000718,0
 .00005149,-0.00005376,-0.00005485,-0.01154959,0.01675563,0.01406386,-0
 .00417583,0.01460667,-0.00263227,-0.04615560,0.10794333,0.00008113,-0.
 00003772,0.00046601,0.00073315,-0.00040311,0.00009344,-0.00081646,-0.0
 0033378,-0.00004352,0.00034676,0.00021399,0.00005595,0.00040450,-0.000
 11610,-0.00000220,-0.00009845,-0.00004840,-0.00001159,0.00001317,0.000
 02010,0.00000059,0.00000259,-0.00001211,-0.00000108,-0.00157307,-0.003
 01267,-0.00047292,0.01188767,-0.00943539,-0.00822752,0.00265035,0.0005
 0980,0.00045016,-0.00017704,-0.00047182,0.00035650,0.00012555,-0.00025
 038,-0.00010037,0.00011690,0.00005348,0.00000817,0.00001843,0.00000626
 ,0.00000214,0.00001671,0.00000543,0.00000123,0.,-0.00000116,-0.0000003
 9,0.00000037,-0.00000331,0.00000108,-0.00000030,0.00000031,0.,0.000005
 70,0.00000100,0.00000008,0.00000076,0.00000120,0.00000094,-0.00045966,
 0.00013613,-0.00020831,0.06574146,-0.06811362,-0.17225786,-0.00179121,
 -0.00027696,0.00006502,-0.00003334,-0.00013289,-0.00001332,-0.00001099
 ,-0.00005197,-0.00002517,0.04512558,0.00704191,-0.01860465,0.00050864,
 -0.01111959,-0.09104261,-0.12281892,0.08583136,0.28951018\\0.00000086,
 -0.00000184,0.00000174,0.00000067,0.00000064,-0.00000122,-0.00000058,-
 0.00000099,-0.00000007,-0.00000096,0.00000109,-0.00000047,0.00000114,0
 .00000262,0.00000018,0.00000046,0.00000284,-0.00000101,0.00000187,0.00
 000417,-0.00000128,0.00000098,0.00000534,-0.00000157,-0.00000104,-0.00
 000188,0.00000021,-0.00000214,-0.00000287,0.00000213,-0.00000030,-0.00
 000419,0.00000115,0.00000052,-0.00000410,0.00000147,0.00000122,-0.0000
 0277,0.00000078,0.00000167,-0.00000094,0.00000059,0.00000038,0.0000031
 4,-0.00000098,-0.00000026,0.00000319,-0.00000118,0.00000196,0.00000369
 ,-0.00000119,0.00000275,0.00000389,-0.00000080,0.00000023,0.00000551,-
 0.00000202,0.00000195,0.00000588,-0.00000170,0.00000093,0.00000585,-0.
 00000162,-0.00000182,-0.00000083,-0.00000008,-0.00000261,-0.00000349,-
 0.00000101,-0.00000112,-0.00000625,0.00000179,0.00000150,-0.00000479,0
 .00000174,0.00000233,-0.00000229,0.00000109,-0.00000280,-0.00000261,0.
 00000071,-0.00000412,-0.00000419,0.00000105,-0.00000367,-0.00000383,0.
 00000160\\\@


 LOGIC IS A SYSTEMATIC METHOD OF COMING TO THE
 WRONG CONCLUSION WITH CONFIDENCE.
 Job cpu time:       0 days  4 hours 24 minutes 36.9 seconds.
 File lengths (MBytes):  RWF=    656 Int=      0 D2E=      0 Chk=     22 Scr=      1
 Normal termination of Gaussian 09 at Thu Nov 14 18:08:50 2019.
pbs_rusage has been removed.
Please contact help@nci.org.au if you require this functionality.
