 Entering Gaussian System, Link 0=/apps/gaussian/g16c01/g16/g16
 Initial command:
 /apps/gaussian/g16c01/g16/l1.exe "/jobfs/11742178.gadi-pbs/Gau-2819527.inp" -scrdir="/jobfs/11742178.gadi-pbs/"
 Entering Link 1 = /apps/gaussian/g16c01/g16/l1.exe PID=   2819575.
  
 Copyright (c) 1988-2019, Gaussian, Inc.  All Rights Reserved.
  
 This is part of the Gaussian(R) 16 program.  It is based on
 the Gaussian(R) 09 system (copyright 2009, Gaussian, Inc.),
 the Gaussian(R) 03 system (copyright 2003, Gaussian, Inc.),
 the Gaussian(R) 98 system (copyright 1998, Gaussian, Inc.),
 the Gaussian(R) 94 system (copyright 1995, Gaussian, Inc.),
 the Gaussian 92(TM) system (copyright 1992, Gaussian, Inc.),
 the Gaussian 90(TM) system (copyright 1990, Gaussian, Inc.),
 the Gaussian 88(TM) system (copyright 1988, Gaussian, Inc.),
 the Gaussian 86(TM) system (copyright 1986, Carnegie Mellon
 University), and the Gaussian 82(TM) system (copyright 1983,
 Carnegie Mellon University). Gaussian is a federally registered
 trademark of Gaussian, Inc.
  
 This software contains proprietary and confidential information,
 including trade secrets, belonging to Gaussian, Inc.
  
 This software is provided under written license and may be
 used, copied, transmitted, or stored only in accord with that
 written license.
  
 The following legend is applicable only to US Government
 contracts under FAR:
  
                    RESTRICTED RIGHTS LEGEND
  
 Use, reproduction and disclosure by the US Government is
 subject to restrictions as set forth in subparagraphs (a)
 and (c) of the Commercial Computer Software - Restricted
 Rights clause in FAR 52.227-19.
  
 Gaussian, Inc.
 340 Quinnipiac St., Bldg. 40, Wallingford CT 06492
  
  
 ---------------------------------------------------------------
 Warning -- This program may not be used in any manner that
 competes with the business of Gaussian, Inc. or will provide
 assistance to any competitor of Gaussian, Inc.  The licensee
 of this program is prohibited from giving any competitor of
 Gaussian, Inc. access to this program.  By using this program,
 the user acknowledges that Gaussian, Inc. is engaged in the
 business of creating and licensing software in the field of
 computational chemistry and represents and warrants to the
 licensee that it is not a competitor of Gaussian, Inc. and that
 it will not use this program in any manner prohibited above.
 ---------------------------------------------------------------
  

 Cite this work as:
 Gaussian 16, Revision C.01,
 M. J. Frisch, G. W. Trucks, H. B. Schlegel, G. E. Scuseria, 
 M. A. Robb, J. R. Cheeseman, G. Scalmani, V. Barone, 
 G. A. Petersson, H. Nakatsuji, X. Li, M. Caricato, A. V. Marenich, 
 J. Bloino, B. G. Janesko, R. Gomperts, B. Mennucci, H. P. Hratchian, 
 J. V. Ortiz, A. F. Izmaylov, J. L. Sonnenberg, D. Williams-Young, 
 F. Ding, F. Lipparini, F. Egidi, J. Goings, B. Peng, A. Petrone, 
 T. Henderson, D. Ranasinghe, V. G. Zakrzewski, J. Gao, N. Rega, 
 G. Zheng, W. Liang, M. Hada, M. Ehara, K. Toyota, R. Fukuda, 
 J. Hasegawa, M. Ishida, T. Nakajima, Y. Honda, O. Kitao, H. Nakai, 
 T. Vreven, K. Throssell, J. A. Montgomery, Jr., J. E. Peralta, 
 F. Ogliaro, M. J. Bearpark, J. J. Heyd, E. N. Brothers, K. N. Kudin, 
 V. N. Staroverov, T. A. Keith, R. Kobayashi, J. Normand, 
 K. Raghavachari, A. P. Rendell, J. C. Burant, S. S. Iyengar, 
 J. Tomasi, M. Cossi, J. M. Millam, M. Klene, C. Adamo, R. Cammi, 
 J. W. Ochterski, R. L. Martin, K. Morokuma, O. Farkas, 
 J. B. Foresman, and D. J. Fox, Gaussian, Inc., Wallingford CT, 2019.
 
 ******************************************
 Gaussian 16:  ES64L-G16RevC.01  3-Jul-2019
                27-Sep-2020 
 ******************************************
 %NprocShared=6
 Will use up to    6 processors via shared memory.
 %Mem=10000MB
 %chk=29CA_c2.M062X_6-311pGd_opt_GD3.chk
 ----------------------------------------------------------------------
 # M062X/6-311+G* SCF=Tight INT(grid=ultrafine) OPT IOP(2/17=4) Symmetr
 y=None EmpiricalDispersion=GD3 MaxDisk=10000MB
 ----------------------------------------------------------------------
 1/18=20,19=15,26=4,38=1/1,3;
 2/9=110,12=2,15=3,17=4,18=5,40=1/2;
 3/5=4,6=6,7=11,11=2,25=1,30=1,71=1,74=-55,75=-5,124=31/1,2,3;
 4//1;
 5/5=2,32=2,38=5/2;
 6/7=2,8=2,9=2,10=2,28=1/1;
 7/30=1/1,2,3,16;
 1/18=20,19=15,26=4/3(2);
 2/9=110,15=3,17=4/2;
 99//99;
 2/9=110,15=3,17=4/2;
 3/5=4,6=6,7=11,11=2,25=1,30=1,71=1,74=-55,75=-5,124=31/1,2,3;
 4/5=5,16=3,69=1/1;
 5/5=2,32=2,38=5/2;
 7/30=1/1,2,3,16;
 1/18=20,19=15,26=4/3(-5);
 2/9=110,15=3,17=4/2;
 6/7=2,8=2,9=2,10=2,19=2,28=1/1;
 99/9=1/99;
 ------------------------------
 29CA_c2.M062X_6-311pGd_opt_GD3
 ------------------------------
 Symbolic Z-matrix:
 Charge =  0 Multiplicity = 1
 C                    -6.18488   1.46657  -0.07687 
 N                    -4.92162   0.86214  -0.04326 
 C                    -3.70012   1.48541  -0.03068 
 O                    -3.50231   2.67281  -0.05037 
 O                    -2.73549   0.55111   0.00751 
 C                    -1.39052   1.05373   0.02501 
 C                    -0.45612  -0.13597   0.06658 
 C                     1.00149   0.31607   0.08786 
 C                    -7.2966    0.62125  -0.07634 
 C                    -8.58534   1.13275  -0.10805 
 C                    -8.77686   2.51405  -0.14101 
 C                    -7.67478   3.35574  -0.14224 
 C                    -6.38257   2.84845  -0.11069 
 H                    -4.8902   -0.1464   -0.02022 
 H                    -1.2661    1.69782   0.89896 
 H                    -1.23059   1.66431  -0.86703 
 H                    -0.64651  -0.76877  -0.80449 
 H                    -0.68247  -0.73539   0.95253 
 H                     1.24868   0.90117  -0.80127 
 H                     1.67621  -0.54026   0.11856 
 H                     1.21219   0.93569   0.96289 
 H                    -7.15815  -0.45345  -0.05071 
 C                    -9.75371   0.17955  -0.10551 
 Cl                   -10.36697   3.21271  -0.17948 
 H                    -7.8306    4.42722  -0.16817 
 H                    -5.53696   3.51924  -0.11195 
 F                    -9.34433  -1.09828  -0.07307 
 F                    -10.54501   0.36025   0.95812 
 F                    -10.51358   0.31556  -1.19829 
 

 GradGradGradGradGradGradGradGradGradGradGradGradGradGradGradGradGradGrad
 Berny optimization.
 Initialization pass.
                           ----------------------------
                           !    Initial Parameters    !
                           ! (Angstroms and Degrees)  !
 --------------------------                            --------------------------
 ! Name  Definition              Value          Derivative Info.                !
 --------------------------------------------------------------------------------
 ! R1    R(1,2)                  1.4008         estimate D2E/DX2                !
 ! R2    R(1,9)                  1.3966         estimate D2E/DX2                !
 ! R3    R(1,13)                 1.3964         estimate D2E/DX2                !
 ! R4    R(2,3)                  1.3714         estimate D2E/DX2                !
 ! R5    R(2,14)                 1.0093         estimate D2E/DX2                !
 ! R6    R(3,4)                  1.2039         estimate D2E/DX2                !
 ! R7    R(3,5)                  1.3435         estimate D2E/DX2                !
 ! R8    R(5,6)                  1.4359         estimate D2E/DX2                !
 ! R9    R(6,7)                  1.5133         estimate D2E/DX2                !
 ! R10   R(6,15)                 1.0928         estimate D2E/DX2                !
 ! R11   R(6,16)                 1.0928         estimate D2E/DX2                !
 ! R12   R(7,8)                  1.5262         estimate D2E/DX2                !
 ! R13   R(7,17)                 1.0934         estimate D2E/DX2                !
 ! R14   R(7,18)                 1.0934         estimate D2E/DX2                !
 ! R15   R(8,19)                 1.0927         estimate D2E/DX2                !
 ! R16   R(8,20)                 1.0906         estimate D2E/DX2                !
 ! R17   R(8,21)                 1.0927         estimate D2E/DX2                !
 ! R18   R(9,10)                 1.3869         estimate D2E/DX2                !
 ! R19   R(9,22)                 1.0839         estimate D2E/DX2                !
 ! R20   R(10,11)                1.3949         estimate D2E/DX2                !
 ! R21   R(10,23)                1.5079         estimate D2E/DX2                !
 ! R22   R(11,12)                1.3867         estimate D2E/DX2                !
 ! R23   R(11,24)                1.7373         estimate D2E/DX2                !
 ! R24   R(12,13)                1.3886         estimate D2E/DX2                !
 ! R25   R(12,25)                1.0831         estimate D2E/DX2                !
 ! R26   R(13,26)                1.0794         estimate D2E/DX2                !
 ! R27   R(23,27)                1.3422         estimate D2E/DX2                !
 ! R28   R(23,28)                1.338          estimate D2E/DX2                !
 ! R29   R(23,29)                1.3379         estimate D2E/DX2                !
 ! A1    A(2,1,9)              117.1734         estimate D2E/DX2                !
 ! A2    A(2,1,13)             123.7286         estimate D2E/DX2                !
 ! A3    A(9,1,13)             119.098          estimate D2E/DX2                !
 ! A4    A(1,2,3)              127.3992         estimate D2E/DX2                !
 ! A5    A(1,2,14)             117.3729         estimate D2E/DX2                !
 ! A6    A(3,2,14)             115.2269         estimate D2E/DX2                !
 ! A7    A(2,3,4)              126.4726         estimate D2E/DX2                !
 ! A8    A(2,3,5)              108.8895         estimate D2E/DX2                !
 ! A9    A(4,3,5)              124.6379         estimate D2E/DX2                !
 ! A10   A(3,5,6)              115.4329         estimate D2E/DX2                !
 ! A11   A(5,6,7)              107.6671         estimate D2E/DX2                !
 ! A12   A(5,6,15)             108.8269         estimate D2E/DX2                !
 ! A13   A(5,6,16)             108.8274         estimate D2E/DX2                !
 ! A14   A(7,6,15)             111.7832         estimate D2E/DX2                !
 ! A15   A(7,6,16)             111.7964         estimate D2E/DX2                !
 ! A16   A(15,6,16)            107.8706         estimate D2E/DX2                !
 ! A17   A(6,7,8)              110.9297         estimate D2E/DX2                !
 ! A18   A(6,7,17)             109.0016         estimate D2E/DX2                !
 ! A19   A(6,7,18)             108.9911         estimate D2E/DX2                !
 ! A20   A(8,7,17)             110.4155         estimate D2E/DX2                !
 ! A21   A(8,7,18)             110.413          estimate D2E/DX2                !
 ! A22   A(17,7,18)            106.9899         estimate D2E/DX2                !
 ! A23   A(7,8,19)             111.3025         estimate D2E/DX2                !
 ! A24   A(7,8,20)             111.0186         estimate D2E/DX2                !
 ! A25   A(7,8,21)             111.3007         estimate D2E/DX2                !
 ! A26   A(19,8,20)            107.6609         estimate D2E/DX2                !
 ! A27   A(19,8,21)            107.7193         estimate D2E/DX2                !
 ! A28   A(20,8,21)            107.6617         estimate D2E/DX2                !
 ! A29   A(1,9,10)             121.0942         estimate D2E/DX2                !
 ! A30   A(1,9,22)             119.8987         estimate D2E/DX2                !
 ! A31   A(10,9,22)            119.007          estimate D2E/DX2                !
 ! A32   A(9,10,11)            119.5601         estimate D2E/DX2                !
 ! A33   A(9,10,23)            119.1322         estimate D2E/DX2                !
 ! A34   A(11,10,23)           121.3077         estimate D2E/DX2                !
 ! A35   A(10,11,12)           119.4681         estimate D2E/DX2                !
 ! A36   A(10,11,24)           121.6302         estimate D2E/DX2                !
 ! A37   A(12,11,24)           118.9017         estimate D2E/DX2                !
 ! A38   A(11,12,13)           121.186          estimate D2E/DX2                !
 ! A39   A(11,12,25)           119.0876         estimate D2E/DX2                !
 ! A40   A(13,12,25)           119.7263         estimate D2E/DX2                !
 ! A41   A(1,13,12)            119.5935         estimate D2E/DX2                !
 ! A42   A(1,13,26)            120.2743         estimate D2E/DX2                !
 ! A43   A(12,13,26)           120.1321         estimate D2E/DX2                !
 ! A44   A(10,23,27)           111.4405         estimate D2E/DX2                !
 ! A45   A(10,23,28)           111.9764         estimate D2E/DX2                !
 ! A46   A(10,23,29)           111.9888         estimate D2E/DX2                !
 ! A47   A(27,23,28)           106.8432         estimate D2E/DX2                !
 ! A48   A(27,23,29)           106.8435         estimate D2E/DX2                !
 ! A49   A(28,23,29)           107.4386         estimate D2E/DX2                !
 ! D1    D(9,1,2,3)           -179.6589         estimate D2E/DX2                !
 ! D2    D(9,1,2,14)            -0.0307         estimate D2E/DX2                !
 ! D3    D(13,1,2,3)             0.3621         estimate D2E/DX2                !
 ! D4    D(13,1,2,14)          179.9903         estimate D2E/DX2                !
 ! D5    D(2,1,9,10)           179.9867         estimate D2E/DX2                !
 ! D6    D(2,1,9,22)            -0.0061         estimate D2E/DX2                !
 ! D7    D(13,1,9,10)           -0.0332         estimate D2E/DX2                !
 ! D8    D(13,1,9,22)          179.974          estimate D2E/DX2                !
 ! D9    D(2,1,13,12)         -179.9827         estimate D2E/DX2                !
 ! D10   D(2,1,13,26)           -0.007          estimate D2E/DX2                !
 ! D11   D(9,1,13,12)            0.0386         estimate D2E/DX2                !
 ! D12   D(9,1,13,26)         -179.9857         estimate D2E/DX2                !
 ! D13   D(1,2,3,4)             -0.2258         estimate D2E/DX2                !
 ! D14   D(1,2,3,5)            179.7871         estimate D2E/DX2                !
 ! D15   D(14,2,3,4)          -179.8609         estimate D2E/DX2                !
 ! D16   D(14,2,3,5)             0.1521         estimate D2E/DX2                !
 ! D17   D(2,3,5,6)           -179.9996         estimate D2E/DX2                !
 ! D18   D(4,3,5,6)              0.0131         estimate D2E/DX2                !
 ! D19   D(3,5,6,7)           -179.9582         estimate D2E/DX2                !
 ! D20   D(3,5,6,15)            58.7046         estimate D2E/DX2                !
 ! D21   D(3,5,6,16)           -58.6047         estimate D2E/DX2                !
 ! D22   D(5,6,7,8)           -179.9782         estimate D2E/DX2                !
 ! D23   D(5,6,7,17)            58.2395         estimate D2E/DX2                !
 ! D24   D(5,6,7,18)           -58.206          estimate D2E/DX2                !
 ! D25   D(15,6,7,8)           -60.5053         estimate D2E/DX2                !
 ! D26   D(15,6,7,17)          177.7124         estimate D2E/DX2                !
 ! D27   D(15,6,7,18)           61.267          estimate D2E/DX2                !
 ! D28   D(16,6,7,8)            60.5404         estimate D2E/DX2                !
 ! D29   D(16,6,7,17)          -61.2419         estimate D2E/DX2                !
 ! D30   D(16,6,7,18)         -177.6874         estimate D2E/DX2                !
 ! D31   D(6,7,8,19)           -60.1296         estimate D2E/DX2                !
 ! D32   D(6,7,8,20)           179.9585         estimate D2E/DX2                !
 ! D33   D(6,7,8,21)            60.0467         estimate D2E/DX2                !
 ! D34   D(17,7,8,19)           60.8218         estimate D2E/DX2                !
 ! D35   D(17,7,8,20)          -59.0901         estimate D2E/DX2                !
 ! D36   D(17,7,8,21)         -179.0019         estimate D2E/DX2                !
 ! D37   D(18,7,8,19)          178.9339         estimate D2E/DX2                !
 ! D38   D(18,7,8,20)           59.0219         estimate D2E/DX2                !
 ! D39   D(18,7,8,21)          -60.8899         estimate D2E/DX2                !
 ! D40   D(1,9,10,11)           -0.0023         estimate D2E/DX2                !
 ! D41   D(1,9,10,23)         -179.9751         estimate D2E/DX2                !
 ! D42   D(22,9,10,11)         179.9906         estimate D2E/DX2                !
 ! D43   D(22,9,10,23)           0.0178         estimate D2E/DX2                !
 ! D44   D(9,10,11,12)           0.0322         estimate D2E/DX2                !
 ! D45   D(9,10,11,24)        -179.9179         estimate D2E/DX2                !
 ! D46   D(23,10,11,12)       -179.9957         estimate D2E/DX2                !
 ! D47   D(23,10,11,24)          0.0542         estimate D2E/DX2                !
 ! D48   D(9,10,23,27)          -0.1035         estimate D2E/DX2                !
 ! D49   D(9,10,23,28)         119.5112         estimate D2E/DX2                !
 ! D50   D(9,10,23,29)        -119.7271         estimate D2E/DX2                !
 ! D51   D(11,10,23,27)        179.9243         estimate D2E/DX2                !
 ! D52   D(11,10,23,28)        -60.461          estimate D2E/DX2                !
 ! D53   D(11,10,23,29)         60.3007         estimate D2E/DX2                !
 ! D54   D(10,11,12,13)         -0.0267         estimate D2E/DX2                !
 ! D55   D(10,11,12,25)        179.985          estimate D2E/DX2                !
 ! D56   D(24,11,12,13)        179.9248         estimate D2E/DX2                !
 ! D57   D(24,11,12,25)         -0.0636         estimate D2E/DX2                !
 ! D58   D(11,12,13,1)          -0.0091         estimate D2E/DX2                !
 ! D59   D(11,12,13,26)       -179.9848         estimate D2E/DX2                !
 ! D60   D(25,12,13,1)         179.9792         estimate D2E/DX2                !
 ! D61   D(25,12,13,26)          0.0035         estimate D2E/DX2                !
 --------------------------------------------------------------------------------
 Trust Radius=3.00D-01 FncErr=1.00D-07 GrdErr=1.00D-06 EigMax=2.50D+02 EigMin=1.00D-04
 Number of steps in this run=    149 maximum allowed number of steps=    174.
 GradGradGradGradGradGradGradGradGradGradGradGradGradGradGradGradGradGrad

                          Input orientation:                          
 ---------------------------------------------------------------------
 Center     Atomic      Atomic             Coordinates (Angstroms)
 Number     Number       Type             X           Y           Z
 ---------------------------------------------------------------------
      1          6           0       -6.184884    1.466567   -0.076867
      2          7           0       -4.921623    0.862140   -0.043260
      3          6           0       -3.700119    1.485406   -0.030676
      4          8           0       -3.502310    2.672811   -0.050370
      5          8           0       -2.735486    0.551106    0.007507
      6          6           0       -1.390520    1.053734    0.025008
      7          6           0       -0.456120   -0.135965    0.066576
      8          6           0        1.001490    0.316071    0.087856
      9          6           0       -7.296603    0.621255   -0.076336
     10          6           0       -8.585336    1.132751   -0.108049
     11          6           0       -8.776860    2.514054   -0.141006
     12          6           0       -7.674776    3.355738   -0.142243
     13          6           0       -6.382571    2.848446   -0.110693
     14          1           0       -4.890204   -0.146400   -0.020225
     15          1           0       -1.266103    1.697823    0.898958
     16          1           0       -1.230590    1.664305   -0.867028
     17          1           0       -0.646509   -0.768774   -0.804493
     18          1           0       -0.682468   -0.735386    0.952532
     19          1           0        1.248679    0.901169   -0.801272
     20          1           0        1.676205   -0.540256    0.118558
     21          1           0        1.212189    0.935691    0.962894
     22          1           0       -7.158154   -0.453449   -0.050707
     23          6           0       -9.753714    0.179547   -0.105512
     24         17           0      -10.366968    3.212709   -0.179476
     25          1           0       -7.830598    4.427217   -0.168169
     26          1           0       -5.536958    3.519237   -0.111946
     27          9           0       -9.344331   -1.098275   -0.073067
     28          9           0      -10.545009    0.360246    0.958119
     29          9           0      -10.513578    0.315565   -1.198292
 ---------------------------------------------------------------------
                    Distance matrix (angstroms):
                    1          2          3          4          5
     1  C    0.000000
     2  N    1.400818   0.000000
     3  C    2.485265   1.371382   0.000000
     4  O    2.941417   2.300658   1.203930   0.000000
     5  O    3.569809   2.208736   1.343462   2.256767   0.000000
     6  C    4.813184   3.536956   2.350253   2.662095   1.435923
     7  C    5.950414   4.577007   3.627924   4.145138   2.381400
     8  C    7.279749   5.949676   4.846290   5.085031   3.745222
     9  C    1.396593   2.387394   3.699127   4.313493   4.562427
    10  C    2.423753   3.674265   4.898540   5.311523   5.879831
    11  C    2.796369   4.195382   5.181079   5.277717   6.354008
    12  C    2.406869   3.715869   4.394142   4.228984   5.681987
    13  C    1.396357   2.466643   3.009955   2.886242   4.311956
    14  H    2.069074   1.009292   2.019703   3.142468   2.264971
    15  H    5.019973   3.866389   2.614150   2.617718   2.066090
    16  H    5.020805   3.865978   2.613439   2.616242   2.066092
    17  H    6.016625   4.638529   3.873584   4.535284   2.601010
    18  H    6.015384   4.638332   3.873607   4.535760   2.600580
    19  H    7.490147   6.216811   5.042396   5.125862   4.080471
    20  H    8.115556   6.747165   5.747212   6.096667   4.546034
    21  H    7.488633   6.216221   5.041839   5.125503   4.079805
    22  H    2.152765   2.594784   3.964538   4.810270   4.535693
    23  C    3.793914   4.880462   6.193293   6.730487   7.028965
    24  Cl   4.533141   5.932581   6.888584   6.887067   8.084467
    25  H    3.388534   4.602989   5.072870   4.671820   6.404316
    26  H    2.152788   2.728282   2.741724   2.204546   4.083175
    27  F    4.069463   4.837816   6.207603   6.953475   6.812032
    28  F    4.615824   5.733858   7.006869   7.480951   7.869482
    29  F    4.617358   5.736097   7.011068   7.485467   7.874526
                    6          7          8          9         10
     6  C    0.000000
     7  C    1.513346   0.000000
     8  C    2.503958   1.526243   0.000000
     9  C    5.922763   6.883750   8.305326   0.000000
    10  C    7.196480   8.229477   9.623543   1.386891   0.000000
    11  C    7.531143   8.735011  10.024951   2.403754   1.394907
    12  C    6.694705   8.021508   9.196201   2.761296   2.402491
    13  C    5.306598   6.637843   7.808758   2.407699   2.792094
    14  H    3.700020   4.434945   5.910805   2.526500   3.911259
    15  H    1.092757   2.170647   2.776526   6.202994   7.409760
    16  H    1.092751   2.170806   2.776999   6.205615   7.412887
    17  H    2.136155   1.093370   2.165428   6.832726   8.193034
    18  H    2.136021   1.093369   2.165396   6.829775   8.189633
    19  H    2.769727   2.176040   1.092699   8.580544   9.861139
    20  H    3.457508   2.170936   1.090633   9.049773  10.399497
    21  H    2.769054   2.176025   1.092709   8.577786   9.857852
    22  H    5.961789   6.710575   8.197021   1.083888   2.134518
    23  C    8.409771   9.304537  10.757808   2.496668   1.507883
    24  Cl   9.234696  10.464180  11.734727   4.019131   2.739624
    25  H    7.272710   8.675291   9.745401   3.844338   3.380348
    26  H    4.826014   6.261573   7.283646   3.390564   3.871427
    27  F    8.240380   8.941244  10.443289   2.673945   2.356857
    28  F    9.228017  10.140353  11.579333   3.419118   2.360889
    29  F    9.234260  10.146736  11.586672   3.420696   2.361046
                   11         12         13         14         15
    11  C    0.000000
    12  C    1.386731   0.000000
    13  C    2.417717   1.388573   0.000000
    14  H    4.711550   4.475902   3.347304   0.000000
    15  H    7.626220   6.701036   5.340559   4.168952   0.000000
    16  H    7.628589   6.701775   5.340144   4.169952   1.766661
    17  H    8.793166   8.175984   6.816747   4.360203   3.061003
    18  H    8.790555   8.174851   6.816558   4.358692   2.502799
    19  H   10.175893   9.278324   7.905996   6.276410   3.138402
    20  H   10.893244  10.133491   8.745269   6.579674   3.778253
    21  H   10.173049   9.276643   7.905163   6.275080   2.593619
    22  H    3.381484   3.845150   3.392290   2.288844   6.343981
    23  C    2.530894   3.796251   4.299727   4.875166   8.680649
    24  Cl   1.737251   2.696246   4.001604   6.426813   9.288899
    25  H    2.134559   1.083060   2.143036   5.439281   7.188947
    26  H    3.392375   2.144276   1.079363   3.723386   4.751808
    27  F    3.657261   4.757145   4.934576   4.555009   8.603532
    28  F    2.995550   4.292087   4.965822   5.761135   9.375005
    29  F    2.994561   4.291467   4.966244   5.763992   9.582531
                   16         17         18         19         20
    16  H    0.000000
    17  H    2.502986   0.000000
    18  H    3.061006   1.757711   0.000000
    19  H    2.594895   2.525957   3.079524   0.000000
    20  H    3.779012   2.509830   2.509368   1.762547   0.000000
    21  H    3.137939   3.079548   2.526327   1.764881   1.762565
    22  H    6.347226   6.562708   6.559000   8.548286   8.836407
    23  C    8.684932   9.183086   9.178456  11.047963  11.454753
    24  Cl   9.292130  10.522840  10.519431  11.859726  12.617908
    25  H    7.189033   8.889002   8.888431   9.760487  10.730206
    26  H    4.749287   6.540883   6.542247   7.305773   8.280238
    27  F    8.607846   8.734739   8.729915  10.804626  11.036319
    28  F    9.580717  10.117400   9.923213  11.936463  12.283072
    29  F    9.386304   9.934280  10.118363  11.783517  12.290539
                   21         22         23         24         25
    21  H    0.000000
    22  H    8.545159   0.000000
    23  C   11.043743   2.672193   0.000000
    24  Cl  11.856082   4.873785   3.095420   0.000000
    25  H    9.759203   4.928172   4.663153   2.812175   0.000000
    26  H    7.306228   4.291184   5.379090   4.840198   2.467463
    27  F   10.800479   2.279401   1.342191   4.431895   5.729877
    28  F   11.771273   3.626378   1.337951   3.076096   5.017649
    29  F   11.939384   3.628664   1.337932   3.074561   5.016495
                   26         27         28         29
    26  H    0.000000
    27  F    5.984900   0.000000
    28  F    6.017046   2.152268   0.000000
    29  F    6.017509   2.152258   2.157103   0.000000
 Symmetry turned off by external request.
 Stoichiometry    C11H11ClF3NO2
 Rotational constants (GHZ):           0.9418585           0.1306362           0.1173289
 Standard basis: 6-311+G(d) (5D, 7F)
   437 basis functions,   720 primitive gaussians,   455 cartesian basis functions
    72 alpha electrons       72 beta electrons
       nuclear repulsion energy      1436.5059496589 Hartrees.
 NAtoms=   29 NActive=   29 NUniq=   29 SFac= 1.00D+00 NAtFMM=   60 NAOKFM=F Big=F
 Integral buffers will be    131072 words long.
 Raffenetti 2 integral format.
 Two-electron integral symmetry is turned off.
 Nuclear repulsion after empirical dispersion term =     1436.5047107280 Hartrees.
 One-electron integrals computed using PRISM.
 NBasis=   437 RedAO= T EigKep=  1.59D-06  NBF=   437
 NBsUse=   435 1.00D-06 EigRej=  8.40D-07 NBFU=   435
 ExpMin= 4.38D-02 ExpMax= 1.06D+05 ExpMxC= 3.62D+03 IAcc=3 IRadAn=         5 AccDes= 0.00D+00
 Harris functional with IExCor= 1009 and IRadAn=       5 diagonalized for initial guess.
 HarFok:  IExCor= 1009 AccDes= 0.00D+00 IRadAn=         5 IDoV= 1 UseB2=F ITyADJ=14
 ICtDFT=  3500011 ScaDFX=  1.000000  1.000000  1.000000  1.000000
 FoFCou: FMM=F IPFlag=           0 FMFlag=      100000 FMFlg1=           0
         NFxFlg=           0 DoJE=T BraDBF=F KetDBF=T FulRan=T
         wScrn=  0.000000 ICntrl=       500 IOpCl=  0 I1Cent=   200000004 NGrid=           0
         NMat0=    1 NMatS0=      1 NMatT0=    0 NMatD0=    1 NMtDS0=    0 NMtDT0=    0
 Symmetry not used in FoFCou.
 Requested convergence on RMS density matrix=1.00D-08 within 128 cycles.
 Requested convergence on MAX density matrix=1.00D-06.
 Requested convergence on             energy=1.00D-06.
 No special actions if energy rises.
 SCF Done:  E(RM062X) =  -1390.67129933     A.U. after   17 cycles
            NFock= 17  Conv=0.14D-08     -V/T= 2.0028

 **********************************************************************

            Population analysis using the SCF Density.

 **********************************************************************

 Alpha  occ. eigenvalues -- -102.68681 -25.28517 -25.27916 -25.27915 -19.68380
 Alpha  occ. eigenvalues --  -19.62325 -14.81243 -10.81211 -10.71930 -10.62812
 Alpha  occ. eigenvalues --  -10.62508 -10.60758 -10.59724 -10.58291 -10.57599
 Alpha  occ. eigenvalues --  -10.56992 -10.55148 -10.54125  -9.82956  -7.55480
 Alpha  occ. eigenvalues --   -7.54781  -7.54772  -1.47708  -1.38304  -1.37955
 Alpha  occ. eigenvalues --   -1.26451  -1.16530  -1.08803  -1.02185  -0.95799
 Alpha  occ. eigenvalues --   -0.91476  -0.90639  -0.86337  -0.82091  -0.80457
 Alpha  occ. eigenvalues --   -0.75362  -0.73612  -0.71559  -0.69945  -0.69867
 Alpha  occ. eigenvalues --   -0.69134  -0.66280  -0.65596  -0.60424  -0.60419
 Alpha  occ. eigenvalues --   -0.58739  -0.58142  -0.58086  -0.56717  -0.55728
 Alpha  occ. eigenvalues --   -0.55008  -0.53936  -0.53588  -0.52527  -0.52114
 Alpha  occ. eigenvalues --   -0.51739  -0.50290  -0.49777  -0.48091  -0.47244
 Alpha  occ. eigenvalues --   -0.46310  -0.45098  -0.44689  -0.44099  -0.42031
 Alpha  occ. eigenvalues --   -0.41802  -0.39232  -0.39019  -0.38326  -0.37928
 Alpha  occ. eigenvalues --   -0.34565  -0.29281
 Alpha virt. eigenvalues --   -0.01818  -0.00914  -0.00246   0.01257   0.01773
 Alpha virt. eigenvalues --    0.02719   0.02846   0.03179   0.03308   0.04628
 Alpha virt. eigenvalues --    0.04887   0.05006   0.06293   0.06303   0.06352
 Alpha virt. eigenvalues --    0.06961   0.07250   0.07392   0.07828   0.08137
 Alpha virt. eigenvalues --    0.08610   0.08724   0.09253   0.10197   0.11046
 Alpha virt. eigenvalues --    0.11565   0.11698   0.12645   0.12971   0.13019
 Alpha virt. eigenvalues --    0.13218   0.14455   0.14565   0.14595   0.15882
 Alpha virt. eigenvalues --    0.16235   0.17386   0.17443   0.17817   0.17867
 Alpha virt. eigenvalues --    0.18523   0.19037   0.19461   0.19540   0.20020
 Alpha virt. eigenvalues --    0.20294   0.20533   0.20602   0.21064   0.22048
 Alpha virt. eigenvalues --    0.22341   0.22492   0.22774   0.23106   0.23782
 Alpha virt. eigenvalues --    0.23974   0.24806   0.25227   0.25336   0.25752
 Alpha virt. eigenvalues --    0.25813   0.26341   0.27001   0.27397   0.27682
 Alpha virt. eigenvalues --    0.28278   0.28383   0.29046   0.29695   0.30299
 Alpha virt. eigenvalues --    0.30506   0.30648   0.31053   0.31232   0.31590
 Alpha virt. eigenvalues --    0.31881   0.32691   0.33323   0.34013   0.35054
 Alpha virt. eigenvalues --    0.35070   0.36618   0.37654   0.37853   0.37919
 Alpha virt. eigenvalues --    0.38798   0.39836   0.40066   0.40643   0.41941
 Alpha virt. eigenvalues --    0.42313   0.42364   0.42943   0.43141   0.44910
 Alpha virt. eigenvalues --    0.45626   0.46476   0.46587   0.47671   0.48464
 Alpha virt. eigenvalues --    0.48921   0.49605   0.50499   0.51277   0.52256
 Alpha virt. eigenvalues --    0.53527   0.54207   0.55682   0.56162   0.57161
 Alpha virt. eigenvalues --    0.57818   0.58519   0.59172   0.61108   0.61730
 Alpha virt. eigenvalues --    0.62483   0.62575   0.63554   0.63794   0.63914
 Alpha virt. eigenvalues --    0.65373   0.66423   0.66700   0.67731   0.68564
 Alpha virt. eigenvalues --    0.69379   0.69723   0.70924   0.71478   0.71795
 Alpha virt. eigenvalues --    0.72373   0.72523   0.73098   0.74639   0.75495
 Alpha virt. eigenvalues --    0.76414   0.76477   0.77884   0.78104   0.79404
 Alpha virt. eigenvalues --    0.80204   0.81444   0.83760   0.84367   0.87885
 Alpha virt. eigenvalues --    0.89551   0.90185   0.91358   0.92055   0.92649
 Alpha virt. eigenvalues --    0.93658   0.94334   0.95143   0.95762   0.96469
 Alpha virt. eigenvalues --    0.96615   1.00108   1.01597   1.02411   1.04089
 Alpha virt. eigenvalues --    1.04136   1.04708   1.06460   1.09537   1.09565
 Alpha virt. eigenvalues --    1.10201   1.10827   1.11968   1.13420   1.13978
 Alpha virt. eigenvalues --    1.17857   1.17903   1.21320   1.21436   1.22178
 Alpha virt. eigenvalues --    1.23674   1.24430   1.28012   1.30655   1.31189
 Alpha virt. eigenvalues --    1.31941   1.33527   1.35963   1.37905   1.38297
 Alpha virt. eigenvalues --    1.40458   1.42014   1.43004   1.45705   1.47279
 Alpha virt. eigenvalues --    1.48328   1.48848   1.49752   1.50171   1.52925
 Alpha virt. eigenvalues --    1.53286   1.53321   1.55314   1.57084   1.57296
 Alpha virt. eigenvalues --    1.58018   1.58859   1.59824   1.60034   1.61800
 Alpha virt. eigenvalues --    1.62406   1.63500   1.66055   1.67726   1.70446
 Alpha virt. eigenvalues --    1.72682   1.74228   1.77179   1.77465   1.78859
 Alpha virt. eigenvalues --    1.79100   1.80037   1.81114   1.83172   1.84520
 Alpha virt. eigenvalues --    1.85665   1.86550   1.87217   1.89632   1.91793
 Alpha virt. eigenvalues --    1.93266   1.95747   1.96752   1.98222   1.98526
 Alpha virt. eigenvalues --    2.01301   2.05816   2.08001   2.08037   2.08303
 Alpha virt. eigenvalues --    2.11723   2.16430   2.17860   2.20912   2.21788
 Alpha virt. eigenvalues --    2.27302   2.31589   2.31635   2.33047   2.36098
 Alpha virt. eigenvalues --    2.37764   2.39675   2.42450   2.48502   2.49619
 Alpha virt. eigenvalues --    2.51009   2.53746   2.54960   2.55224   2.57430
 Alpha virt. eigenvalues --    2.58949   2.60526   2.61547   2.64304   2.68847
 Alpha virt. eigenvalues --    2.69880   2.72533   2.73126   2.80031   2.80908
 Alpha virt. eigenvalues --    2.84377   2.85830   2.91750   2.92031   2.92141
 Alpha virt. eigenvalues --    2.95985   3.00763   3.01698   3.02786   3.03863
 Alpha virt. eigenvalues --    3.03955   3.05816   3.09582   3.11301   3.11432
 Alpha virt. eigenvalues --    3.17251   3.17420   3.20293   3.22522   3.24156
 Alpha virt. eigenvalues --    3.28021   3.28714   3.28947   3.33809   3.37520
 Alpha virt. eigenvalues --    3.38752   3.40401   3.44112   3.44173   3.52826
 Alpha virt. eigenvalues --    3.54897   3.68205   3.70570   3.72075   3.76325
 Alpha virt. eigenvalues --    3.80090   3.81344   3.83828   3.84279   3.86369
 Alpha virt. eigenvalues --    3.86426   3.88336   3.90335   3.96465   3.96806
 Alpha virt. eigenvalues --    3.99941   4.01189   4.02703   4.07372   4.09709
 Alpha virt. eigenvalues --    4.11276   4.18178   4.22834   4.27735   4.32596
 Alpha virt. eigenvalues --    4.55546   4.76212   4.81076   4.98736   5.02160
 Alpha virt. eigenvalues --    5.07768   5.09416   5.15549   5.36548   5.49707
 Alpha virt. eigenvalues --    5.79789   5.95443   6.44244   6.48425   6.49698
 Alpha virt. eigenvalues --    6.52398   6.55914   6.57532   6.63121   6.88229
 Alpha virt. eigenvalues --    6.91083  10.00224  23.44015  23.56302  23.64991
 Alpha virt. eigenvalues --   23.71111  23.80573  23.91884  23.92844  23.94764
 Alpha virt. eigenvalues --   24.07302  24.11892  24.18955  25.95608  26.30678
 Alpha virt. eigenvalues --   26.81688  35.65121  50.01297  50.13414  66.88545
 Alpha virt. eigenvalues --   66.91279  66.97064 216.11148
          Condensed to atoms (all electrons):
               1          2          3          4          5          6
     1  C   18.691038  -0.214417  -1.501807  -0.359705  -0.351182  -0.628042
     2  N   -0.214417   7.596140   0.218625   0.009192  -0.213739  -0.274391
     3  C   -1.501807   0.218625   8.340264   0.496025   0.323243  -0.562095
     4  O   -0.359705   0.009192   0.496025   8.051407  -0.200128  -0.185380
     5  O   -0.351182  -0.213739   0.323243  -0.200128   8.332837   0.356873
     6  C   -0.628042  -0.274391  -0.562095  -0.185380   0.356873   8.037287
     7  C   -0.042270   0.024641   0.091054   0.033381  -0.161390  -0.870814
     8  C   -0.011165  -0.004435  -0.230504   0.001015   0.029851   0.302357
     9  C    3.762332  -0.104763   0.599854  -0.077791   0.002419   0.206907
    10  C   -5.077267   0.179625  -0.599727  -0.039745   0.012779  -0.031714
    11  C   -2.581137  -0.006583  -0.657383   0.020171  -0.006563  -0.060091
    12  C   -1.707554   0.100301  -0.595899   0.201884  -0.002112  -0.161497
    13  C   -1.992979  -0.073801   0.017797   0.342951  -0.001226  -0.356643
    14  H   -0.125327   0.268695   0.011183   0.000123   0.023749  -0.003545
    15  H    0.011213   0.004507   0.044689  -0.002285  -0.044249   0.352639
    16  H    0.010548   0.004632   0.044114  -0.002232  -0.044350   0.353114
    17  H    0.000384  -0.000903   0.007847  -0.000298   0.000727  -0.063402
    18  H    0.000164  -0.000880   0.007007  -0.000298   0.000748  -0.063262
    19  H   -0.000143  -0.000049  -0.001365  -0.000069  -0.000451  -0.047381
    20  H    0.000110   0.000042   0.007851   0.000031  -0.000634   0.089293
    21  H   -0.000122  -0.000051  -0.001025  -0.000070  -0.000456  -0.047127
    22  H   -0.039043  -0.015948  -0.015720   0.000073  -0.000997  -0.001517
    23  C   -1.841772   0.016508  -0.100899  -0.001887   0.002014  -0.003853
    24  Cl   0.184557   0.001986  -0.020111   0.000048   0.000052  -0.000774
    25  H    0.013406  -0.001752   0.000214   0.000091   0.000021  -0.000048
    26  H    0.053771  -0.026030   0.102845   0.004190   0.001935   0.011870
    27  F    0.092141   0.001395  -0.004216   0.000001   0.000011  -0.000062
    28  F   -0.001594   0.000676   0.000019   0.000001   0.000001  -0.000001
    29  F   -0.001314   0.000675   0.000021   0.000001   0.000001  -0.000000
               7          8          9         10         11         12
     1  C   -0.042270  -0.011165   3.762332  -5.077267  -2.581137  -1.707554
     2  N    0.024641  -0.004435  -0.104763   0.179625  -0.006583   0.100301
     3  C    0.091054  -0.230504   0.599854  -0.599727  -0.657383  -0.595899
     4  O    0.033381   0.001015  -0.077791  -0.039745   0.020171   0.201884
     5  O   -0.161390   0.029851   0.002419   0.012779  -0.006563  -0.002112
     6  C   -0.870814   0.302357   0.206907  -0.031714  -0.060091  -0.161497
     7  C    6.464429  -0.126184  -0.004056  -0.009563   0.001323   0.003647
     8  C   -0.126184   6.052278   0.003914  -0.000112  -0.000493  -0.002811
     9  C   -0.004056   0.003914  13.914780   0.901197  -6.562670  -1.138469
    10  C   -0.009563  -0.000112   0.901197  34.146817 -13.168653  -4.454037
    11  C    0.001323  -0.000493  -6.562670 -13.168653  33.332582   2.365010
    12  C    0.003647  -0.002811  -1.138469  -4.454037   2.365010  14.613887
    13  C    0.009183  -0.015247  -3.689048  -3.132635  -3.880441  -2.298963
    14  H   -0.000922  -0.000548   0.019631   0.031800  -0.011623   0.002798
    15  H   -0.027902  -0.014210   0.000290   0.000274  -0.000018  -0.000459
    16  H   -0.027229  -0.014290   0.000337   0.000248  -0.000013  -0.000412
    17  H    0.440718  -0.045219   0.000040   0.000029  -0.000000   0.000015
    18  H    0.441657  -0.045229   0.000082   0.000025   0.000000   0.000015
    19  H    0.013664   0.379938   0.000005  -0.000001   0.000000   0.000001
    20  H   -0.135043   0.390979  -0.000024  -0.000001   0.000000   0.000003
    21  H    0.013146   0.379826   0.000004  -0.000001   0.000000   0.000001
    22  H    0.000049  -0.000002   0.353183   0.031622  -0.047957  -0.032248
    23  C   -0.000857  -0.000030  -2.267254  -1.995735  -1.475474  -1.276103
    24  Cl  -0.000018  -0.000003   0.486755   0.031274  -1.340972   0.389876
    25  H   -0.000001  -0.000000  -0.025184   0.068237  -0.052047   0.282118
    26  H   -0.000264   0.000063   0.023848  -0.034612  -0.004315  -0.133730
    27  F    0.000001  -0.000000   0.277276  -0.317633  -0.223215  -0.018380
    28  F    0.000000   0.000000   0.011947   0.286438  -0.180844   0.021203
    29  F    0.000000   0.000000   0.013396   0.283670  -0.180007   0.021611
              13         14         15         16         17         18
     1  C   -1.992979  -0.125327   0.011213   0.010548   0.000384   0.000164
     2  N   -0.073801   0.268695   0.004507   0.004632  -0.000903  -0.000880
     3  C    0.017797   0.011183   0.044689   0.044114   0.007847   0.007007
     4  O    0.342951   0.000123  -0.002285  -0.002232  -0.000298  -0.000298
     5  O   -0.001226   0.023749  -0.044249  -0.044350   0.000727   0.000748
     6  C   -0.356643  -0.003545   0.352639   0.353114  -0.063402  -0.063262
     7  C    0.009183  -0.000922  -0.027902  -0.027229   0.440718   0.441657
     8  C   -0.015247  -0.000548  -0.014210  -0.014290  -0.045219  -0.045229
     9  C   -3.689048   0.019631   0.000290   0.000337   0.000040   0.000082
    10  C   -3.132635   0.031800   0.000274   0.000248   0.000029   0.000025
    11  C   -3.880441  -0.011623  -0.000018  -0.000013  -0.000000   0.000000
    12  C   -2.298963   0.002798  -0.000459  -0.000412   0.000015   0.000015
    13  C   19.781377   0.043898  -0.002645  -0.002574   0.000071   0.000040
    14  H    0.043898   0.321153   0.000011   0.000014   0.000005   0.000002
    15  H   -0.002645   0.000011   0.450717  -0.040864   0.005490  -0.007907
    16  H   -0.002574   0.000014  -0.040864   0.450631  -0.007905   0.005485
    17  H    0.000071   0.000005   0.005490  -0.007905   0.445348  -0.036892
    18  H    0.000040   0.000002  -0.007907   0.005485  -0.036892   0.445319
    19  H    0.000008   0.000000  -0.000564   0.003757  -0.008128   0.006155
    20  H    0.000064   0.000000  -0.000202  -0.000201  -0.003269  -0.003275
    21  H    0.000006   0.000000   0.003768  -0.000562   0.006157  -0.008107
    22  H    0.002225   0.005311  -0.000000  -0.000000  -0.000000  -0.000000
    23  C    1.187846   0.008520   0.000002   0.000002   0.000001   0.000000
    24  Cl  -0.387555   0.000147  -0.000000  -0.000000   0.000000   0.000000
    25  H    0.031977  -0.000004  -0.000000  -0.000000   0.000000   0.000000
    26  H    0.331530  -0.000226  -0.000028  -0.000028  -0.000000  -0.000000
    27  F   -0.009338   0.000050  -0.000000  -0.000000   0.000000   0.000000
    28  F    0.010404  -0.000011  -0.000000   0.000000   0.000000  -0.000000
    29  F    0.010564  -0.000011   0.000000  -0.000000  -0.000000   0.000000
              19         20         21         22         23         24
     1  C   -0.000143   0.000110  -0.000122  -0.039043  -1.841772   0.184557
     2  N   -0.000049   0.000042  -0.000051  -0.015948   0.016508   0.001986
     3  C   -0.001365   0.007851  -0.001025  -0.015720  -0.100899  -0.020111
     4  O   -0.000069   0.000031  -0.000070   0.000073  -0.001887   0.000048
     5  O   -0.000451  -0.000634  -0.000456  -0.000997   0.002014   0.000052
     6  C   -0.047381   0.089293  -0.047127  -0.001517  -0.003853  -0.000774
     7  C    0.013664  -0.135043   0.013146   0.000049  -0.000857  -0.000018
     8  C    0.379938   0.390979   0.379826  -0.000002  -0.000030  -0.000003
     9  C    0.000005  -0.000024   0.000004   0.353183  -2.267254   0.486755
    10  C   -0.000001  -0.000001  -0.000001   0.031622  -1.995735   0.031274
    11  C    0.000000   0.000000   0.000000  -0.047957  -1.475474  -1.340972
    12  C    0.000001   0.000003   0.000001  -0.032248  -1.276103   0.389876
    13  C    0.000008   0.000064   0.000006   0.002225   1.187846  -0.387555
    14  H    0.000000   0.000000   0.000000   0.005311   0.008520   0.000147
    15  H   -0.000564  -0.000202   0.003768  -0.000000   0.000002  -0.000000
    16  H    0.003757  -0.000201  -0.000562  -0.000000   0.000002  -0.000000
    17  H   -0.008128  -0.003269   0.006157  -0.000000   0.000001   0.000000
    18  H    0.006155  -0.003275  -0.008107  -0.000000   0.000000   0.000000
    19  H    0.457750  -0.024929  -0.037852  -0.000000  -0.000000  -0.000000
    20  H   -0.024929   0.429744  -0.024953   0.000000   0.000000   0.000000
    21  H   -0.037852  -0.024953   0.457796  -0.000000  -0.000000  -0.000000
    22  H   -0.000000   0.000000  -0.000000   0.399902   0.079306  -0.000565
    23  C   -0.000000   0.000000  -0.000000   0.079306  13.185697  -0.426927
    24  Cl  -0.000000   0.000000  -0.000000  -0.000565  -0.426927  17.637670
    25  H   -0.000000  -0.000000   0.000000   0.000054   0.021809  -0.015564
    26  H   -0.000000   0.000000  -0.000000  -0.000148   0.000321   0.000184
    27  F   -0.000000  -0.000000  -0.000000   0.012922   0.323286   0.012170
    28  F   -0.000000  -0.000000  -0.000000   0.000093   0.015155  -0.012004
    29  F   -0.000000  -0.000000  -0.000000   0.000102   0.014910  -0.012297
              25         26         27         28         29
     1  C    0.013406   0.053771   0.092141  -0.001594  -0.001314
     2  N   -0.001752  -0.026030   0.001395   0.000676   0.000675
     3  C    0.000214   0.102845  -0.004216   0.000019   0.000021
     4  O    0.000091   0.004190   0.000001   0.000001   0.000001
     5  O    0.000021   0.001935   0.000011   0.000001   0.000001
     6  C   -0.000048   0.011870  -0.000062  -0.000001  -0.000000
     7  C   -0.000001  -0.000264   0.000001   0.000000   0.000000
     8  C   -0.000000   0.000063  -0.000000   0.000000   0.000000
     9  C   -0.025184   0.023848   0.277276   0.011947   0.013396
    10  C    0.068237  -0.034612  -0.317633   0.286438   0.283670
    11  C   -0.052047  -0.004315  -0.223215  -0.180844  -0.180007
    12  C    0.282118  -0.133730  -0.018380   0.021203   0.021611
    13  C    0.031977   0.331530  -0.009338   0.010404   0.010564
    14  H   -0.000004  -0.000226   0.000050  -0.000011  -0.000011
    15  H   -0.000000  -0.000028  -0.000000  -0.000000   0.000000
    16  H   -0.000000  -0.000028  -0.000000   0.000000  -0.000000
    17  H    0.000000  -0.000000   0.000000   0.000000  -0.000000
    18  H    0.000000  -0.000000   0.000000  -0.000000   0.000000
    19  H   -0.000000  -0.000000  -0.000000  -0.000000  -0.000000
    20  H   -0.000000   0.000000  -0.000000  -0.000000  -0.000000
    21  H    0.000000  -0.000000  -0.000000  -0.000000  -0.000000
    22  H    0.000054  -0.000148   0.012922   0.000093   0.000102
    23  C    0.021809   0.000321   0.323286   0.015155   0.014910
    24  Cl  -0.015564   0.000184   0.012170  -0.012004  -0.012297
    25  H    0.400039  -0.002803   0.000027   0.000015   0.000015
    26  H   -0.002803   0.362601  -0.000006  -0.000001  -0.000001
    27  F    0.000027  -0.000006   9.071403  -0.037930  -0.037872
    28  F    0.000015  -0.000001  -0.037930   8.965178  -0.051174
    29  F    0.000015  -0.000001  -0.037872  -0.051174   8.965378
 Mulliken charges:
               1
     1  C   -0.342826
     2  N   -0.489901
     3  C   -0.021903
     4  O   -0.290697
     5  O   -0.059784
     6  C   -0.348703
     7  C   -0.130380
     8  C   -1.029739
     9  C   -0.708936
    10  C   -1.112598
    11  C    0.721412
    12  C   -0.179696
    13  C    0.073155
    14  H    0.405128
    15  H    0.267733
    16  H    0.267780
    17  H    0.259185
    18  H    0.259152
    19  H    0.259651
    20  H    0.274415
    21  H    0.259622
    22  H    0.269303
    23  C    0.535413
    24  Cl   0.472072
    25  H    0.279379
    26  H    0.309034
    27  F   -0.142031
    28  F   -0.027569
    29  F   -0.027668
 Sum of Mulliken charges =  -0.00000
 Mulliken charges with hydrogens summed into heavy atoms:
               1
     1  C   -0.342826
     2  N   -0.084774
     3  C   -0.021903
     4  O   -0.290697
     5  O   -0.059784
     6  C    0.186809
     7  C    0.387956
     8  C   -0.236051
     9  C   -0.439632
    10  C   -1.112598
    11  C    0.721412
    12  C    0.099683
    13  C    0.382188
    23  C    0.535413
    24  Cl   0.472072
    27  F   -0.142031
    28  F   -0.027569
    29  F   -0.027668
 Electronic spatial extent (au):  <R**2>=          30132.4259
 Charge=             -0.0000 electrons
 Dipole moment (field-independent basis, Debye):
    X=              4.8450    Y=             -1.2470    Z=              0.1083  Tot=              5.0040
 Quadrupole moment (field-independent basis, Debye-Ang):
   XX=           -171.2398   YY=           -112.5103   ZZ=           -113.2594
   XY=              4.5962   XZ=             -0.7392   YZ=             -0.0381
 Traceless Quadrupole moment (field-independent basis, Debye-Ang):
   XX=            -38.9033   YY=             19.8262   ZZ=             19.0771
   XY=              4.5962   XZ=             -0.7392   YZ=             -0.0381
 Octapole moment (field-independent basis, Debye-Ang**2):
  XXX=           2786.7554  YYY=           -435.0316  ZZZ=             24.0956  XYY=            677.5110
  XXY=           -170.1897  XXZ=             15.4811  XZZ=            712.7180  YZZ=           -152.1979
  YYZ=              6.8999  XYZ=              0.8420
 Hexadecapole moment (field-independent basis, Debye-Ang**3):
 XXXX=         -43127.3367 YYYY=          -2343.3816 ZZZZ=           -210.6797 XXXY=           3366.4770
 XXXZ=           -317.5094 YYYX=           2999.0641 YYYZ=             43.9671 ZZZX=           -242.1415
 ZZZY=             51.9640 XXYY=          -6095.7413 XXZZ=          -6079.5823 YYZZ=           -455.0836
 XXYZ=              8.9813 YYXZ=            -69.8474 ZZXY=           1097.8596
 N-N= 1.436504710728D+03 E-N=-6.151629497288D+03  KE= 1.386776433231D+03
 Calling FoFJK, ICntrl=      2127 FMM=F ISym2X=0 I1Cent= 0 IOpClX= 0 NMat=1 NMatS=1 NMatT=0.
 -------------------------------------------------------------------
 Center     Atomic                   Forces (Hartrees/Bohr)
 Number     Number              X              Y              Z
 -------------------------------------------------------------------
      1        6           0.000017045    0.000003446   -0.000009407
      2        7           0.000017839    0.000024038    0.000031768
      3        6           0.000000802   -0.000047916   -0.000018377
      4        8          -0.000029590    0.000033570    0.000002173
      5        8           0.000011693    0.000000385    0.000001748
      6        6          -0.000017896    0.000014814   -0.000002865
      7        6          -0.000009530   -0.000015645   -0.000000144
      8        6           0.000004945    0.000002431    0.000000149
      9        6          -0.000017511    0.000004081   -0.000000372
     10        6          -0.000027106    0.000034330   -0.000000956
     11        6           0.000031482   -0.000037894    0.000000602
     12        6          -0.000015142    0.000021761   -0.000000768
     13        6           0.000005484   -0.000030694    0.000002042
     14        1           0.000002498    0.000015653   -0.000009203
     15        1          -0.000001026   -0.000005719   -0.000005821
     16        1          -0.000001364   -0.000006044    0.000007288
     17        1           0.000000616    0.000000580    0.000004195
     18        1           0.000001101    0.000001207   -0.000004820
     19        1           0.000003399   -0.000002423    0.000003893
     20        1           0.000003942    0.000004767   -0.000000579
     21        1           0.000004275   -0.000002584   -0.000005179
     22        1          -0.000001005    0.000012419    0.000000638
     23        6           0.000044739    0.000015998    0.000001113
     24       17          -0.000000408    0.000003412    0.000000827
     25        1           0.000006397   -0.000007781   -0.000000183
     26        1           0.000016930    0.000002825   -0.000000914
     27        9          -0.000025190   -0.000025630    0.000001327
     28        9          -0.000013536   -0.000006709   -0.000004368
     29        9          -0.000013883   -0.000006679    0.000006193
 -------------------------------------------------------------------
 Cartesian Forces:  Max     0.000047916 RMS     0.000015024

 GradGradGradGradGradGradGradGradGradGradGradGradGradGradGradGradGradGrad
 Berny optimization.
 FormGI is forming the generalized inverse of G from B-inverse, IUseBI=4.
 Internal  Forces:  Max     0.000056670 RMS     0.000013979
 Search for a local minimum.
 Step number   1 out of a maximum of  149
 All quantities printed in internal units (Hartrees-Bohrs-Radians)
 Mixed Optimization -- En-DIIS/RFO-DIIS
 Second derivative matrix not updated -- first step.
 ITU=  0
     Eigenvalues ---    0.00419   0.00589   0.00662   0.01217   0.01584
     Eigenvalues ---    0.01681   0.01872   0.02000   0.02070   0.02148
     Eigenvalues ---    0.02181   0.02190   0.02193   0.02202   0.02223
     Eigenvalues ---    0.02237   0.02252   0.02440   0.03810   0.04967
     Eigenvalues ---    0.05391   0.05503   0.05538   0.05720   0.08125
     Eigenvalues ---    0.10664   0.10828   0.11291   0.12022   0.13617
     Eigenvalues ---    0.16000   0.16000   0.16000   0.16000   0.16000
     Eigenvalues ---    0.16000   0.16000   0.21882   0.21941   0.22000
     Eigenvalues ---    0.22375   0.23484   0.24606   0.25000   0.25000
     Eigenvalues ---    0.25000   0.25000   0.25000   0.25000   0.25000
     Eigenvalues ---    0.25000   0.25000   0.29773   0.31017   0.31564
     Eigenvalues ---    0.31756   0.34426   0.34426   0.34496   0.34497
     Eigenvalues ---    0.34501   0.34503   0.34740   0.35529   0.35627
     Eigenvalues ---    0.36071   0.40150   0.42664   0.42871   0.45485
     Eigenvalues ---    0.46091   0.46346   0.46640   0.47579   0.47749
     Eigenvalues ---    0.50712   0.56436   0.56717   0.57667   0.57671
     Eigenvalues ---    1.02873
 RFO step:  Lambda=-1.11486816D-07 EMin= 4.18807772D-03
 Linear search not attempted -- first point.
 Iteration  1 RMS(Cart)=  0.00058410 RMS(Int)=  0.00000006
 Iteration  2 RMS(Cart)=  0.00000014 RMS(Int)=  0.00000001
 Variable       Old X    -DE/DX   Delta X   Delta X   Delta X     New X
                                 (Linear)    (Quad)   (Total)
    R1        2.64716  -0.00002   0.00000  -0.00003  -0.00003   2.64713
    R2        2.63918   0.00002   0.00000   0.00005   0.00005   2.63923
    R3        2.63873  -0.00003   0.00000  -0.00007  -0.00007   2.63866
    R4        2.59154  -0.00003   0.00000  -0.00007  -0.00007   2.59147
    R5        1.90729  -0.00002   0.00000  -0.00003  -0.00003   1.90725
    R6        2.27510   0.00003   0.00000   0.00003   0.00003   2.27512
    R7        2.53878   0.00000   0.00000   0.00001   0.00001   2.53878
    R8        2.71350  -0.00001   0.00000  -0.00003  -0.00003   2.71347
    R9        2.85981   0.00001   0.00000   0.00004   0.00004   2.85985
   R10        2.06501  -0.00001   0.00000  -0.00002  -0.00002   2.06499
   R11        2.06500  -0.00001   0.00000  -0.00003  -0.00003   2.06497
   R12        2.88418   0.00002   0.00000   0.00006   0.00006   2.88424
   R13        2.06617  -0.00000   0.00000  -0.00001  -0.00001   2.06616
   R14        2.06617  -0.00000   0.00000  -0.00001  -0.00001   2.06615
   R15        2.06490  -0.00000   0.00000  -0.00001  -0.00001   2.06489
   R16        2.06100  -0.00000   0.00000  -0.00000  -0.00000   2.06099
   R17        2.06492  -0.00000   0.00000  -0.00001  -0.00001   2.06491
   R18        2.62084   0.00001   0.00000   0.00002   0.00002   2.62086
   R19        2.04825  -0.00001   0.00000  -0.00003  -0.00003   2.04822
   R20        2.63599  -0.00002   0.00000  -0.00005  -0.00005   2.63594
   R21        2.84949   0.00002   0.00000   0.00007   0.00007   2.84955
   R22        2.62054   0.00000   0.00000   0.00000   0.00000   2.62054
   R23        3.28293   0.00000   0.00000   0.00001   0.00001   3.28293
   R24        2.62402  -0.00000   0.00000  -0.00000  -0.00000   2.62402
   R25        2.04669  -0.00001   0.00000  -0.00002  -0.00002   2.04666
   R26        2.03970   0.00001   0.00000   0.00004   0.00004   2.03974
   R27        2.53637   0.00002   0.00000   0.00003   0.00003   2.53640
   R28        2.52836   0.00000   0.00000   0.00000   0.00000   2.52837
   R29        2.52833   0.00000   0.00000   0.00000   0.00000   2.52833
    A1        2.04506   0.00006   0.00000   0.00022   0.00022   2.04528
    A2        2.15947  -0.00006   0.00000  -0.00023  -0.00023   2.15924
    A3        2.07865   0.00000   0.00000   0.00000   0.00000   2.07866
    A4        2.22354  -0.00005   0.00000  -0.00021  -0.00021   2.22333
    A5        2.04854   0.00003   0.00000   0.00012   0.00012   2.04867
    A6        2.01109   0.00002   0.00000   0.00009   0.00009   2.01118
    A7        2.20736  -0.00005   0.00000  -0.00021  -0.00021   2.20716
    A8        1.90048   0.00002   0.00000   0.00010   0.00010   1.90058
    A9        2.17534   0.00003   0.00000   0.00011   0.00011   2.17545
   A10        2.01468  -0.00000   0.00000  -0.00001  -0.00001   2.01467
   A11        1.87914   0.00000   0.00000   0.00002   0.00002   1.87916
   A12        1.89939  -0.00000   0.00000  -0.00001  -0.00001   1.89938
   A13        1.89940  -0.00000   0.00000   0.00000   0.00000   1.89940
   A14        1.95098  -0.00000   0.00000  -0.00001  -0.00001   1.95098
   A15        1.95122  -0.00000   0.00000  -0.00000  -0.00000   1.95121
   A16        1.88270   0.00000   0.00000   0.00000   0.00000   1.88270
   A17        1.93609  -0.00000   0.00000   0.00000   0.00000   1.93609
   A18        1.90244   0.00000   0.00000   0.00001   0.00001   1.90244
   A19        1.90225   0.00000   0.00000   0.00001   0.00001   1.90226
   A20        1.92711   0.00000   0.00000   0.00000   0.00000   1.92711
   A21        1.92707  -0.00000   0.00000  -0.00000  -0.00000   1.92707
   A22        1.86733  -0.00000   0.00000  -0.00002  -0.00002   1.86731
   A23        1.94260   0.00000   0.00000   0.00002   0.00002   1.94262
   A24        1.93764   0.00001   0.00000   0.00004   0.00004   1.93768
   A25        1.94256   0.00000   0.00000   0.00003   0.00003   1.94259
   A26        1.87904  -0.00001   0.00000  -0.00004  -0.00004   1.87900
   A27        1.88006  -0.00000   0.00000  -0.00003  -0.00003   1.88003
   A28        1.87905  -0.00001   0.00000  -0.00004  -0.00004   1.87901
   A29        2.11349   0.00000   0.00000   0.00002   0.00002   2.11352
   A30        2.09263  -0.00000   0.00000  -0.00002  -0.00002   2.09261
   A31        2.07706  -0.00000   0.00000  -0.00001  -0.00001   2.07706
   A32        2.08672  -0.00002   0.00000  -0.00007  -0.00007   2.08664
   A33        2.07925   0.00001   0.00000   0.00006   0.00006   2.07931
   A34        2.11722   0.00000   0.00000   0.00002   0.00002   2.11724
   A35        2.08511   0.00002   0.00000   0.00008   0.00008   2.08519
   A36        2.12285  -0.00001   0.00000  -0.00002  -0.00002   2.12283
   A37        2.07523  -0.00001   0.00000  -0.00005  -0.00005   2.07517
   A38        2.11510  -0.00001   0.00000  -0.00003  -0.00003   2.11507
   A39        2.07847   0.00001   0.00000   0.00005   0.00005   2.07852
   A40        2.08962  -0.00000   0.00000  -0.00002  -0.00002   2.08960
   A41        2.08730   0.00000   0.00000   0.00000   0.00000   2.08730
   A42        2.09918  -0.00001   0.00000  -0.00005  -0.00005   2.09913
   A43        2.09670   0.00001   0.00000   0.00005   0.00005   2.09675
   A44        1.94500   0.00005   0.00000   0.00023   0.00023   1.94524
   A45        1.95436   0.00001   0.00000   0.00003   0.00003   1.95439
   A46        1.95457   0.00001   0.00000   0.00003   0.00003   1.95460
   A47        1.86477  -0.00003   0.00000  -0.00008  -0.00008   1.86468
   A48        1.86477  -0.00003   0.00000  -0.00008  -0.00008   1.86469
   A49        1.87516  -0.00002   0.00000  -0.00014  -0.00014   1.87501
    D1       -3.13564  -0.00000   0.00000  -0.00023  -0.00023  -3.13587
    D2       -0.00054   0.00000   0.00000   0.00024   0.00024  -0.00029
    D3        0.00632  -0.00000   0.00000  -0.00024  -0.00024   0.00608
    D4        3.14142   0.00000   0.00000   0.00023   0.00023  -3.14153
    D5        3.14136  -0.00000   0.00000  -0.00001  -0.00001   3.14135
    D6       -0.00011   0.00000   0.00000   0.00000   0.00000  -0.00010
    D7       -0.00058  -0.00000   0.00000  -0.00000  -0.00000  -0.00058
    D8        3.14114   0.00000   0.00000   0.00001   0.00001   3.14115
    D9       -3.14129   0.00000   0.00000   0.00001   0.00001  -3.14128
   D10       -0.00012   0.00000   0.00000   0.00002   0.00002  -0.00010
   D11        0.00067   0.00000   0.00000   0.00000   0.00000   0.00067
   D12       -3.14134   0.00000   0.00000   0.00001   0.00001  -3.14133
   D13       -0.00394   0.00001   0.00000   0.00039   0.00039  -0.00355
   D14        3.13788   0.00000   0.00000   0.00016   0.00016   3.13804
   D15       -3.13916  -0.00000   0.00000  -0.00007  -0.00007  -3.13923
   D16        0.00265  -0.00001   0.00000  -0.00030  -0.00030   0.00235
   D17       -3.14159   0.00000   0.00000   0.00021   0.00021  -3.14138
   D18        0.00023  -0.00000   0.00000  -0.00002  -0.00002   0.00021
   D19       -3.14086   0.00000   0.00000   0.00007   0.00007  -3.14079
   D20        1.02459   0.00000   0.00000   0.00007   0.00007   1.02466
   D21       -1.02284   0.00000   0.00000   0.00007   0.00007  -1.02277
   D22       -3.14121   0.00000   0.00000   0.00002   0.00002  -3.14119
   D23        1.01647   0.00000   0.00000   0.00001   0.00001   1.01648
   D24       -1.01589   0.00000   0.00000   0.00002   0.00002  -1.01586
   D25       -1.05602   0.00000   0.00000   0.00001   0.00001  -1.05601
   D26        3.10167  -0.00000   0.00000   0.00001   0.00001   3.10167
   D27        1.06931   0.00000   0.00000   0.00002   0.00002   1.06933
   D28        1.05663  -0.00000   0.00000   0.00001   0.00001   1.05664
   D29       -1.06887  -0.00000   0.00000   0.00000   0.00000  -1.06887
   D30       -3.10123  -0.00000   0.00000   0.00001   0.00001  -3.10122
   D31       -1.04946   0.00000   0.00000   0.00002   0.00002  -1.04943
   D32        3.14087   0.00000   0.00000   0.00003   0.00003   3.14089
   D33        1.04801   0.00000   0.00000   0.00002   0.00002   1.04804
   D34        1.06154   0.00000   0.00000   0.00003   0.00003   1.06158
   D35       -1.03132   0.00000   0.00000   0.00003   0.00003  -1.03128
   D36       -3.12417   0.00000   0.00000   0.00003   0.00003  -3.12414
   D37        3.12299  -0.00000   0.00000   0.00001   0.00001   3.12300
   D38        1.03013  -0.00000   0.00000   0.00002   0.00002   1.03014
   D39       -1.06273  -0.00000   0.00000   0.00001   0.00001  -1.06272
   D40       -0.00004   0.00000   0.00000   0.00000   0.00000  -0.00004
   D41       -3.14116   0.00000   0.00000   0.00001   0.00001  -3.14114
   D42        3.14143  -0.00000   0.00000  -0.00001  -0.00001   3.14142
   D43        0.00031  -0.00000   0.00000  -0.00000  -0.00000   0.00031
   D44        0.00056  -0.00000   0.00000   0.00000   0.00000   0.00056
   D45       -3.14016   0.00000   0.00000   0.00002   0.00002  -3.14014
   D46       -3.14152  -0.00000   0.00000  -0.00001  -0.00001  -3.14153
   D47        0.00095   0.00000   0.00000   0.00001   0.00001   0.00096
   D48       -0.00181  -0.00000   0.00000  -0.00001  -0.00001  -0.00182
   D49        2.08586   0.00001   0.00000   0.00006   0.00006   2.08593
   D50       -2.08963  -0.00001   0.00000  -0.00008  -0.00008  -2.08971
   D51        3.14027   0.00000   0.00000  -0.00000  -0.00000   3.14027
   D52       -1.05524   0.00001   0.00000   0.00007   0.00007  -1.05517
   D53        1.05245  -0.00001   0.00000  -0.00007  -0.00007   1.05237
   D54       -0.00047  -0.00000   0.00000  -0.00000  -0.00000  -0.00047
   D55        3.14133  -0.00000   0.00000  -0.00000  -0.00000   3.14133
   D56        3.14028  -0.00000   0.00000  -0.00002  -0.00002   3.14025
   D57       -0.00111  -0.00000   0.00000  -0.00002  -0.00002  -0.00113
   D58       -0.00016   0.00000   0.00000   0.00000   0.00000  -0.00015
   D59       -3.14133  -0.00000   0.00000  -0.00001  -0.00001  -3.14134
   D60        3.14123   0.00000   0.00000   0.00000   0.00000   3.14123
   D61        0.00006  -0.00000   0.00000  -0.00001  -0.00001   0.00005
         Item               Value     Threshold  Converged?
 Maximum Force            0.000057     0.000450     YES
 RMS     Force            0.000014     0.000300     YES
 Maximum Displacement     0.002256     0.001800     NO 
 RMS     Displacement     0.000584     0.001200     YES
 Predicted change in Energy=-5.574312D-08
 GradGradGradGradGradGradGradGradGradGradGradGradGradGradGradGradGradGrad

                          Input orientation:                          
 ---------------------------------------------------------------------
 Center     Atomic      Atomic             Coordinates (Angstroms)
 Number     Number       Type             X           Y           Z
 ---------------------------------------------------------------------
      1          6           0       -6.184888    1.465936   -0.076759
      2          7           0       -4.921687    0.861431   -0.043050
      3          6           0       -3.700298    1.484846   -0.030690
      4          8           0       -3.502897    2.672335   -0.050331
      5          8           0       -2.735442    0.550771    0.007487
      6          6           0       -1.390617    1.053727    0.025031
      7          6           0       -0.455883   -0.135741    0.066488
      8          6           0        1.001634    0.316694    0.087833
      9          6           0       -7.296875    0.620933   -0.076252
     10          6           0       -8.585477    1.132781   -0.108052
     11          6           0       -8.776519    2.514122   -0.141078
     12          6           0       -7.674208    3.355511   -0.142297
     13          6           0       -6.382157    2.847835   -0.110654
     14          1           0       -4.890213   -0.147093   -0.020175
     15          1           0       -1.266371    1.697753    0.899037
     16          1           0       -1.230845    1.664418   -0.866933
     17          1           0       -0.646089   -0.768515   -0.804639
     18          1           0       -0.682075   -0.735318    0.952369
     19          1           0        1.248694    0.901971   -0.801206
     20          1           0        1.676616   -0.539424    0.118428
     21          1           0        1.212192    0.936260    0.962934
     22          1           0       -7.158727   -0.453789   -0.050559
     23          6           0       -9.754195    0.179938   -0.105523
     24         17           0      -10.366402    3.213292   -0.179627
     25          1           0       -7.829689    4.427025   -0.168278
     26          1           0       -5.536292    3.518344   -0.111901
     27          9           0       -9.345525   -1.098127   -0.073007
     28          9           0      -10.545549    0.360973    0.958011
     29          9           0      -10.514044    0.316193   -1.198287
 ---------------------------------------------------------------------
                    Distance matrix (angstroms):
                    1          2          3          4          5
     1  C    0.000000
     2  N    1.400799   0.000000
     3  C    2.485089   1.371347   0.000000
     4  O    2.940948   2.300520   1.203944   0.000000
     5  O    3.569776   2.208785   1.343466   2.256848   0.000000
     6  C    4.813035   3.536957   2.350232   2.662197   1.435907
     7  C    5.950410   4.577091   3.627944   4.145266   2.381422
     8  C    7.279694   5.949757   4.846318   5.085168   3.745262
     9  C    1.396619   2.387563   3.699160   4.313141   4.562740
    10  C    2.423798   3.674399   4.898460   5.310949   5.880050
    11  C    2.796316   4.195322   5.180696   5.276775   6.353851
    12  C    2.406837   3.715731   4.393609   4.227886   5.681585
    13  C    1.396320   2.466444   3.009402   2.885235   4.311495
    14  H    2.069117   1.009274   2.019711   3.142408   2.265130
    15  H    5.019733   3.866303   2.614139   2.617853   2.066059
    16  H    5.020589   3.865991   2.613378   2.616286   2.066068
    17  H    6.016716   4.638694   3.873606   4.535392   2.601050
    18  H    6.015444   4.638403   3.873655   4.535917   2.600604
    19  H    7.490061   6.216916   5.042416   5.125975   4.080523
    20  H    8.115590   6.747301   5.747270   6.096821   4.546107
    21  H    7.488545   6.216275   5.041903   5.125692   4.079865
    22  H    2.152764   2.595035   3.964774   4.810171   4.536293
    23  C    3.794018   4.880724   6.193388   6.730068   7.029451
    24  Cl   4.533089   5.932522   6.888153   6.886005   8.084279
    25  H    3.388480   4.602783   5.072200   4.670544   6.403717
    26  H    2.152740   2.727942   2.740909   2.203229   4.082340
    27  F    4.069897   4.838502   6.208231   6.953647   6.813115
    28  F    4.615957   5.734144   7.007003   7.480515   7.870025
    29  F    4.617502   5.736402   7.011146   7.485011   7.874996
                    6          7          8          9         10
     6  C    0.000000
     7  C    1.513368   0.000000
     8  C    2.504003   1.526273   0.000000
     9  C    5.922959   6.884192   8.305705   0.000000
    10  C    7.196524   8.229818   9.623776   1.386901   0.000000
    11  C    7.530730   8.734864  10.024638   2.403688   1.394881
    12  C    6.694006   8.021013   9.195521   2.761278   2.402523
    13  C    5.305912   6.637306   7.808102   2.407692   2.792138
    14  H    3.700160   4.435191   5.911060   2.526862   3.911620
    15  H    1.092745   2.170652   2.776549   6.203039   7.409637
    16  H    1.092736   2.170810   2.777031   6.205703   7.412769
    17  H    2.136174   1.093363   2.165450   6.833305   8.193536
    18  H    2.136041   1.093362   2.165417   6.830304   8.190119
    19  H    2.769776   2.176080   1.092693   8.580867   9.861270
    20  H    3.457568   2.170993   1.090630   9.050296  10.399909
    21  H    2.769129   2.176069   1.092703   8.578085   9.857988
    22  H    5.962333   6.711406   8.197823   1.083869   2.134508
    23  C    8.410112   9.305259  10.758437   2.496750   1.507918
    24  Cl   9.234193  10.463985  11.734311   4.019080   2.739588
    25  H    7.271736   8.674501   9.744367   3.844306   3.380368
    26  H    4.824905   6.260568   7.282509   3.390562   3.871493
    27  F    8.241398   8.942672  10.444678   2.674350   2.357085
    28  F    9.228388  10.141149  11.580009   3.419235   2.360945
    29  F    9.234575  10.147438  11.587275   3.420820   2.361101
                   11         12         13         14         15
    11  C    0.000000
    12  C    1.386732   0.000000
    13  C    2.417697   1.388572   0.000000
    14  H    4.711694   4.475911   3.347189   0.000000
    15  H    7.625655   6.700217   5.339797   4.169009   0.000000
    16  H    7.627979   6.700882   5.339330   4.170077   1.766642
    17  H    8.793174   8.175619   6.816310   4.360520   3.061003
    18  H    8.790592   8.174539   6.816153   4.358930   2.502814
    19  H   10.175446   9.277510   7.905260   6.276681   3.138415
    20  H   10.893095  10.132936   8.744703   6.579998   3.778291
    21  H   10.172651   9.275904   7.904483   6.275308   2.593690
    22  H    3.381411   3.845114   3.392255   2.289354   6.344346
    23  C    2.530915   3.796309   4.299807   4.875711   8.680787
    24  Cl   1.737254   2.696207   4.001565   6.426995   9.288215
    25  H    2.134578   1.083047   2.143014   5.439210   7.187852
    26  H    3.392401   2.144323   1.079385   3.723071   4.750660
    27  F    3.657424   4.757415   4.934935   4.555992   8.604332
    28  F    2.995583   4.292148   4.965920   5.761754   9.375159
    29  F    2.994592   4.291531   4.966351   5.764552   9.582637
                   16         17         18         19         20
    16  H    0.000000
    17  H    2.502995   0.000000
    18  H    3.061004   1.757690   0.000000
    19  H    2.594949   2.526012   3.079547   0.000000
    20  H    3.779046   2.509879   2.509433   1.762517   0.000000
    21  H    3.138002   3.079574   2.526367   1.764851   1.762534
    22  H    6.347681   6.563699   6.559889   8.549052   8.837374
    23  C    8.685098   9.184004   9.179335  11.048478  11.455613
    24  Cl   9.291383  10.522828  10.519464  11.859132  12.617686
    25  H    7.187827   8.888346   8.887858   9.759285  10.729289
    26  H    4.748051   6.539964   6.541386   7.304559   8.279165
    27  F    8.608717   8.736367   8.731460  10.805930  11.037952
    28  F    9.580872  10.118398   9.924213  11.936988  12.284011
    29  F    9.386442   9.935194  10.119220  11.784007  12.291379
                   21         22         23         24         25
    21  H    0.000000
    22  H    8.545858   0.000000
    23  C   11.044241   2.672281   0.000000
    24  Cl  11.855554   4.873738   3.095404   0.000000
    25  H    9.758108   4.928123   4.663197   2.812151   0.000000
    26  H    7.305098   4.291142   5.379191   4.840207   2.467498
    27  F   10.801726   2.279860   1.342207   4.431917   5.730108
    28  F   11.771807   3.626515   1.337953   3.076042   5.017689
    29  F   11.939848   3.628816   1.337935   3.074516   5.016535
                   26         27         28         29
    26  H    0.000000
    27  F    5.985280   0.000000
    28  F    6.017172   2.152215   0.000000
    29  F    6.017643   2.152206   2.156993   0.000000
 Symmetry turned off by external request.
 Stoichiometry    C11H11ClF3NO2
 Rotational constants (GHZ):           0.9419851           0.1306315           0.1173268
 Standard basis: 6-311+G(d) (5D, 7F)
   437 basis functions,   720 primitive gaussians,   455 cartesian basis functions
    72 alpha electrons       72 beta electrons
       nuclear repulsion energy      1436.5105731973 Hartrees.
 NAtoms=   29 NActive=   29 NUniq=   29 SFac= 1.00D+00 NAtFMM=   60 NAOKFM=F Big=F
 Integral buffers will be    131072 words long.
 Raffenetti 2 integral format.
 Two-electron integral symmetry is turned off.
 Nuclear repulsion after empirical dispersion term =     1436.5093342525 Hartrees.
 One-electron integrals computed using PRISM.
 NBasis=   437 RedAO= T EigKep=  1.59D-06  NBF=   437
 NBsUse=   435 1.00D-06 EigRej=  8.40D-07 NBFU=   435
 Initial guess from the checkpoint file:  "29CA_c2.M062X_6-311pGd_opt_GD3.chk"
 B after Tr=    -0.000288   -0.000694    0.000093
         Rot=    1.000000    0.000012    0.000002    0.000032 Ang=   0.00 deg.
 Requested convergence on RMS density matrix=1.00D-08 within 128 cycles.
 Requested convergence on MAX density matrix=1.00D-06.
 Requested convergence on             energy=1.00D-06.
 No special actions if energy rises.
 SCF Done:  E(RM062X) =  -1390.67129936     A.U. after    9 cycles
            NFock=  9  Conv=0.42D-08     -V/T= 2.0028
 Calling FoFJK, ICntrl=      2127 FMM=F ISym2X=0 I1Cent= 0 IOpClX= 0 NMat=1 NMatS=1 NMatT=0.
 -------------------------------------------------------------------
 Center     Atomic                   Forces (Hartrees/Bohr)
 Number     Number              X              Y              Z
 -------------------------------------------------------------------
      1        6          -0.000006782   -0.000006742   -0.000010846
      2        7           0.000005150   -0.000008576    0.000017576
      3        6          -0.000002402   -0.000026864    0.000016435
      4        8           0.000035719    0.000007021   -0.000008765
      5        8          -0.000009031    0.000012983   -0.000008756
      6        6          -0.000001394    0.000003792   -0.000001774
      7        6           0.000000822   -0.000002034   -0.000000308
      8        6          -0.000003838    0.000000090   -0.000000483
      9        6           0.000005614    0.000000748    0.000000851
     10        6          -0.000010939   -0.000007121    0.000000513
     11        6           0.000006581   -0.000006847    0.000000823
     12        6          -0.000007492    0.000002756   -0.000000082
     13        6          -0.000011788    0.000019708   -0.000000013
     14        1          -0.000000933   -0.000001839   -0.000006380
     15        1           0.000001210   -0.000000850    0.000000455
     16        1           0.000001457   -0.000001057   -0.000000270
     17        1           0.000000435    0.000000053   -0.000000141
     18        1           0.000000521    0.000000382   -0.000000085
     19        1          -0.000000079   -0.000000467   -0.000001083
     20        1          -0.000000087   -0.000000857   -0.000000503
     21        1           0.000000133   -0.000000306   -0.000000373
     22        1          -0.000000376   -0.000004882    0.000000767
     23        6          -0.000006133   -0.000002470    0.000000791
     24       17          -0.000005431    0.000005306   -0.000000024
     25        1          -0.000000403   -0.000000701   -0.000000385
     26        1          -0.000015121   -0.000003548   -0.000000644
     27        9           0.000020516    0.000008064    0.000000965
     28        9           0.000001969    0.000007501    0.000018355
     29        9           0.000002103    0.000006757   -0.000016616
 -------------------------------------------------------------------
 Cartesian Forces:  Max     0.000035719 RMS     0.000008236

 GradGradGradGradGradGradGradGradGradGradGradGradGradGradGradGradGradGrad
 Berny optimization.
 Using GEDIIS/GDIIS optimizer.
 FormGI is forming the generalized inverse of G from B-inverse, IUseBI=4.
 Internal  Forces:  Max     0.000068664 RMS     0.000013298
 Search for a local minimum.
 Step number   2 out of a maximum of  149
 All quantities printed in internal units (Hartrees-Bohrs-Radians)
 Mixed Optimization -- En-DIIS/RFO-DIIS
 Swapping is turned off.
 Update second derivatives using D2CorX and points    2
 DE= -2.31D-08 DEPred=-5.57D-08 R= 4.14D-01
 Trust test= 4.14D-01 RLast= 9.91D-04 DXMaxT set to 3.00D-01
 ITU=  0  0
     Eigenvalues ---    0.00419   0.00589   0.00662   0.01217   0.01584
     Eigenvalues ---    0.01681   0.01872   0.02000   0.02070   0.02148
     Eigenvalues ---    0.02181   0.02190   0.02193   0.02202   0.02223
     Eigenvalues ---    0.02237   0.02252   0.02440   0.03810   0.04967
     Eigenvalues ---    0.05391   0.05503   0.05538   0.05720   0.08125
     Eigenvalues ---    0.10663   0.10825   0.11291   0.12022   0.13617
     Eigenvalues ---    0.16000   0.16000   0.16000   0.16000   0.16000
     Eigenvalues ---    0.16000   0.16000   0.21882   0.21941   0.22000
     Eigenvalues ---    0.22375   0.23484   0.24606   0.25000   0.25000
     Eigenvalues ---    0.25000   0.25000   0.25000   0.25000   0.25000
     Eigenvalues ---    0.25000   0.25000   0.29773   0.31017   0.31564
     Eigenvalues ---    0.31756   0.34426   0.34426   0.34496   0.34497
     Eigenvalues ---    0.34501   0.34503   0.34740   0.35529   0.35627
     Eigenvalues ---    0.36071   0.40150   0.42664   0.42871   0.45485
     Eigenvalues ---    0.46091   0.46346   0.46640   0.47579   0.47749
     Eigenvalues ---    0.50712   0.56436   0.56717   0.57667   0.57671
     Eigenvalues ---    1.02873
 En-DIIS/RFO-DIIS/Sim-DIIS IScMMF=       -3 using points:     2    1
 RFO step:  Lambda=-1.10951431D-07.
 DidBck=T Rises=F RFO-DIIS coefs:    0.46270    0.53730
 Iteration  1 RMS(Cart)=  0.00033498 RMS(Int)=  0.00000002
 Iteration  2 RMS(Cart)=  0.00000006 RMS(Int)=  0.00000000
 Variable       Old X    -DE/DX   Delta X   Delta X   Delta X     New X
[...]
 096,-0.00002102,-0.00001588,0.00000690,-0.00002073,-0.00001671,-0.0000
 0675,-0.00001120,0.00003961,-0.00001177,0.00010631,-0.00003791,0.00000
 277,-0.00001146,0.00004044,0.00001001,-0.00126728,-0.00047509,0.000038
 32,0.58821144,0.00343857,0.00207353,0.00015690,0.00496935,0.00056030,0
 .00007659,-0.00403204,0.00020311,-0.00007998,0.00131176,-0.00018715,0.
 00002631,0.00284030,-0.00134895,0.00008207,-0.00097545,-0.00020921,-0.
 00001471,0.00006289,0.00019273,-0.00000177,0.00002286,-0.00013897,0.00
 000322,-0.00206740,0.01804234,-0.00041756,-0.06231632,-0.14271677,0.00
 071037,-0.02190515,-0.02018063,0.00008510,0.00064160,-0.00512573,0.000
 23626,0.00316151,-0.00212972,0.00007422,0.00032313,0.00067742,0.000000
 94,0.00008278,0.00004847,-0.00002198,0.00008201,0.00004984,0.00002309,
 0.00000464,-0.00002084,-0.00004280,0.00000270,-0.00001864,0.00004322,-
 0.00002202,0.00002026,0.00001108,0.00008856,-0.00002245,0.00000237,-0.
 00002183,0.00001940,-0.00001308,0.00477526,-0.00173630,0.00005133,0.03
 333257,0.57760424,-0.00027449,0.00020499,0.00713527,-0.00005199,-0.000
 01317,-0.00005739,0.00000210,-0.00000324,0.00023022,0.00000207,0.00000
 964,-0.00011822,-0.00001025,0.00000902,-0.00013559,-0.00000179,0.00000
 149,0.00007086,-0.00000115,-0.00000078,0.00004040,-0.00000051,0.000000
 55,-0.00000228,-0.00038401,-0.00060666,0.00104333,-0.00015471,0.000793
 59,-0.06570781,0.00087917,0.00027609,-0.00101766,-0.00008732,0.0003090
 7,0.00541375,-0.00002594,0.00004231,-0.00118442,-0.00002197,-0.0000037
 9,0.00039059,-0.00001059,-0.00001676,-0.00001224,0.00001116,0.00001620
 ,-0.00001335,0.00000454,-0.00001685,-0.00001341,-0.00000464,0.00001674
 ,-0.00001611,0.00000796,0.00001216,-0.00000870,-0.00000044,0.00000002,
 0.00000856,-0.00000715,-0.00001212,-0.00000768,-0.00007250,-0.00003574
 ,-0.00302848,0.00028747,-0.00063885,0.52515944,0.00324031,0.00178089,0
 .00002249,-0.00505544,0.00033281,-0.00008657,0.00422580,0.00140437,0.0
 0005531,-0.00125073,-0.00106248,-0.00000453,-0.00220969,0.00080320,-0.
 00006096,0.00087873,0.00021078,0.00001379,-0.00005130,-0.00011516,0.00
 000111,0.00000019,0.00010026,-0.00000187,-0.00115770,0.00106169,-0.000
 10273,-0.01508877,0.00962252,-0.00046127,-0.15963749,0.05252700,-0.003
 19533,-0.04418458,0.01876800,-0.00112238,0.00133347,-0.00675429,0.0001
 0042,-0.00002103,-0.00024410,0.00000557,-0.00008920,-0.00004248,-0.000
 00350,-0.00008904,-0.00004245,0.00000140,0.00001028,0.00001012,-0.0000
 0133,0.00001031,0.00001019,0.00000138,0.00000651,-0.00002155,0.0000072
 8,-0.00006243,0.00001816,-0.00000162,0.00000680,-0.00002181,-0.0000061
 7,-0.00098332,0.00003467,-0.00002480,-0.00892199,-0.00147593,-0.000059
 51,0.22152025,-0.00079336,0.00141587,-0.00005977,0.00250917,0.00007552
 ,0.00003138,-0.00204170,-0.00106738,-0.00002118,0.00038413,0.00076854,
 -0.00000805,0.00100896,-0.00027892,0.00002715,-0.00039544,-0.00010627,
 -0.00000559,0.00002609,0.00005075,-0.00000044,-0.00000097,-0.00004470,
 0.00000079,-0.00293758,-0.00454600,0.00013536,0.03341398,-0.00976279,0
 .00076836,0.05217842,-0.06267408,0.00164135,-0.00801768,0.00724324,-0.
 00020236,-0.00097563,-0.00153197,0.00012617,-0.00011496,0.00010393,-0.
 00000466,0.00004345,0.00001867,0.00000494,0.00004339,0.00001864,-0.000
 00395,-0.00000594,-0.00000319,0.00000259,-0.00000587,-0.00000326,-0.00
 000271,-0.00000207,0.00000936,-0.00000432,0.00002734,-0.00000767,0.000
 00070,-0.00000226,0.00000951,0.00000387,0.00154262,-0.00028353,0.00004
 346,0.00316528,-0.00027496,0.00000919,-0.07595526,0.07629676,0.0000736
 3,-0.00002003,-0.00069704,-0.00011709,-0.00000769,-0.00054279,0.000108
 00,0.00003979,-0.00018153,-0.00002573,-0.00003214,-0.00000235,-0.00005
 549,0.00001905,0.00007179,0.00002070,0.00000594,0.00002886,-0.00000126
 ,-0.00000281,-0.00000253,0.00000004,0.00000238,-0.00000095,-0.00001484
 ,0.00020107,0.00396772,-0.00099049,0.00041264,0.00273081,-0.00317013,0
 .00163963,-0.02103037,-0.00055021,0.00020366,0.00366499,-0.00003846,0.
 00003934,0.00502025,0.00000253,-0.00000575,-0.00001349,0.00000296,-0.0
 0000385,-0.00000321,-0.00000728,0.00000170,-0.00000324,0.00000069,-0.0
 0000059,0.00000031,-0.00000014,0.00000104,0.00000041,0.00000020,-0.000
 00039,0.00000036,-0.00000150,0.00000042,-0.00000028,0.00000007,-0.0000
 0064,0.,-0.00005563,0.00001774,0.00048656,-0.00015263,-0.00007116,-0.0
 0295372,0.00475599,-0.00246293,0.01231375,-0.00494453,0.00170874,-0.00
 022743,0.00008104,0.00144851,-0.00003524,0.00063161,0.00052310,0.00000
 185,-0.00009755,-0.00039392,0.00000616,-0.00024782,-0.00006232,-0.0000
 0325,0.00008592,0.00003869,0.00000056,-0.00001243,-0.00001253,-0.00000
 003,0.00000085,0.00001000,-0.00000019,-0.00139332,-0.00007740,-0.00000
 530,-0.00388025,-0.00299038,-0.00008214,0.00553012,-0.02537751,0.00059
 240,-0.06309178,0.04159135,-0.00130988,0.00023347,0.02885734,-0.000696
 37,-0.00038028,0.00009644,-0.00000635,-0.00001419,-0.00000348,-0.00000
 450,-0.00001445,-0.00000334,0.00000412,0.00000244,-0.00000084,-0.00000
 193,0.00000237,-0.00000085,0.00000210,-0.00000101,-0.00000083,0.000002
 23,-0.00000480,-0.00000080,-0.00000008,-0.00000089,-0.00000087,-0.0000
 0219,0.00005703,0.00000752,0.00000740,0.00128718,-0.00079466,0.0000254
 4,0.00057892,-0.00098850,0.00007288,0.06532055,0.00117629,0.00144253,0
 .00014613,0.00013711,-0.00036653,0.00001281,-0.00033399,-0.00018680,-0
 .00000186,0.00006998,0.00012303,-0.00000090,0.00016113,-0.00002716,0.0
 0000312,-0.00005785,-0.00001900,-0.00000020,0.00000537,0.00000852,-0.0
 0000005,0.00000004,-0.00000668,0.00000015,-0.00023283,0.00078830,-0.00
 004257,-0.00342053,-0.00075190,0.00008865,0.00542623,-0.01501001,0.000
 48124,0.03870192,-0.34448999,0.00735292,0.00004445,-0.00535359,0.00020
 747,0.00008596,0.00002792,-0.00000236,0.00000776,0.00000335,0.00000037
 ,0.00000789,0.00000336,-0.00000028,-0.00000105,-0.00000063,0.00000049,
 -0.00000105,-0.00000056,-0.00000056,-0.00000009,0.00000124,-0.00000046
 ,0.00000372,-0.00000063,0.00000009,-0.00000015,0.00000121,0.00000036,0
 .00001347,-0.00007113,-0.00000738,0.00115636,-0.00017534,0.00003643,0.
 00045275,0.00106254,-0.00007878,-0.04282480,0.36268316,-0.00022382,0.0
 0014395,0.00730100,-0.00000370,0.00003456,0.00007730,0.00001690,0.0000
 1370,0.00005132,-0.00000445,-0.00000874,0.00000235,-0.00000721,-0.0000
 0072,-0.00003204,0.00000208,0.00000180,0.00003164,-0.00000032,-0.00000
 041,-0.00000039,0.,0.00000033,0.00000097,0.00000895,-0.00004038,-0.000
 96111,-0.00007645,0.00010343,0.00563284,-0.00009359,-0.00001905,0.0031
 4711,-0.00122479,0.00739841,-0.03773741,-0.00007823,0.00067137,0.00403
 571,-0.00000552,-0.00000237,-0.00015566,-0.00000305,-0.00000069,-0.000
 00276,0.00000237,0.00000029,-0.00000248,0.00000036,-0.00000225,-0.0000
 0124,-0.00000019,0.00000221,-0.00000121,0.00000080,0.00000106,-0.00000
 119,-0.00000015,0.,0.00000008,-0.00000080,-0.00000119,-0.00000129,0.00
 000751,-0.00000721,-0.00041772,-0.00001601,0.00000631,0.00068599,0.000
 04028,-0.00009823,-0.00278113,0.00156108,-0.00807104,0.02605837,0.0118
 6789,0.00376757,0.00001900,-0.00325356,-0.00186797,0.00003458,0.002416
 25,0.00787088,-0.00011060,-0.00794645,-0.00240752,-0.00009402,0.000478
 34,-0.00147135,0.00002704,-0.00046417,-0.00009713,-0.00001062,0.000000
 49,0.00004068,-0.00000054,0.00000317,-0.00004359,0.00000069,0.00001559
 ,0.00198981,-0.00014859,0.00023184,0.00100316,-0.00000971,-0.00253588,
 0.00224792,-0.00021223,-0.01592487,-0.01662360,0.00005163,-0.23954761,
 -0.15042087,0.00015731,-0.00012238,-0.00011042,0.00000758,-0.00001662,
 0.00003864,-0.00000883,-0.00001666,0.00003820,0.00000807,0.00000373,-0
 .00001211,-0.00000355,0.00000375,-0.00001258,0.00000435,-0.00000483,0.
 00001026,0.00000059,0.00002611,-0.00000865,0.00000073,-0.00000456,0.00
 001034,-0.00000102,0.00041389,0.00051561,0.00000084,-0.00062324,-0.000
 31099,0.00000790,-0.00095300,-0.00021504,-0.00001032,0.00090207,0.0001
 1597,0.00008662,0.25447781,-0.02597484,-0.01288262,-0.00001364,0.00080
 521,0.00220945,-0.00010660,0.00040568,-0.00555475,0.00011975,-0.001413
 89,0.00257705,-0.00010346,-0.00057588,0.00110538,-0.00001991,0.0003865
 6,0.00011011,0.00001000,-0.00000488,-0.00003074,0.00000036,0.00000417,
 0.00003749,-0.00000051,0.00170143,-0.00524879,0.00028013,0.00123139,-0
 .00070875,0.00002402,0.00294365,0.00029588,0.00020390,0.01171477,0.012
 65741,-0.00000886,-0.14616512,-0.17928759,0.00074832,-0.00006329,-0.00
 005197,-0.00000967,-0.00000307,-0.00001837,0.00000897,-0.00000349,-0.0
 0001771,-0.00001006,-0.00000493,0.00000936,0.00000009,-0.00000513,0.00
 001001,-0.00000088,0.00000217,-0.00000734,0.00000470,-0.00002396,0.000
 00407,-0.00000060,0.00000211,-0.00000766,-0.00000450,-0.00113499,-0.00
 065179,-0.00001018,0.00012018,-0.00032640,-0.00000505,0.00088447,0.000
 09307,0.00001196,-0.00031854,0.00062503,-0.00011750,0.15577198,0.18478
 913,0.00068541,0.00044644,0.00527856,-0.00003153,-0.00015516,-0.003455
 01,0.00004855,0.00029678,-0.00010881,-0.00010556,-0.00013140,-0.000791
 57,0.00000944,-0.00004768,0.00057253,-0.00002195,-0.00000101,0.0001759
 4,0.00000004,0.00000132,-0.00000619,-0.00000013,-0.00000163,0.00000772
 ,-0.00013771,0.00028811,0.00618141,-0.00001790,0.00002077,-0.00057494,
 -0.00022290,0.00019149,0.00755530,-0.00055722,-0.00045480,0.00368181,0
 .00003844,0.00065719,-0.03938842,0.00000470,-0.00000849,-0.00035482,0.
 00001684,-0.00001679,-0.00003324,-0.00001622,0.00001828,-0.00003346,0.
 00000533,-0.00001473,-0.00000459,-0.00000469,0.00001344,-0.00000517,0.
 00000561,0.00000344,-0.00000411,0.00000108,-0.00000032,-0.00000139,-0.
 00000571,-0.00000279,-0.00000411,0.00003677,0.00001760,-0.00025306,-0.
 00000305,-0.00001078,-0.00062038,-0.00003489,-0.00000500,0.00003102,0.
 00009261,-0.00011095,-0.00451755,0.00019566,-0.00098648,0.02684878,0.0
 0218237,-0.00136305,0.00006475,-0.00081679,-0.00015868,-0.00001400,0.0
 0123138,0.00040797,0.00001574,-0.00035478,-0.00035210,-0.00000039,-0.0
 0066666,0.00015125,-0.00001671,0.00029975,0.00007656,0.00000503,-0.000
 01688,-0.00003042,0.00000039,0.00000305,0.00003038,-0.00000052,-0.0058
 1232,-0.00136754,-0.00007979,0.00862577,-0.02159221,0.00045555,-0.0053
 6139,-0.00012620,-0.00010798,0.00052408,-0.00148034,0.00004955,-0.0003
 6358,-0.00044346,0.00000232,0.00026955,0.00002669,0.00000603,-0.000028
 81,-0.00001556,-0.00000361,-0.00002887,-0.00001532,0.00000289,0.000006
 72,0.00000207,-0.00000548,0.00000649,0.00000239,0.00000558,0.00000093,
 -0.00000865,0.00000404,-0.00002100,0.00000784,-0.00000055,0.00000105,-
 0.00000888,-0.00000371,-0.00222561,-0.00481022,0.00007584,-0.08705582,
 0.03707690,-0.00098355,0.00133712,-0.00024092,0.00002106,-0.00025577,-
 0.00019799,0.00000420,0.00010820,-0.00019420,0.00000687,0.12257631,0.0
 0120108,-0.00046786,0.00003666,-0.00217434,0.00024736,-0.00003928,0.00
 185782,-0.00026985,0.00004082,-0.00059562,0.00015181,-0.00001412,-0.00
 119373,0.00067025,-0.00003704,0.00040363,0.00006595,0.00000669,-0.0000
 2261,-0.00008662,0.00000108,-0.00001265,0.00005983,-0.00000145,0.00284
 999,-0.00303565,0.00012344,0.01191929,-0.04793912,0.00134680,-0.009230
 64,0.00045191,-0.00012827,0.00119181,-0.00241990,0.00006498,-0.0002648
 1,0.00027904,-0.00000974,-0.00019703,-0.00034970,0.00000050,-0.0000346
 6,-0.00001833,0.00001362,-0.00003407,-0.00001893,-0.00001427,-0.000004
 91,0.00000982,0.00002487,-0.00000385,0.00000879,-0.00002534,0.00001143
 ,-0.00000712,-0.00000773,-0.00003847,0.00000906,-0.00000097,0.00001114
 ,-0.00000676,0.00000852,-0.00345252,-0.00037141,-0.00006244,0.02856058
 ,-0.27007346,0.00448962,-0.00019836,0.00042898,-0.00000718,-0.00067731
 ,-0.00041665,-0.00000540,0.00008169,0.00016096,-0.00000318,-0.09659799
 ,0.37584550,0.00000726,-0.00001252,0.00004805,0.00003151,-0.00000524,0
 .00010419,-0.00002081,0.00001186,0.00001175,0.00000690,-0.00000812,0.0
 0001676,0.00001451,-0.00001134,0.00002951,-0.00000343,-0.00000073,-0.0
 0002334,0.00000051,0.00000114,-0.00001285,0.00000028,-0.00000076,0.000
 00148,-0.00015887,0.00005475,0.00052348,-0.00024144,0.00085504,0.00815
 439,0.00008462,0.00001936,0.00162696,-0.00000654,0.00001745,-0.0004863
 4,-0.00000354,-0.00000903,0.00009347,0.00001082,0.00000508,-0.00012585
 ,0.00000192,0.00000414,0.00000248,-0.00000147,-0.00000367,0.00000325,-
 0.00000126,0.00000345,0.00000282,0.00000151,-0.00000367,0.00000419,-0.
 00000178,-0.00000244,0.00000189,0.00000052,-0.00000010,-0.00000169,0.0
 0000128,0.00000254,0.00000140,0.00004282,-0.00008017,-0.00045638,-0.00
 080616,0.00461986,-0.07320233,0.00002037,-0.00000729,0.00025461,0.0000
 1408,0.00000045,-0.00023795,0.00000040,-0.00000720,-0.00003097,0.00262
 009,-0.00749766,0.08197864,-0.00003739,-0.00155093,-0.00201792,-0.0015
 2518,-0.00052123,-0.00022953,0.00196208,0.00025727,0.00006683,-0.00066
 481,-0.00023587,-0.00004312,-0.00127879,0.00040612,-0.00003536,0.00053
 588,0.00013880,0.00002813,-0.00003350,-0.00006755,0.00000675,0.0000013
 7,0.00006056,-0.00000069,0.00084170,-0.00437378,0.00123875,-0.02725147
 ,-0.00021632,0.03511039,-0.00602325,0.00351216,-0.00027282,0.00056976,
 -0.00032031,-0.00125900,-0.00113425,0.00021490,0.00029259,0.00017196,-
 0.00006531,0.00007334,-0.00004752,-0.00003072,-0.00000367,-0.00004546,
 -0.00002566,-0.00000167,0.00000881,0.00000299,-0.00000421,0.00000712,0
 .00000877,-0.00000077,0.00000562,-0.00001276,0.00000283,-0.00004050,0.
 00001383,0.00000017,0.00000350,-0.00001709,-0.00000492,0.00041069,0.00
 029903,0.00112906,-0.16672884,0.00309910,0.10535045,0.00332375,-0.0008
 4423,0.00025755,-0.00018885,-0.00024982,0.00002008,0.00023119,-0.00004
 082,0.00017240,-0.01783472,0.03434675,0.02598015,0.19247718,-0.0004026
 6,-0.00051298,-0.00075169,-0.00101772,-0.00007265,-0.00012337,0.000876
 43,0.00000098,-0.00001413,-0.00026914,-0.00000013,-0.00000162,-0.00058
 795,0.00026937,-0.00000948,0.00020885,0.00004513,0.00000551,-0.0000133
 4,-0.00003866,0.00000031,-0.00000408,0.00002836,-0.00000050,-0.0000002
 2,-0.00290308,0.00106624,-0.01574252,0.01023259,0.01336015,0.00192939,
 0.00012070,-0.00057436,0.00034898,0.00081567,-0.00012514,-0.00067800,0
 .00056504,0.00009560,-0.00004381,-0.00012172,0.00001072,-0.00001757,-0
 .00001006,0.00000389,-0.00001892,-0.00001053,-0.00000421,-0.00000018,0
 .00000432,0.00000768,-0.00000008,0.00000375,-0.00000775,0.00000424,-0.
 00000454,-0.00000190,-0.00001846,0.00000495,-0.00000056,0.00000423,-0.
 00000433,0.00000239,-0.00060447,0.00012432,0.00028163,0.00362422,-0.07
 764777,-0.00987241,-0.00110060,-0.00341065,0.00188726,0.00012490,0.000
 05656,0.00002834,0.00004762,0.00005618,-0.00000853,0.04677834,-0.02805
 248,-0.04400840,-0.03362580,0.08807421,0.00023177,0.00012974,0.0004025
 9,0.00101907,0.00042894,0.00024109,-0.00106854,-0.00030209,-0.00005661
 ,0.00034106,0.00021695,0.00006410,0.00068793,-0.00018219,0.00005408,-0
 .00027651,-0.00008076,-0.00004622,0.00001963,0.00003496,-0.00001625,-0
 .00000096,-0.00003193,0.00000111,0.00097158,0.00333135,-0.00048273,0.0
 1693631,-0.00259334,-0.00838020,0.00216699,-0.00200597,0.00091190,-0.0
 0011829,0.00049078,0.00036813,0.00032252,-0.00008491,-0.00009884,-0.00
 012177,0.00001610,-0.00014995,0.00002888,0.00002182,0.00000660,0.00002
 206,0.00000978,0.00000420,-0.00000644,0.00000357,0.00000802,-0.0000025
 8,-0.00001018,0.00000338,-0.00000448,0.00000316,0.00000058,0.00002065,
 -0.00000678,-0.00000238,0.00000100,0.00001263,0.00000538,-0.00038074,-
 0.00008671,-0.00051298,0.10446590,-0.00709850,-0.19269599,-0.00138931,
 0.00182850,-0.00027100,0.00008320,0.00013067,-0.00008885,-0.00009929,0
 .00005399,-0.00007321,0.02349331,-0.03124872,-0.00679167,-0.15820785,0
 .03995750,0.29467627,-0.00010038,-0.00144875,0.00207367,-0.00150301,-0
 .00050041,0.00018525,0.00193110,0.00024850,0.00000281,-0.00065512,-0.0
 0022883,0.00002461,-0.00125776,0.00040027,-0.00003335,0.00052817,0.000
 13555,-0.00001016,-0.00003266,-0.00006667,-0.00000522,0.00000136,0.000
 05954,-0.00000155,0.00088706,-0.00434137,-0.00100521,-0.02570154,-0.00
 172783,-0.03559287,-0.00594488,0.00346139,-0.00007288,0.00052689,-0.00
 025096,0.00126887,-0.00111237,0.00019787,-0.00033421,0.00017083,-0.000
 06755,-0.00006092,-0.00004494,-0.00002532,0.00000060,-0.00004659,-0.00
 002994,0.00000265,0.00000696,0.00000845,0.00000067,0.00000848,0.000003
 26,0.00000419,0.00000331,-0.00001648,0.00000555,-0.00003983,0.00001358
 ,-0.00000224,0.00000562,-0.00001276,-0.00000213,0.00043751,0.00024827,
 -0.00110949,-0.16059576,-0.00139468,-0.10442575,0.00328329,-0.00080543
 ,-0.00012510,-0.00018564,-0.00024626,-0.00001293,0.00023352,-0.0000467
 4,-0.00016027,-0.01632976,0.03229836,-0.02759426,0.02228390,0.00019832
 ,0.01086490,0.18324224,-0.00043600,-0.00047703,0.00077816,-0.00106614,
 -0.00008555,0.00009874,0.00092084,0.00001619,0.00004807,-0.00028310,-0
 .00001028,-0.00000607,-0.00061634,0.00027658,-0.00002449,0.00022053,0.
 00004834,-0.00000038,-0.00001414,-0.00004010,0.00000011,-0.00000402,0.
 00002966,-0.00000079,-0.00001927,-0.00309376,-0.00095121,-0.01601959,0
 .00973927,-0.01460823,0.00181746,0.00022359,0.00064984,0.00034865,0.00
 079851,0.00011683,-0.00068419,0.00056035,-0.00014784,-0.00003805,-0.00
 012298,-0.00001361,-0.00002009,-0.00001081,0.00000395,-0.00001857,-0.0
 0001108,-0.00000399,-0.00000029,0.00000444,0.00000769,0.00000039,0.000
 00391,-0.00000751,0.00000428,-0.00000492,-0.00000180,-0.00001931,0.000
 00523,-0.00000052,0.00000434,-0.00000461,0.00000228,-0.00057712,0.0001
 1456,-0.00032658,-0.00090456,-0.07715837,0.00499830,-0.00098741,-0.003
 60001,-0.00178968,0.00012233,0.00004984,-0.00003056,0.00005148,0.00005
 394,0.00000486,0.04444334,-0.02485540,0.04606323,-0.00016208,0.0123874
 5,-0.00293832,-0.02606339,0.08516306,-0.00022612,-0.00012500,0.0004276
 0,-0.00102626,-0.00043116,0.00022136,0.00108694,0.00030708,-0.00002515
 ,-0.00035047,-0.00022065,0.00005966,-0.00070010,0.00018338,0.00001912,
 0.00028464,0.00008087,-0.00003862,-0.00001927,-0.00003579,-0.00001593,
 0.00000114,0.00003246,-0.00000003,-0.00094069,-0.00335772,-0.00035610,
 -0.01677243,0.00178757,-0.00942503,-0.00244201,0.00214634,0.00072812,0
 .00010158,-0.00051886,0.00042425,-0.00032031,0.00005714,-0.00011686,0.
 00013429,-0.00001928,-0.00014635,-0.00002274,-0.00000985,0.00000345,-0
 .00002962,-0.00002192,0.00000647,0.00000263,0.00001031,0.00000286,0.00
 000638,-0.00000337,0.00000881,-0.00000130,-0.00001268,0.00000607,-0.00
 002092,0.00000689,-0.00000352,0.00000447,-0.00000332,0.00000071,0.0004
 3627,0.00006646,-0.00051975,-0.10358248,0.00220193,-0.19938266,0.00153
 139,-0.00173731,-0.00008779,-0.00009124,-0.00014395,-0.00008472,0.0001
 0634,-0.00006111,-0.00007207,-0.02561694,0.03294517,-0.01148995,-0.007
 64793,-0.00120317,-0.08708055,0.15611478,-0.03192049,0.30693663\\0.000
 04082,0.00000947,0.00001906,-0.00001331,0.00002165,-0.00003437,0.00001
 409,0.00003116,-0.00001633,-0.00000501,-0.00000462,0.00001100,-0.00002
 345,0.00000463,0.00000666,0.00000552,-0.00003844,0.00000679,0.00000985
 ,0.00000606,-0.00000601,0.00000891,0.00001513,0.00000127,-0.00000977,-
 0.00004189,0.00000505,-0.00005676,0.00007378,0.00000431,0.00011461,0.0
 0003222,-0.00003751,-0.00000617,0.00005610,-0.00000365,0.00011458,-0.0
 0009279,0.00000071,0.00000577,-0.00000124,0.00002187,0.00000766,0.0000
 0495,-0.00000578,-0.00000589,0.00001367,0.00000827,-0.00000245,-0.0000
 0463,-0.00000100,-0.00000483,0.00000291,-0.00000078,0.00000186,-0.0000
 0628,0.,-0.00000569,-0.00000408,0.00000126,0.00000067,0.00000214,0.000
 00196,-0.00002032,0.00000333,-0.00000220,0.00003165,-0.00004018,-0.000
 00284,-0.00013964,-0.00007981,0.00003444,0.00002834,0.00003370,-0.0000
 0539,-0.00004062,-0.00001433,0.00000072,-0.00000718,-0.00000765,0.0000
 0237,-0.00000788,0.00001446,-0.00002497,-0.00003534,0.00001056,0.00001
 509\\\@


 THERE IS NO SCIENCE WITHOUT FANCY, NOR ART WITHOUT FACTS.
     -- VLADIMIR NABAKOV
 Job cpu time:       0 days  3 hours 40 minutes 23.5 seconds.
 Elapsed time:       0 days  3 hours 44 minutes 56.6 seconds.
 File lengths (MBytes):  RWF=    559 Int=      0 D2E=      0 Chk=     22 Scr=      1
 Normal termination of Gaussian 16 at Mon Sep 28 00:28:55 2020.
