 Entering Gaussian System, Link 0=/apps/gaussian/g16c01/g16/g16
 Initial command:
 /apps/gaussian/g16c01/g16/l1.exe "/jobfs/11098649.gadi-pbs/Gau-696122.inp" -scrdir="/jobfs/11098649.gadi-pbs/"
 Entering Link 1 = /apps/gaussian/g16c01/g16/l1.exe PID=    696123.
  
 Copyright (c) 1988-2019, Gaussian, Inc.  All Rights Reserved.
  
 This is part of the Gaussian(R) 16 program.  It is based on
 the Gaussian(R) 09 system (copyright 2009, Gaussian, Inc.),
 the Gaussian(R) 03 system (copyright 2003, Gaussian, Inc.),
 the Gaussian(R) 98 system (copyright 1998, Gaussian, Inc.),
 the Gaussian(R) 94 system (copyright 1995, Gaussian, Inc.),
 the Gaussian 92(TM) system (copyright 1992, Gaussian, Inc.),
 the Gaussian 90(TM) system (copyright 1990, Gaussian, Inc.),
 the Gaussian 88(TM) system (copyright 1988, Gaussian, Inc.),
 the Gaussian 86(TM) system (copyright 1986, Carnegie Mellon
 University), and the Gaussian 82(TM) system (copyright 1983,
 Carnegie Mellon University). Gaussian is a federally registered
 trademark of Gaussian, Inc.
  
 This software contains proprietary and confidential information,
 including trade secrets, belonging to Gaussian, Inc.
  
 This software is provided under written license and may be
 used, copied, transmitted, or stored only in accord with that
 written license.
  
 The following legend is applicable only to US Government
 contracts under FAR:
  
                    RESTRICTED RIGHTS LEGEND
  
 Use, reproduction and disclosure by the US Government is
 subject to restrictions as set forth in subparagraphs (a)
 and (c) of the Commercial Computer Software - Restricted
 Rights clause in FAR 52.227-19.
  
 Gaussian, Inc.
 340 Quinnipiac St., Bldg. 40, Wallingford CT 06492
  
  
 ---------------------------------------------------------------
 Warning -- This program may not be used in any manner that
 competes with the business of Gaussian, Inc. or will provide
 assistance to any competitor of Gaussian, Inc.  The licensee
 of this program is prohibited from giving any competitor of
 Gaussian, Inc. access to this program.  By using this program,
 the user acknowledges that Gaussian, Inc. is engaged in the
 business of creating and licensing software in the field of
 computational chemistry and represents and warrants to the
 licensee that it is not a competitor of Gaussian, Inc. and that
 it will not use this program in any manner prohibited above.
 ---------------------------------------------------------------
  

 Cite this work as:
 Gaussian 16, Revision C.01,
 M. J. Frisch, G. W. Trucks, H. B. Schlegel, G. E. Scuseria, 
 M. A. Robb, J. R. Cheeseman, G. Scalmani, V. Barone, 
 G. A. Petersson, H. Nakatsuji, X. Li, M. Caricato, A. V. Marenich, 
 J. Bloino, B. G. Janesko, R. Gomperts, B. Mennucci, H. P. Hratchian, 
 J. V. Ortiz, A. F. Izmaylov, J. L. Sonnenberg, D. Williams-Young, 
 F. Ding, F. Lipparini, F. Egidi, J. Goings, B. Peng, A. Petrone, 
 T. Henderson, D. Ranasinghe, V. G. Zakrzewski, J. Gao, N. Rega, 
 G. Zheng, W. Liang, M. Hada, M. Ehara, K. Toyota, R. Fukuda, 
 J. Hasegawa, M. Ishida, T. Nakajima, Y. Honda, O. Kitao, H. Nakai, 
 T. Vreven, K. Throssell, J. A. Montgomery, Jr., J. E. Peralta, 
 F. Ogliaro, M. J. Bearpark, J. J. Heyd, E. N. Brothers, K. N. Kudin, 
 V. N. Staroverov, T. A. Keith, R. Kobayashi, J. Normand, 
 K. Raghavachari, A. P. Rendell, J. C. Burant, S. S. Iyengar, 
 J. Tomasi, M. Cossi, J. M. Millam, M. Klene, C. Adamo, R. Cammi, 
 J. W. Ochterski, R. L. Martin, K. Morokuma, O. Farkas, 
 J. B. Foresman, and D. J. Fox, Gaussian, Inc., Wallingford CT, 2019.
 
 ******************************************
 Gaussian 16:  ES64L-G16RevC.01  3-Jul-2019
                10-Sep-2020 
 ******************************************
 %NprocShared=6
 Will use up to    6 processors via shared memory.
 %Mem=192000MB
 %chk=29CA.DSDPBEP86_AUG-cc-PVTZ.chk
 ---------------------------------------------------------------------
 # DSDPBEP86/AUG-cc-PVTZ SCF=Tight INT(grid=ultrafine) MaxDisk=60000MB
 ---------------------------------------------------------------------
 1/38=1,172=1/1;
 2/12=2,17=6,18=5,40=1/2;
 3/5=16,6=1,7=10,11=9,25=1,30=1,74=-77,75=-5/1,2,3;
 4//1;
 5/5=2,32=2,38=5/2;
 8/10=1/1;
 9/16=-3/6;
 6/7=2,8=2,9=2,10=2/1;
 99/5=1,9=1/99;
 --------------------------
 29CA.DSDPBEP86_AUG-cc-PVTZ
 --------------------------
 Symbolic Z-matrix:
 Charge =  0 Multiplicity = 1
 C                    -6.18847   1.27085   0.00984 
 N                    -4.89858   0.72514   0.01201 
 C                    -3.70523   1.40066  -0.0292 
 O                    -3.5606    2.5944   -0.07472 
 O                    -2.69993   0.50909  -0.01067 
 C                    -1.3789    1.07117  -0.04965 
 C                    -0.39096  -0.07489  -0.02158 
 C                     1.04462   0.44189  -0.06058 
 C                    -6.44105   2.6432   -0.0364 
 C                    -7.75227   3.10755  -0.03534 
 C                    -8.82051   2.21396   0.01162 
 C                    -8.56891   0.84952   0.0576 
 C                    -7.26577   0.38313   0.0567 
 H                    -4.82199  -0.28045   0.04749 
 H                    -1.25342   1.73621   0.80825 
 H                    -1.27806   1.67173  -0.95693 
 H                    -0.58311  -0.73152  -0.87449 
 H                    -0.55852  -0.6673    0.88202 
 H                     1.23326   1.02152  -0.96744 
 H                     1.75821  -0.38267  -0.04042 
 H                     1.25796   1.08599   0.79592 
 H                    -5.62168   3.34444  -0.07299 
 C                    -7.99348   4.59705  -0.08586 
 Cl                   -10.47178   2.75387   0.01464 
 H                    -9.39959   0.15597   0.09407 
 H                    -7.08431  -0.68637   0.09295 
 F                    -6.84611   5.28372  -0.12647 
 F                    -8.6986    4.94982  -1.16872 
 F                    -8.669     5.0278    0.98764 
 
                          Input orientation:                          
 ---------------------------------------------------------------------
 Center     Atomic      Atomic             Coordinates (Angstroms)
 Number     Number       Type             X           Y           Z
 ---------------------------------------------------------------------
      1          6           0       -6.188473    1.270851    0.009839
      2          7           0       -4.898584    0.725139    0.012011
      3          6           0       -3.705227    1.400663   -0.029199
      4          8           0       -3.560600    2.594398   -0.074715
      5          8           0       -2.699925    0.509093   -0.010673
      6          6           0       -1.378905    1.071169   -0.049646
      7          6           0       -0.390961   -0.074887   -0.021581
      8          6           0        1.044622    0.441891   -0.060576
      9          6           0       -6.441050    2.643199   -0.036404
     10          6           0       -7.752275    3.107546   -0.035338
     11          6           0       -8.820508    2.213960    0.011616
     12          6           0       -8.568906    0.849525    0.057605
     13          6           0       -7.265768    0.383126    0.056702
     14          1           0       -4.821990   -0.280454    0.047491
     15          1           0       -1.253415    1.736207    0.808245
     16          1           0       -1.278064    1.671730   -0.956928
     17          1           0       -0.583110   -0.731515   -0.874485
     18          1           0       -0.558523   -0.667295    0.882022
     19          1           0        1.233264    1.021522   -0.967438
     20          1           0        1.758209   -0.382670   -0.040423
     21          1           0        1.257961    1.085993    0.795916
     22          1           0       -5.621679    3.344437   -0.072987
     23          6           0       -7.993477    4.597047   -0.085857
     24         17           0      -10.471780    2.753870    0.014640
     25          1           0       -9.399589    0.155972    0.094069
     26          1           0       -7.084315   -0.686367    0.092951
     27          9           0       -6.846106    5.283722   -0.126475
     28          9           0       -8.698599    4.949823   -1.168717
     29          9           0       -8.668996    5.027804    0.987636
 ---------------------------------------------------------------------
                    Distance matrix (angstroms):
                    1          2          3          4          5
     1  C    0.000000
     2  N    1.400578   0.000000
     3  C    2.486943   1.371909   0.000000
     4  O    2.943577   2.300403   1.203325   0.000000
     5  O    3.570807   2.209365   1.343828   2.256847   0.000000
     6  C    4.814079   3.537186   2.349630   2.660948   1.436156
     7  C    5.951734   4.578191   3.627901   4.144214   2.381694
     8  C    7.280782   5.950395   4.845750   5.083458   3.745482
     9  C    1.396164   2.461808   3.004775   2.881118   4.307097
    10  C    2.412668   3.717749   4.392275   4.223152   5.681444
    11  C    2.795902   4.195006   5.179692   5.274355   6.353629
    12  C    2.417904   3.672712   4.895576   5.305207   5.879243
    13  C    1.396716   2.392181   3.704080   4.316858   4.568077
    14  H    2.067665   1.009129   2.019703   3.141785   2.264935
    15  H    5.020836   3.865683   2.612524   2.615188   2.066114
    16  H    5.020703   3.865624   2.612523   2.615260   2.066111
    17  H    6.017606   4.640154   3.874055   4.535060   2.601189
    18  H    6.017761   4.640250   3.874084   4.535025   2.601230
    19  H    7.489954   6.216650   5.041105   5.123673   4.080192
    20  H    8.117044   6.748547   5.747133   6.095394   4.546546
    21  H    7.490091   6.216733   5.041138   5.123652   4.080228
    22  H    2.151250   2.718606   2.730012   2.193311   4.071819
    23  C    3.785602   4.957783   5.348754   4.864271   6.688700
    24  Cl   4.532780   5.930958   6.900676   6.913597   8.089585
    25  H    3.400193   4.537590   5.830112   6.329945   6.709781
    26  H    2.154098   2.603136   3.973518   4.817478   4.545628
    27  F    4.068685   4.959103   4.995270   4.246139   6.324659
    28  F    4.607013   5.803636   6.231276   5.757074   7.552830
    29  F    4.606928   5.803514   6.231300   5.757236   7.552826
                    6          7          8          9         10
     6  C    0.000000
     7  C    1.513362   0.000000
     8  C    2.503915   1.526263   0.000000
     9  C    5.300638   6.632630   7.802668   0.000000
    10  C    6.690806   8.019788   9.191939   1.391018   0.000000
    11  C    7.529089   8.734826  10.023284   2.418341   1.393493
    12  C    7.194216   8.230406   9.622892   2.784578   2.402954
    13  C    5.927889   6.890492   8.311425   2.407645   2.769047
    14  H    3.700157   4.436333   5.911903   3.343073   4.480176
    15  H    1.092703   2.170829   2.776883   5.333631   6.695325
    16  H    1.092704   2.170828   2.776836   5.333624   6.695245
    17  H    2.136193   1.093402   2.165373   6.812234   8.175541
    18  H    2.136186   1.093400   2.165377   6.812268   8.175637
    19  H    2.769158   2.175974   1.092683   7.898846   9.271474
    20  H    3.457632   2.171179   1.090648   8.739779  10.130693
    21  H    2.769162   2.175979   1.092684   7.898887   9.271570
    22  H    4.813463   6.249387   7.270798   1.079093   2.144055
    23  C    7.495711   8.923528   9.947522   2.495996   1.509749
    24  Cl   9.247485  10.470247  11.746421   4.032572   2.742862
    25  H    8.074008   9.012327  10.449268   3.867334   3.382629
    26  H    5.971681   6.722203   8.208297   3.393601   3.854400
    27  F    6.902303   8.390148   9.258037   2.672928   2.359065
    28  F    8.359079   9.776527  10.792580   3.420406   2.360945
    29  F    8.359207   9.776596  10.792762   3.420343   2.360984
                   11         12         13         14         15
    11  C    0.000000
    12  C    1.388201   0.000000
    13  C    2.402332   1.384087   0.000000
    14  H    4.712911   3.913609   2.532286   0.000000
    15  H    7.623893   7.407163   6.208384   4.168980   0.000000
    16  H    7.623684   7.406867   6.208103   4.168848   1.766522
    17  H    8.792936   8.193986   6.838673   4.361376   3.061134
    18  H    8.793158   8.194306   6.838982   4.361564   2.503027
    19  H   10.171470   9.857121   8.584286   6.276252   3.138057
    20  H   10.892862  10.400828   9.056933   6.581580   3.778857
    21  H   10.171675   9.857400   8.584545   6.276394   2.594213
    22  H    3.393765   3.863650   3.389574   3.714008   4.737584
    23  C    2.524397   3.794156   4.278669   5.819461   7.376466
    24  Cl   1.737300   2.692454   3.987569   6.413137   9.308259
    25  H    2.139497   1.082764   2.146203   4.598591   8.328705
    26  H    3.381254   2.136404   1.085382   2.298900   6.354518
    27  F    3.652502   4.760676   4.921941   5.923459   6.688554
    28  F    2.982112   4.281721   4.940584   6.622919   8.346644
    29  F    2.982162   4.281705   4.940518   6.622759   8.115271
                   16         17         18         19         20
    16  H    0.000000
    17  H    2.503067   0.000000
    18  H    3.061129   1.757852   0.000000
    19  H    2.594157   2.526063   3.079465   0.000000
    20  H    3.778821   2.509806   2.509813   1.762577   0.000000
    21  H    3.137988   3.079467   2.526073   1.764705   1.762578
    22  H    4.737752   6.530158   6.530053   7.292889   8.267717
    23  C    7.376518   9.161279   9.161257   9.934502  10.949659
    24  Cl   9.308028  10.522558  10.522803  11.873229  12.625907
    25  H    8.328342   8.913811   8.914207  10.720706  11.171601
    26  H    6.354165   6.572947   6.573352   8.557069   8.848743
    27  F    6.688739   8.715946   8.715812   9.173320  10.302895
    28  F    8.115115   9.910869  10.100415  10.682415  11.792089
    29  F    8.346882  10.100436   9.910857  10.859437  11.792232
                   21         22         23         24         25
    21  H    0.000000
    22  H    7.292806   0.000000
    23  C    9.934492   2.682279   0.000000
    24  Cl  11.873459   4.886709   3.090207   0.000000
    25  H   10.721049   4.946394   4.661830   2.811579   0.000000
    26  H    8.557393   4.291179   5.364047   4.828694   2.463743
    27  F    9.173202   2.294102   1.337772   4.423299   5.732602
    28  F   10.859192   3.639412   1.339489   3.060508   5.006697
    29  F   10.682654   3.639338   1.339502   3.060642   5.006693
                   26         27         28         29
    26  H    0.000000
    27  F    5.978867   0.000000
    28  F    5.997029   2.151624   0.000000
    29  F    5.996951   2.151666   2.157966   0.000000
 Stoichiometry    C11H11ClF3NO2
 Framework group  C1[X(C11H11ClF3NO2)]
 Deg. of freedom    81
 Full point group                 C1      NOp   1
 Largest Abelian subgroup         C1      NOp   1
 Largest concise Abelian subgroup C1      NOp   1
                         Standard orientation:                         
 ---------------------------------------------------------------------
 Center     Atomic      Atomic             Coordinates (Angstroms)
 Number     Number       Type             X           Y           Z
 ---------------------------------------------------------------------
      1          6           0        0.081672   -1.039998    0.000240
      2          7           0        1.480199   -1.115770    0.000443
      3          6           0        2.373606   -0.074637    0.000150
      4          8           0        2.104673    1.098250   -0.000149
      5          8           0        3.621759   -0.572620    0.000261
      6          6           0        4.673746    0.405064   -0.000142
      7          6           0        5.991907   -0.338386    0.000053
      8          6           0        7.167030    0.635555   -0.000432
      9          6           0       -0.621505    0.166159    0.000203
     10          6           0       -2.012500    0.158090   -0.000003
     11          6           0       -2.714224   -1.045823   -0.000136
     12          6           0       -2.014649   -2.244863   -0.000079
     13          6           0       -0.630566   -2.241469    0.000103
     14          1           0        1.893404   -2.036423    0.000570
     15          1           0        4.565565    1.039524    0.882896
     16          1           0        4.565472    1.038890   -0.883626
     17          1           0        6.034525   -0.987733   -0.878616
     18          1           0        6.034655   -0.987026    0.879236
     19          1           0        7.148450    1.279456   -0.883043
     20          1           0        8.118036    0.101605   -0.000292
     21          1           0        7.148593    1.280171    0.881662
     22          1           0       -0.088629    1.104500    0.000309
     23          6           0       -2.744721    1.478390    0.000081
     24         17           0       -4.450734   -1.098216   -0.000337
     25          1           0       -2.560774   -3.179810   -0.000183
     26          1           0       -0.097041   -3.186671    0.000132
     27          9           0       -1.898356    2.514392    0.000150
     28          9           0       -3.526963    1.612875   -1.078921
     29          9           0       -3.527059    1.612741    1.079045
 ---------------------------------------------------------------------
 Rotational constants (GHZ):           0.8918187           0.1427209           0.1260346
 Standard basis: Aug-CC-pVTZ (5D, 7F)
 There are  1269 symmetry adapted cartesian basis functions of A   symmetry.
 There are  1085 symmetry adapted basis functions of A   symmetry.
  1085 basis functions,  1635 primitive gaussians,  1269 cartesian basis functions
    72 alpha electrons       72 beta electrons
       nuclear repulsion energy      1451.4999860953 Hartrees.
 NAtoms=   29 NActive=   29 NUniq=   29 SFac= 1.00D+00 NAtFMM=   60 NAOKFM=F Big=F
 Integral buffers will be    131072 words long.
 Regular integral format.
 Two-electron integral symmetry is turned on.
 Nuclear repulsion after empirical dispersion term =     1451.4780663656 Hartrees.
 One-electron integrals computed using PRISM.
 NBasis=  1085 RedAO= T EigKep=  1.23D-06  NBF=  1085
 NBsUse=  1082 1.00D-06 EigRej=  7.24D-07 NBFU=  1082
 ExpMin= 2.53D-02 ExpMax= 4.56D+05 ExpMxC= 1.44D+03 IAcc=3 IRadAn=         5 AccDes= 0.00D+00
 Harris functional with IExCor= 1004 and IRadAn=       5 diagonalized for initial guess.
 HarFok:  IExCor= 1004 AccDes= 0.00D+00 IRadAn=         5 IDoV= 1 UseB2=F ITyADJ=14
 ICtDFT=  3500011 ScaDFX=  1.000000  1.000000  1.000000  1.000000
 FoFCou: FMM=F IPFlag=           0 FMFlag=      100000 FMFlg1=           0
         NFxFlg=           0 DoJE=T BraDBF=F KetDBF=T FulRan=T
         wScrn=  0.000000 ICntrl=       500 IOpCl=  0 I1Cent=   200000004 NGrid=           0
         NMat0=    1 NMatS0=      1 NMatT0=    0 NMatD0=    1 NMtDS0=    0 NMtDT0=    0
 Petite list used in FoFCou.
 Requested convergence on RMS density matrix=1.00D-08 within 128 cycles.
 Requested convergence on MAX density matrix=1.00D-06.
 Requested convergence on             energy=1.00D-06.
 No special actions if energy rises.
 SCF Done:  E(RDSDPBEP86) =  -1387.61744865     A.U. after   14 cycles
            NFock= 14  Conv=0.33D-08     -V/T= 2.0025
 DoSCS=T DFT=T ScalE2(SS,OS)=  0.220000  0.520000
 ExpMin= 2.53D-02 ExpMax= 4.56D+05 ExpMxC= 1.44D+03 IAcc=3 IRadAn=         5 AccDes= 0.00D+00
 HarFok:  IExCor=  205 AccDes= 0.00D+00 IRadAn=         5 IDoV=-2 UseB2=F ITyADJ=14
 ICtDFT= 12500011 ScaDFX=  1.000000  1.000000  1.000000  1.000000
 GSVD:  LWork=        -660 too small for GESVD, short by        2750 words or        2750 for optimal perf.
 Range of M.O.s used for correlation:    23  1082
 NBasis=  1085 NAE=    72 NBE=    72 NFC=    22 NFV=     0
 NROrb=   1060 NOA=    50 NOB=    50 NVA=  1010 NVB=  1010

 **** Warning!!: The largest alpha MO coefficient is  0.12104912D+03

 DoSCS=T DFT=T ScalE2(SS,OS)=  0.220000  0.520000
 Fully direct method using O(OVN) memory.
 JobTyp=1 Pass  1:  I=   1 to  50 NPSUse=  6 ParTrn=T ParDer=T DoDerP=F.
 Spin components of T(2) and E(2):
     alpha-alpha T2 =       0.1743439855D+00 E2=     -0.1107904261D+00
     alpha-beta  T2 =       0.9017027077D+00 E2=     -0.1484251555D+01
     beta-beta   T2 =       0.1743439855D+00 E2=     -0.1107904261D+00
 E2(DSDPBEP86) =    -0.1705832408D+01 E(DSDPBEP86) =    -0.13893232810612D+04

 **********************************************************************

            Population analysis using the SCF Density.

 **********************************************************************

 Orbital symmetries:
       Occupied  (A) (A) (A) (A) (A) (A) (A) (A) (A) (A) (A) (A)
                 (A) (A) (A) (A) (A) (A) (A) (A) (A) (A) (A) (A)
                 (A) (A) (A) (A) (A) (A) (A) (A) (A) (A) (A) (A)
                 (A) (A) (A) (A) (A) (A) (A) (A) (A) (A) (A) (A)
                 (A) (A) (A) (A) (A) (A) (A) (A) (A) (A) (A) (A)
                 (A) (A) (A) (A) (A) (A) (A) (A) (A) (A) (A) (A)
       Virtual   (A) (A) (A) (A) (A) (A) (A) (A) (A) (A) (A) (A)
                 (A) (A) (A) (A) (A) (A) (A) (A) (A) (A) (A) (A)
                 (A) (A) (A) (A) (A) (A) (A) (A) (A) (A) (A) (A)
                 (A) (A) (A) (A) (A) (A) (A) (A) (A) (A) (A) (A)
                 (A) (A) (A) (A) (A) (A) (A) (A) (A) (A) (A) (A)
                 (A) (A) (A) (A) (A) (A) (A) (A) (A) (A) (A) (A)
                 (A) (A) (A) (A) (A) (A) (A) (A) (A) (A) (A) (A)
                 (A) (A) (A) (A) (A) (A) (A) (A) (A) (A) (A) (A)
                 (A) (A) (A) (A) (A) (A) (A) (A) (A) (A) (A) (A)
                 (A) (A) (A) (A) (A) (A) (A) (A) (A) (A) (A) (A)
                 (A) (A) (A) (A) (A) (A) (A) (A) (A) (A) (A) (A)
                 (A) (A) (A) (A) (A) (A) (A) (A) (A) (A) (A) (A)
                 (A) (A) (A) (A) (A) (A) (A) (A) (A) (A) (A) (A)
                 (A) (A) (A) (A) (A) (A) (A) (A) (A) (A) (A) (A)
                 (A) (A) (A) (A) (A) (A) (A) (A) (A) (A) (A) (A)
                 (A) (A) (A) (A) (A) (A) (A) (A) (A) (A) (A) (A)
                 (A) (A) (A) (A) (A) (A) (A) (A) (A) (A) (A) (A)
                 (A) (A) (A) (A) (A) (A) (A) (A) (A) (A) (A) (A)
                 (A) (A) (A) (A) (A) (A) (A) (A) (A) (A) (A) (A)
                 (A) (A) (A) (A) (A) (A) (A) (A) (A) (A) (A) (A)
                 (A) (A) (A) (A) (A) (A) (A) (A) (A) (A) (A) (A)
                 (A) (A) (A) (A) (A) (A) (A) (A) (A) (A) (A) (A)
                 (A) (A) (A) (A) (A) (A) (A) (A) (A) (A) (A) (A)
                 (A) (A) (A) (A) (A) (A) (A) (A) (A) (A) (A) (A)
                 (A) (A) (A) (A) (A) (A) (A) (A) (A) (A) (A) (A)
                 (A) (A) (A) (A) (A) (A) (A) (A) (A) (A) (A) (A)
                 (A) (A) (A) (A) (A) (A) (A) (A) (A) (A) (A) (A)
                 (A) (A) (A) (A) (A) (A) (A) (A) (A) (A) (A) (A)
                 (A) (A) (A) (A) (A) (A) (A) (A) (A) (A) (A) (A)
                 (A) (A) (A) (A) (A) (A) (A) (A) (A) (A) (A) (A)
                 (A) (A) (A) (A) (A) (A) (A) (A) (A) (A) (A) (A)
                 (A) (A) (A) (A) (A) (A) (A) (A) (A) (A) (A) (A)
                 (A) (A) (A) (A) (A) (A) (A) (A) (A) (A) (A) (A)
                 (A) (A) (A) (A) (A) (A) (A) (A) (A) (A) (A) (A)
                 (A) (A) (A) (A) (A) (A) (A) (A) (A) (A) (A) (A)
                 (A) (A) (A) (A) (A) (A) (A) (A) (A) (A) (A) (A)
                 (A) (A) (A) (A) (A) (A) (A) (A) (A) (A) (A) (A)
                 (A) (A) (A) (A) (A) (A) (A) (A) (A) (A) (A) (A)
                 (A) (A) (A) (A) (A) (A) (A) (A) (A) (A) (A) (A)
                 (A) (A) (A) (A) (A) (A) (A) (A) (A) (A) (A) (A)
                 (A) (A) (A) (A) (A) (A) (A) (A) (A) (A) (A) (A)
                 (A) (A) (A) (A) (A) (A) (A) (A) (A) (A) (A) (A)
                 (A) (A) (A) (A) (A) (A) (A) (A) (A) (A) (A) (A)
                 (A) (A) (A) (A) (A) (A) (A) (A) (A) (A) (A) (A)
                 (A) (A) (A) (A) (A) (A) (A) (A) (A) (A) (A) (A)
                 (A) (A) (A) (A) (A) (A) (A) (A) (A) (A) (A) (A)
                 (A) (A) (A) (A) (A) (A) (A) (A) (A) (A) (A) (A)
                 (A) (A) (A) (A) (A) (A) (A) (A) (A) (A) (A) (A)
                 (A) (A) (A) (A) (A) (A) (A) (A) (A) (A) (A) (A)
                 (A) (A) (A) (A) (A) (A) (A) (A) (A) (A) (A) (A)
                 (A) (A) (A) (A) (A) (A) (A) (A) (A) (A) (A) (A)
                 (A) (A) (A) (A) (A) (A) (A) (A) (A) (A) (A) (A)
                 (A) (A) (A) (A) (A) (A) (A) (A) (A) (A) (A) (A)
                 (A) (A) (A) (A) (A) (A) (A) (A) (A) (A) (A) (A)
                 (A) (A) (A) (A) (A) (A) (A) (A) (A) (A) (A) (A)
                 (A) (A) (A) (A) (A) (A) (A) (A) (A) (A) (A) (A)
                 (A) (A) (A) (A) (A) (A) (A) (A) (A) (A) (A) (A)
                 (A) (A) (A) (A) (A) (A) (A) (A) (A) (A) (A) (A)
                 (A) (A) (A) (A) (A) (A) (A) (A) (A) (A) (A) (A)
                 (A) (A) (A) (A) (A) (A) (A) (A) (A) (A) (A) (A)
                 (A) (A) (A) (A) (A) (A) (A) (A) (A) (A) (A) (A)
                 (A) (A) (A) (A) (A) (A) (A) (A) (A) (A) (A) (A)
                 (A) (A) (A) (A) (A) (A) (A) (A) (A) (A) (A) (A)
                 (A) (A) (A) (A) (A) (A) (A) (A) (A) (A) (A) (A)
                 (A) (A) (A) (A) (A) (A) (A) (A) (A) (A) (A) (A)
                 (A) (A) (A) (A) (A) (A) (A) (A) (A) (A) (A) (A)
                 (A) (A) (A) (A) (A) (A) (A) (A) (A) (A) (A) (A)
                 (A) (A) (A) (A) (A) (A) (A) (A) (A) (A) (A) (A)
                 (A) (A) (A) (A) (A) (A) (A) (A) (A) (A) (A) (A)
                 (A) (A) (A) (A) (A) (A) (A) (A) (A) (A) (A) (A)
                 (A) (A) (A) (A) (A) (A) (A) (A) (A) (A) (A) (A)
                 (A) (A) (A) (A) (A) (A) (A) (A) (A) (A) (A) (A)
                 (A) (A) (A) (A) (A) (A) (A) (A) (A) (A) (A) (A)
                 (A) (A) (A) (A) (A) (A) (A) (A) (A) (A) (A) (A)
                 (A) (A) (A) (A) (A) (A) (A) (A) (A) (A) (A) (A)
                 (A) (A) (A) (A) (A) (A) (A) (A) (A) (A) (A) (A)
                 (A) (A) (A) (A) (A) (A) (A) (A) (A) (A) (A) (A)
                 (A) (A) (A) (A) (A) (A) (A) (A) (A) (A) (A) (A)
                 (A) (A) (A) (A) (A) (A) (A) (A) (A) (A) (A) (A)
                 (A) (A) (A) (A) (A) (A) (A) (A) (A) (A) (A) (A)
                 (A) (A) (A) (A) (A) (A) (A) (A) (A) (A) (A) (A)
                 (A) (A) (A) (A) (A) (A) (A) (A) (A) (A) (A) (A)
                 (A) (A) (A) (A) (A) (A) (A) (A) (A) (A) (A) (A)
                 (A) (A) (A) (A) (A) (A) (A) (A) (A) (A) (A) (A)
                 (A) (A)
 The electronic state is 1-A.
 Alpha  occ. eigenvalues -- -103.57819 -25.70844 -25.70450 -25.70449 -20.06408
 Alpha  occ. eigenvalues --  -19.99716 -15.14196 -11.08651 -11.00019 -10.90522
 Alpha  occ. eigenvalues --  -10.90185 -10.88388 -10.86961 -10.85571 -10.85450
 Alpha  occ. eigenvalues --  -10.84762 -10.82792 -10.81818 -10.15318  -7.73006
 Alpha  occ. eigenvalues --   -7.72518  -7.72504  -1.57375  -1.47943  -1.47666
 Alpha  occ. eigenvalues --   -1.35561  -1.25293  -1.17001  -1.09901  -1.02868
 Alpha  occ. eigenvalues --   -0.98372  -0.97605  -0.92566  -0.87812  -0.86131
 Alpha  occ. eigenvalues --   -0.80353  -0.78715  -0.75527  -0.73968  -0.73480
 Alpha  occ. eigenvalues --   -0.73248  -0.71563  -0.68828  -0.64563  -0.63859
 Alpha  occ. eigenvalues --   -0.62264  -0.62045  -0.61802  -0.60314  -0.58586
 Alpha  occ. eigenvalues --   -0.57984  -0.57606  -0.57394  -0.55876  -0.55441
 Alpha  occ. eigenvalues --   -0.55338  -0.52983  -0.52949  -0.50442  -0.50295
 Alpha  occ. eigenvalues --   -0.49229  -0.48126  -0.47508  -0.46285  -0.44716
 Alpha  occ. eigenvalues --   -0.44365  -0.41873  -0.41297  -0.40656  -0.40314
 Alpha  occ. eigenvalues --   -0.34842  -0.29724
 Alpha virt. eigenvalues --    0.00745   0.01508   0.02496   0.02541   0.02814
 Alpha virt. eigenvalues --    0.02957   0.03760   0.03768   0.04701   0.05099
 Alpha virt. eigenvalues --    0.05479   0.05523   0.05947   0.06834   0.07013
 Alpha virt. eigenvalues --    0.07316   0.07551   0.08334   0.08352   0.09157
 Alpha virt. eigenvalues --    0.09469   0.09552   0.09763   0.10132   0.10425
 Alpha virt. eigenvalues --    0.10815   0.11198   0.11203   0.11854   0.11926
 Alpha virt. eigenvalues --    0.12096   0.12339   0.12627   0.13410   0.13558
 Alpha virt. eigenvalues --    0.13885   0.14357   0.14423   0.14875   0.15052
 Alpha virt. eigenvalues --    0.15306   0.15465   0.15894   0.15913   0.16357
 Alpha virt. eigenvalues --    0.17474   0.17764   0.17902   0.18289   0.18496
 Alpha virt. eigenvalues --    0.18757   0.19187   0.19362   0.19679   0.20097
 Alpha virt. eigenvalues --    0.20102   0.20357   0.20935   0.21605   0.21784
 Alpha virt. eigenvalues --    0.22125   0.22510   0.22753   0.23333   0.23500
 Alpha virt. eigenvalues --    0.24052   0.24211   0.24793   0.24797   0.25102
 Alpha virt. eigenvalues --    0.25276   0.26041   0.26109   0.26514   0.26814
 Alpha virt. eigenvalues --    0.27025   0.27589   0.27890   0.28343   0.28475
 Alpha virt. eigenvalues --    0.29188   0.29252   0.29577   0.29712   0.29756
 Alpha virt. eigenvalues --    0.30136   0.30465   0.30820   0.30975   0.31501
 Alpha virt. eigenvalues --    0.31528   0.31953   0.31975   0.32193   0.32280
 Alpha virt. eigenvalues --    0.32749   0.33440   0.33734   0.33903   0.34253
 Alpha virt. eigenvalues --    0.34834   0.35004   0.35273   0.35549   0.35904
 Alpha virt. eigenvalues --    0.36176   0.36432   0.36532   0.36799   0.36862
 Alpha virt. eigenvalues --    0.37300   0.37741   0.38120   0.38421   0.38554
 Alpha virt. eigenvalues --    0.39115   0.39314   0.39446   0.39780   0.40101
 Alpha virt. eigenvalues --    0.40379   0.40745   0.41304   0.41475   0.41516
 Alpha virt. eigenvalues --    0.41619   0.42107   0.42355   0.42816   0.43039
 Alpha virt. eigenvalues --    0.43414   0.43896   0.43979   0.44396   0.44743
 Alpha virt. eigenvalues --    0.44823   0.44964   0.45738   0.46143   0.46259
 Alpha virt. eigenvalues --    0.46540   0.46708   0.46859   0.46955   0.47496
 Alpha virt. eigenvalues --    0.47918   0.48180   0.48307   0.48365   0.48980
 Alpha virt. eigenvalues --    0.49162   0.49711   0.49759   0.50488   0.50803
 Alpha virt. eigenvalues --    0.51065   0.51336   0.51517   0.51551   0.52065
 Alpha virt. eigenvalues --    0.52528   0.52998   0.53035   0.53486   0.54331
 Alpha virt. eigenvalues --    0.54480   0.54845   0.55355   0.55628   0.56203
 Alpha virt. eigenvalues --    0.56517   0.57059   0.57679   0.58169   0.58313
 Alpha virt. eigenvalues --    0.59062   0.59838   0.60634   0.61002   0.61443
 Alpha virt. eigenvalues --    0.61897   0.62415   0.62836   0.63097   0.63618
 Alpha virt. eigenvalues --    0.63964   0.64431   0.64452   0.64699   0.65372
 Alpha virt. eigenvalues --    0.66186   0.66797   0.66912   0.67076   0.67150
 Alpha virt. eigenvalues --    0.67637   0.68731   0.68791   0.69548   0.69997
 Alpha virt. eigenvalues --    0.70517   0.70778   0.72418   0.72435   0.72548
 Alpha virt. eigenvalues --    0.73437   0.73483   0.74113   0.74493   0.74831
 Alpha virt. eigenvalues --    0.75199   0.76028   0.76252   0.77173   0.77677
 Alpha virt. eigenvalues --    0.78001   0.78268   0.78411   0.78491   0.78995
 Alpha virt. eigenvalues --    0.79598   0.79794   0.80186   0.80509   0.80818
 Alpha virt. eigenvalues --    0.81462   0.82001   0.82092   0.83240   0.83269
 Alpha virt. eigenvalues --    0.83533   0.84262   0.84426   0.84767   0.84769
 Alpha virt. eigenvalues --    0.85570   0.85923   0.85956   0.86604   0.86631
 Alpha virt. eigenvalues --    0.86981   0.87203   0.87638   0.87926   0.88223
 Alpha virt. eigenvalues --    0.88472   0.88919   0.89151   0.89429   0.89650
 Alpha virt. eigenvalues --    0.90097   0.90476   0.90934   0.90988   0.91447
 Alpha virt. eigenvalues --    0.91855   0.93012   0.93518   0.93712   0.93871
 Alpha virt. eigenvalues --    0.94565   0.95032   0.95237   0.95601   0.95860
 Alpha virt. eigenvalues --    0.96859   0.96921   0.97502   0.97735   0.97958
 Alpha virt. eigenvalues --    0.98280   0.99238   0.99851   0.99958   1.00419
 Alpha virt. eigenvalues --    1.00773   1.01031   1.01067   1.01695   1.02316
 Alpha virt. eigenvalues --    1.03314   1.03360   1.03895   1.04043   1.04807
 Alpha virt. eigenvalues --    1.04850   1.05398   1.05409   1.05950   1.06066
 Alpha virt. eigenvalues --    1.06264   1.06870   1.07500   1.07858   1.08045
 Alpha virt. eigenvalues --    1.08354   1.09330   1.09482   1.09849   1.10020
 Alpha virt. eigenvalues --    1.10172   1.10930   1.10942   1.11317   1.11749
 Alpha virt. eigenvalues --    1.12007   1.12539   1.12717   1.12750   1.13522
 Alpha virt. eigenvalues --    1.13769   1.14362   1.15084   1.15233   1.15852
 Alpha virt. eigenvalues --    1.16313   1.16813   1.17129   1.17867   1.18157
 Alpha virt. eigenvalues --    1.18724   1.18732   1.19209   1.19623   1.19766
 Alpha virt. eigenvalues --    1.19882   1.20587   1.21006   1.21741   1.21931
 Alpha virt. eigenvalues --    1.22897   1.23291   1.23355   1.23916   1.25578
 Alpha virt. eigenvalues --    1.25777   1.26130   1.26580   1.27585   1.27589
 Alpha virt. eigenvalues --    1.27935   1.28822   1.29673   1.30058   1.30270
 Alpha virt. eigenvalues --    1.31104   1.31197   1.31498   1.31807   1.32378
 Alpha virt. eigenvalues --    1.33047   1.33124   1.33658   1.33871   1.34210
 Alpha virt. eigenvalues --    1.35201   1.35631   1.35751   1.36609   1.36619
 Alpha virt. eigenvalues --    1.38093   1.38529   1.38847   1.40230   1.40387
 Alpha virt. eigenvalues --    1.40872   1.41113   1.41325   1.41909   1.42386
 Alpha virt. eigenvalues --    1.42675   1.42866   1.43409   1.45393   1.46089
 Alpha virt. eigenvalues --    1.46800   1.46877   1.47101   1.47901   1.49073
 Alpha virt. eigenvalues --    1.49270   1.49657   1.50522   1.50591   1.51448
 Alpha virt. eigenvalues --    1.52205   1.52642   1.53143   1.53603   1.54081
 Alpha virt. eigenvalues --    1.54089   1.55764   1.55926   1.56140   1.56477
 Alpha virt. eigenvalues --    1.56654   1.57649   1.57972   1.58296   1.58579
 Alpha virt. eigenvalues --    1.59834   1.60050   1.60523   1.60715   1.61378
 Alpha virt. eigenvalues --    1.61582   1.61720   1.62034   1.62163   1.63448
 Alpha virt. eigenvalues --    1.63780   1.64176   1.64949   1.65864   1.66175
 Alpha virt. eigenvalues --    1.66196   1.66573   1.67570   1.68119   1.68808
 Alpha virt. eigenvalues --    1.69091   1.69310   1.69406   1.70048   1.70597
 Alpha virt. eigenvalues --    1.71637   1.71697   1.72916   1.72980   1.74496
 Alpha virt. eigenvalues --    1.74676   1.75399   1.75874   1.76871   1.76999
 Alpha virt. eigenvalues --    1.77537   1.77873   1.78454   1.78708   1.79404
 Alpha virt. eigenvalues --    1.79629   1.80038   1.81236   1.81331   1.81931
 Alpha virt. eigenvalues --    1.83315   1.83600   1.84139   1.84663   1.85709
 Alpha virt. eigenvalues --    1.85892   1.86049   1.86127   1.86662   1.87784
 Alpha virt. eigenvalues --    1.87884   1.89368   1.90000   1.90086   1.90810
 Alpha virt. eigenvalues --    1.90885   1.92136   1.92681   1.92805   1.93176
 Alpha virt. eigenvalues --    1.94080   1.94644   1.96023   1.96734   1.97186
 Alpha virt. eigenvalues --    1.97207   1.97792   1.98032   1.98989   1.99765
 Alpha virt. eigenvalues --    2.01143   2.01491   2.01940   2.02084   2.02793
 Alpha virt. eigenvalues --    2.03135   2.03571   2.05807   2.06317   2.06369
 Alpha virt. eigenvalues --    2.07638   2.08287   2.10383   2.10863   2.10952
 Alpha virt. eigenvalues --    2.11218   2.12318   2.13534   2.13560   2.14324
 Alpha virt. eigenvalues --    2.15418   2.15917   2.17619   2.18163   2.19323
 Alpha virt. eigenvalues --    2.19600   2.19918   2.20331   2.21349   2.22699
 Alpha virt. eigenvalues --    2.22726   2.24084   2.24451   2.25133   2.25964
 Alpha virt. eigenvalues --    2.27434   2.28217   2.29027   2.30698   2.30832
 Alpha virt. eigenvalues --    2.31112   2.31655   2.32562   2.33868   2.34253
 Alpha virt. eigenvalues --    2.35490   2.36211   2.36617   2.37106   2.38327
 Alpha virt. eigenvalues --    2.38857   2.40505   2.42339   2.42710   2.43000
 Alpha virt. eigenvalues --    2.45887   2.47037   2.47552   2.47630   2.47752
 Alpha virt. eigenvalues --    2.49451   2.49742   2.51319   2.51942   2.52066
 Alpha virt. eigenvalues --    2.54760   2.54798   2.56860   2.57141   2.57405
 Alpha virt. eigenvalues --    2.60120   2.60917   2.61343   2.61881   2.62469
 Alpha virt. eigenvalues --    2.62719   2.63089   2.64683   2.65052   2.65927
 Alpha virt. eigenvalues --    2.69155   2.69742   2.70630   2.70671   2.72557
 Alpha virt. eigenvalues --    2.73928   2.74524   2.75096   2.75936   2.77702
 Alpha virt. eigenvalues --    2.78769   2.78815   2.80825   2.81405   2.83017
 Alpha virt. eigenvalues --    2.83189   2.83876   2.85734   2.86073   2.87318
 Alpha virt. eigenvalues --    2.88347   2.89508   2.90901   2.92063   2.92263
 Alpha virt. eigenvalues --    2.95250   2.95323   2.96146   2.96290   2.96836
 Alpha virt. eigenvalues --    2.97006   2.98356   2.99433   2.99684   3.01107
 Alpha virt. eigenvalues --    3.01363   3.01393   3.03351   3.03411   3.04854
 Alpha virt. eigenvalues --    3.06438   3.07506   3.07653   3.08164   3.09088
 Alpha virt. eigenvalues --    3.11224   3.12904   3.12996   3.13371   3.13602
 Alpha virt. eigenvalues --    3.14834   3.14971   3.15703   3.16511   3.17035
 Alpha virt. eigenvalues --    3.17764   3.19422   3.20046   3.21411   3.22207
 Alpha virt. eigenvalues --    3.22910   3.23362   3.24116   3.24134   3.25152
 Alpha virt. eigenvalues --    3.27359   3.27476   3.27652   3.29825   3.30576
 Alpha virt. eigenvalues --    3.31818   3.32560   3.33041   3.33438   3.33901
 Alpha virt. eigenvalues --    3.34386   3.34617   3.34862   3.36267   3.36639
 Alpha virt. eigenvalues --    3.37026   3.37787   3.37810   3.39699   3.40149
 Alpha virt. eigenvalues --    3.40173   3.42467   3.42697   3.44303   3.45496
 Alpha virt. eigenvalues --    3.46295   3.46399   3.47269   3.47429   3.47959
 Alpha virt. eigenvalues --    3.48535   3.48651   3.50969   3.51755   3.52921
 Alpha virt. eigenvalues --    3.53292   3.53953   3.55618   3.55857   3.56743
 Alpha virt. eigenvalues --    3.56908   3.57386   3.58730   3.59548   3.60266
 Alpha virt. eigenvalues --    3.60588   3.60919   3.61156   3.62198   3.62553
 Alpha virt. eigenvalues --    3.63759   3.64087   3.64170   3.64669   3.64690
 Alpha virt. eigenvalues --    3.66512   3.67100   3.67570   3.68015   3.68580
 Alpha virt. eigenvalues --    3.69349   3.70622   3.70931   3.71148   3.71746
 Alpha virt. eigenvalues --    3.73590   3.74252   3.74885   3.75548   3.75847
 Alpha virt. eigenvalues --    3.76551   3.77785   3.77972   3.78205   3.79255
 Alpha virt. eigenvalues --    3.80560   3.81151   3.81274   3.82027   3.82396
 Alpha virt. eigenvalues --    3.83054   3.83196   3.84968   3.85141   3.85858
 Alpha virt. eigenvalues --    3.86216   3.86664   3.87438   3.87663   3.88277
 Alpha virt. eigenvalues --    3.89626   3.90557   3.91732   3.93177   3.94254
 Alpha virt. eigenvalues --    3.94586   3.95836   3.96548   3.96731   3.97963
 Alpha virt. eigenvalues --    3.99016   3.99970   4.01056   4.02494   4.02557
 Alpha virt. eigenvalues --    4.03627   4.03875   4.05274   4.06089   4.06298
 Alpha virt. eigenvalues --    4.06923   4.06979   4.08111   4.08662   4.09847
 Alpha virt. eigenvalues --    4.10790   4.11318   4.11430   4.12406   4.13391
 Alpha virt. eigenvalues --    4.13963   4.14302   4.14742   4.15907   4.16892
 Alpha virt. eigenvalues --    4.17789   4.18704   4.18892   4.20076   4.21606
 Alpha virt. eigenvalues --    4.21688   4.22267   4.22817   4.23108   4.24561
 Alpha virt. eigenvalues --    4.25704   4.27136   4.27584   4.28328   4.29097
 Alpha virt. eigenvalues --    4.30017   4.31193   4.31386   4.32438   4.33884
 Alpha virt. eigenvalues --    4.33944   4.35544   4.35665   4.37788   4.38437
 Alpha virt. eigenvalues --    4.39191   4.39572   4.40847   4.42887   4.43794
 Alpha virt. eigenvalues --    4.44602   4.45152   4.45489   4.46818   4.47300
 Alpha virt. eigenvalues --    4.48710   4.50698   4.51444   4.52100   4.52929
 Alpha virt. eigenvalues --    4.53314   4.53450   4.55253   4.55929   4.56788
 Alpha virt. eigenvalues --    4.58020   4.58338   4.58627   4.61182   4.62221
 Alpha virt. eigenvalues --    4.62506   4.63846   4.64640   4.66423   4.68283
 Alpha virt. eigenvalues --    4.68691   4.69399   4.70846   4.71800   4.71926
 Alpha virt. eigenvalues --    4.74218   4.74638   4.75740   4.76564   4.78047
 Alpha virt. eigenvalues --    4.78769   4.79911   4.80252   4.81574   4.82002
 Alpha virt. eigenvalues --    4.83612   4.85068   4.86642   4.87372   4.87489
 Alpha virt. eigenvalues --    4.88682   4.88995   4.91479   4.92062   4.92785
 Alpha virt. eigenvalues --    4.94162   4.95015   4.97145   4.97737   4.98564
 Alpha virt. eigenvalues --    4.98843   5.00033   5.00160   5.01010   5.02435
 Alpha virt. eigenvalues --    5.04089   5.04170   5.05511   5.08642   5.09365
 Alpha virt. eigenvalues --    5.10264   5.10577   5.11084   5.12304   5.12983
 Alpha virt. eigenvalues --    5.15541   5.16173   5.17273   5.18816   5.20428
 Alpha virt. eigenvalues --    5.20535   5.22732   5.23698   5.24161   5.24406
 Alpha virt. eigenvalues --    5.24869   5.27738   5.29352   5.33695   5.34910
 Alpha virt. eigenvalues --    5.35213   5.37780   5.39136   5.40953   5.44243
 Alpha virt. eigenvalues --    5.44761   5.45268   5.45804   5.47259   5.48881
 Alpha virt. eigenvalues --    5.51575   5.52981   5.54011   5.55583   5.57645
 Alpha virt. eigenvalues --    5.58769   5.59235   5.60244   5.61934   5.65252
 Alpha virt. eigenvalues --    5.65488   5.69316   5.70180   5.73385   5.73583
 Alpha virt. eigenvalues --    5.73979   5.74218   5.77332   5.80604   5.80802
 Alpha virt. eigenvalues --    5.84559   5.85267   5.87303   5.87735   5.92271
 Alpha virt. eigenvalues --    5.94951   5.96467   5.98651   5.98813   6.01030
 Alpha virt. eigenvalues --    6.03097   6.04940   6.06618   6.09854   6.10259
 Alpha virt. eigenvalues --    6.13987   6.16225   6.21943   6.23949   6.26654
 Alpha virt. eigenvalues --    6.29811   6.31718   6.33899   6.36347   6.43132
 Alpha virt. eigenvalues --    6.51727   6.56359   6.57145   6.59436   6.60883
 Alpha virt. eigenvalues --    6.66267   6.66485   6.67565   6.72383   6.74695
 Alpha virt. eigenvalues --    6.75657   6.77839   6.80178   6.82628   6.83821
 Alpha virt. eigenvalues --    6.90311   6.98410   6.98432   7.00351   7.02412
 Alpha virt. eigenvalues --    7.07166   7.11075   7.13972   7.15519   7.19547
 Alpha virt. eigenvalues --    7.22357   7.27643   7.29736   7.35682   7.41562
 Alpha virt. eigenvalues --    7.46777   7.47719   7.51515   7.63710   7.71274
 Alpha virt. eigenvalues --    7.72375   7.82975   7.91427   8.07267   8.20897
 Alpha virt. eigenvalues --    8.43077   8.45439   8.72593   8.75447   8.78683
 Alpha virt. eigenvalues --    8.81432   8.82716   8.88684   8.96528   8.98016
 Alpha virt. eigenvalues --    9.08916   9.12611   9.13714   9.14426   9.14779
 Alpha virt. eigenvalues --    9.17495   9.19690   9.20213   9.22778   9.24628
 Alpha virt. eigenvalues --    9.29355   9.29576   9.30407   9.31886   9.35754
 Alpha virt. eigenvalues --    9.37971   9.38697   9.40114   9.47111   9.48620
 Alpha virt. eigenvalues --    9.50153   9.53070   9.59730   9.71507   9.73692
 Alpha virt. eigenvalues --    9.79363   9.93379  10.00380  15.23731  15.77467
 Alpha virt. eigenvalues --   15.94014  16.00955  16.31658  16.49272  16.77060
 Alpha virt. eigenvalues --   17.36904  17.55403  18.02257  18.29771  18.65026
 Alpha virt. eigenvalues --   19.31457  20.03409  20.57010  20.89110  21.38871
          Condensed to atoms (all electrons):
               1          2          3          4          5          6
     1  C    8.580840  -0.086145  -0.647696   0.108562  -0.028439   0.015300
     2  N   -0.086145   8.052410   0.438750  -0.171769  -0.322051  -0.074936
     3  C   -0.647696   0.438750   5.801981   0.267522   0.246820  -0.114360
     4  O    0.108562  -0.171769   0.267522   8.849186  -0.068499  -0.005587
     5  O   -0.028439  -0.322051   0.246820  -0.068499   8.603835   0.193229
     6  C    0.015300  -0.074936  -0.114360  -0.005587   0.193229   5.545632
     7  C   -0.014029  -0.002972   0.021699  -0.012751  -0.110081   0.075884
     8  C   -0.000339  -0.000384  -0.003036  -0.005500   0.000409  -0.033784
     9  C   -1.156954  -0.378267  -0.166395  -0.147464  -0.012497  -0.040965
    10  C    0.225309   0.094117  -0.038648   0.061742  -0.001872  -0.007891
    11  C   -0.228242   0.018856   0.009863  -0.003371   0.001165   0.002432
    12  C   -0.040002   0.099084   0.031513   0.007509   0.005671   0.000362
    13  C   -0.556518  -0.530118   0.032063  -0.001678  -0.022971  -0.016407
    14  H    0.058391   0.238198  -0.128570   0.029273   0.087884   0.003075
    15  H   -0.007250   0.019598  -0.034628  -0.003262  -0.035774   0.308653
    16  H   -0.007224   0.019586  -0.034709  -0.003248  -0.035748   0.308655
    17  H   -0.001321  -0.007198   0.000190   0.005006  -0.029620   0.044500
    18  H   -0.001316  -0.007198   0.000178   0.005005  -0.029623   0.044517
    19  H    0.000331  -0.000803   0.005374  -0.000016  -0.000538  -0.004103
    20  H    0.000013  -0.000384   0.001523  -0.000428  -0.000155  -0.007139
    21  H    0.000333  -0.000805   0.005373  -0.000015  -0.000541  -0.004100
    22  H   -0.820782  -0.132734  -0.038998  -0.135622   0.005231  -0.036583
    23  C    0.056810  -0.003651   0.006816  -0.003527   0.000615  -0.000980
    24  Cl  -0.064757   0.001428  -0.000751  -0.000148   0.000095  -0.000094
    25  H   -0.053614   0.000498  -0.002432   0.000472   0.000559  -0.000140
    26  H   -0.009679  -0.033006   0.007012  -0.002761  -0.018396   0.001755
    27  F   -0.039747   0.008901   0.011956  -0.007251   0.000705   0.000259
    28  F    0.010969  -0.002270   0.000173   0.000218   0.000011   0.000024
    29  F    0.010953  -0.002256   0.000176   0.000216   0.000012   0.000024
               7          8          9         10         11         12
     1  C   -0.014029  -0.000339  -1.156954   0.225309  -0.228242  -0.040002
     2  N   -0.002972  -0.000384  -0.378267   0.094117   0.018856   0.099084
     3  C    0.021699  -0.003036  -0.166395  -0.038648   0.009863   0.031513
     4  O   -0.012751  -0.005500  -0.147464   0.061742  -0.003371   0.007509
     5  O   -0.110081   0.000409  -0.012497  -0.001872   0.001165   0.005671
     6  C    0.075884  -0.033784  -0.040965  -0.007891   0.002432   0.000362
     7  C    5.507767   0.119050  -0.003914   0.001306  -0.000228   0.000415
     8  C    0.119050   5.793391  -0.001175   0.000017  -0.000020   0.000049
     9  C   -0.003914  -0.001175   9.852193  -0.948922   0.220052  -0.303340
    10  C    0.001306   0.000017  -0.948922   7.581540  -0.465059   0.066718
    11  C   -0.000228  -0.000020   0.220052  -0.465059   6.307314  -0.276550
    12  C    0.000415   0.000049  -0.303340   0.066718  -0.276550   7.901593
    13  C    0.001934  -0.000037  -0.078966  -0.259024   0.107771  -0.391169
    14  H    0.005284   0.000186  -0.055952   0.000349  -0.000130   0.000252
    15  H    0.013313  -0.003028   0.002957  -0.000437   0.000179  -0.000201
    16  H    0.013280  -0.003032   0.002959  -0.000434   0.000180  -0.000203
    17  H    0.404924  -0.039108  -0.000327   0.000012  -0.000011   0.000087
    18  H    0.404917  -0.039114  -0.000328   0.000012  -0.000011   0.000087
    19  H    0.036637   0.361842   0.000080   0.000046  -0.000004   0.000008
    20  H   -0.030099   0.450234  -0.000112  -0.000011  -0.000001   0.000002
    21  H    0.036637   0.361836   0.000080   0.000046  -0.000004   0.000008
    22  H   -0.001097  -0.000336   0.459545  -0.440932  -0.075005  -0.032806
    23  C   -0.000037  -0.000012  -0.433634  -0.436459  -0.040474   0.081695
    24  Cl  -0.000002  -0.000000   0.077310   0.038131  -0.131486  -0.275022
    25  H    0.000023   0.000001   0.021949   0.055272  -0.110062   0.292785
    26  H   -0.000439   0.000001  -0.006110  -0.045251   0.020439  -0.396240
    27  F    0.000002  -0.000002   0.023538  -0.022515   0.013264  -0.005315
    28  F    0.000002  -0.000000  -0.047884   0.063006  -0.018696   0.004833
    29  F    0.000002  -0.000000  -0.047835   0.063018  -0.018732   0.004827
              13         14         15         16         17         18
     1  C   -0.556518   0.058391  -0.007250  -0.007224  -0.001321  -0.001316
     2  N   -0.530118   0.238198   0.019598   0.019586  -0.007198  -0.007198
     3  C    0.032063  -0.128570  -0.034628  -0.034709   0.000190   0.000178
     4  O   -0.001678   0.029273  -0.003262  -0.003248   0.005006   0.005005
     5  O   -0.022971   0.087884  -0.035774  -0.035748  -0.029620  -0.029623
     6  C   -0.016407   0.003075   0.308653   0.308655   0.044500   0.044517
     7  C    0.001934   0.005284   0.013313   0.013280   0.404924   0.404917
     8  C   -0.000037   0.000186  -0.003028  -0.003032  -0.039108  -0.039114
     9  C   -0.078966  -0.055952   0.002957   0.002959  -0.000327  -0.000328
    10  C   -0.259024   0.000349  -0.000437  -0.000434   0.000012   0.000012
    11  C    0.107771  -0.000130   0.000179   0.000180  -0.000011  -0.000011
    12  C   -0.391169   0.000252  -0.000201  -0.000203   0.000087   0.000087
    13  C    8.077197   0.024543  -0.000315  -0.000318  -0.000000  -0.000001
    14  H    0.024543   0.813251  -0.000855  -0.000855  -0.000259  -0.000260
    15  H   -0.000315  -0.000855   0.414774   0.013975   0.017783  -0.018415
    16  H   -0.000318  -0.000855   0.013975   0.414812  -0.018420   0.017783
    17  H   -0.000000  -0.000259   0.017783  -0.018420   0.403099   0.007310
    18  H   -0.000001  -0.000260  -0.018415   0.017783   0.007310   0.403099
    19  H    0.000019   0.000087  -0.008172  -0.009431   0.000789   0.000725
    20  H   -0.000016  -0.000022   0.000055   0.000053  -0.001884  -0.001885
    21  H    0.000019   0.000087  -0.009430  -0.008172   0.000726   0.000791
    22  H   -0.010654  -0.033631  -0.003043  -0.003041  -0.000134  -0.000135
    23  C   -0.000485  -0.000398  -0.000090  -0.000091   0.000000   0.000000
    24  Cl   0.079263  -0.000518  -0.000002  -0.000002  -0.000002  -0.000002
    25  H   -0.131021  -0.001712  -0.000031  -0.000031   0.000006   0.000006
    26  H    0.085019  -0.040850   0.000241   0.000241  -0.000045  -0.000045
    27  F   -0.001377   0.000058   0.000080   0.000080  -0.000001  -0.000001
    28  F   -0.003990   0.000052  -0.000009  -0.000012   0.000000   0.000001
    29  F   -0.003992   0.000051  -0.000012  -0.000009   0.000001   0.000000
              19         20         21         22         23         24
     1  C    0.000331   0.000013   0.000333  -0.820782   0.056810  -0.064757
     2  N   -0.000803  -0.000384  -0.000805  -0.132734  -0.003651   0.001428
     3  C    0.005374   0.001523   0.005373  -0.038998   0.006816  -0.000751
     4  O   -0.000016  -0.000428  -0.000015  -0.135622  -0.003527  -0.000148
     5  O   -0.000538  -0.000155  -0.000541   0.005231   0.000615   0.000095
     6  C   -0.004103  -0.007139  -0.004100  -0.036583  -0.000980  -0.000094
     7  C    0.036637  -0.030099   0.036637  -0.001097  -0.000037  -0.000002
     8  C    0.361842   0.450234   0.361836  -0.000336  -0.000012  -0.000000
     9  C    0.000080  -0.000112   0.000080   0.459545  -0.433634   0.077310
    10  C    0.000046  -0.000011   0.000046  -0.440932  -0.436459   0.038131
    11  C   -0.000004  -0.000001  -0.000004  -0.075005  -0.040474  -0.131486
    12  C    0.000008   0.000002   0.000008  -0.032806   0.081695  -0.275022
    13  C    0.000019  -0.000016   0.000019  -0.010654  -0.000485   0.079263
    14  H    0.000087  -0.000022   0.000087  -0.033631  -0.000398  -0.000518
    15  H   -0.008172   0.000055  -0.009430  -0.003043  -0.000090  -0.000002
    16  H   -0.009431   0.000053  -0.008172  -0.003041  -0.000091  -0.000002
    17  H    0.000789  -0.001884   0.000726  -0.000134   0.000000  -0.000002
    18  H    0.000725  -0.001885   0.000791  -0.000135   0.000000  -0.000002
    19  H    0.315791   0.000605   0.022010   0.000100   0.000002   0.000000
    20  H    0.000605   0.303992   0.000605  -0.000026  -0.000001  -0.000000
    21  H    0.022010   0.000605   0.315786   0.000101   0.000002   0.000000
    22  H    0.000100  -0.000026   0.000101   1.906846  -0.109520  -0.000759
    23  C    0.000002  -0.000001   0.000002  -0.109520   5.121201  -0.044918
    24  Cl   0.000000  -0.000000   0.000000  -0.000759  -0.044918  17.770994
    25  H    0.000001  -0.000000   0.000001   0.002361   0.010433   0.030817
    26  H   -0.000007   0.000010  -0.000007  -0.002264  -0.006240  -0.005377
    27  F   -0.000002   0.000000  -0.000002  -0.020273   0.207446   0.010373
    28  F    0.000000  -0.000000   0.000000  -0.002176   0.184281  -0.011752
    29  F    0.000000  -0.000000   0.000000  -0.002169   0.184241  -0.011740
              25         26         27         28         29
     1  C   -0.053614  -0.009679  -0.039747   0.010969   0.010953
     2  N    0.000498  -0.033006   0.008901  -0.002270  -0.002256
     3  C   -0.002432   0.007012   0.011956   0.000173   0.000176
     4  O    0.000472  -0.002761  -0.007251   0.000218   0.000216
     5  O    0.000559  -0.018396   0.000705   0.000011   0.000012
     6  C   -0.000140   0.001755   0.000259   0.000024   0.000024
     7  C    0.000023  -0.000439   0.000002   0.000002   0.000002
     8  C    0.000001   0.000001  -0.000002  -0.000000  -0.000000
     9  C    0.021949  -0.006110   0.023538  -0.047884  -0.047835
    10  C    0.055272  -0.045251  -0.022515   0.063006   0.063018
    11  C   -0.110062   0.020439   0.013264  -0.018696  -0.018732
    12  C    0.292785  -0.396240  -0.005315   0.004833   0.004827
    13  C   -0.131021   0.085019  -0.001377  -0.003990  -0.003992
    14  H   -0.001712  -0.040850   0.000058   0.000052   0.000051
    15  H   -0.000031   0.000241   0.000080  -0.000009  -0.000012
    16  H   -0.000031   0.000241   0.000080  -0.000012  -0.000009
    17  H    0.000006  -0.000045  -0.000001   0.000000   0.000001
    18  H    0.000006  -0.000045  -0.000001   0.000001   0.000000
    19  H    0.000001  -0.000007  -0.000002   0.000000   0.000000
    20  H   -0.000000   0.000010   0.000000  -0.000000  -0.000000
    21  H    0.000001  -0.000007  -0.000002   0.000000   0.000000
    22  H    0.002361  -0.002264  -0.020273  -0.002176  -0.002169
    23  C    0.010433  -0.006240   0.207446   0.184281   0.184241
    24  Cl   0.030817  -0.005377   0.010373  -0.011752  -0.011740
    25  H    0.584503  -0.102243  -0.000251  -0.000869  -0.000872
    26  H   -0.102243   1.060278  -0.000017  -0.000439  -0.000438
    27  F   -0.000251  -0.000017   9.323381  -0.069987  -0.069984
    28  F   -0.000869  -0.000439  -0.069987   9.318783  -0.015882
    29  F   -0.000872  -0.000438  -0.069984  -0.015882   9.318767
 Mulliken charges:
               1
     1  C    0.696243
     2  N   -0.234479
     3  C    0.321243
     4  O   -0.761812
     5  O   -0.429435
     6  C   -0.197232
     7  C   -0.467429
     8  C   -0.958106
     9  C   -0.829623
    10  C    0.416816
    11  C    0.666574
    12  C   -0.776648
    13  C   -0.398772
    14  H    0.002990
    15  H    0.333347
    16  H    0.333377
    17  H    0.213899
    18  H    0.213903
    19  H    0.278629
    20  H    0.285072
    21  H    0.278636
    22  H    0.528535
    23  C    1.226974
    24  Cl  -0.461080
    25  H    0.403592
    26  H    0.494858
    27  F   -0.363317
    28  F   -0.408389
    29  F   -0.408367
 Sum of Mulliken charges =  -0.00000
 Mulliken charges with hydrogens summed into heavy atoms:
               1
     1  C    0.696243
     2  N   -0.231489
     3  C    0.321243
     4  O   -0.761812
     5  O   -0.429435
     6  C    0.469492
     7  C   -0.039627
     8  C   -0.115769
     9  C   -0.301088
    10  C    0.416816
    11  C    0.666574
    12  C   -0.373056
    13  C    0.096086
    23  C    1.226974
    24  Cl  -0.461080
    27  F   -0.363317
    28  F   -0.408389
    29  F   -0.408367
 Electronic spatial extent (au):  <R**2>=           7981.1429
 Charge=             -0.0000 electrons
 Dipole moment (field-independent basis, Debye):
    X=              5.0746    Y=             -4.2647    Z=              0.0003  Tot=              6.6287
 Quadrupole moment (field-independent basis, Debye-Ang):
   XX=           -103.9307   YY=           -106.6465   ZZ=           -112.2693
   XY=              2.1046   XZ=             -0.0002   YZ=              0.0004
 Traceless Quadrupole moment (field-independent basis, Debye-Ang):
   XX=              3.6848   YY=              0.9690   ZZ=             -4.6538
   XY=              2.1046   XZ=             -0.0002   YZ=              0.0004
 Octapole moment (field-independent basis, Debye-Ang**2):
  XXX=            103.9181  YYY=             -2.4628  ZZZ=             -0.0002  XYY=            -12.3197
  XXY=              4.2650  XXZ=             -0.0041  XZZ=             -2.8422  YZZ=             16.2036
  YYZ=              0.0036  XYZ=              0.0016
 Hexadecapole moment (field-independent basis, Debye-Ang**3):
 XXXX=          -8177.0241 YYYY=          -1170.4957 ZZZZ=           -199.6625 XXXY=            -41.5439
 XXXZ=             -0.0008 YYYX=            -83.9412 YYYZ=              0.0021 ZZZX=             -0.0016
 ZZZY=              0.0011 XXYY=          -1674.2051 XXZZ=          -1489.8608 YYZZ=           -252.7520
 XXYZ=              0.0129 YYXZ=              0.0128 ZZXY=            -27.7036
 N-N= 1.451478066366D+03 E-N=-6.179303959418D+03  KE= 1.384121892678D+03
 Unable to Open any file for archive entry.
 1\1\GINC-GADI-CPU-CLX-0748\SP\RDSDPBEP86-FC\Aug-CC-pVTZ\C11H11Cl1F3N1O
 2\HIO507\10-Sep-2020\0\\# DSDPBEP86/AUG-cc-PVTZ SCF=Tight INT(grid=ult
 rafine) MaxDisk=60000MB\\29CA.DSDPBEP86_AUG-cc-PVTZ\\0,1\C,0,-6.188472
 6944,1.2708506961,0.0098388012\N,0,-4.8985843131,0.7251385156,0.012011
 1908\C,0,-3.7052271321,1.4006634757,-0.0291994526\O,0,-3.5605996156,2.
 5943976032,-0.07471537\O,0,-2.6999251114,0.5090928486,-0.0106726713\C,
 0,-1.3789049779,1.0711693764,-0.049646284\C,0,-0.390961166,-0.07488663
 58,-0.0215811225\C,0,1.0446217515,0.4418911681,-0.0605761812\C,0,-6.44
 10499935,2.6431988128,-0.0364035918\C,0,-7.7522748417,3.1075462676,-0.
 0353376714\C,0,-8.8205077866,2.2139602,0.0116162297\C,0,-8.5689061367,
 0.8495246288,0.0576045416\C,0,-7.2657680572,0.3831264348,0.0567015602\
 H,0,-4.8219904553,-0.2804542175,0.0474905383\H,0,-1.2534154948,1.73620
 71636,0.8082452829\H,0,-1.2780638137,1.6717300232,-0.9569276035\H,0,-0
 .583110477,-0.7315151266,-0.8744850897\H,0,-0.5585229223,-0.6672951028
 ,0.8820217353\H,0,1.2332644836,1.0215215271,-0.9674378891\H,0,1.758208
 7215,-0.3826702318,-0.0404230569\H,0,1.2579608751,1.0859927514,0.79591
 58978\H,0,-5.6216794759,3.3444373264,-0.0729870546\C,0,-7.9934773873,4
 .597046604,-0.0858574637\Cl,0,-10.471779752,2.7538704659,0.0146399129\
 H,0,-9.3995886316,0.1559723915,0.0940690466\H,0,-7.0843149257,-0.68636
 6511,0.0929510234\F,0,-6.8461059374,5.283722028,-0.1264749732\F,0,-8.6
 985990842,4.9498230623,-1.1687166499\F,0,-8.6689956484,5.0278044546,0.
 9876363646\\Version=ES64L-G16RevC.01\State=1-A\HF=-1387.6174487\MP2=-1
 389.3232811\RMSD=3.292e-09\PG=C01 [X(C11H11Cl1F3N1O2)]\\@
 The archive entry for this job was punched.


 AND HERE I AM, FOR ALL MY LORE,
 THE WRETCHED FOOL I WAS BEFORE.
 CALLED MASTER OF ARTS, AND DOCTOR TO BOOT,
 FOR TEN YEARS ALMOST I CONFUTE
 AND UP AND DOWN, WHEREVER IT GOES
 I DRAG MY STUDENTS BY THE NOSE --
 AND SEE THAT FOR ALL OUR SCIENCE AND ART
 WE CAN KNOW NOTHING.  IT BURNS MY HEART.

                                       -- FAUST
 Job cpu time:       1 days  1 hours 19 minutes 24.7 seconds.
 Elapsed time:       0 days  4 hours 14 minutes  2.0 seconds.
 File lengths (MBytes):  RWF=    609 Int=      0 D2E=      0 Chk=     77 Scr=      1
 Normal termination of Gaussian 16 at Thu Sep 10 15:35:32 2020.
