 Entering Gaussian System, Link 0=/apps/gaussian/g09e01/g09/g09
 Initial command:
 /apps/gaussian/g09e01/g09/l1.exe "/jobfs/local/3588062.r-man2/Gau-17644.inp" -scrdir="/jobfs/local/3588062.r-man2/"
 Entering Link 1 = /apps/gaussian/g09e01/g09/l1.exe PID=     17645.
  
 Copyright (c) 1988,1990,1992,1993,1995,1998,2003,2009,2015,
            Gaussian, Inc.  All Rights Reserved.
  
 This is part of the Gaussian(R) 09 program.  It is based on
 the Gaussian(R) 03 system (copyright 2003, Gaussian, Inc.),
 the Gaussian(R) 98 system (copyright 1998, Gaussian, Inc.),
 the Gaussian(R) 94 system (copyright 1995, Gaussian, Inc.),
 the Gaussian 92(TM) system (copyright 1992, Gaussian, Inc.),
 the Gaussian 90(TM) system (copyright 1990, Gaussian, Inc.),
 the Gaussian 88(TM) system (copyright 1988, Gaussian, Inc.),
 the Gaussian 86(TM) system (copyright 1986, Carnegie Mellon
 University), and the Gaussian 82(TM) system (copyright 1983,
 Carnegie Mellon University). Gaussian is a federally registered
 trademark of Gaussian, Inc.
  
 This software contains proprietary and confidential information,
 including trade secrets, belonging to Gaussian, Inc.
  
 This software is provided under written license and may be
 used, copied, transmitted, or stored only in accord with that
 written license.
  
 The following legend is applicable only to US Government
 contracts under FAR:
  
                    RESTRICTED RIGHTS LEGEND
  
 Use, reproduction and disclosure by the US Government is
 subject to restrictions as set forth in subparagraphs (a)
 and (c) of the Commercial Computer Software - Restricted
 Rights clause in FAR 52.227-19.
  
 Gaussian, Inc.
 340 Quinnipiac St., Bldg. 40, Wallingford CT 06492
  
  
 ---------------------------------------------------------------
 Warning -- This program may not be used in any manner that
 competes with the business of Gaussian, Inc. or will provide
 assistance to any competitor of Gaussian, Inc.  The licensee
 of this program is prohibited from giving any competitor of
 Gaussian, Inc. access to this program.  By using this program,
 the user acknowledges that Gaussian, Inc. is engaged in the
 business of creating and licensing software in the field of
 computational chemistry and represents and warrants to the
 licensee that it is not a competitor of Gaussian, Inc. and that
 it will not use this program in any manner prohibited above.
 ---------------------------------------------------------------
  

 Cite this work as:
 Gaussian 09, Revision E.01,
 M. J. Frisch, G. W. Trucks, H. B. Schlegel, G. E. Scuseria, 
 M. A. Robb, J. R. Cheeseman, G. Scalmani, V. Barone, B. Mennucci, 
 G. A. Petersson, H. Nakatsuji, M. Caricato, X. Li, H. P. Hratchian, 
 A. F. Izmaylov, J. Bloino, G. Zheng, J. L. Sonnenberg, M. Hada, 
 M. Ehara, K. Toyota, R. Fukuda, J. Hasegawa, M. Ishida, T. Nakajima, 
 Y. Honda, O. Kitao, H. Nakai, T. Vreven, J. A. Montgomery, Jr., 
 J. E. Peralta, F. Ogliaro, M. Bearpark, J. J. Heyd, E. Brothers, 
 K. N. Kudin, V. N. Staroverov, T. Keith, R. Kobayashi, J. Normand, 
 K. Raghavachari, A. Rendell, J. C. Burant, S. S. Iyengar, J. Tomasi, 
 M. Cossi, N. Rega, J. M. Millam, M. Klene, J. E. Knox, J. B. Cross, 
 V. Bakken, C. Adamo, J. Jaramillo, R. Gomperts, R. E. Stratmann, 
 O. Yazyev, A. J. Austin, R. Cammi, C. Pomelli, J. W. Ochterski, 
 R. L. Martin, K. Morokuma, V. G. Zakrzewski, G. A. Voth, 
 P. Salvador, J. J. Dannenberg, S. Dapprich, A. D. Daniels, 
 O. Farkas, J. B. Foresman, J. V. Ortiz, J. Cioslowski, 
 and D. J. Fox, Gaussian, Inc., Wallingford CT, 2013.
 
 ******************************************
 Gaussian 09:  ES64L-G09RevE.01 30-Nov-2015
                14-Nov-2019 
 ******************************************
 %chk=29CA_c2.M062X_6-311pGd_opt_water_GD3.chk
 %mem=196608000
 %nproc=4
 Will use up to    4 processors via shared memory.
 ----------------------------------------------------------------------
 # M062X/6-311+G* SCF=Tight INT(grid=ultrafine) OPT IOP(2/17=4) Empiric
 alDispersion=GD3 SCRF=(SMD,Solvent=h2o) maxdisk=2147483648
 ----------------------------------------------------------------------
 1/14=-1,18=20,19=15,26=4,38=1/1,3;
 2/9=110,12=2,17=4,18=5,40=1/2;
 3/5=4,6=6,7=11,11=2,16=1,25=1,30=1,70=32201,71=1,72=1,74=-55,75=-5,124=31/1,2,3;
 4//1;
 5/5=2,32=2,38=5,53=1/2;
 6/7=2,8=2,9=2,10=2,28=1/1;
 7//1,2,3,16;
 1/14=-1,18=20,19=15,26=4/3(2);
 2/9=110,17=4/2;
 99//99;
 2/9=110,17=4/2;
 3/5=4,6=6,7=11,11=2,16=1,25=1,30=1,70=32205,71=1,72=1,74=-55,75=-5,124=31/1,2,3;
 4/5=5,16=3,69=1/1;
 5/5=2,32=2,38=5,53=1/2;
 7//1,2,3,16;
 1/14=-1,18=20,19=15,26=4/3(-5);
 2/9=110,17=4/2;
 6/7=2,8=2,9=2,10=2,19=2,28=1/1;
 99/9=1/99;
 ------------------------------------
 29CA_c2.M062X_6-311pGd_opt_water_GD3
 ------------------------------------
 Symbolic Z-matrix:
 Charge =  0 Multiplicity = 1
 C                    -6.18499   1.47355   0.0221 
 N                    -4.92524   0.86729   0.11369 
 C                    -3.71038   1.46435  -0.03661 
 O                    -3.51601   2.64358  -0.25782 
 O                    -2.73711   0.55459   0.09467 
 C                    -1.3863    1.04447  -0.04348 
 C                    -0.45268  -0.12901   0.14782 
 C                     0.99926   0.31855   0.01839 
 C                    -7.288     0.62044  -0.07065 
 C                    -8.57449   1.13116  -0.14041 
 C                    -8.77138   2.51294  -0.12443 
 C                    -7.68145   3.3622   -0.03231 
 C                    -6.39061   2.85341   0.04564 
 H                    -4.91089  -0.13879   0.23067 
 H                    -1.21764   1.81726   0.70933 
 H                    -1.27593   1.48703  -1.03564 
 H                    -0.68143  -0.89493  -0.5982 
 H                    -0.62769  -0.56871   1.13351 
 H                     1.19292   0.74759  -0.96795 
 H                     1.67955  -0.52343   0.15594 
 H                     1.24656   1.0747    0.76774 
 H                    -7.13014  -0.45179  -0.08699 
 C                    -9.73678   0.1818   -0.23441 
 Cl                   -10.36911   3.20619  -0.21215 
 H                    -7.83597   4.43408  -0.01372 
 H                    -5.55962   3.53654   0.13143 
 F                    -9.34583  -1.0981   -0.23772 
 F                    -10.58872   0.3206    0.79542 
 F                    -10.45374   0.36753  -1.35553 
 

 GradGradGradGradGradGradGradGradGradGradGradGradGradGradGradGradGradGrad
 Berny optimization.
 Initialization pass.
                           ----------------------------
                           !    Initial Parameters    !
                           ! (Angstroms and Degrees)  !
 --------------------------                            --------------------------
 ! Name  Definition              Value          Derivative Info.                !
 --------------------------------------------------------------------------------
 ! R1    R(1,2)                  1.401          estimate D2E/DX2                !
 ! R2    R(1,9)                  1.3975         estimate D2E/DX2                !
 ! R3    R(1,13)                 1.3953         estimate D2E/DX2                !
 ! R4    R(2,3)                  1.362          estimate D2E/DX2                !
 ! R5    R(2,14)                 1.013          estimate D2E/DX2                !
 ! R6    R(3,4)                  1.2154         estimate D2E/DX2                !
 ! R7    R(3,5)                  1.3387         estimate D2E/DX2                !
 ! R8    R(5,6)                  1.4435         estimate D2E/DX2                !
 ! R9    R(6,7)                  1.5117         estimate D2E/DX2                !
 ! R10   R(6,15)                 1.0919         estimate D2E/DX2                !
 ! R11   R(6,16)                 1.092          estimate D2E/DX2                !
 ! R12   R(7,8)                  1.5249         estimate D2E/DX2                !
 ! R13   R(7,17)                 1.0934         estimate D2E/DX2                !
 ! R14   R(7,18)                 1.0934         estimate D2E/DX2                !
 ! R15   R(8,19)                 1.0929         estimate D2E/DX2                !
 ! R16   R(8,20)                 1.0912         estimate D2E/DX2                !
 ! R17   R(8,21)                 1.0929         estimate D2E/DX2                !
 ! R18   R(9,10)                 1.3859         estimate D2E/DX2                !
 ! R19   R(9,22)                 1.0839         estimate D2E/DX2                !
 ! R20   R(10,11)                1.3958         estimate D2E/DX2                !
 ! R21   R(10,23)                1.5037         estimate D2E/DX2                !
 ! R22   R(11,12)                1.3848         estimate D2E/DX2                !
 ! R23   R(11,24)                1.7438         estimate D2E/DX2                !
 ! R24   R(12,13)                1.3897         estimate D2E/DX2                !
 ! R25   R(12,25)                1.0831         estimate D2E/DX2                !
 ! R26   R(13,26)                1.0792         estimate D2E/DX2                !
 ! R27   R(23,27)                1.3383         estimate D2E/DX2                !
 ! R28   R(23,28)                1.3437         estimate D2E/DX2                !
 ! R29   R(23,29)                1.3437         estimate D2E/DX2                !
 ! A1    A(2,1,9)              116.7348         estimate D2E/DX2                !
 ! A2    A(2,1,13)             124.0099         estimate D2E/DX2                !
 ! A3    A(9,1,13)             119.2423         estimate D2E/DX2                !
 ! A4    A(1,2,3)              127.2377         estimate D2E/DX2                !
 ! A5    A(1,2,14)             116.7481         estimate D2E/DX2                !
 ! A6    A(3,2,14)             115.818          estimate D2E/DX2                !
 ! A7    A(2,3,4)              126.0187         estimate D2E/DX2                !
 ! A8    A(2,3,5)              109.8616         estimate D2E/DX2                !
 ! A9    A(4,3,5)              124.1197         estimate D2E/DX2                !
 ! A10   A(3,5,6)              116.1236         estimate D2E/DX2                !
 ! A11   A(5,6,7)              107.6001         estimate D2E/DX2                !
 ! A12   A(5,6,15)             108.5861         estimate D2E/DX2                !
 ! A13   A(5,6,16)             108.6067         estimate D2E/DX2                !
 ! A14   A(7,6,15)             111.5143         estimate D2E/DX2                !
 ! A15   A(7,6,16)             111.5402         estimate D2E/DX2                !
 ! A16   A(15,6,16)            108.9031         estimate D2E/DX2                !
 ! A17   A(6,7,8)              110.4548         estimate D2E/DX2                !
 ! A18   A(6,7,17)             109.1609         estimate D2E/DX2                !
 ! A19   A(6,7,18)             109.1098         estimate D2E/DX2                !
 ! A20   A(8,7,17)             110.2976         estimate D2E/DX2                !
 ! A21   A(8,7,18)             110.3012         estimate D2E/DX2                !
 ! A22   A(17,7,18)            107.452          estimate D2E/DX2                !
 ! A23   A(7,8,19)             111.1339         estimate D2E/DX2                !
 ! A24   A(7,8,20)             110.8826         estimate D2E/DX2                !
 ! A25   A(7,8,21)             111.1205         estimate D2E/DX2                !
 ! A26   A(19,8,20)            107.8309         estimate D2E/DX2                !
 ! A27   A(19,8,21)            107.8843         estimate D2E/DX2                !
 ! A28   A(20,8,21)            107.8404         estimate D2E/DX2                !
 ! A29   A(1,9,10)             120.7327         estimate D2E/DX2                !
 ! A30   A(1,9,22)             119.3353         estimate D2E/DX2                !
 ! A31   A(10,9,22)            119.932          estimate D2E/DX2                !
 ! A32   A(9,10,11)            119.6807         estimate D2E/DX2                !
 ! A33   A(9,10,23)            119.2089         estimate D2E/DX2                !
 ! A34   A(11,10,23)           121.1104         estimate D2E/DX2                !
 ! A35   A(10,11,12)           119.7907         estimate D2E/DX2                !
 ! A36   A(10,11,24)           121.4801         estimate D2E/DX2                !
 ! A37   A(12,11,24)           118.7288         estimate D2E/DX2                !
 ! A38   A(11,12,13)           120.6831         estimate D2E/DX2                !
 ! A39   A(11,12,25)           119.7204         estimate D2E/DX2                !
 ! A40   A(13,12,25)           119.5951         estimate D2E/DX2                !
 ! A41   A(1,13,12)            119.8684         estimate D2E/DX2                !
 ! A42   A(1,13,26)            120.9231         estimate D2E/DX2                !
 ! A43   A(12,13,26)           119.2068         estimate D2E/DX2                !
 ! A44   A(10,23,27)           112.2206         estimate D2E/DX2                !
 ! A45   A(10,23,28)           112.1449         estimate D2E/DX2                !
 ! A46   A(10,23,29)           112.1683         estimate D2E/DX2                !
 ! A47   A(27,23,28)           106.6123         estimate D2E/DX2                !
 ! A48   A(27,23,29)           106.619          estimate D2E/DX2                !
 ! A49   A(28,23,29)           106.6709         estimate D2E/DX2                !
 ! D1    D(9,1,2,3)            166.7462         estimate D2E/DX2                !
 ! D2    D(9,1,2,14)            -7.9194         estimate D2E/DX2                !
 ! D3    D(13,1,2,3)           -14.5803         estimate D2E/DX2                !
 ! D4    D(13,1,2,14)          170.7541         estimate D2E/DX2                !
 ! D5    D(2,1,9,10)           178.8134         estimate D2E/DX2                !
 ! D6    D(2,1,9,22)            -1.1351         estimate D2E/DX2                !
 ! D7    D(13,1,9,10)            0.0736         estimate D2E/DX2                !
 ! D8    D(13,1,9,22)         -179.875          estimate D2E/DX2                !
 ! D9    D(2,1,13,12)         -179.0874         estimate D2E/DX2                !
 ! D10   D(2,1,13,26)            0.4416         estimate D2E/DX2                !
 ! D11   D(9,1,13,12)           -0.4452         estimate D2E/DX2                !
 ! D12   D(9,1,13,26)          179.0839         estimate D2E/DX2                !
 ! D13   D(1,2,3,4)              1.2367         estimate D2E/DX2                !
 ! D14   D(1,2,3,5)           -178.7245         estimate D2E/DX2                !
 ! D15   D(14,2,3,4)           175.9451         estimate D2E/DX2                !
 ! D16   D(14,2,3,5)            -4.0162         estimate D2E/DX2                !
 ! D17   D(2,3,5,6)            179.8875         estimate D2E/DX2                !
 ! D18   D(4,3,5,6)             -0.0746         estimate D2E/DX2                !
 ! D19   D(3,5,6,7)            179.5941         estimate D2E/DX2                !
 ! D20   D(3,5,6,15)            58.7579         estimate D2E/DX2                !
 ! D21   D(3,5,6,16)           -59.527          estimate D2E/DX2                !
 ! D22   D(5,6,7,8)           -179.8393         estimate D2E/DX2                !
 ! D23   D(5,6,7,17)            58.724          estimate D2E/DX2                !
 ! D24   D(5,6,7,18)           -58.4312         estimate D2E/DX2                !
 ! D25   D(15,6,7,8)           -60.8614         estimate D2E/DX2                !
 ! D26   D(15,6,7,17)          177.7019         estimate D2E/DX2                !
 ! D27   D(15,6,7,18)           60.5467         estimate D2E/DX2                !
 ! D28   D(16,6,7,8)            61.1425         estimate D2E/DX2                !
 ! D29   D(16,6,7,17)          -60.2942         estimate D2E/DX2                !
 ! D30   D(16,6,7,18)         -177.4494         estimate D2E/DX2                !
 ! D31   D(6,7,8,19)           -60.1107         estimate D2E/DX2                !
 ! D32   D(6,7,8,20)           179.9658         estimate D2E/DX2                !
 ! D33   D(6,7,8,21)            60.0392         estimate D2E/DX2                !
 ! D34   D(17,7,8,19)           60.6502         estimate D2E/DX2                !
 ! D35   D(17,7,8,20)          -59.2733         estimate D2E/DX2                !
 ! D36   D(17,7,8,21)         -179.1998         estimate D2E/DX2                !
 ! D37   D(18,7,8,19)          179.1899         estimate D2E/DX2                !
 ! D38   D(18,7,8,20)           59.2664         estimate D2E/DX2                !
 ! D39   D(18,7,8,21)          -60.6602         estimate D2E/DX2                !
 ! D40   D(1,9,10,11)            0.311          estimate D2E/DX2                !
 ! D41   D(1,9,10,23)         -179.7808         estimate D2E/DX2                !
 ! D42   D(22,9,10,11)        -179.7408         estimate D2E/DX2                !
 ! D43   D(22,9,10,23)           0.1674         estimate D2E/DX2                !
 ! D44   D(9,10,11,12)          -0.3237         estimate D2E/DX2                !
 ! D45   D(9,10,11,24)         179.9124         estimate D2E/DX2                !
 ! D46   D(23,10,11,12)        179.77           estimate D2E/DX2                !
 ! D47   D(23,10,11,24)          0.006          estimate D2E/DX2                !
 ! D48   D(9,10,23,27)           0.0078         estimate D2E/DX2                !
 ! D49   D(9,10,23,28)         119.9865         estimate D2E/DX2                !
 ! D50   D(9,10,23,29)        -119.996          estimate D2E/DX2                !
 ! D51   D(11,10,23,27)        179.9146         estimate D2E/DX2                !
 ! D52   D(11,10,23,28)        -60.1067         estimate D2E/DX2                !
 ! D53   D(11,10,23,29)         59.9108         estimate D2E/DX2                !
 ! D54   D(10,11,12,13)         -0.049          estimate D2E/DX2                !
 ! D55   D(10,11,12,25)       -179.6165         estimate D2E/DX2                !
 ! D56   D(24,11,12,13)        179.7215         estimate D2E/DX2                !
 ! D57   D(24,11,12,25)          0.154          estimate D2E/DX2                !
 ! D58   D(11,12,13,1)           0.436          estimate D2E/DX2                !
 ! D59   D(11,12,13,26)       -179.1012         estimate D2E/DX2                !
 ! D60   D(25,12,13,1)        -179.996          estimate D2E/DX2                !
 ! D61   D(25,12,13,26)          0.4669         estimate D2E/DX2                !
 --------------------------------------------------------------------------------
 Trust Radius=3.00D-01 FncErr=1.00D-07 GrdErr=1.00D-06
 Number of steps in this run=    149 maximum allowed number of steps=    174.
 GradGradGradGradGradGradGradGradGradGradGradGradGradGradGradGradGradGrad

                          Input orientation:                          
 ---------------------------------------------------------------------
 Center     Atomic      Atomic             Coordinates (Angstroms)
 Number     Number       Type             X           Y           Z
 ---------------------------------------------------------------------
      1          6           0       -6.184993    1.473546    0.022104
      2          7           0       -4.925237    0.867285    0.113688
      3          6           0       -3.710375    1.464354   -0.036606
      4          8           0       -3.516012    2.643576   -0.257819
      5          8           0       -2.737108    0.554588    0.094673
      6          6           0       -1.386299    1.044475   -0.043478
      7          6           0       -0.452680   -0.129013    0.147818
      8          6           0        0.999262    0.318555    0.018386
      9          6           0       -7.288001    0.620443   -0.070648
     10          6           0       -8.574486    1.131164   -0.140415
     11          6           0       -8.771383    2.512944   -0.124433
     12          6           0       -7.681453    3.362197   -0.032306
     13          6           0       -6.390612    2.853406    0.045641
     14          1           0       -4.910887   -0.138792    0.230666
     15          1           0       -1.217641    1.817256    0.709328
     16          1           0       -1.275934    1.487027   -1.035642
     17          1           0       -0.681427   -0.894930   -0.598204
     18          1           0       -0.627692   -0.568706    1.133511
     19          1           0        1.192919    0.747589   -0.967952
     20          1           0        1.679555   -0.523428    0.155936
     21          1           0        1.246560    1.074703    0.767735
     22          1           0       -7.130138   -0.451785   -0.086992
     23          6           0       -9.736777    0.181797   -0.234406
     24         17           0      -10.369106    3.206190   -0.212152
     25          1           0       -7.835967    4.434080   -0.013717
     26          1           0       -5.559619    3.536541    0.131429
     27          9           0       -9.345831   -1.098105   -0.237716
     28          9           0      -10.588721    0.320595    0.795417
     29          9           0      -10.453744    0.367526   -1.355526
 ---------------------------------------------------------------------
                    Distance matrix (angstroms):
                    1          2          3          4          5
     1  C    0.000000
     2  N    1.401044   0.000000
     3  C    2.475331   1.361972   0.000000
     4  O    2.927590   2.297638   1.215433   0.000000
     5  O    3.568986   2.210442   1.338715   2.257169   0.000000
     6  C    4.818285   3.546855   2.361711   2.671843   1.443523
     7  C    5.953437   4.582308   3.631172   4.151602   2.385109
     8  C    7.276506   5.950620   4.847325   5.086228   3.744595
     9  C    1.397503   2.382764   3.675969   4.284390   4.554371
    10  C    2.419362   3.667590   4.876614   5.281035   5.870493
    11  C    2.791278   4.190194   5.169241   5.258686   6.347885
    12  C    2.410260   3.720568   4.401282   4.232986   5.687296
    13  C    1.395294   2.469135   3.019917   2.898178   4.316834
    14  H    2.065545   1.012956   2.020578   3.150534   2.285735
    15  H    5.026430   3.873436   2.625773   2.626916   2.069036
    16  H    5.021740   3.875881   2.631557   2.638288   2.069320
    17  H    6.023595   4.649959   3.880224   4.546621   2.609023
    18  H    6.024086   4.644460   3.873686   4.538386   2.605880
    19  H    7.479359   6.214186   5.042167   5.125728   4.075725
    20  H    8.115228   6.749752   5.748017   6.098773   4.546733
    21  H    7.479507   6.209821   5.036864   5.118126   4.073468
    22  H    2.147581   2.577171   3.920320   4.761549   4.510489
    23  C    3.788084   4.872574   6.164543   6.690203   7.017310
    24  Cl   4.534725   5.934000   6.885020   6.876301   8.085328
    25  H    3.389949   4.605497   5.083335   4.682680   6.407852
    26  H    2.158470   2.743662   2.782427   2.263897   4.106089
    27  F    4.083111   4.850556   6.193949   6.927292   6.820345
    28  F    4.617372   5.730503   7.022256   7.518560   7.886293
    29  F    4.619890   5.742189   6.958132   7.383596   7.853951
                    6          7          8          9         10
     6  C    0.000000
     7  C    1.511725   0.000000
     8  C    2.494331   1.524862   0.000000
     9  C    5.916978   6.879755   8.293237   0.000000
    10  C    7.189363   8.224041   9.609485   1.385910   0.000000
    11  C    7.530101   8.732404  10.015051   2.405176   1.395829
    12  C    6.708273   8.029704   9.198975   2.770106   2.405556
    13  C    5.321966   6.645622   7.812582   2.409347   2.787479
    14  H    3.728001   4.458987   5.931617   2.513543   3.895183
    15  H    1.091949   2.165276   2.763723   6.236184   7.437470
    16  H    1.091981   2.165620   2.766373   6.150376   7.361856
    17  H    2.136786   1.093390   2.162739   6.798638   8.161802
    18  H    2.136151   1.093413   2.162802   6.871957   8.225812
    19  H    2.755931   2.172871   1.092903   8.529204   9.809900
    20  H    3.449282   2.168422   1.091171   9.043055  10.390902
    21  H    2.755164   2.172705   1.092905   8.587664   9.863106
    22  H    5.935687   6.689377   8.166497   1.083910   2.143531
    23  C    8.397092   9.297158  10.739885   2.493137   1.503680
    24  Cl   9.240795  10.468460  11.731640   4.024838   2.744365
    25  H    7.286187   8.681061   9.746786   3.853224   3.386844
    26  H    4.863907   6.286285   7.306650   3.395846   3.866414
    27  F    8.245152   8.954101  10.444782   2.686258   2.360949
    28  F    9.268889  10.166654  11.614005   3.425599   2.364306
    29  F    9.186854  10.125605  11.535223   3.425903   2.364582
                   11         12         13         14         15
    11  C    0.000000
    12  C    1.384798   0.000000
    13  C    2.410998   1.389682   0.000000
    14  H    4.696938   4.472372   3.343212   0.000000
    15  H    7.631393   6.687132   5.317303   4.206579   0.000000
    16  H    7.620010   6.749342   5.403340   4.178481   1.776899
    17  H    8.791214   8.212413   6.859981   4.375740   3.058286
    18  H    8.797653   8.158840   6.790107   4.398376   2.494150
    19  H   10.154571   9.298714   7.935475   6.283216   3.125420
    20  H   10.886701  10.137159   8.748872   6.602079   3.765473
    21  H   10.159906   9.251060   7.874744   6.298822   2.574312
    22  H    3.388909   3.854011   3.389510   2.263614   6.382813
    23  C    2.525534   3.792116   4.291007   4.858836   8.725883
    24  Cl   1.743848   2.698177   4.002416   6.416942   9.302020
    25  H    2.139632   1.083122   2.142686   5.433872   7.153516
    26  H    3.380628   2.135271   1.079158   3.733467   4.705602
    27  F    3.658209   4.765148   4.942474   4.561622   8.686985
    28  F    2.992529   4.288201   4.959981   5.724315   9.490234
    29  F    2.991445   4.290054   4.965069   5.787541   9.574494
                   16         17         18         19         20
    16  H    0.000000
    17  H    2.493694   0.000000
    18  H    3.058020   1.762993   0.000000
    19  H    2.578097   2.519475   3.076265   0.000000
    20  H    3.767852   2.506188   2.506211   1.765056   0.000000
    21  H    3.128124   3.076097   2.519406   1.767057   1.765164
    22  H    6.239442   6.484103   6.617032   8.455050   8.813333
    23  C    8.598341   9.126393   9.241747  10.968886  11.444752
    24  Cl   9.290825  10.527077  10.533556  11.844677  12.618073
    25  H    7.263847   8.940212   8.848910   9.799058  10.730835
    26  H    4.890043   6.630766   6.494700   7.388076   8.299976
    27  F    8.511336   8.674280   8.841181  10.724042  11.047369
    28  F    9.562496  10.078400  10.006361  11.920521  12.313890
    29  F    9.251368   9.882586  10.179545  11.659306  12.259497
                   21         22         23         24         25
    21  H    0.000000
    22  H    8.557441   0.000000
    23  C   11.065047   2.686582   0.000000
    24  Cl  11.850195   4.887470   3.089869   0.000000
    25  H    9.715367   4.937129   4.663013   2.822036   0.000000
    26  H    7.265646   4.291968   5.369990   4.833047   2.451204
    27  F   10.859594   2.312951   1.338282   4.424330   5.738896
    28  F   11.859313   3.651987   1.343729   3.064324   5.015287
    29  F   11.912407   3.650590   1.343669   3.061451   5.018971
                   26         27         28         29
    26  H    0.000000
    27  F    5.995966   0.000000
    28  F    6.006251   2.150546   0.000000
    29  F    6.017155   2.150592   2.155684   0.000000
 Stoichiometry    C11H11ClF3NO2
 Framework group  C1[X(C11H11ClF3NO2)]
 Deg. of freedom    81
 Full point group                 C1      NOp   1
 Largest Abelian subgroup         C1      NOp   1
 Largest concise Abelian subgroup C1      NOp   1
                         Standard orientation:                         
 ---------------------------------------------------------------------
 Center     Atomic      Atomic             Coordinates (Angstroms)
 Number     Number       Type             X           Y           Z
 ---------------------------------------------------------------------
      1          6           0        0.151829   -0.222765   -0.110346
      2          7           0        1.456509    0.284189   -0.171423
      3          6           0        2.617356   -0.403068    0.015876
      4          8           0        2.714391   -1.591790    0.249976
      5          8           0        3.660923    0.428137   -0.094678
      6          6           0        4.965839   -0.162800    0.083501
      7          6           0        5.991794    0.933868   -0.089845
      8          6           0        7.400997    0.377286    0.082106
      9          6           0       -0.884326    0.713261   -0.053304
     10          6           0       -2.207710    0.303425   -0.015387
     11          6           0       -2.509883   -1.059247   -0.027759
     12          6           0       -1.486484   -1.990425   -0.084558
     13          6           0       -0.158688   -1.582919   -0.130521
     14          1           0        1.551379    1.285155   -0.294502
     15          1           0        5.094580   -0.952679   -0.659379
     16          1           0        5.015247   -0.603989    1.081165
     17          1           0        5.802816    1.721458    0.644656
     18          1           0        5.877560    1.377225   -1.082788
     19          1           0        7.534616   -0.056870    1.076133
     20          1           0        8.147514    1.163347   -0.042280
     21          1           0        7.609304   -0.402018   -0.655278
     22          1           0       -0.644894    1.770307   -0.039624
     23          6           0       -3.295574    1.339989    0.040648
     24         17           0       -4.158000   -1.627016    0.020788
     25          1           0       -1.722491   -3.047403   -0.100394
     26          1           0        0.619252   -2.328543   -0.189137
     27          9           0       -2.807500    2.586083    0.046317
     28          9           0       -4.127836    1.258171   -1.011137
     29          9           0       -4.054426    1.219474    1.142949
 ---------------------------------------------------------------------
 Rotational constants (GHZ):      0.9428530      0.1306707      0.1175178
 Standard basis: 6-311+G(d) (5D, 7F)
 There are   455 symmetry adapted cartesian basis functions of A   symmetry.
 There are   437 symmetry adapted basis functions of A   symmetry.
   437 basis functions,   720 primitive gaussians,   455 cartesian basis functions
    72 alpha electrons       72 beta electrons
       nuclear repulsion energy      1436.4190172568 Hartrees.
 NAtoms=   29 NActive=   29 NUniq=   29 SFac= 1.00D+00 NAtFMM=   60 NAOKFM=F Big=F
 Integral buffers will be    131072 words long.
 Raffenetti 2 integral format.
 Two-electron integral symmetry is turned on.
 Nuclear repulsion after empirical dispersion term =     1436.4177780275 Hartrees.
 ------------------------------------------------------------------------------
 Polarizable Continuum Model (PCM)
 =================================
 Model                : PCM (using non-symmetric T matrix).
 Atomic radii         : SMD-Coulomb.
 Polarization charges : Total charges.
 Charge compensation  : None.
 Solution method      : On-the-fly selection.
 Cavity type          : VdW (van der Waals Surface) (Alpha=1.000).
 Cavity algorithm     : GePol (No added spheres)
                        Default sphere list used, NSphG=   29.
                        Lebedev-Laikov grids with approx.  5.0 points / Ang**2.
                        Smoothing algorithm: York/Karplus (Gamma=1.0000).
                        Polarization charges: spherical gaussians, with
                                              point-specific exponents (IZeta= 3).
                        Self-potential: point-specific (ISelfS= 7).
                        Self-field    : sphere-specific E.n sum rule (ISelfD= 2).
 1st derivatives      : Analytical E(r).r(x)/FMM algorithm (CHGder, D1EAlg=3).
                        Cavity 1st derivative terms included.
 Solvent              : Water, Eps=  78.355300 Eps(inf)=   1.777849
 ------------------------------------------------------------------------------
 ------------------------------------------------------------------------------
 Atomic radii for non-electrostatic terms: SMD-CDS.
 ------------------------------------------------------------------------------
 Nuclear repulsion after PCM non-electrostatic terms =     1436.4304965232 Hartrees.
 One-electron integrals computed using PRISM.
 NBasis=   437 RedAO= T EigKep=  1.03D-06  NBF=   437
 NBsUse=   436 1.00D-06 EigRej=  9.24D-07 NBFU=   436
 ExpMin= 4.38D-02 ExpMax= 1.06D+05 ExpMxC= 3.62D+03 IAcc=3 IRadAn=         5 AccDes= 0.00D+00
 Harris functional with IExCor= 1009 and IRadAn=       5 diagonalized for initial guess.
 HarFok:  IExCor= 1009 AccDes= 0.00D+00 IRadAn=         5 IDoV= 1 UseB2=F ITyADJ=14
 ICtDFT=  3500011 ScaDFX=  1.000000  1.000000  1.000000  1.000000
 FoFCou: FMM=F IPFlag=           0 FMFlag=      100000 FMFlg1=           0
         NFxFlg=           0 DoJE=T BraDBF=F KetDBF=T FulRan=T
         wScrn=  0.000000 ICntrl=     500 IOpCl=  0 I1Cent=   200000004 NGrid=           0
         NMat0=    1 NMatS0=      1 NMatT0=    0 NMatD0=    1 NMtDS0=    0 NMtDT0=    0
 Petite list used in FoFCou.
 Requested convergence on RMS density matrix=1.00D-08 within 128 cycles.
 Requested convergence on MAX density matrix=1.00D-06.
 Requested convergence on             energy=1.00D-06.
 No special actions if energy rises.
 Inv3:  Mode=1 IEnd=    16272723.
 Iteration    1 A*A^-1 deviation from unit magnitude is 5.55D-15 for    565.
 Iteration    1 A*A^-1 deviation from orthogonality  is 3.64D-15 for   2243    728.
 Iteration    1 A^-1*A deviation from unit magnitude is 5.77D-15 for   2319.
 Iteration    1 A^-1*A deviation from orthogonality  is 4.13D-12 for   1751   1663.
 Error on total polarization charges =  0.04467
 SCF Done:  E(RM062X) =  -1390.68063853     A.U. after   15 cycles
            NFock= 15  Conv=0.92D-08     -V/T= 2.0028
 SMD-CDS (non-electrostatic) energy       (kcal/mol) =       7.98
 (included in total energy above)

 **********************************************************************

            Population analysis using the SCF density.

 **********************************************************************

 Orbital symmetries:
       Occupied  (A) (A) (A) (A) (A) (A) (A) (A) (A) (A) (A) (A)
                 (A) (A) (A) (A) (A) (A) (A) (A) (A) (A) (A) (A)
                 (A) (A) (A) (A) (A) (A) (A) (A) (A) (A) (A) (A)
                 (A) (A) (A) (A) (A) (A) (A) (A) (A) (A) (A) (A)
                 (A) (A) (A) (A) (A) (A) (A) (A) (A) (A) (A) (A)
                 (A) (A) (A) (A) (A) (A) (A) (A) (A) (A) (A) (A)
       Virtual   (A) (A) (A) (A) (A) (A) (A) (A) (A) (A) (A) (A)
                 (A) (A) (A) (A) (A) (A) (A) (A) (A) (A) (A) (A)
                 (A) (A) (A) (A) (A) (A) (A) (A) (A) (A) (A) (A)
                 (A) (A) (A) (A) (A) (A) (A) (A) (A) (A) (A) (A)
                 (A) (A) (A) (A) (A) (A) (A) (A) (A) (A) (A) (A)
                 (A) (A) (A) (A) (A) (A) (A) (A) (A) (A) (A) (A)
                 (A) (A) (A) (A) (A) (A) (A) (A) (A) (A) (A) (A)
                 (A) (A) (A) (A) (A) (A) (A) (A) (A) (A) (A) (A)
                 (A) (A) (A) (A) (A) (A) (A) (A) (A) (A) (A) (A)
                 (A) (A) (A) (A) (A) (A) (A) (A) (A) (A) (A) (A)
                 (A) (A) (A) (A) (A) (A) (A) (A) (A) (A) (A) (A)
                 (A) (A) (A) (A) (A) (A) (A) (A) (A) (A) (A) (A)
                 (A) (A) (A) (A) (A) (A) (A) (A) (A) (A) (A) (A)
                 (A) (A) (A) (A) (A) (A) (A) (A) (A) (A) (A) (A)
                 (A) (A) (A) (A) (A) (A) (A) (A) (A) (A) (A) (A)
                 (A) (A) (A) (A) (A) (A) (A) (A) (A) (A) (A) (A)
                 (A) (A) (A) (A) (A) (A) (A) (A) (A) (A) (A) (A)
                 (A) (A) (A) (A) (A) (A) (A) (A) (A) (A) (A) (A)
                 (A) (A) (A) (A) (A) (A) (A) (A) (A) (A) (A) (A)
                 (A) (A) (A) (A) (A) (A) (A) (A) (A) (A) (A) (A)
                 (A) (A) (A) (A) (A) (A) (A) (A) (A) (A) (A) (A)
                 (A) (A) (A) (A) (A) (A) (A) (A) (A) (A) (A) (A)
                 (A) (A) (A) (A) (A) (A) (A) (A) (A) (A) (A) (A)
                 (A) (A) (A) (A) (A) (A) (A) (A) (A) (A) (A) (A)
                 (A) (A) (A) (A) (A) (A) (A) (A) (A) (A) (A) (A)
                 (A) (A) (A) (A) (A) (A) (A) (A) (A) (A) (A) (A)
                 (A) (A) (A) (A) (A) (A) (A) (A) (A) (A) (A) (A)
                 (A) (A) (A) (A) (A) (A) (A) (A) (A) (A) (A) (A)
                 (A) (A) (A) (A) (A) (A) (A) (A) (A) (A) (A) (A)
                 (A) (A) (A) (A) (A) (A) (A) (A) (A) (A) (A) (A)
                 (A) (A) (A) (A)
 The electronic state is 1-A.
 Alpha  occ. eigenvalues -- -102.68959 -25.28951 -25.28577 -25.28575 -19.67569
 Alpha  occ. eigenvalues --  -19.62021 -14.79936 -10.81606 -10.71597 -10.62502
 Alpha  occ. eigenvalues --  -10.61587 -10.59312 -10.59003 -10.57273 -10.56792
 Alpha  occ. eigenvalues --  -10.56311 -10.53074 -10.51908  -9.83236  -7.55752
 Alpha  occ. eigenvalues --   -7.55071  -7.55060  -1.48204  -1.38803  -1.38461
 Alpha  occ. eigenvalues --   -1.25604  -1.15686  -1.07695  -1.01854  -0.95457
 Alpha  occ. eigenvalues --   -0.90753  -0.89380  -0.85547  -0.82022  -0.79112
 Alpha  occ. eigenvalues --   -0.74950  -0.72898  -0.70871  -0.70528  -0.69848
 Alpha  occ. eigenvalues --   -0.67458  -0.65261  -0.64679  -0.59912  -0.59235
 Alpha  occ. eigenvalues --   -0.58742  -0.58735  -0.58028  -0.56393  -0.55322
 Alpha  occ. eigenvalues --   -0.54505  -0.53625  -0.53214  -0.52400  -0.51894
 Alpha  occ. eigenvalues --   -0.50925  -0.49591  -0.49288  -0.46939  -0.46348
 Alpha  occ. eigenvalues --   -0.45231  -0.44467  -0.43412  -0.42710  -0.40122
 Alpha  occ. eigenvalues --   -0.40105  -0.39235  -0.38485  -0.37861  -0.37714
 Alpha  occ. eigenvalues --   -0.33941  -0.28816
 Alpha virt. eigenvalues --   -0.01392  -0.00326   0.01152   0.02002   0.02751
 Alpha virt. eigenvalues --    0.03079   0.03833   0.03936   0.04255   0.05078
 Alpha virt. eigenvalues --    0.05235   0.05766   0.06532   0.06712   0.07044
 Alpha virt. eigenvalues --    0.07295   0.07626   0.08059   0.08482   0.08916
 Alpha virt. eigenvalues --    0.09258   0.09353   0.09813   0.10865   0.11304
 Alpha virt. eigenvalues --    0.11590   0.12194   0.12807   0.13475   0.13510
 Alpha virt. eigenvalues --    0.13783   0.14682   0.15226   0.15512   0.16219
 Alpha virt. eigenvalues --    0.16565   0.17639   0.17855   0.18100   0.18621
 Alpha virt. eigenvalues --    0.19048   0.19814   0.20171   0.20308   0.20940
 Alpha virt. eigenvalues --    0.21126   0.21384   0.21542   0.21931   0.22301
 Alpha virt. eigenvalues --    0.22881   0.23184   0.23706   0.24039   0.24409
 Alpha virt. eigenvalues --    0.24891   0.25388   0.25906   0.26121   0.26636
 Alpha virt. eigenvalues --    0.26795   0.27274   0.27739   0.28219   0.28483
 Alpha virt. eigenvalues --    0.28585   0.28926   0.29389   0.29750   0.30067
 Alpha virt. eigenvalues --    0.30414   0.30910   0.31022   0.31487   0.31571
 Alpha virt. eigenvalues --    0.32508   0.32976   0.33836   0.33995   0.34361
 Alpha virt. eigenvalues --    0.34766   0.34997   0.36811   0.37339   0.37593
 Alpha virt. eigenvalues --    0.38203   0.38822   0.39166   0.40574   0.41530
 Alpha virt. eigenvalues --    0.41956   0.42555   0.42866   0.43073   0.44519
 Alpha virt. eigenvalues --    0.44936   0.45225   0.46429   0.46817   0.48347
 Alpha virt. eigenvalues --    0.48962   0.49253   0.49936   0.50264   0.51170
 Alpha virt. eigenvalues --    0.51700   0.52947   0.55000   0.55941   0.57463
 Alpha virt. eigenvalues --    0.57770   0.58755   0.59331   0.60696   0.61861
 Alpha virt. eigenvalues --    0.62386   0.63182   0.63459   0.63844   0.64782
 Alpha virt. eigenvalues --    0.66089   0.66905   0.67673   0.68747   0.69113
 Alpha virt. eigenvalues --    0.69255   0.70665   0.71509   0.71756   0.71960
 Alpha virt. eigenvalues --    0.72435   0.73542   0.74070   0.74362   0.75652
 Alpha virt. eigenvalues --    0.76422   0.77510   0.78357   0.78830   0.79267
 Alpha virt. eigenvalues --    0.79661   0.81194   0.81943   0.84151   0.84925
 Alpha virt. eigenvalues --    0.87369   0.89212   0.90361   0.92122   0.93006
 Alpha virt. eigenvalues --    0.93146   0.94285   0.94399   0.95376   0.96096
 Alpha virt. eigenvalues --    0.96354   0.97944   1.00307   1.01223   1.03817
 Alpha virt. eigenvalues --    1.04374   1.04660   1.05482   1.06425   1.09436
 Alpha virt. eigenvalues --    1.10202   1.10902   1.11881   1.12376   1.12960
 Alpha virt. eigenvalues --    1.15307   1.18476   1.19340   1.21217   1.22302
 Alpha virt. eigenvalues --    1.22759   1.23909   1.25076   1.28622   1.31878
 Alpha virt. eigenvalues --    1.32476   1.32818   1.33730   1.36014   1.37995
 Alpha virt. eigenvalues --    1.38878   1.41337   1.42023   1.43860   1.45722
 Alpha virt. eigenvalues --    1.46877   1.48031   1.49142   1.50638   1.50839
 Alpha virt. eigenvalues --    1.52777   1.53330   1.53693   1.55304   1.57444
 Alpha virt. eigenvalues --    1.57773   1.58662   1.58856   1.59920   1.62351
 Alpha virt. eigenvalues --    1.62507   1.64129   1.64384   1.66893   1.68038
 Alpha virt. eigenvalues --    1.70461   1.73954   1.74663   1.78003   1.79101
 Alpha virt. eigenvalues --    1.79773   1.80276   1.80321   1.81148   1.85058
 Alpha virt. eigenvalues --    1.85328   1.86357   1.86923   1.87032   1.91143
 Alpha virt. eigenvalues --    1.92112   1.94004   1.96496   1.96919   1.98263
 Alpha virt. eigenvalues --    1.99854   2.01710   2.06340   2.08147   2.08570
 Alpha virt. eigenvalues --    2.09676   2.11651   2.17891   2.19238   2.21338
 Alpha virt. eigenvalues --    2.23482   2.27057   2.31179   2.31763   2.33261
 Alpha virt. eigenvalues --    2.36819   2.38032   2.39665   2.45336   2.48237
 Alpha virt. eigenvalues --    2.51571   2.53180   2.55732   2.56116   2.57583
 Alpha virt. eigenvalues --    2.58695   2.60745   2.61028   2.62789   2.65855
 Alpha virt. eigenvalues --    2.69491   2.71107   2.73752   2.76032   2.80673
 Alpha virt. eigenvalues --    2.81915   2.85294   2.87210   2.91830   2.92165
 Alpha virt. eigenvalues --    2.93628   2.96879   3.00804   3.01024   3.03436
 Alpha virt. eigenvalues --    3.03825   3.04684   3.07295   3.10180   3.12163
 Alpha virt. eigenvalues --    3.12618   3.18703   3.19391   3.22097   3.22735
 Alpha virt. eigenvalues --    3.24560   3.30031   3.30451   3.31088   3.34531
 Alpha virt. eigenvalues --    3.37915   3.39507   3.40826   3.43106   3.44254
 Alpha virt. eigenvalues --    3.52868   3.54159   3.68343   3.70015   3.73301
 Alpha virt. eigenvalues --    3.77585   3.79486   3.81811   3.83267   3.83565
 Alpha virt. eigenvalues --    3.85848   3.86054   3.87688   3.89981   3.96416
 Alpha virt. eigenvalues --    3.98799   3.99985   4.01028   4.02640   4.07593
 Alpha virt. eigenvalues --    4.10797   4.11793   4.18564   4.22155   4.26785
 Alpha virt. eigenvalues --    4.31051   4.56611   4.76025   4.81408   4.97467
 Alpha virt. eigenvalues --    5.01605   5.08531   5.10795   5.16625   5.35081
 Alpha virt. eigenvalues --    5.49103   5.79772   5.95389   6.43857   6.47948
 Alpha virt. eigenvalues --    6.49557   6.52110   6.55097   6.57016   6.62837
 Alpha virt. eigenvalues --    6.86246   6.90637   9.99728  23.44208  23.58036
 Alpha virt. eigenvalues --   23.65022  23.73034  23.82859  23.91724  23.93762
 Alpha virt. eigenvalues --   23.95533  24.08051  24.12586  24.19701  25.95243
 Alpha virt. eigenvalues --   26.30259  26.80557  35.66455  50.01687  50.12762
 Alpha virt. eigenvalues --   66.87939  66.90805  66.96467 216.10695
          Condensed to atoms (all electrons):
               1          2          3          4          5          6
     1  C   25.712356  -0.134220  -0.822912  -0.359442  -0.332995  -0.805129
     2  N   -0.134220   7.473457   0.250621  -0.050500  -0.159125  -0.324651
     3  C   -0.822912   0.250621   9.048827   0.646535   0.357594  -0.504650
     4  O   -0.359442  -0.050500   0.646535   8.211499  -0.179161  -0.161635
     5  O   -0.332995  -0.159125   0.357594  -0.179161   8.291630   0.359529
     6  C   -0.805129  -0.324651  -0.504650  -0.161635   0.359529   8.272108
     7  C   -0.002511   0.029778   0.148613   0.033212  -0.151957  -0.969771
     8  C   -0.022177  -0.009588  -0.246756  -0.000926   0.032301   0.345260
     9  C   -6.129814   0.134428  -3.338286  -0.137687  -0.124157  -0.337846
    10  C   -0.522482   0.156985  -0.474752  -0.043821   0.003410  -0.043269
    11  C   -0.417215   0.023758   0.804362   0.034192   0.008998   0.033230
    12  C   -5.134305   0.041488  -2.361800   0.072733  -0.038360  -0.229785
    13  C    0.437755  -0.205427   2.738578   0.372385   0.085499   0.095495
    14  H   -0.054960   0.269086   0.011679  -0.000234   0.015670   0.006819
    15  H   -0.000475   0.003570   0.007613  -0.000455  -0.042966   0.393818
    16  H    0.012552   0.004401   0.054659  -0.000282  -0.041421   0.331246
    17  H   -0.000686  -0.000673   0.001849  -0.000283   0.001482  -0.066579
    18  H    0.000417  -0.001067   0.006743  -0.000263   0.001737  -0.060591
    19  H   -0.000142  -0.000073  -0.003171  -0.000055  -0.000382  -0.044858
    20  H    0.000168   0.000038   0.008542   0.000023  -0.000630   0.087685
    21  H   -0.000050  -0.000006  -0.000289  -0.000063  -0.000229  -0.052122
    22  H    0.155540  -0.016350   0.014807  -0.000057  -0.000387   0.000510
    23  C   -5.157286   0.005247  -0.490735  -0.003530  -0.002373  -0.020119
    24  Cl   0.267159   0.000740  -0.021214   0.000066   0.000060  -0.000606
    25  H   -0.003559  -0.000641   0.009399   0.000022   0.000026   0.000174
    26  H    0.060177  -0.019510   0.046398  -0.002224   0.000429   0.006377
    27  F    0.188239   0.000551   0.001322  -0.000001   0.000004   0.000002
    28  F   -0.005530   0.000697  -0.000905  -0.000001   0.000000  -0.000010
    29  F    0.035447   0.000483   0.000664   0.000001  -0.000000  -0.000003
               7          8          9         10         11         12
     1  C   -0.002511  -0.022177  -6.129814  -0.522482  -0.417215  -5.134305
     2  N    0.029778  -0.009588   0.134428   0.156985   0.023758   0.041488
     3  C    0.148613  -0.246756  -3.338286  -0.474752   0.804362  -2.361800
     4  O    0.033212  -0.000926  -0.137687  -0.043821   0.034192   0.072733
     5  O   -0.151957   0.032301  -0.124157   0.003410   0.008998  -0.038360
     6  C   -0.969771   0.345260  -0.337846  -0.043269   0.033230  -0.229785
     7  C    6.513671  -0.181589   0.042534  -0.005701  -0.001477   0.007939
     8  C   -0.181589   6.130544  -0.003261  -0.000413   0.000191  -0.003008
     9  C    0.042534  -0.003261  31.296076  -1.919247 -11.837116   9.979260
    10  C   -0.005701  -0.000413  -1.919247  38.044563 -13.256137  -6.873411
    11  C   -0.001477   0.000191 -11.837116 -13.256137  41.140306  -9.580933
    12  C    0.007939  -0.003008   9.979260  -6.873411  -9.580933  28.657284
    13  C   -0.029848  -0.006744 -13.942673  -2.065018   3.375306 -10.963373
    14  H   -0.002282  -0.000205  -0.065478   0.025929  -0.001054  -0.012635
    15  H   -0.027611  -0.010366   0.000650   0.000022   0.000016  -0.000342
    16  H   -0.018423  -0.020302   0.000569   0.000282  -0.000044   0.000217
    17  H    0.451428  -0.045558   0.000689   0.000035   0.000003  -0.000002
    18  H    0.439567  -0.045238  -0.000619   0.000010   0.000003   0.000013
    19  H    0.005533   0.386796  -0.000015  -0.000001   0.000000  -0.000002
    20  H   -0.129969   0.384060  -0.000004  -0.000000  -0.000000   0.000002
    21  H    0.019433   0.376879   0.000036  -0.000001  -0.000000   0.000005
    22  H   -0.000063   0.000005   0.165212   0.034109  -0.031301  -0.072645
    23  C   -0.000075  -0.000124   2.519994  -6.270973  -3.321746   2.549762
    24  Cl  -0.000018  -0.000001   0.372706   0.375070  -1.683464   0.527386
    25  H   -0.000005   0.000000  -0.070841   0.079766   0.079432   0.138108
    26  H   -0.000110   0.000030   0.052084  -0.013625  -0.022270  -0.052602
    27  F   -0.000000  -0.000000   0.130281  -0.307513  -0.196008  -0.026217
    28  F    0.000000  -0.000000   0.052677   0.218958  -0.177190   0.056590
    29  F    0.000000   0.000000  -0.010661   0.207735  -0.133979   0.022685
              13         14         15         16         17         18
     1  C    0.437755  -0.054960  -0.000475   0.012552  -0.000686   0.000417
     2  N   -0.205427   0.269086   0.003570   0.004401  -0.000673  -0.001067
     3  C    2.738578   0.011679   0.007613   0.054659   0.001849   0.006743
     4  O    0.372385  -0.000234  -0.000455  -0.000282  -0.000283  -0.000263
     5  O    0.085499   0.015670  -0.042966  -0.041421   0.001482   0.001737
     6  C    0.095495   0.006819   0.393818   0.331246  -0.066579  -0.060591
     7  C   -0.029848  -0.002282  -0.027611  -0.018423   0.451428   0.439567
     8  C   -0.006744  -0.000205  -0.010366  -0.020302  -0.045558  -0.045238
     9  C  -13.942673  -0.065478   0.000650   0.000569   0.000689  -0.000619
    10  C   -2.065018   0.025929   0.000022   0.000282   0.000035   0.000010
    11  C    3.375306  -0.001054   0.000016  -0.000044   0.000003   0.000003
    12  C  -10.963373  -0.012635  -0.000342   0.000217  -0.000002   0.000013
    13  C   25.987891   0.071732  -0.002108  -0.000341  -0.000429   0.000584
    14  H    0.071732   0.250299  -0.000013  -0.000010  -0.000020   0.000024
    15  H   -0.002108  -0.000013   0.427243  -0.038851   0.005022  -0.007472
    16  H   -0.000341  -0.000010  -0.038851   0.427433  -0.007591   0.004962
    17  H   -0.000429  -0.000020   0.005022  -0.007591   0.431653  -0.036359
    18  H    0.000584   0.000024  -0.007472   0.004962  -0.036359   0.431815
    19  H   -0.000007  -0.000000  -0.000380   0.003148  -0.007540   0.005702
    20  H    0.000024  -0.000000  -0.000135  -0.000143  -0.003108  -0.003205
    21  H   -0.000010  -0.000000   0.003227  -0.000362   0.005722  -0.007681
    22  H    0.069496   0.003661  -0.000000  -0.000000  -0.000000  -0.000000
    23  C   -0.756727   0.001718  -0.000002   0.000012   0.000000  -0.000000
    24  Cl  -0.379187   0.000100  -0.000000  -0.000000   0.000000   0.000000
    25  H    0.096505   0.000000  -0.000000  -0.000000   0.000000   0.000000
    26  H    0.269242  -0.000128  -0.000024   0.000006  -0.000000   0.000000
    27  F    0.013215   0.000082  -0.000000  -0.000000   0.000000  -0.000000
    28  F   -0.003242  -0.000014   0.000000   0.000000   0.000000  -0.000000
    29  F    0.015628  -0.000009  -0.000000   0.000000  -0.000000  -0.000000
              19         20         21         22         23         24
     1  C   -0.000142   0.000168  -0.000050   0.155540  -5.157286   0.267159
     2  N   -0.000073   0.000038  -0.000006  -0.016350   0.005247   0.000740
     3  C   -0.003171   0.008542  -0.000289   0.014807  -0.490735  -0.021214
     4  O   -0.000055   0.000023  -0.000063  -0.000057  -0.003530   0.000066
     5  O   -0.000382  -0.000630  -0.000229  -0.000387  -0.002373   0.000060
     6  C   -0.044858   0.087685  -0.052122   0.000510  -0.020119  -0.000606
     7  C    0.005533  -0.129969   0.019433  -0.000063  -0.000075  -0.000018
     8  C    0.386796   0.384060   0.376879   0.000005  -0.000124  -0.000001
     9  C   -0.000015  -0.000004   0.000036   0.165212   2.519994   0.372706
    10  C   -0.000001  -0.000000  -0.000001   0.034109  -6.270973   0.375070
    11  C    0.000000  -0.000000  -0.000000  -0.031301  -3.321746  -1.683464
    12  C   -0.000002   0.000002   0.000005  -0.072645   2.549762   0.527386
    13  C   -0.000007   0.000024  -0.000010   0.069496  -0.756727  -0.379187
    14  H   -0.000000  -0.000000  -0.000000   0.003661   0.001718   0.000100
    15  H   -0.000380  -0.000135   0.003227  -0.000000  -0.000002  -0.000000
    16  H    0.003148  -0.000143  -0.000362  -0.000000   0.000012  -0.000000
    17  H   -0.007540  -0.003108   0.005722  -0.000000   0.000000   0.000000
    18  H    0.005702  -0.003205  -0.007681  -0.000000  -0.000000   0.000000
    19  H    0.443176  -0.024077  -0.036214  -0.000000  -0.000000  -0.000000
    20  H   -0.024077   0.420939  -0.024106   0.000000   0.000000   0.000000
    21  H   -0.036214  -0.024106   0.443745  -0.000000   0.000000   0.000000
    22  H   -0.000000   0.000000  -0.000000   0.349110  -0.001310  -0.000278
    23  C   -0.000000   0.000000   0.000000  -0.001310  16.283551  -0.545514
    24  Cl  -0.000000   0.000000   0.000000  -0.000278  -0.545514  17.710494
    25  H    0.000000  -0.000000  -0.000000   0.000053   0.006939  -0.015116
    26  H   -0.000000   0.000000  -0.000000  -0.000056   0.002458   0.000195
    27  F   -0.000000  -0.000000   0.000000   0.012279   0.329995   0.012060
    28  F   -0.000000  -0.000000   0.000000  -0.000090   0.020637  -0.018215
    29  F   -0.000000   0.000000   0.000000  -0.000010   0.026284  -0.020027
              25         26         27         28         29
     1  C   -0.003559   0.060177   0.188239  -0.005530   0.035447
     2  N   -0.000641  -0.019510   0.000551   0.000697   0.000483
     3  C    0.009399   0.046398   0.001322  -0.000905   0.000664
     4  O    0.000022  -0.002224  -0.000001  -0.000001   0.000001
     5  O    0.000026   0.000429   0.000004   0.000000  -0.000000
     6  C    0.000174   0.006377   0.000002  -0.000010  -0.000003
     7  C   -0.000005  -0.000110  -0.000000   0.000000   0.000000
     8  C    0.000000   0.000030  -0.000000  -0.000000   0.000000
     9  C   -0.070841   0.052084   0.130281   0.052677  -0.010661
    10  C    0.079766  -0.013625  -0.307513   0.218958   0.207735
    11  C    0.079432  -0.022270  -0.196008  -0.177190  -0.133979
    12  C    0.138108  -0.052602  -0.026217   0.056590   0.022685
    13  C    0.096505   0.269242   0.013215  -0.003242   0.015628
    14  H    0.000000  -0.000128   0.000082  -0.000014  -0.000009
    15  H   -0.000000  -0.000024  -0.000000   0.000000  -0.000000
    16  H   -0.000000   0.000006  -0.000000   0.000000   0.000000
    17  H    0.000000  -0.000000   0.000000   0.000000  -0.000000
    18  H    0.000000   0.000000  -0.000000  -0.000000  -0.000000
    19  H    0.000000  -0.000000  -0.000000  -0.000000  -0.000000
    20  H   -0.000000   0.000000  -0.000000  -0.000000   0.000000
    21  H   -0.000000  -0.000000   0.000000   0.000000   0.000000
    22  H    0.000053  -0.000056   0.012279  -0.000090  -0.000010
    23  C    0.006939   0.002458   0.329995   0.020637   0.026284
    24  Cl  -0.015116   0.000195   0.012060  -0.018215  -0.020027
    25  H    0.359388  -0.002798   0.000020  -0.000029  -0.000021
    26  H   -0.002798   0.356327  -0.000005   0.000001  -0.000004
    27  F    0.000020  -0.000005   9.056127  -0.035839  -0.036876
    28  F   -0.000029   0.000001  -0.035839   8.990969  -0.044853
    29  F   -0.000021  -0.000004  -0.036876  -0.044853   8.988353
 Mulliken charges:
               1
     1  C   -0.963921
     2  N   -0.473497
     3  C    0.106666
     4  O   -0.430048
     5  O   -0.084228
     6  C   -0.310629
     7  C   -0.170298
     8  C   -1.059811
     9  C   -0.829489
    10  C   -1.350511
    11  C    1.160139
    12  C   -0.704051
    13  C    0.725799
    14  H    0.480243
    15  H    0.290019
    16  H    0.288283
    17  H    0.270943
    18  H    0.270918
    19  H    0.272563
    20  H    0.283897
    21  H    0.272087
    22  H    0.317764
    23  C    0.823919
    24  Cl   0.417607
    25  H    0.323175
    26  H    0.319629
    27  F   -0.141720
    28  F   -0.054610
    29  F   -0.050837
 Sum of Mulliken charges =  -0.00000
 Mulliken charges with hydrogens summed into heavy atoms:
               1
     1  C   -0.963921
     2  N    0.006746
     3  C    0.106666
     4  O   -0.430048
     5  O   -0.084228
     6  C    0.267674
     7  C    0.371563
     8  C   -0.231264
     9  C   -0.511725
    10  C   -1.350511
    11  C    1.160139
    12  C   -0.380876
    13  C    1.045428
    23  C    0.823919
    24  Cl   0.417607
    27  F   -0.141720
    28  F   -0.054610
    29  F   -0.050837
 Electronic spatial extent (au):  <R**2>=           8513.3026
 Charge=             -0.0000 electrons
 Dipole moment (field-independent basis, Debye):
    X=              5.9985    Y=              1.8545    Z=             -0.7849  Tot=              6.3275
 Quadrupole moment (field-independent basis, Debye-Ang):
   XX=           -111.9909   YY=           -110.3436   ZZ=           -113.5355
   XY=             11.5551   XZ=             -0.7992   YZ=              1.2801
 Traceless Quadrupole moment (field-independent basis, Debye-Ang):
   XX=             -0.0342   YY=              1.6130   ZZ=             -1.5788
   XY=             11.5551   XZ=             -0.7992   YZ=              1.2801
 Octapole moment (field-independent basis, Debye-Ang**2):
  XXX=            155.6562  YYY=             19.9437  ZZZ=              2.3573  XYY=            -23.4501
  XXY=             16.2215  XXZ=             -1.5387  XZZ=             -3.6054  YZZ=             10.5691
  YYZ=             -4.3193  XYZ=              3.9707
 Hexadecapole moment (field-independent basis, Debye-Ang**3):
 XXXX=          -8860.2283 YYYY=          -1138.0527 ZZZZ=           -210.5412 XXXY=             54.2876
 XXXZ=            -10.1766 YYYX=            -15.7788 YYYZ=              7.0397 ZZZX=             -0.0295
 ZZZY=             -1.2234 XXYY=          -1821.9480 XXZZ=          -1610.3542 YYZZ=           -238.0389
 XXYZ=             12.6500 YYXZ=            -10.2483 ZZXY=            -32.6198
 N-N= 1.436430496523D+03 E-N=-6.151534953434D+03  KE= 1.386732981474D+03
 D1PCM: PCM CHGder 1st derivatives, ID1Alg=3 FixD1E=F DoIter=F DoCFld=F I1PDM=0.
 Calling FoFJK, ICntrl=      2127 FMM=F ISym2X=0 I1Cent= 0 IOpClX= 0 NMat=1 NMatS=1 NMatT=0.
 ***** Axes restored to original set *****
 -------------------------------------------------------------------
 Center     Atomic                   Forces (Hartrees/Bohr)
 Number     Number              X              Y              Z
 -------------------------------------------------------------------
      1        6           0.000002669   -0.000007676    0.000000956
      2        7          -0.000014595    0.000004086    0.000007744
      3        6           0.000004981    0.000000912   -0.000003680
      4        8          -0.000001794    0.000001492   -0.000002510
      5        8           0.000001455    0.000000423    0.000002770
      6        6          -0.000004653    0.000001336    0.000000624
      7        6           0.000001383    0.000001317   -0.000000430
      8        6          -0.000000169    0.000002771   -0.000002557
      9        6           0.000007371    0.000000639    0.000004869
     10        6          -0.000000213   -0.000000393    0.000005264
     11        6           0.000001952   -0.000002890   -0.000001732
     12        6          -0.000000210    0.000000967    0.000000437
     13        6           0.000000523   -0.000000269   -0.000000577
     14        1          -0.000000262   -0.000002126   -0.000004590
     15        1          -0.000000206    0.000002482   -0.000001172
     16        1          -0.000000313    0.000002591   -0.000002968
     17        1           0.000001367    0.000000826   -0.000001494
     18        1           0.000001626    0.000002480    0.000000023
     19        1           0.000000134    0.000002465   -0.000002740
     20        1           0.000000995    0.000002339   -0.000001167
     21        1           0.000000160    0.000003499   -0.000001283
     22        1           0.000001312   -0.000000626   -0.000000468
     23        6           0.000001237   -0.000006207   -0.000005062
     24       17          -0.000004688   -0.000008257    0.000003062
     25        1          -0.000001330   -0.000001533   -0.000000870
     26        1           0.000000161    0.000000009   -0.000001631
     27        9          -0.000005842    0.000000860    0.000003507
     28        9           0.000006866    0.000002982   -0.000000494
     29        9           0.000000081   -0.000004498    0.000006170
 -------------------------------------------------------------------
 Cartesian Forces:  Max     0.000014595 RMS     0.000003420

 GradGradGradGradGradGradGradGradGradGradGradGradGradGradGradGradGradGrad
 Berny optimization.
 FormGI is forming the generalized inverse of G from B-inverse, IUseBI=4.
 Internal  Forces:  Max     0.000015467 RMS     0.000003612
 Search for a local minimum.
 Step number   1 out of a maximum of  149
 All quantities printed in internal units (Hartrees-Bohrs-Radians)
 Mixed Optimization -- En-DIIS/RFO-DIIS
 Second derivative matrix not updated -- first step.
 ITU=  0
     Eigenvalues ---    0.00437   0.00611   0.00717   0.01116   0.01608
     Eigenvalues ---    0.01678   0.01949   0.02001   0.02147   0.02180
     Eigenvalues ---    0.02191   0.02195   0.02204   0.02228   0.02244
     Eigenvalues ---    0.02260   0.02294   0.02502   0.03887   0.05008
     Eigenvalues ---    0.05447   0.05547   0.05578   0.05749   0.08041
     Eigenvalues ---    0.10656   0.10665   0.11239   0.11957   0.13582
     Eigenvalues ---    0.15970   0.15999   0.16000   0.16000   0.16000
     Eigenvalues ---    0.16000   0.16000   0.21890   0.21984   0.22011
     Eigenvalues ---    0.22376   0.23484   0.24606   0.24993   0.25000
     Eigenvalues ---    0.25000   0.25000   0.25000   0.25000   0.25000
     Eigenvalues ---    0.25000   0.25000   0.29903   0.31091   0.31178
     Eigenvalues ---    0.31994   0.34421   0.34424   0.34479   0.34479
     Eigenvalues ---    0.34585   0.34588   0.34678   0.35526   0.35620
     Eigenvalues ---    0.36096   0.39106   0.42650   0.42878   0.45448
     Eigenvalues ---    0.45481   0.46362   0.46555   0.47661   0.47924
     Eigenvalues ---    0.52551   0.56377   0.56390   0.57494   0.57592
     Eigenvalues ---    0.97436
 RFO step:  Lambda= 0.00000000D+00 EMin= 4.37072408D-03
 Linear search not attempted -- first point.
 Iteration  1 RMS(Cart)=  0.00013577 RMS(Int)=  0.00000001
 Iteration  2 RMS(Cart)=  0.00000001 RMS(Int)=  0.00000000
 Variable       Old X    -DE/DX   Delta X   Delta X   Delta X     New X
                                 (Linear)    (Quad)   (Total)
    R1        2.64759  -0.00001   0.00000  -0.00003  -0.00003   2.64756
    R2        2.64090  -0.00001   0.00000  -0.00001  -0.00001   2.64088
    R3        2.63672   0.00000   0.00000   0.00000   0.00000   2.63673
    R4        2.57375   0.00000   0.00000   0.00001   0.00001   2.57376
    R5        1.91421   0.00000   0.00000   0.00000   0.00000   1.91421
    R6        2.29684   0.00000   0.00000   0.00000   0.00000   2.29684
    R7        2.52980  -0.00000   0.00000  -0.00000  -0.00000   2.52980
    R8        2.72786  -0.00000   0.00000  -0.00001  -0.00001   2.72786
    R9        2.85675   0.00000   0.00000   0.00001   0.00001   2.85675
   R10        2.06349   0.00000   0.00000   0.00000   0.00000   2.06349
   R11        2.06355   0.00000   0.00000   0.00001   0.00001   2.06355
   R12        2.88157  -0.00000   0.00000  -0.00000  -0.00000   2.88157
   R13        2.06621   0.00000   0.00000   0.00000   0.00000   2.06621
   R14        2.06625   0.00000   0.00000   0.00000   0.00000   2.06625
   R15        2.06529   0.00000   0.00000   0.00000   0.00000   2.06529
   R16        2.06201   0.00000   0.00000   0.00000   0.00000   2.06202
   R17        2.06529   0.00000   0.00000   0.00000   0.00000   2.06529
   R18        2.61899  -0.00000   0.00000  -0.00000  -0.00000   2.61899
   R19        2.04829  -0.00000   0.00000  -0.00000  -0.00000   2.04829
   R20        2.63773  -0.00001   0.00000  -0.00001  -0.00001   2.63772
   R21        2.84154  -0.00000   0.00000  -0.00001  -0.00001   2.84154
   R22        2.61689   0.00000   0.00000   0.00000   0.00000   2.61689
   R23        3.29539   0.00000   0.00000   0.00000   0.00000   3.29540
   R24        2.62612   0.00000   0.00000   0.00000   0.00000   2.62612
   R25        2.04680  -0.00000   0.00000  -0.00000  -0.00000   2.04680
   R26        2.03931   0.00000   0.00000   0.00000   0.00000   2.03932
   R27        2.52899  -0.00000   0.00000  -0.00001  -0.00001   2.52898
   R28        2.53928  -0.00001   0.00000  -0.00001  -0.00001   2.53927
   R29        2.53917  -0.00000   0.00000  -0.00001  -0.00001   2.53916
    A1        2.03741  -0.00000   0.00000  -0.00001  -0.00001   2.03740
    A2        2.16438  -0.00000   0.00000  -0.00001  -0.00001   2.16437
    A3        2.08117   0.00000   0.00000   0.00002   0.00002   2.08119
    A4        2.22072  -0.00001   0.00000  -0.00003  -0.00003   2.22069
    A5        2.03764   0.00000   0.00000   0.00001   0.00001   2.03765
    A6        2.02141   0.00000   0.00000   0.00002   0.00002   2.02142
    A7        2.19944  -0.00000   0.00000  -0.00001  -0.00001   2.19943
    A8        1.91745   0.00000   0.00000   0.00002   0.00002   1.91747
    A9        2.16630  -0.00000   0.00000  -0.00000  -0.00000   2.16629
   A10        2.02674  -0.00001   0.00000  -0.00004  -0.00004   2.02670
   A11        1.87798   0.00000   0.00000   0.00002   0.00002   1.87799
   A12        1.89518  -0.00000   0.00000  -0.00000  -0.00000   1.89518
   A13        1.89554  -0.00000   0.00000  -0.00001  -0.00001   1.89554
   A14        1.94629   0.00000   0.00000   0.00000   0.00000   1.94630
   A15        1.94674  -0.00000   0.00000  -0.00001  -0.00001   1.94674
   A16        1.90072  -0.00000   0.00000  -0.00001  -0.00001   1.90071
   A17        1.92780  -0.00000   0.00000  -0.00001  -0.00001   1.92780
   A18        1.90522   0.00000   0.00000   0.00001   0.00001   1.90522
   A19        1.90433   0.00000   0.00000   0.00000   0.00000   1.90433
   A20        1.92506  -0.00000   0.00000  -0.00001  -0.00001   1.92505
   A21        1.92512   0.00000   0.00000  -0.00000  -0.00000   1.92512
   A22        1.87539   0.00000   0.00000   0.00001   0.00001   1.87540
   A23        1.93965   0.00000   0.00000   0.00000   0.00000   1.93966
   A24        1.93527  -0.00000   0.00000  -0.00000  -0.00000   1.93526
   A25        1.93942  -0.00000   0.00000  -0.00000  -0.00000   1.93941
   A26        1.88200   0.00000   0.00000   0.00000   0.00000   1.88200
   A27        1.88294   0.00000   0.00000   0.00000   0.00000   1.88294
   A28        1.88217   0.00000   0.00000  -0.00000  -0.00000   1.88217
   A29        2.10718  -0.00000   0.00000  -0.00002  -0.00002   2.10716
   A30        2.08279   0.00000   0.00000   0.00001   0.00001   2.08280
   A31        2.09321   0.00000   0.00000   0.00001   0.00001   2.09322
   A32        2.08882   0.00000   0.00000   0.00001   0.00001   2.08883
   A33        2.08059   0.00001   0.00000   0.00005   0.00005   2.08064
   A34        2.11377  -0.00002   0.00000  -0.00006  -0.00006   2.11371
   A35        2.09074   0.00000   0.00000   0.00001   0.00001   2.09075
   A36        2.12023  -0.00001   0.00000  -0.00005  -0.00005   2.12018
   A37        2.07221   0.00001   0.00000   0.00004   0.00004   2.07225
   A38        2.10632  -0.00000   0.00000  -0.00002  -0.00002   2.10630
   A39        2.08951   0.00000   0.00000   0.00001   0.00001   2.08952
   A40        2.08733   0.00000   0.00000   0.00001   0.00001   2.08734
   A41        2.09210  -0.00000   0.00000  -0.00000  -0.00000   2.09210
   A42        2.11051  -0.00000   0.00000  -0.00000  -0.00000   2.11050
   A43        2.08055   0.00000   0.00000   0.00000   0.00000   2.08056
   A44        1.95862   0.00001   0.00000   0.00006   0.00006   1.95868
   A45        1.95730  -0.00001   0.00000  -0.00007  -0.00007   1.95723
   A46        1.95771   0.00000   0.00000   0.00001   0.00001   1.95772
   A47        1.86074   0.00000   0.00000   0.00000   0.00000   1.86074
   A48        1.86085  -0.00000   0.00000   0.00001   0.00001   1.86086
   A49        1.86176   0.00000   0.00000  -0.00001  -0.00001   1.86175
    D1        2.91027  -0.00000   0.00000  -0.00003  -0.00003   2.91024
    D2       -0.13822   0.00000   0.00000   0.00011   0.00011  -0.13811
    D3       -0.25447  -0.00000   0.00000  -0.00000  -0.00000  -0.25448
    D4        2.98022   0.00000   0.00000   0.00013   0.00013   2.98035
    D5        3.12088   0.00000   0.00000   0.00001   0.00001   3.12089
    D6       -0.01981  -0.00000   0.00000  -0.00003  -0.00003  -0.01984
    D7        0.00128  -0.00000   0.00000  -0.00001  -0.00001   0.00127
    D8       -3.13941  -0.00000   0.00000  -0.00005  -0.00005  -3.13946
    D9       -3.12567  -0.00000   0.00000  -0.00000  -0.00000  -3.12567
   D10        0.00771   0.00000   0.00000   0.00000   0.00000   0.00771
   D11       -0.00777   0.00000   0.00000   0.00002   0.00002  -0.00775
   D12        3.12560   0.00000   0.00000   0.00002   0.00002   3.12563
   D13        0.02158   0.00000   0.00000   0.00001   0.00001   0.02160
   D14       -3.11933  -0.00000   0.00000  -0.00000  -0.00000  -3.11933
   D15        3.07082  -0.00000   0.00000  -0.00012  -0.00012   3.07070
   D16       -0.07010  -0.00000   0.00000  -0.00013  -0.00013  -0.07023
   D17        3.13963   0.00000   0.00000   0.00001   0.00001   3.13964
   D18       -0.00130  -0.00000   0.00000  -0.00001  -0.00001  -0.00131
   D19        3.13451   0.00000   0.00000   0.00010   0.00010   3.13461
   D20        1.02552   0.00000   0.00000   0.00009   0.00009   1.02561
   D21       -1.03894   0.00000   0.00000   0.00010   0.00010  -1.03884
   D22       -3.13879  -0.00000   0.00000  -0.00002  -0.00002  -3.13881
   D23        1.02493   0.00000   0.00000  -0.00001  -0.00001   1.02492
   D24       -1.01982  -0.00000   0.00000  -0.00002  -0.00002  -1.01984
   D25       -1.06223   0.00000   0.00000  -0.00001  -0.00001  -1.06224
   D26        3.10148   0.00000   0.00000  -0.00000  -0.00000   3.10148
   D27        1.05674  -0.00000   0.00000  -0.00001  -0.00001   1.05673
   D28        1.06714  -0.00000   0.00000  -0.00002  -0.00002   1.06712
   D29       -1.05233   0.00000   0.00000  -0.00001  -0.00001  -1.05234
   D30       -3.09708  -0.00000   0.00000  -0.00002  -0.00002  -3.09710
   D31       -1.04913  -0.00000   0.00000  -0.00001  -0.00001  -1.04913
   D32        3.14100  -0.00000   0.00000  -0.00001  -0.00001   3.14099
   D33        1.04788   0.00000   0.00000  -0.00000  -0.00000   1.04788
   D34        1.05855  -0.00000   0.00000  -0.00001  -0.00001   1.05854
   D35       -1.03451  -0.00000   0.00000  -0.00001  -0.00001  -1.03452
   D36       -3.12763   0.00000   0.00000  -0.00000  -0.00000  -3.12763
   D37        3.12745  -0.00000   0.00000  -0.00001  -0.00001   3.12745
   D38        1.03439  -0.00000   0.00000  -0.00001  -0.00001   1.03439
   D39       -1.05872   0.00000   0.00000  -0.00000  -0.00000  -1.05872
   D40        0.00543  -0.00000   0.00000  -0.00001  -0.00001   0.00542
   D41       -3.13777   0.00000   0.00000   0.00003   0.00003  -3.13774
   D42       -3.13707   0.00000   0.00000   0.00003   0.00003  -3.13704
   D43        0.00292   0.00000   0.00000   0.00007   0.00007   0.00299
   D44       -0.00565   0.00000   0.00000   0.00002   0.00002  -0.00563
   D45        3.14006   0.00000   0.00000   0.00010   0.00010   3.14016
   D46        3.13758  -0.00000   0.00000  -0.00002  -0.00002   3.13756
   D47        0.00011   0.00000   0.00000   0.00006   0.00006   0.00016
   D48        0.00014   0.00000   0.00000   0.00012   0.00012   0.00026
   D49        2.09416   0.00000   0.00000   0.00011   0.00011   2.09427
   D50       -2.09433  -0.00000   0.00000   0.00006   0.00006  -2.09427
   D51        3.14010   0.00000   0.00000   0.00016   0.00016   3.14026
   D52       -1.04906   0.00000   0.00000   0.00015   0.00015  -1.04890
   D53        1.04564  -0.00000   0.00000   0.00010   0.00010   1.04574
   D54       -0.00085  -0.00000   0.00000  -0.00001  -0.00001  -0.00086
   D55       -3.13490   0.00000   0.00000   0.00000   0.00000  -3.13490
   D56        3.13673  -0.00000   0.00000  -0.00009  -0.00009   3.13665
   D57        0.00269  -0.00000   0.00000  -0.00008  -0.00008   0.00261
   D58        0.00761  -0.00000   0.00000  -0.00001  -0.00001   0.00760
   D59       -3.12590  -0.00000   0.00000  -0.00002  -0.00002  -3.12592
   D60       -3.14152  -0.00000   0.00000  -0.00002  -0.00002  -3.14155
   D61        0.00815  -0.00000   0.00000  -0.00003  -0.00003   0.00812
         Item               Value     Threshold  Converged?
 Maximum Force            0.000015     0.000450     YES
 RMS     Force            0.000004     0.000300     YES
 Maximum Displacement     0.000726     0.001800     YES
 RMS     Displacement     0.000136     0.001200     YES
 Predicted change in Energy=-4.984709D-09
 Optimization completed.
    -- Stationary point found.
                           ----------------------------
                           !   Optimized Parameters   !
                           ! (Angstroms and Degrees)  !
 --------------------------                            --------------------------
 ! Name  Definition              Value          Derivative Info.                !
 --------------------------------------------------------------------------------
 ! R1    R(1,2)                  1.401          -DE/DX =    0.0                 !
 ! R2    R(1,9)                  1.3975         -DE/DX =    0.0                 !
 ! R3    R(1,13)                 1.3953         -DE/DX =    0.0                 !
 ! R4    R(2,3)                  1.362          -DE/DX =    0.0                 !
 ! R5    R(2,14)                 1.013          -DE/DX =    0.0                 !
 ! R6    R(3,4)                  1.2154         -DE/DX =    0.0                 !
 ! R7    R(3,5)                  1.3387         -DE/DX =    0.0                 !
 ! R8    R(5,6)                  1.4435         -DE/DX =    0.0                 !
 ! R9    R(6,7)                  1.5117         -DE/DX =    0.0                 !
 ! R10   R(6,15)                 1.0919         -DE/DX =    0.0                 !
 ! R11   R(6,16)                 1.092          -DE/DX =    0.0                 !
 ! R12   R(7,8)                  1.5249         -DE/DX =    0.0                 !
 ! R13   R(7,17)                 1.0934         -DE/DX =    0.0                 !
 ! R14   R(7,18)                 1.0934         -DE/DX =    0.0                 !
 ! R15   R(8,19)                 1.0929         -DE/DX =    0.0                 !
 ! R16   R(8,20)                 1.0912         -DE/DX =    0.0                 !
 ! R17   R(8,21)                 1.0929         -DE/DX =    0.0                 !
 ! R18   R(9,10)                 1.3859         -DE/DX =    0.0                 !
 ! R19   R(9,22)                 1.0839         -DE/DX =    0.0                 !
 ! R20   R(10,11)                1.3958         -DE/DX =    0.0                 !
 ! R21   R(10,23)                1.5037         -DE/DX =    0.0                 !
 ! R22   R(11,12)                1.3848         -DE/DX =    0.0                 !
 ! R23   R(11,24)                1.7438         -DE/DX =    0.0                 !
 ! R24   R(12,13)                1.3897         -DE/DX =    0.0                 !
 ! R25   R(12,25)                1.0831         -DE/DX =    0.0                 !
 ! R26   R(13,26)                1.0792         -DE/DX =    0.0                 !
 ! R27   R(23,27)                1.3383         -DE/DX =    0.0                 !
 ! R28   R(23,28)                1.3437         -DE/DX =    0.0                 !
 ! R29   R(23,29)                1.3437         -DE/DX =    0.0                 !
 ! A1    A(2,1,9)              116.7348         -DE/DX =    0.0                 !
 ! A2    A(2,1,13)             124.0099         -DE/DX =    0.0                 !
 ! A3    A(9,1,13)             119.2423         -DE/DX =    0.0                 !
 ! A4    A(1,2,3)              127.2377         -DE/DX =    0.0                 !
 ! A5    A(1,2,14)             116.7481         -DE/DX =    0.0                 !
 ! A6    A(3,2,14)             115.818          -DE/DX =    0.0                 !
 ! A7    A(2,3,4)              126.0187         -DE/DX =    0.0                 !
 ! A8    A(2,3,5)              109.8616         -DE/DX =    0.0                 !
 ! A9    A(4,3,5)              124.1197         -DE/DX =    0.0                 !
 ! A10   A(3,5,6)              116.1236         -DE/DX =    0.0                 !
 ! A11   A(5,6,7)              107.6001         -DE/DX =    0.0                 !
 ! A12   A(5,6,15)             108.5861         -DE/DX =    0.0                 !
 ! A13   A(5,6,16)             108.6067         -DE/DX =    0.0                 !
 ! A14   A(7,6,15)             111.5143         -DE/DX =    0.0                 !
 ! A15   A(7,6,16)             111.5402         -DE/DX =    0.0                 !
 ! A16   A(15,6,16)            108.9031         -DE/DX =    0.0                 !
 ! A17   A(6,7,8)              110.4548         -DE/DX =    0.0                 !
 ! A18   A(6,7,17)             109.1609         -DE/DX =    0.0                 !
 ! A19   A(6,7,18)             109.1098         -DE/DX =    0.0                 !
 ! A20   A(8,7,17)             110.2976         -DE/DX =    0.0                 !
 ! A21   A(8,7,18)             110.3012         -DE/DX =    0.0                 !
 ! A22   A(17,7,18)            107.452          -DE/DX =    0.0                 !
 ! A23   A(7,8,19)             111.1339         -DE/DX =    0.0                 !
 ! A24   A(7,8,20)             110.8826         -DE/DX =    0.0                 !
 ! A25   A(7,8,21)             111.1205         -DE/DX =    0.0                 !
 ! A26   A(19,8,20)            107.8309         -DE/DX =    0.0                 !
 ! A27   A(19,8,21)            107.8843         -DE/DX =    0.0                 !
 ! A28   A(20,8,21)            107.8404         -DE/DX =    0.0                 !
 ! A29   A(1,9,10)             120.7327         -DE/DX =    0.0                 !
 ! A30   A(1,9,22)             119.3353         -DE/DX =    0.0                 !
 ! A31   A(10,9,22)            119.932          -DE/DX =    0.0                 !
 ! A32   A(9,10,11)            119.6807         -DE/DX =    0.0                 !
 ! A33   A(9,10,23)            119.2089         -DE/DX =    0.0                 !
 ! A34   A(11,10,23)           121.1104         -DE/DX =    0.0                 !
 ! A35   A(10,11,12)           119.7907         -DE/DX =    0.0                 !
 ! A36   A(10,11,24)           121.4801         -DE/DX =    0.0                 !
 ! A37   A(12,11,24)           118.7288         -DE/DX =    0.0                 !
 ! A38   A(11,12,13)           120.6831         -DE/DX =    0.0                 !
 ! A39   A(11,12,25)           119.7204         -DE/DX =    0.0                 !
 ! A40   A(13,12,25)           119.5951         -DE/DX =    0.0                 !
 ! A41   A(1,13,12)            119.8684         -DE/DX =    0.0                 !
 ! A42   A(1,13,26)            120.9231         -DE/DX =    0.0                 !
 ! A43   A(12,13,26)           119.2068         -DE/DX =    0.0                 !
 ! A44   A(10,23,27)           112.2206         -DE/DX =    0.0                 !
 ! A45   A(10,23,28)           112.1449         -DE/DX =    0.0                 !
 ! A46   A(10,23,29)           112.1683         -DE/DX =    0.0                 !
 ! A47   A(27,23,28)           106.6123         -DE/DX =    0.0                 !
 ! A48   A(27,23,29)           106.619          -DE/DX =    0.0                 !
 ! A49   A(28,23,29)           106.6709         -DE/DX =    0.0                 !
 ! D1    D(9,1,2,3)            166.7462         -DE/DX =    0.0                 !
 ! D2    D(9,1,2,14)            -7.9194         -DE/DX =    0.0                 !
 ! D3    D(13,1,2,3)           -14.5803         -DE/DX =    0.0                 !
 ! D4    D(13,1,2,14)          170.7541         -DE/DX =    0.0                 !
 ! D5    D(2,1,9,10)           178.8134         -DE/DX =    0.0                 !
 ! D6    D(2,1,9,22)            -1.1351         -DE/DX =    0.0                 !
 ! D7    D(13,1,9,10)            0.0736         -DE/DX =    0.0                 !
[...]
 000158,-0.00000940,-0.00000135,-0.00000044,-0.00000805,0.00000454,0.00
 000116,0.00000269,-0.00000236,0.00002393,0.00000296,-0.00000128,0.0000
 0109,0.00000382,0.00000120,-0.00084057,-0.00044632,0.00023298,0.556966
 78,0.00301259,0.00200358,0.00012137,0.00469766,0.00091924,-0.00009034,
 -0.00315403,-0.00185356,0.00049964,0.00101207,0.00105750,-0.00023068,0
 .00174143,-0.00047525,0.00000864,-0.00039631,-0.00020121,0.00004045,0.
 00006560,0.00009123,-0.00001838,0.00000991,-0.00005385,0.00000984,-0.0
 0207076,0.01732291,0.00019526,-0.06419255,-0.14340066,-0.00570437,-0.0
 2024172,-0.02253157,-0.00168378,0.00110544,-0.00392341,-0.00003027,0.0
 0353055,-0.00101955,0.00016922,0.00005109,0.00035366,-0.00006119,0.000
 06969,0.00002026,-0.00000418,0.00007464,0.00002118,-0.00000945,0.00000
 005,-0.00001082,-0.00000479,0.00000035,-0.00000773,0.00000742,0.000000
 48,0.00000273,-0.00000143,0.00002472,0.00000343,-0.00000106,0.00000013
 ,0.00000248,0.00000015,0.00267774,-0.00170051,0.00019037,0.04050110,0.
 56110700,-0.00080781,0.00009755,0.00718394,0.00034024,-0.00004992,0.00
 019535,-0.00031229,-0.00019566,-0.00010273,0.00007488,0.00011768,0.000
 00272,0.00015388,-0.00004804,-0.00001611,-0.00003711,-0.00001433,0.000
 05775,0.00000328,0.00000721,0.00000227,0.00000072,-0.00000585,-0.00000
 375,-0.00177243,-0.00064695,0.00233890,-0.00811023,-0.00531141,-0.0644
 0496,0.00095195,-0.00085669,-0.00172201,-0.00022814,0.00008466,0.00553
 297,0.00019754,0.00027198,-0.00112931,-0.00000211,0.00003548,0.0000347
 7,0.00000491,0.00000043,-0.00000020,0.00000614,0.00000414,-0.00000380,
 0.00000209,-0.00000408,-0.00000004,0.00000041,0.00000035,-0.00000121,0
 .00000096,0.00000101,-0.00000134,0.00000168,0.00000036,0.00000018,-0.0
 0000049,-0.00000270,-0.00000032,0.00023625,0.00003563,-0.00409971,0.00
 724368,0.00474497,0.47093639,0.00393693,0.00147865,0.00052653,-0.00588
 529,0.00057345,-0.00010462,0.00425970,0.00239136,-0.00027445,-0.001159
 37,-0.00157563,0.00037128,-0.00181325,0.00064942,-0.00009532,0.0004525
 4,0.00017154,-0.00006202,-0.00006039,-0.00008933,0.00001780,-0.0000083
 1,0.00005247,-0.00000886,-0.00137023,0.00165721,-0.00013474,-0.0162560
 9,0.00823717,-0.00108595,-0.14756832,0.04877237,-0.00664438,-0.0442771
 8,0.01915119,-0.00259197,0.00114437,-0.00704751,-0.00071778,-0.0001343
 7,-0.00034296,-0.00009091,-0.00008878,-0.00001880,0.00000334,-0.000085
 75,-0.00001928,0.00001195,0.00000140,0.00001008,0.00000215,0.00000049,
 0.00000824,-0.00000525,-0.00000155,-0.00000265,0.00000257,-0.00002444,
 -0.00000337,0.00000145,-0.00000142,-0.00000319,-0.00000136,-0.00106215
 ,-0.00001909,-0.00011664,-0.00612170,-0.00257477,-0.00024830,0.2116434
 0,-0.00112910,0.00130282,-0.00013076,0.00277672,-0.00009223,0.00003199
 ,-0.00195735,-0.00126219,0.00016534,0.00037184,0.00083302,-0.00013615,
 0.00084052,-0.00026945,0.00002637,-0.00020478,-0.00008015,0.00002516,0
 .00002782,0.00004150,-0.00000722,0.00000385,-0.00002444,0.00000395,-0.
 00263056,-0.00491154,-0.00038377,0.03302939,-0.00862685,0.00192461,0.0
 4786180,-0.06078312,0.00241372,-0.00752557,0.00728442,-0.00037922,-0.0
 0100686,-0.00151314,-0.00010134,-0.00001700,0.00015970,0.00003294,0.00
 004012,0.00000913,-0.00000058,0.00004026,0.00000844,-0.00000581,-0.000
 00080,-0.00000442,-0.00000098,-0.00000034,-0.00000378,0.00000222,0.000
 00071,0.00000097,-0.00000103,0.00001119,0.00000170,-0.00000071,0.00000
 078,0.00000136,0.00000069,0.00155023,-0.00013669,0.00010059,0.00153945
 ,0.00062255,0.00019509,-0.07154101,0.07555848,0.00028971,0.00021760,-0
 .00064614,-0.00030124,-0.00005109,-0.00059617,0.00027792,0.00007427,-0
 .00011251,-0.00015264,-0.00007589,0.00002400,-0.00009197,0.00004986,0.
 00005851,0.00002449,0.00001327,0.00001300,-0.00000301,-0.00000625,-0.0
 0000134,0.00000045,0.00000446,-0.00000025,-0.00028818,-0.00012559,0.00
 394472,-0.00050657,0.00032407,0.00232188,-0.00676952,0.00235614,-0.020
 23936,-0.00321650,0.00135473,0.00337255,-0.00041810,-0.00053670,0.0049
 3843,-0.00001893,0.00000203,-0.00002903,-0.00000040,-0.00000449,-0.000
 00178,-0.00000877,0.00000139,-0.00000306,0.00000014,0.00000073,0.00000
 031,-0.00000035,0.00000150,-0.00000016,-0.00000016,-0.00000002,0.,-0.0
 0000159,-0.00000029,-0.00000002,-0.00000064,-0.00000044,-0.00000029,-0
 .00007713,-0.00003143,0.00051305,-0.00016665,-0.00014594,-0.00297683,0
 .01098818,-0.00333855,0.01225197,-0.00452489,0.00130639,-0.00087518,-0
 .00009001,0.00163995,-0.00000114,0.00069775,0.00030467,-0.00012887,-0.
 00017213,-0.00023000,0.00005071,-0.00031408,0.00004306,0.00000550,0.00
 007449,0.00003609,-0.00000919,-0.00001281,-0.00001649,0.00000360,-0.00
 000138,0.00001004,-0.00000212,-0.00124132,0.00003436,-0.00000790,-0.00
 365779,-0.00267150,-0.00069073,0.00460527,-0.02488324,-0.00051411,-0.0
 6265032,0.04187501,-0.00071154,-0.00030340,0.02890815,0.00066951,-0.00
 038753,0.00002891,0.00006202,-0.00001417,-0.00000495,0.00000041,-0.000
 01307,-0.00000460,0.00000264,0.00000022,0.00000179,0.00000038,0.000000
 27,0.00000150,-0.00000091,-0.00000025,-0.00000030,0.00000063,-0.000004
 50,-0.00000087,0.00000032,-0.00000031,-0.00000067,-0.00000047,0.000117
 53,0.00003029,0.00002407,0.00103868,-0.00065548,0.00001892,0.00012725,
 -0.00170986,0.00014170,0.06589440,0.00077579,0.00149113,-0.00007417,0.
 00029893,-0.00034426,-0.00000609,-0.00041110,-0.00021456,0.00004724,0.
 00009485,0.00013958,-0.00002967,0.00017999,-0.00004852,0.00000261,-0.0
 0004534,-0.00001955,0.00000473,0.00000667,0.00000940,-0.00000200,0.000
 00056,-0.00000569,0.00000118,-0.00009267,0.00065869,0.00004523,-0.0030
 9766,-0.00053517,-0.00040590,0.00478913,-0.01375663,-0.00010979,0.0396
 3301,-0.34720058,-0.00563610,0.00004941,-0.00487736,-0.00024952,0.0000
 7878,0.00005163,-0.00001300,0.00000867,0.00000250,-0.00000006,0.000008
 50,0.00000233,-0.00000154,-0.00000026,-0.00000101,-0.00000029,-0.00000
 011,-0.00000091,0.00000069,0.00000015,0.00000038,-0.00000054,0.0000026
 1,0.00000028,-0.00000014,0.00000022,0.00000055,0.00000037,0.00001542,-
 0.00006046,0.00001129,0.00101914,0.00003647,0.00005600,0.00032506,0.00
 054057,0.00010850,-0.04295768,0.36389087,-0.00088101,0.00019388,0.0072
 0429,0.00010917,-0.00006295,0.00004165,-0.00002371,0.00001037,0.000031
 12,0.00006671,-0.00002605,0.00003738,0.00001622,-0.00002237,-0.0000110
 5,-0.00000677,-0.00000186,0.00000347,0.00000017,0.00000115,-0.00000065
 ,0.00000009,-0.00000038,0.00000056,-0.00006533,0.00006826,-0.00120731,
 -0.00064814,-0.00049696,0.00556114,0.00039601,-0.00182919,0.00312926,-
 0.00097029,-0.00547626,-0.03777512,-0.00008281,0.00155806,0.00434824,0
 .00001032,0.00000313,-0.00015733,0.00000031,0.00000080,-0.00000056,-0.
 00000010,0.00000027,-0.00000014,-0.00000004,-0.00000046,-0.00000003,-0
 .00000019,-0.00000011,-0.00000032,0.00000030,0.00000018,-0.00000024,0.
 00000025,0.00000010,0.00000001,-0.00000005,0.00000015,-0.00000006,0.00
 002629,-0.00000097,-0.00034008,0.00006090,-0.00006334,0.00066429,0.000
 10870,-0.00011025,-0.00275856,0.00155533,0.00615862,0.02606762,0.01035
 184,0.00488077,0.00066774,-0.00096385,-0.00119598,0.00037429,0.0002733
 2,0.00242552,-0.00020986,-0.00627395,0.00049661,0.00108257,0.00002150,
 -0.00021645,-0.00001380,-0.00010304,-0.00003135,-0.00001424,0.00000547
 ,0.00001291,-0.00000423,0.00000262,-0.00000590,0.00000207,0.00026928,0
 .00196985,-0.00027187,0.00007013,0.00080377,0.00011125,-0.00210936,0.0
 0214246,-0.00059008,-0.01685234,-0.01697473,-0.00211566,-0.23386392,-0
 .15076908,-0.02113030,-0.00000373,-0.00008183,-0.00007682,-0.00000630,
 0.00000897,0.00000820,0.00000156,0.00000528,-0.00000812,0.,-0.00000098
 ,-0.00000099,-0.00000063,0.00000015,0.00000133,0.00000030,0.00000058,-
 0.00000021,0.00000219,0.00000046,-0.00000009,0.00000027,0.00000055,0.0
 0000022,0.00039163,0.00042274,-0.00000410,-0.00031498,-0.00017907,0.00
 001250,-0.00116080,-0.00019060,-0.00005072,0.00130055,-0.00006732,0.00
 035650,0.24865952,-0.02419295,-0.01256541,-0.00236267,0.00000955,0.002
 21586,-0.00009369,0.00057216,-0.00389445,0.00051312,-0.00142018,0.0022
 9636,0.00001203,-0.00047135,0.00086245,-0.00027614,0.00023174,0.000088
 17,-0.00004256,-0.00001366,-0.00002371,0.00000121,-0.00000053,0.000018
 40,-0.00000198,0.00171990,-0.00510038,-0.00017456,0.00114780,-0.000567
 08,0.00005804,0.00269758,0.00036878,-0.00001815,0.01172940,0.01208026,
 0.00108083,-0.14759754,-0.18257560,-0.01607358,-0.00003212,-0.00004097
 ,0.00008363,-0.00002680,-0.00000541,0.00001297,-0.00001473,-0.00001504
 ,-0.00000067,-0.00000398,0.00000817,-0.00000008,-0.00000509,0.00000706
 ,-0.00000172,-0.00000118,-0.00000160,0.00000150,-0.00001028,-0.0000014
 4,0.00000070,-0.00000063,-0.00000183,-0.00000081,-0.00113150,-0.000533
 67,-0.00004009,0.00000358,-0.00014029,0.00001500,0.00095797,0.00007501
 ,0.00004784,-0.00050840,0.00066090,0.00013712,0.15651665,0.18665136,0.
 00006917,-0.00002671,0.00518396,0.00074844,-0.00007856,-0.00352571,-0.
 00018001,-0.00135250,-0.00027332,0.00011007,0.00033272,0.00033334,0.00
 007158,0.00023347,0.00032909,0.00002383,0.00001934,0.00009412,0.000004
 79,0.00000207,-0.00000066,-0.00000058,0.00000116,0.00000049,-0.0003770
 2,-0.00011269,0.00637651,0.00009850,0.00009103,-0.00058175,-0.00064005
 ,0.00003008,0.00739482,-0.00126385,-0.00140813,0.00400627,-0.02085207,
 -0.01497406,-0.04096576,-0.00005185,-0.00003512,-0.00028391,0.00002890
 ,-0.00001926,-0.00001302,-0.00002761,0.00000996,-0.00002036,-0.0000008
 4,-0.00000061,-0.00000086,-0.00000103,0.00000382,-0.00000180,0.0000007
 0,0.00000007,-0.00000089,-0.00000026,-0.00000017,-0.00000060,-0.000001
 18,-0.00000129,-0.00000011,0.00002931,0.00004050,-0.00038638,0.0000214
 2,-0.00000156,-0.00072638,-0.00011780,-0.00001363,0.00001313,0.0004279
 4,0.00013112,-0.00455982,0.02185044,0.01712968,0.02770776,0.00172090,-
 0.00097326,0.00005117,-0.00066188,0.00002510,0.00001691,0.00066192,0.0
 0036335,-0.00006052,-0.00018026,-0.00024619,0.00004913,-0.00029541,0.0
 0008197,-0.00000909,0.00007515,0.00003198,-0.00000605,-0.00001050,-0.0
 0001538,0.00000174,-0.00000082,0.00000840,-0.00000160,-0.00467517,-0.0
 0175303,-0.00006413,0.00900313,-0.02190354,-0.00035879,-0.00446022,-0.
 00036215,-0.00039404,0.00030476,-0.00139223,0.00000593,-0.00024951,-0.
 00044244,-0.00003282,0.00007269,-0.00004332,0.00000748,-0.00001445,-0.
 00000333,0.00000005,-0.00001348,-0.00000326,0.00000203,0.00000060,0.00
 000148,0.00000006,0.00000042,0.00000141,-0.00000073,-0.00000025,-0.000
 00037,0.00000056,-0.00000430,-0.00000045,0.00000023,-0.00000036,-0.000
 00082,-0.00000041,-0.00221705,-0.00440490,-0.00036170,-0.08162558,0.03
 711612,-0.00031792,0.00064412,0.00016661,0.00002201,-0.00023384,-0.000
 16804,-0.00000250,0.00004567,-0.00011243,-0.00000166,0.11966762,0.0011
 4012,-0.00039838,-0.00002921,-0.00186617,0.00002847,-0.00001219,0.0013
 9906,0.00071351,-0.00011596,-0.00042469,-0.00045237,0.00009965,-0.0006
 6269,0.00021721,-0.00001400,0.00015650,0.00006738,-0.00002337,-0.00002
 296,-0.00003452,0.00000680,-0.00000397,0.00002046,-0.00000352,0.003011
 42,-0.00225181,0.00048478,0.01215520,-0.04808137,-0.00043060,-0.010422
 20,0.00119673,-0.00068329,0.00128291,-0.00302514,-0.00001299,-0.000424
 09,-0.00012225,-0.00001017,-0.00003721,-0.00014428,-0.00000520,-0.0000
 2939,-0.00000660,0.00000250,-0.00003021,-0.00000767,0.00000310,-0.0000
 0042,0.00000472,0.00000218,-0.00000033,0.00000290,-0.00000314,-0.00000
 009,-0.00000105,0.00000029,-0.00000943,-0.00000126,0.00000048,0.000000
 20,-0.00000067,0.00000027,-0.00257667,-0.00055825,-0.00027270,0.023289
 57,-0.26508794,-0.00282213,0.00050096,-0.00020411,0.00005891,-0.000716
 39,-0.00044061,-0.00005629,-0.00000878,0.00008502,-0.00000516,-0.09643
 215,0.37755774,0.00015762,-0.00007553,0.00002834,-0.00009092,-0.000000
 64,0.00002864,0.00007187,0.00004852,0.00000740,-0.00001972,-0.00002720
 ,0.00000789,-0.00003690,0.00001222,0.00000290,0.00000710,0.00000256,-0
 .00000671,-0.00000144,-0.00000254,-0.00000152,-0.00000021,0.00000136,0
 .00000081,-0.00001582,-0.00004212,-0.00010179,0.00034253,-0.00251785,0
 .00791743,-0.00062161,-0.00004681,0.00156177,0.00009008,-0.00015170,-0
 .00040476,-0.00003968,-0.00003324,0.00007122,0.00000748,-0.00000891,-0
 .00001670,-0.00000144,0.00000023,0.00000019,-0.00000143,-0.00000106,0.
 00000087,-0.00000024,0.00000086,0.00000022,0.00000014,-0.00000019,0.00
 000042,-0.00000024,-0.00000026,0.00000027,-0.00000048,-0.00000015,-0.0
 0000012,0.00000019,0.00000016,0.00000009,-0.00021666,-0.00041012,0.000
 03647,-0.00066996,-0.00171651,-0.06717507,0.00003708,-0.00000095,0.000
 26276,-0.00001587,-0.00001375,-0.00023100,0.00000258,-0.00000616,-0.00
 000846,0.00027544,0.00019245,0.08102619,0.00008465,-0.00113239,-0.0021
 9951,-0.00162238,-0.00035461,-0.00010427,0.00133547,0.00075839,-0.0001
 6399,-0.00045163,-0.00044124,0.00008483,-0.00071974,0.00018781,0.00000
 753,0.00017546,0.00008577,-0.00002110,-0.00002857,-0.00003769,0.000008
 37,-0.00000288,0.00002177,-0.00000334,0.00066286,-0.00502678,0.0012353
 7,-0.03032520,-0.00163498,0.03441045,-0.00434543,0.00361465,-0.0004344
 9,-0.00014769,-0.00038135,-0.00124579,-0.00106074,-0.00021017,0.000226
 34,0.00003089,-0.00012021,0.00005964,-0.00002988,-0.00000914,0.0000007
 9,-0.00003208,-0.00000870,0.00000421,0.00000089,0.00000338,0.00000052,
 0.00000027,0.00000354,-0.00000233,-0.00000016,-0.00000107,0.00000088,-
 0.00001050,-0.00000146,0.00000058,-0.00000059,-0.00000171,-0.00000066,
 0.00033835,0.00018568,0.00103828,-0.16178127,-0.00280422,0.09282698,0.
 00249197,-0.00030164,0.00032401,-0.00012114,-0.00023174,-0.00003671,0.
 00012429,-0.00002681,0.00017727,-0.02204236,0.03687766,0.02790000,0.19
 768750,-0.00034419,-0.00043782,-0.00080164,-0.00098529,-0.00013821,-0.
 00009243,0.00069486,0.00040621,-0.00013320,-0.00019910,-0.00024410,0.0
 0004877,-0.00036240,0.00010301,0.00000375,0.00008511,0.00004211,-0.000
 00329,-0.00001394,-0.00001892,0.00000334,-0.00000197,0.00001105,-0.000
 00192,-0.00013245,-0.00304050,0.00096322,-0.01685998,0.00953199,0.0130
 5093,0.00148356,0.00054911,-0.00056932,0.00033511,0.00056877,-0.000115
 09,-0.00078859,0.00037146,0.00009667,-0.00000523,-0.00006829,0.0000219
 2,-0.00001481,-0.00000403,0.00000063,-0.00001667,-0.00000422,0.0000018
 8,0.00000018,0.00000209,0.00000095,-0.00000007,0.00000157,-0.00000145,
 -0.00000009,-0.00000050,0.00000026,-0.00000516,-0.00000073,0.00000020,
 -0.00000004,-0.00000054,-0.00000005,-0.00023466,0.00011944,0.00028119,
 0.00029185,-0.07134516,-0.00523875,-0.00099600,-0.00429439,0.00198643,
 0.00006760,0.00000553,0.00003552,0.00002052,0.00002332,-0.00000341,0.0
 4748621,-0.02789638,-0.04261934,-0.02876866,0.08447786,0.00006361,-0.0
 0003147,0.00046702,0.00105127,0.00027213,0.00006702,-0.00074634,-0.000
 47139,0.00014325,0.00022629,0.00027449,-0.00005379,0.00040335,-0.00009
 715,-0.00000171,-0.00009279,-0.00004858,-0.00000066,0.00001535,0.00002
 044,-0.00000550,0.00000233,-0.00001274,0.00000309,0.00084538,0.0033158
 5,-0.00065315,0.01503110,-0.00214312,-0.00637978,0.00116834,-0.0020418
 5,0.00084595,0.00014782,0.00045435,0.00028461,0.00025616,0.00007044,-0
 .00008972,-0.00002823,0.00006659,-0.00003813,0.00001682,0.00000561,-0.
 00000006,0.00001721,0.00000436,-0.00000183,-0.00000049,-0.00000120,-0.
 00000010,0.00000027,-0.00000262,0.00000197,-0.00000010,0.00000018,-0.0
 0000012,0.00000568,0.00000074,-0.00000050,0.00000066,0.00000122,0.0000
 0051,-0.00028699,0.00001385,-0.00017999,0.09564206,0.00003830,-0.16050
 296,-0.00083988,0.00157906,-0.00010106,0.00005475,0.00010546,-0.000015
 11,-0.00004883,0.00003657,-0.00003946,0.02570610,-0.03220078,-0.009854
 07,-0.15321959,0.02973685,0.26754285,-0.00017974,-0.00121560,0.0019310
 8,-0.00145300,-0.00036980,0.00019033,0.00120227,0.00065816,-0.00017015
 ,-0.00043137,-0.00038207,0.00010152,-0.00066241,0.00016712,-0.00001730
 ,0.00016219,0.00008322,-0.00001968,-0.00002623,-0.00003436,0.00000725,
 -0.00000262,0.00001859,-0.00000469,0.00096508,-0.00453599,-0.00136684,
 -0.02335784,-0.00006555,-0.03659752,-0.00416532,0.00336140,-0.00003596
 ,-0.00034130,-0.00040712,0.00102556,-0.00098921,-0.00016030,-0.0003007
 0,0.00002636,-0.00010637,0.00002677,-0.00002768,-0.00000775,0.00000109
 ,-0.00002907,-0.00000813,0.00000469,0.00000057,0.00000399,0.00000071,0
 .00000048,0.00000280,-0.00000143,-0.00000066,-0.00000134,0.00000126,-0
 .00000962,-0.00000135,0.00000048,-0.00000026,-0.00000116,-0.00000036,0
 .00042135,0.00023295,-0.00098300,-0.13920119,0.00057753,-0.09024016,0.
 00237720,-0.00004580,0.00000447,-0.00011346,-0.00021497,0.00001042,0.0
 0013278,-0.00001614,-0.00014653,-0.01551157,0.03385424,-0.02715950,0.0
 1978966,-0.00073570,0.01460868,0.16142461,-0.00048229,-0.00047553,0.00
 071467,-0.00090113,-0.00016695,0.00013076,0.00062681,0.00037562,-0.000
 07330,-0.00019492,-0.00021169,0.00004546,-0.00034062,0.00009034,-0.000
 00965,0.00007841,0.00003843,-0.00000890,-0.00001298,-0.00001764,0.0000
 0261,-0.00000202,0.00001041,-0.00000180,0.00006820,-0.00282111,-0.0011
 1227,-0.01426595,0.01014770,-0.01425967,0.00149767,0.00049813,0.000742
 67,0.00031186,0.00057263,0.00012475,-0.00075294,0.00039893,-0.00015706
 ,-0.00000733,-0.00006495,-0.00000119,-0.00001445,-0.00000408,0.0000007
 5,-0.00001431,-0.00000399,0.00000186,0.00000013,0.00000208,0.00000090,
 0.00000011,0.00000148,-0.00000142,-0.00000015,-0.00000055,0.00000026,-
 0.00000493,-0.00000070,0.00000028,0.00000001,-0.00000058,0.,-0.0002210
 8,0.00013412,-0.00029647,0.00316850,-0.07181270,0.00952896,-0.00070356
 ,-0.00423315,-0.00228504,0.00007262,0.00001454,-0.00002017,0.00001430,
 0.00002577,0.00000786,0.04297466,-0.03117949,0.04741665,-0.00024409,0.
 01128026,0.00105442,-0.03065053,0.08740266,-0.00017184,-0.00013151,0.0
 0075224,-0.00125715,-0.00035819,0.00013008,0.00090420,0.00057454,-0.00
 014146,-0.00029071,-0.00032756,0.00008416,-0.00049636,0.00011344,-0.00
 000446,0.00011453,0.00006026,-0.00002383,-0.00001984,-0.00002577,0.000
 00411,-0.00000259,0.00001577,-0.00000206,-0.00061442,-0.00402033,-0.00
 113457,-0.01798150,0.00295720,-0.01303511,-0.00174291,0.00246935,0.000
 74949,-0.00025278,-0.00051658,0.00033497,-0.00039291,-0.00008003,-0.00
 015956,0.00003461,-0.00008451,0.00000748,-0.00002059,-0.00000557,0.000
 00100,-0.00002157,-0.00000636,0.00000428,0.00000040,0.00000350,0.00000
 062,0.00000049,0.00000165,-0.00000039,-0.00000086,-0.00000107,0.000001
 20,-0.00000701,-0.00000107,0.00000024,-0.00000017,-0.00000052,-0.00000
 025,0.00035519,0.00002968,-0.00031108,-0.09294360,0.00374163,-0.184082
 82,0.00106919,-0.00189081,-0.00024776,-0.00006038,-0.00013051,-0.00003
 166,0.00007022,-0.00003738,-0.00005026,-0.02452686,0.03584929,-0.01315
 367,-0.00087428,0.00334738,-0.09143858,0.13912951,-0.04154591,0.301747
 66\\-0.00000264,0.00000769,-0.00000095,0.00001460,-0.00000409,-0.00000
 774,-0.00000497,-0.00000091,0.00000368,0.00000179,-0.00000149,0.000002
 51,-0.00000146,-0.00000042,-0.00000277,0.00000465,-0.00000134,-0.00000
 062,-0.00000139,-0.00000132,0.00000043,0.00000017,-0.00000277,0.000002
 56,-0.00000741,-0.00000065,-0.00000488,0.00000024,0.00000038,-0.000005
 26,-0.00000194,0.00000291,0.00000174,0.00000017,-0.00000097,-0.0000004
 4,-0.00000050,0.00000026,0.00000058,0.00000026,0.00000213,0.00000459,0
 .00000021,-0.00000248,0.00000117,0.00000031,-0.00000259,0.00000297,-0.
 00000137,-0.00000083,0.00000149,-0.00000163,-0.00000248,-0.00000002,-0
 .00000013,-0.00000246,0.00000274,-0.00000100,-0.00000234,0.00000117,-0
 .00000016,-0.00000350,0.00000128,-0.00000131,0.00000063,0.00000047,-0.
 00000123,0.00000620,0.00000506,0.00000468,0.00000826,-0.00000306,0.000
 00133,0.00000153,0.00000087,-0.00000016,0.,0.00000163,0.00000584,-0.00
 000086,-0.00000351,-0.00000687,-0.00000298,0.00000050,-0.00000008,0.00
 000450,-0.00000617\\\@


 FESTINA LENTE!
     - IMPERATOR AUGUSTUS 
 Job cpu time:       0 days  4 hours 17 minutes 25.8 seconds.
 File lengths (MBytes):  RWF=    657 Int=      0 D2E=      0 Chk=     22 Scr=      1
 Normal termination of Gaussian 09 at Thu Nov 14 18:06:55 2019.
pbs_rusage has been removed.
Please contact help@nci.org.au if you require this functionality.
