 Entering Gaussian System, Link 0=/apps/gaussian/g16c01/g16/g16
 Initial command:
 /apps/gaussian/g16c01/g16/l1.exe "/jobfs/10906249.gadi-pbs/Gau-318116.inp" -scrdir="/jobfs/10906249.gadi-pbs/"
 Entering Link 1 = /apps/gaussian/g16c01/g16/l1.exe PID=    318117.
  
 Copyright (c) 1988-2019, Gaussian, Inc.  All Rights Reserved.
  
 This is part of the Gaussian(R) 16 program.  It is based on
 the Gaussian(R) 09 system (copyright 2009, Gaussian, Inc.),
 the Gaussian(R) 03 system (copyright 2003, Gaussian, Inc.),
 the Gaussian(R) 98 system (copyright 1998, Gaussian, Inc.),
 the Gaussian(R) 94 system (copyright 1995, Gaussian, Inc.),
 the Gaussian 92(TM) system (copyright 1992, Gaussian, Inc.),
 the Gaussian 90(TM) system (copyright 1990, Gaussian, Inc.),
 the Gaussian 88(TM) system (copyright 1988, Gaussian, Inc.),
 the Gaussian 86(TM) system (copyright 1986, Carnegie Mellon
 University), and the Gaussian 82(TM) system (copyright 1983,
 Carnegie Mellon University). Gaussian is a federally registered
 trademark of Gaussian, Inc.
  
 This software contains proprietary and confidential information,
 including trade secrets, belonging to Gaussian, Inc.
  
 This software is provided under written license and may be
 used, copied, transmitted, or stored only in accord with that
 written license.
  
 The following legend is applicable only to US Government
 contracts under FAR:
  
                    RESTRICTED RIGHTS LEGEND
  
 Use, reproduction and disclosure by the US Government is
 subject to restrictions as set forth in subparagraphs (a)
 and (c) of the Commercial Computer Software - Restricted
 Rights clause in FAR 52.227-19.
  
 Gaussian, Inc.
 340 Quinnipiac St., Bldg. 40, Wallingford CT 06492
  
  
 ---------------------------------------------------------------
 Warning -- This program may not be used in any manner that
 competes with the business of Gaussian, Inc. or will provide
 assistance to any competitor of Gaussian, Inc.  The licensee
 of this program is prohibited from giving any competitor of
 Gaussian, Inc. access to this program.  By using this program,
 the user acknowledges that Gaussian, Inc. is engaged in the
 business of creating and licensing software in the field of
 computational chemistry and represents and warrants to the
 licensee that it is not a competitor of Gaussian, Inc. and that
 it will not use this program in any manner prohibited above.
 ---------------------------------------------------------------
  

 Cite this work as:
 Gaussian 16, Revision C.01,
 M. J. Frisch, G. W. Trucks, H. B. Schlegel, G. E. Scuseria, 
 M. A. Robb, J. R. Cheeseman, G. Scalmani, V. Barone, 
 G. A. Petersson, H. Nakatsuji, X. Li, M. Caricato, A. V. Marenich, 
 J. Bloino, B. G. Janesko, R. Gomperts, B. Mennucci, H. P. Hratchian, 
 J. V. Ortiz, A. F. Izmaylov, J. L. Sonnenberg, D. Williams-Young, 
 F. Ding, F. Lipparini, F. Egidi, J. Goings, B. Peng, A. Petrone, 
 T. Henderson, D. Ranasinghe, V. G. Zakrzewski, J. Gao, N. Rega, 
 G. Zheng, W. Liang, M. Hada, M. Ehara, K. Toyota, R. Fukuda, 
 J. Hasegawa, M. Ishida, T. Nakajima, Y. Honda, O. Kitao, H. Nakai, 
 T. Vreven, K. Throssell, J. A. Montgomery, Jr., J. E. Peralta, 
 F. Ogliaro, M. J. Bearpark, J. J. Heyd, E. N. Brothers, K. N. Kudin, 
 V. N. Staroverov, T. A. Keith, R. Kobayashi, J. Normand, 
 K. Raghavachari, A. P. Rendell, J. C. Burant, S. S. Iyengar, 
 J. Tomasi, M. Cossi, J. M. Millam, M. Klene, C. Adamo, R. Cammi, 
 J. W. Ochterski, R. L. Martin, K. Morokuma, O. Farkas, 
 J. B. Foresman, and D. J. Fox, Gaussian, Inc., Wallingford CT, 2019.
 
 ******************************************
 Gaussian 16:  ES64L-G16RevC.01  3-Jul-2019
                 4-Sep-2020 
 ******************************************
 %chk=29CA_c2.M062X_6-311pGd_opt_Pentadecane_GD3.chk
 ----------------------------------------------------------------------
 # M062X/6-311+G* SCF=Tight INT(grid=ultrafine) OPT=CalcAll IOP(2/17=4)
  Symmetry=None EmpiricalDispersion=GD3 SCRF=(SMD,Solvent=n-Pentadecane
 )
 ----------------------------------------------------------------------
 1/10=4,18=20,19=15,26=6,38=1/1,3;
 2/9=110,12=2,15=3,17=4,18=5,40=1/2;
 3/5=4,6=6,7=11,11=2,25=1,30=1,70=32201,71=2,72=151,74=-55,75=-5,124=31,140=1/1,2,3;
 4//1;
 5/5=2,32=2,38=5,53=151/2;
 8/6=4,10=90,11=11/1;
 11/6=1,8=1,9=11,15=111,16=1,31=1/1,2,10;
 10/6=1,31=1/2;
 6/7=2,8=2,9=2,10=2,18=1,28=1/1;
 7/10=1,25=1,30=1/1,2,3,16;
 1/10=4,18=20,19=15,26=6/3(3);
 2/9=110,15=3,17=4/2;
 7/8=1,9=1,25=1,30=1,44=-1/16;
 99//99;
 2/9=110,15=3,17=4/2;
 3/5=4,6=6,7=11,11=2,25=1,30=1,70=32205,71=2,72=151,74=-55,75=-5,124=31,140=1/1,2,3;
 4/5=5,16=3,69=1/1;
 5/5=2,32=2,38=5,53=151/2;
 8/6=4,10=90,11=11/1;
 11/6=1,8=1,9=11,15=111,16=1,31=1/1,2,10;
 10/6=1,31=1/2;
 7/10=1,25=1,30=1/1,2,3,16;
 1/10=4,18=20,19=15,26=6/3(-8);
 2/9=110,15=3,17=4/2;
 6/7=2,8=2,9=2,10=2,18=1,19=2,28=1/1;
 7/8=1,9=1,25=1,30=1,44=-1/16;
 99//99;
 ------------------------------------------
 29CA_c2.M062X_6-311pGd_opt_Pentadecane_GD3
 ------------------------------------------
 Symbolic Z-matrix:
 Charge =  0 Multiplicity = 1
 C                    -6.18499   1.47355   0.0221 
 N                    -4.92524   0.86729   0.11369 
 C                    -3.71038   1.46435  -0.03661 
 O                    -3.51601   2.64358  -0.25782 
 O                    -2.73711   0.55459   0.09467 
 C                    -1.3863    1.04447  -0.04348 
 C                    -0.45268  -0.12901   0.14782 
 C                     0.99926   0.31855   0.01839 
 C                    -7.288     0.62044  -0.07065 
 C                    -8.57449   1.13116  -0.14041 
 C                    -8.77138   2.51294  -0.12443 
 C                    -7.68145   3.3622   -0.03231 
 C                    -6.39061   2.85341   0.04564 
 H                    -4.91089  -0.13879   0.23067 
 H                    -1.21764   1.81726   0.70933 
 H                    -1.27593   1.48703  -1.03564 
 H                    -0.68143  -0.89493  -0.5982 
 H                    -0.62769  -0.56871   1.13351 
 H                     1.19292   0.74759  -0.96795 
 H                     1.67955  -0.52343   0.15594 
 H                     1.24656   1.0747    0.76774 
 H                    -7.13014  -0.45179  -0.08699 
 C                    -9.73678   0.1818   -0.23441 
 Cl                   -10.36911   3.20619  -0.21215 
 H                    -7.83597   4.43408  -0.01372 
 H                    -5.55962   3.53654   0.13143 
 F                    -9.34583  -1.0981   -0.23772 
 F                    -10.58872   0.3206    0.79542 
 F                    -10.45374   0.36753  -1.35553 
 

 GradGradGradGradGradGradGradGradGradGradGradGradGradGradGradGradGradGrad
 Berny optimization.
 Initialization pass.
                           ----------------------------
                           !    Initial Parameters    !
                           ! (Angstroms and Degrees)  !
 --------------------------                            --------------------------
 ! Name  Definition              Value          Derivative Info.                !
 --------------------------------------------------------------------------------
 ! R1    R(1,2)                  1.401          calculate D2E/DX2 analytically  !
 ! R2    R(1,9)                  1.3975         calculate D2E/DX2 analytically  !
 ! R3    R(1,13)                 1.3953         calculate D2E/DX2 analytically  !
 ! R4    R(2,3)                  1.362          calculate D2E/DX2 analytically  !
 ! R5    R(2,14)                 1.013          calculate D2E/DX2 analytically  !
 ! R6    R(3,4)                  1.2154         calculate D2E/DX2 analytically  !
 ! R7    R(3,5)                  1.3387         calculate D2E/DX2 analytically  !
 ! R8    R(5,6)                  1.4435         calculate D2E/DX2 analytically  !
 ! R9    R(6,7)                  1.5117         calculate D2E/DX2 analytically  !
 ! R10   R(6,15)                 1.0919         calculate D2E/DX2 analytically  !
 ! R11   R(6,16)                 1.092          calculate D2E/DX2 analytically  !
 ! R12   R(7,8)                  1.5249         calculate D2E/DX2 analytically  !
 ! R13   R(7,17)                 1.0934         calculate D2E/DX2 analytically  !
 ! R14   R(7,18)                 1.0934         calculate D2E/DX2 analytically  !
 ! R15   R(8,19)                 1.0929         calculate D2E/DX2 analytically  !
 ! R16   R(8,20)                 1.0912         calculate D2E/DX2 analytically  !
 ! R17   R(8,21)                 1.0929         calculate D2E/DX2 analytically  !
 ! R18   R(9,10)                 1.3859         calculate D2E/DX2 analytically  !
 ! R19   R(9,22)                 1.0839         calculate D2E/DX2 analytically  !
 ! R20   R(10,11)                1.3958         calculate D2E/DX2 analytically  !
 ! R21   R(10,23)                1.5037         calculate D2E/DX2 analytically  !
 ! R22   R(11,12)                1.3848         calculate D2E/DX2 analytically  !
 ! R23   R(11,24)                1.7438         calculate D2E/DX2 analytically  !
 ! R24   R(12,13)                1.3897         calculate D2E/DX2 analytically  !
 ! R25   R(12,25)                1.0831         calculate D2E/DX2 analytically  !
 ! R26   R(13,26)                1.0792         calculate D2E/DX2 analytically  !
 ! R27   R(23,27)                1.3383         calculate D2E/DX2 analytically  !
 ! R28   R(23,28)                1.3437         calculate D2E/DX2 analytically  !
 ! R29   R(23,29)                1.3437         calculate D2E/DX2 analytically  !
 ! A1    A(2,1,9)              116.7348         calculate D2E/DX2 analytically  !
 ! A2    A(2,1,13)             124.0099         calculate D2E/DX2 analytically  !
 ! A3    A(9,1,13)             119.2423         calculate D2E/DX2 analytically  !
 ! A4    A(1,2,3)              127.2377         calculate D2E/DX2 analytically  !
 ! A5    A(1,2,14)             116.7481         calculate D2E/DX2 analytically  !
 ! A6    A(3,2,14)             115.818          calculate D2E/DX2 analytically  !
 ! A7    A(2,3,4)              126.0187         calculate D2E/DX2 analytically  !
 ! A8    A(2,3,5)              109.8616         calculate D2E/DX2 analytically  !
 ! A9    A(4,3,5)              124.1197         calculate D2E/DX2 analytically  !
 ! A10   A(3,5,6)              116.1236         calculate D2E/DX2 analytically  !
 ! A11   A(5,6,7)              107.6001         calculate D2E/DX2 analytically  !
 ! A12   A(5,6,15)             108.5861         calculate D2E/DX2 analytically  !
 ! A13   A(5,6,16)             108.6067         calculate D2E/DX2 analytically  !
 ! A14   A(7,6,15)             111.5143         calculate D2E/DX2 analytically  !
 ! A15   A(7,6,16)             111.5402         calculate D2E/DX2 analytically  !
 ! A16   A(15,6,16)            108.9031         calculate D2E/DX2 analytically  !
 ! A17   A(6,7,8)              110.4548         calculate D2E/DX2 analytically  !
 ! A18   A(6,7,17)             109.1609         calculate D2E/DX2 analytically  !
 ! A19   A(6,7,18)             109.1098         calculate D2E/DX2 analytically  !
 ! A20   A(8,7,17)             110.2976         calculate D2E/DX2 analytically  !
 ! A21   A(8,7,18)             110.3012         calculate D2E/DX2 analytically  !
 ! A22   A(17,7,18)            107.452          calculate D2E/DX2 analytically  !
 ! A23   A(7,8,19)             111.1339         calculate D2E/DX2 analytically  !
 ! A24   A(7,8,20)             110.8826         calculate D2E/DX2 analytically  !
 ! A25   A(7,8,21)             111.1205         calculate D2E/DX2 analytically  !
 ! A26   A(19,8,20)            107.8309         calculate D2E/DX2 analytically  !
 ! A27   A(19,8,21)            107.8843         calculate D2E/DX2 analytically  !
 ! A28   A(20,8,21)            107.8404         calculate D2E/DX2 analytically  !
 ! A29   A(1,9,10)             120.7327         calculate D2E/DX2 analytically  !
 ! A30   A(1,9,22)             119.3353         calculate D2E/DX2 analytically  !
 ! A31   A(10,9,22)            119.932          calculate D2E/DX2 analytically  !
 ! A32   A(9,10,11)            119.6807         calculate D2E/DX2 analytically  !
 ! A33   A(9,10,23)            119.2089         calculate D2E/DX2 analytically  !
 ! A34   A(11,10,23)           121.1104         calculate D2E/DX2 analytically  !
 ! A35   A(10,11,12)           119.7907         calculate D2E/DX2 analytically  !
 ! A36   A(10,11,24)           121.4801         calculate D2E/DX2 analytically  !
 ! A37   A(12,11,24)           118.7288         calculate D2E/DX2 analytically  !
 ! A38   A(11,12,13)           120.6831         calculate D2E/DX2 analytically  !
 ! A39   A(11,12,25)           119.7204         calculate D2E/DX2 analytically  !
 ! A40   A(13,12,25)           119.5951         calculate D2E/DX2 analytically  !
 ! A41   A(1,13,12)            119.8684         calculate D2E/DX2 analytically  !
 ! A42   A(1,13,26)            120.9231         calculate D2E/DX2 analytically  !
 ! A43   A(12,13,26)           119.2068         calculate D2E/DX2 analytically  !
 ! A44   A(10,23,27)           112.2206         calculate D2E/DX2 analytically  !
 ! A45   A(10,23,28)           112.1449         calculate D2E/DX2 analytically  !
 ! A46   A(10,23,29)           112.1683         calculate D2E/DX2 analytically  !
 ! A47   A(27,23,28)           106.6123         calculate D2E/DX2 analytically  !
 ! A48   A(27,23,29)           106.619          calculate D2E/DX2 analytically  !
 ! A49   A(28,23,29)           106.6709         calculate D2E/DX2 analytically  !
 ! D1    D(9,1,2,3)            166.7462         calculate D2E/DX2 analytically  !
 ! D2    D(9,1,2,14)            -7.9194         calculate D2E/DX2 analytically  !
 ! D3    D(13,1,2,3)           -14.5803         calculate D2E/DX2 analytically  !
 ! D4    D(13,1,2,14)          170.7541         calculate D2E/DX2 analytically  !
 ! D5    D(2,1,9,10)           178.8134         calculate D2E/DX2 analytically  !
 ! D6    D(2,1,9,22)            -1.1351         calculate D2E/DX2 analytically  !
 ! D7    D(13,1,9,10)            0.0736         calculate D2E/DX2 analytically  !
 ! D8    D(13,1,9,22)         -179.875          calculate D2E/DX2 analytically  !
 ! D9    D(2,1,13,12)         -179.0874         calculate D2E/DX2 analytically  !
 ! D10   D(2,1,13,26)            0.4416         calculate D2E/DX2 analytically  !
 ! D11   D(9,1,13,12)           -0.4452         calculate D2E/DX2 analytically  !
 ! D12   D(9,1,13,26)          179.0839         calculate D2E/DX2 analytically  !
 ! D13   D(1,2,3,4)              1.2367         calculate D2E/DX2 analytically  !
 ! D14   D(1,2,3,5)           -178.7245         calculate D2E/DX2 analytically  !
 ! D15   D(14,2,3,4)           175.9451         calculate D2E/DX2 analytically  !
 ! D16   D(14,2,3,5)            -4.0162         calculate D2E/DX2 analytically  !
 ! D17   D(2,3,5,6)            179.8875         calculate D2E/DX2 analytically  !
 ! D18   D(4,3,5,6)             -0.0746         calculate D2E/DX2 analytically  !
 ! D19   D(3,5,6,7)            179.5941         calculate D2E/DX2 analytically  !
 ! D20   D(3,5,6,15)            58.7579         calculate D2E/DX2 analytically  !
 ! D21   D(3,5,6,16)           -59.527          calculate D2E/DX2 analytically  !
 ! D22   D(5,6,7,8)           -179.8393         calculate D2E/DX2 analytically  !
 ! D23   D(5,6,7,17)            58.724          calculate D2E/DX2 analytically  !
 ! D24   D(5,6,7,18)           -58.4312         calculate D2E/DX2 analytically  !
 ! D25   D(15,6,7,8)           -60.8614         calculate D2E/DX2 analytically  !
 ! D26   D(15,6,7,17)          177.7019         calculate D2E/DX2 analytically  !
 ! D27   D(15,6,7,18)           60.5467         calculate D2E/DX2 analytically  !
 ! D28   D(16,6,7,8)            61.1425         calculate D2E/DX2 analytically  !
 ! D29   D(16,6,7,17)          -60.2942         calculate D2E/DX2 analytically  !
 ! D30   D(16,6,7,18)         -177.4494         calculate D2E/DX2 analytically  !
 ! D31   D(6,7,8,19)           -60.1107         calculate D2E/DX2 analytically  !
 ! D32   D(6,7,8,20)           179.9658         calculate D2E/DX2 analytically  !
 ! D33   D(6,7,8,21)            60.0392         calculate D2E/DX2 analytically  !
 ! D34   D(17,7,8,19)           60.6502         calculate D2E/DX2 analytically  !
 ! D35   D(17,7,8,20)          -59.2733         calculate D2E/DX2 analytically  !
 ! D36   D(17,7,8,21)         -179.1998         calculate D2E/DX2 analytically  !
 ! D37   D(18,7,8,19)          179.1899         calculate D2E/DX2 analytically  !
 ! D38   D(18,7,8,20)           59.2664         calculate D2E/DX2 analytically  !
 ! D39   D(18,7,8,21)          -60.6602         calculate D2E/DX2 analytically  !
 ! D40   D(1,9,10,11)            0.311          calculate D2E/DX2 analytically  !
 ! D41   D(1,9,10,23)         -179.7808         calculate D2E/DX2 analytically  !
 ! D42   D(22,9,10,11)        -179.7408         calculate D2E/DX2 analytically  !
 ! D43   D(22,9,10,23)           0.1674         calculate D2E/DX2 analytically  !
 ! D44   D(9,10,11,12)          -0.3237         calculate D2E/DX2 analytically  !
 ! D45   D(9,10,11,24)         179.9124         calculate D2E/DX2 analytically  !
 ! D46   D(23,10,11,12)        179.77           calculate D2E/DX2 analytically  !
 ! D47   D(23,10,11,24)          0.006          calculate D2E/DX2 analytically  !
 ! D48   D(9,10,23,27)           0.0078         calculate D2E/DX2 analytically  !
 ! D49   D(9,10,23,28)         119.9865         calculate D2E/DX2 analytically  !
 ! D50   D(9,10,23,29)        -119.996          calculate D2E/DX2 analytically  !
 ! D51   D(11,10,23,27)        179.9146         calculate D2E/DX2 analytically  !
 ! D52   D(11,10,23,28)        -60.1067         calculate D2E/DX2 analytically  !
 ! D53   D(11,10,23,29)         59.9108         calculate D2E/DX2 analytically  !
 ! D54   D(10,11,12,13)         -0.049          calculate D2E/DX2 analytically  !
 ! D55   D(10,11,12,25)       -179.6165         calculate D2E/DX2 analytically  !
 ! D56   D(24,11,12,13)        179.7215         calculate D2E/DX2 analytically  !
 ! D57   D(24,11,12,25)          0.154          calculate D2E/DX2 analytically  !
 ! D58   D(11,12,13,1)           0.436          calculate D2E/DX2 analytically  !
 ! D59   D(11,12,13,26)       -179.1012         calculate D2E/DX2 analytically  !
 ! D60   D(25,12,13,1)        -179.996          calculate D2E/DX2 analytically  !
 ! D61   D(25,12,13,26)          0.4669         calculate D2E/DX2 analytically  !
 --------------------------------------------------------------------------------
 Trust Radius=3.00D-01 FncErr=5.00D-06 GrdErr=5.00D-06 EigMax=2.50D+02 EigMin=1.00D-04
 Number of steps in this run=    149 maximum allowed number of steps=    174.
 GradGradGradGradGradGradGradGradGradGradGradGradGradGradGradGradGradGrad

                          Input orientation:                          
 ---------------------------------------------------------------------
 Center     Atomic      Atomic             Coordinates (Angstroms)
 Number     Number       Type             X           Y           Z
 ---------------------------------------------------------------------
      1          6           0       -6.184993    1.473546    0.022104
      2          7           0       -4.925237    0.867285    0.113688
      3          6           0       -3.710375    1.464354   -0.036606
      4          8           0       -3.516012    2.643576   -0.257819
      5          8           0       -2.737108    0.554588    0.094673
      6          6           0       -1.386299    1.044475   -0.043478
      7          6           0       -0.452680   -0.129013    0.147818
      8          6           0        0.999262    0.318555    0.018386
      9          6           0       -7.288001    0.620443   -0.070648
     10          6           0       -8.574486    1.131164   -0.140415
     11          6           0       -8.771383    2.512944   -0.124433
     12          6           0       -7.681453    3.362197   -0.032306
     13          6           0       -6.390612    2.853406    0.045641
     14          1           0       -4.910887   -0.138792    0.230666
     15          1           0       -1.217641    1.817256    0.709328
     16          1           0       -1.275934    1.487027   -1.035642
     17          1           0       -0.681427   -0.894930   -0.598204
     18          1           0       -0.627692   -0.568706    1.133511
     19          1           0        1.192919    0.747589   -0.967952
     20          1           0        1.679555   -0.523428    0.155936
     21          1           0        1.246560    1.074703    0.767735
     22          1           0       -7.130138   -0.451785   -0.086992
     23          6           0       -9.736777    0.181797   -0.234406
     24         17           0      -10.369106    3.206190   -0.212152
     25          1           0       -7.835967    4.434080   -0.013717
     26          1           0       -5.559619    3.536541    0.131429
     27          9           0       -9.345831   -1.098105   -0.237716
     28          9           0      -10.588721    0.320595    0.795417
     29          9           0      -10.453744    0.367526   -1.355526
 ---------------------------------------------------------------------
                    Distance matrix (angstroms):
                    1          2          3          4          5
     1  C    0.000000
     2  N    1.401044   0.000000
     3  C    2.475331   1.361972   0.000000
     4  O    2.927590   2.297638   1.215433   0.000000
     5  O    3.568986   2.210442   1.338715   2.257169   0.000000
     6  C    4.818285   3.546855   2.361711   2.671843   1.443523
     7  C    5.953437   4.582308   3.631172   4.151602   2.385109
     8  C    7.276506   5.950620   4.847325   5.086228   3.744595
     9  C    1.397503   2.382764   3.675969   4.284390   4.554371
    10  C    2.419362   3.667590   4.876614   5.281035   5.870493
    11  C    2.791278   4.190194   5.169241   5.258686   6.347885
    12  C    2.410260   3.720568   4.401282   4.232986   5.687296
    13  C    1.395294   2.469135   3.019917   2.898178   4.316834
    14  H    2.065545   1.012956   2.020578   3.150534   2.285735
    15  H    5.026430   3.873436   2.625773   2.626916   2.069036
    16  H    5.021740   3.875881   2.631557   2.638288   2.069320
    17  H    6.023595   4.649959   3.880224   4.546621   2.609023
    18  H    6.024086   4.644460   3.873686   4.538386   2.605880
    19  H    7.479359   6.214186   5.042167   5.125728   4.075725
    20  H    8.115228   6.749752   5.748017   6.098773   4.546733
    21  H    7.479507   6.209821   5.036864   5.118126   4.073468
    22  H    2.147581   2.577171   3.920320   4.761549   4.510489
    23  C    3.788084   4.872574   6.164543   6.690203   7.017310
    24  Cl   4.534725   5.934000   6.885020   6.876301   8.085328
    25  H    3.389949   4.605497   5.083335   4.682680   6.407852
    26  H    2.158470   2.743662   2.782427   2.263897   4.106089
    27  F    4.083111   4.850556   6.193949   6.927292   6.820345
    28  F    4.617372   5.730503   7.022256   7.518560   7.886293
    29  F    4.619890   5.742189   6.958132   7.383596   7.853951
                    6          7          8          9         10
     6  C    0.000000
     7  C    1.511725   0.000000
     8  C    2.494331   1.524862   0.000000
     9  C    5.916978   6.879755   8.293237   0.000000
    10  C    7.189363   8.224041   9.609485   1.385910   0.000000
    11  C    7.530101   8.732404  10.015051   2.405176   1.395829
    12  C    6.708273   8.029704   9.198975   2.770106   2.405556
    13  C    5.321966   6.645622   7.812582   2.409347   2.787479
    14  H    3.728001   4.458987   5.931617   2.513543   3.895183
    15  H    1.091949   2.165276   2.763723   6.236184   7.437470
    16  H    1.091981   2.165620   2.766373   6.150376   7.361856
    17  H    2.136786   1.093390   2.162739   6.798638   8.161802
    18  H    2.136151   1.093413   2.162802   6.871957   8.225812
    19  H    2.755931   2.172871   1.092903   8.529204   9.809900
    20  H    3.449282   2.168422   1.091171   9.043055  10.390902
    21  H    2.755164   2.172705   1.092905   8.587664   9.863106
    22  H    5.935687   6.689377   8.166497   1.083910   2.143531
    23  C    8.397092   9.297158  10.739885   2.493137   1.503680
    24  Cl   9.240795  10.468460  11.731640   4.024838   2.744365
    25  H    7.286187   8.681061   9.746786   3.853224   3.386844
    26  H    4.863907   6.286285   7.306650   3.395846   3.866414
    27  F    8.245152   8.954101  10.444782   2.686258   2.360949
    28  F    9.268889  10.166654  11.614005   3.425599   2.364306
    29  F    9.186854  10.125605  11.535223   3.425903   2.364582
                   11         12         13         14         15
    11  C    0.000000
    12  C    1.384798   0.000000
    13  C    2.410998   1.389682   0.000000
    14  H    4.696938   4.472372   3.343212   0.000000
    15  H    7.631393   6.687132   5.317303   4.206579   0.000000
    16  H    7.620010   6.749342   5.403340   4.178481   1.776899
    17  H    8.791214   8.212413   6.859981   4.375740   3.058286
    18  H    8.797653   8.158840   6.790107   4.398376   2.494150
    19  H   10.154571   9.298714   7.935475   6.283216   3.125420
    20  H   10.886701  10.137159   8.748872   6.602079   3.765473
    21  H   10.159906   9.251060   7.874744   6.298822   2.574312
    22  H    3.388909   3.854011   3.389510   2.263614   6.382813
    23  C    2.525534   3.792116   4.291007   4.858836   8.725883
    24  Cl   1.743848   2.698177   4.002416   6.416942   9.302020
    25  H    2.139632   1.083122   2.142686   5.433872   7.153516
    26  H    3.380628   2.135271   1.079158   3.733467   4.705602
    27  F    3.658209   4.765148   4.942474   4.561622   8.686985
    28  F    2.992529   4.288201   4.959981   5.724315   9.490234
    29  F    2.991445   4.290054   4.965069   5.787541   9.574494
                   16         17         18         19         20
    16  H    0.000000
    17  H    2.493694   0.000000
    18  H    3.058020   1.762993   0.000000
    19  H    2.578097   2.519475   3.076265   0.000000
    20  H    3.767852   2.506188   2.506211   1.765056   0.000000
    21  H    3.128124   3.076097   2.519406   1.767057   1.765164
    22  H    6.239442   6.484103   6.617032   8.455050   8.813333
    23  C    8.598341   9.126393   9.241747  10.968886  11.444752
    24  Cl   9.290825  10.527077  10.533556  11.844677  12.618073
    25  H    7.263847   8.940212   8.848910   9.799058  10.730835
    26  H    4.890043   6.630766   6.494700   7.388076   8.299976
    27  F    8.511336   8.674280   8.841181  10.724042  11.047369
    28  F    9.562496  10.078400  10.006361  11.920521  12.313890
    29  F    9.251368   9.882586  10.179545  11.659306  12.259497
                   21         22         23         24         25
    21  H    0.000000
    22  H    8.557441   0.000000
    23  C   11.065047   2.686582   0.000000
    24  Cl  11.850195   4.887470   3.089869   0.000000
    25  H    9.715367   4.937129   4.663013   2.822036   0.000000
    26  H    7.265646   4.291968   5.369990   4.833047   2.451204
    27  F   10.859594   2.312951   1.338282   4.424330   5.738896
    28  F   11.859313   3.651987   1.343729   3.064324   5.015287
    29  F   11.912407   3.650590   1.343669   3.061451   5.018971
                   26         27         28         29
    26  H    0.000000
    27  F    5.995966   0.000000
    28  F    6.006251   2.150546   0.000000
    29  F    6.017155   2.150592   2.155684   0.000000
 Symmetry turned off by external request.
 Stoichiometry    C11H11ClF3NO2
 Rotational constants (GHZ):           0.9428530           0.1306708           0.1175178
 Standard basis: 6-311+G(d) (5D, 7F)
   437 basis functions,   720 primitive gaussians,   455 cartesian basis functions
    72 alpha electrons       72 beta electrons
       nuclear repulsion energy      1436.4190235815 Hartrees.
 NAtoms=   29 NActive=   29 NUniq=   29 SFac= 1.00D+00 NAtFMM=   60 NAOKFM=F Big=F
 Integral buffers will be    131072 words long.
 Raffenetti 2 integral format.
 Two-electron integral symmetry is turned off.
 Nuclear repulsion after empirical dispersion term =     1436.4177843521 Hartrees.
 Force inversion solution in PCM.
 ------------------------------------------------------------------------------
 Polarizable Continuum Model (PCM)
 =================================
 Model                : PCM.
 Atomic radii         : SMD-Coulomb.
 Polarization charges : Total charges.
 Charge compensation  : None.
 Solution method      : Matrix inversion.
 Cavity type          : VdW (van der Waals Surface) (Alpha=1.000).
 Cavity algorithm     : GePol (No added spheres)
                        Default sphere list used, NSphG=   29.
                        Lebedev-Laikov grids with approx.  5.0 points / Ang**2.
                        Smoothing algorithm: York/Karplus (Gamma=1.0000).
                        Polarization charges: spherical gaussians, with
                                              point-specific exponents (IZeta= 3).
                        Self-potential: point-specific (ISelfS= 7).
                        Self-field    : sphere-specific E.n sum rule (ISelfD= 2).
 1st derivatives      : Analytical E(r).r(x)/FMM algorithm (CHGder, D1EAlg=3).
                        Cavity 1st derivative terms included.
 2nd derivatives      : Analytical E(r).r(xy)/FMM algorithm (CHGder, D2EAlg=3).
                        Cavity 2nd derivative terms included.
 Solvent              : n-Pentadecane, Eps=   2.033300 Eps(inf)=   2.049192
 ------------------------------------------------------------------------------
 ------------------------------------------------------------------------------
 Atomic radii for non-electrostatic terms: SMD-CDS.
 ------------------------------------------------------------------------------
 Nuclear repulsion after PCM non-electrostatic terms =     1436.4123933140 Hartrees.
 One-electron integrals computed using PRISM.
 NBasis=   437 RedAO= T EigKep=  1.03D-06  NBF=   437
 NBsUse=   436 1.00D-06 EigRej=  9.24D-07 NBFU=   436
 ExpMin= 4.38D-02 ExpMax= 1.06D+05 ExpMxC= 3.62D+03 IAcc=3 IRadAn=         5 AccDes= 0.00D+00
 Harris functional with IExCor= 1009 and IRadAn=       5 diagonalized for initial guess.
 HarFok:  IExCor= 1009 AccDes= 0.00D+00 IRadAn=         5 IDoV= 1 UseB2=F ITyADJ=14
 ICtDFT=  3500011 ScaDFX=  1.000000  1.000000  1.000000  1.000000
 FoFCou: FMM=F IPFlag=           0 FMFlag=      100000 FMFlg1=           0
         NFxFlg=           0 DoJE=T BraDBF=F KetDBF=T FulRan=T
         wScrn=  0.000000 ICntrl=       500 IOpCl=  0 I1Cent=   200000004 NGrid=           0
         NMat0=    1 NMatS0=      1 NMatT0=    0 NMatD0=    1 NMtDS0=    0 NMtDT0=    0
 Symmetry not used in FoFCou.
 Requested convergence on RMS density matrix=1.00D-08 within 128 cycles.
 Requested convergence on MAX density matrix=1.00D-06.
 Requested convergence on             energy=1.00D-06.
 No special actions if energy rises.
 Inv3:  Mode=1 IEnd=    17453232.
 Iteration    1 A*A^-1 deviation from unit magnitude is 8.22D-15 for   2405.
 Iteration    1 A*A^-1 deviation from orthogonality  is 2.70D-15 for   2405   2280.
 Iteration    1 A^-1*A deviation from unit magnitude is 8.22D-15 for   2405.
 Iteration    1 A^-1*A deviation from orthogonality  is 2.27D-15 for   2401   2146.
 Error on total polarization charges =  0.02369
 SCF Done:  E(RM062X) =  -1390.68265446     A.U. after   15 cycles
            NFock= 15  Conv=0.88D-08     -V/T= 2.0028
 SMD-CDS (non-electrostatic) energy       (kcal/mol) =      -3.38
 (included in total energy above)
 DoSCS=F DFT=T ScalE2(SS,OS)=  1.000000  1.000000
 Range of M.O.s used for correlation:     1   436
 NBasis=   437 NAE=    72 NBE=    72 NFC=     0 NFV=     0
 NROrb=    436 NOA=    72 NOB=    72 NVA=   364 NVB=   364

 **** Warning!!: The largest alpha MO coefficient is  0.17590490D+03

 Symmetrizing basis deriv contribution to polar:
 IMax=3 JMax=2 DiffMx= 0.00D+00
 G2DrvN: will do    30 centers at a time, making    1 passes.
 Calling FoFCou, ICntrl=  3107 FMM=F I1Cent=   0 AccDes= 0.00D+00.
 NEqPCM:  Using equilibrium solvation (IEInf=0, Eps=   2.0333, EpsInf=   2.0492)
 G2PCM: DoFxE=T DoFxN=T DoGrad=T DoDP/DQ/DG/TGxP=FFFF NFrqRd=   0 IEInf=0 SqF1=F DoCFld=F IF1Alg=4.
 End of G2Drv F.D. properties file   721 does not exist.
 End of G2Drv F.D. properties file   722 does not exist.
 End of G2Drv F.D. properties file   788 does not exist.
          IDoAtm=11111111111111111111111111111
 NEqPCM:  Using equilibrium solvation (IEInf=0, Eps=   2.0333, EpsInf=   2.0492)
          Differentiating once with respect to electric field.
                with respect to dipole field.
          Differentiating once with respect to nuclear coordinates.
 CalDSu exits because no D1Ps are significant.
          There are    90 degrees of freedom in the 1st order CPHF.  IDoFFX=6 NUNeed=     3.
     87 vectors produced by pass  0 Test12= 2.91D-14 1.11D-09 XBig12= 1.20D+02 6.34D+00.
 AX will form    87 AO Fock derivatives at one time.
     87 vectors produced by pass  1 Test12= 2.91D-14 1.11D-09 XBig12= 1.35D+01 9.37D-01.
     87 vectors produced by pass  2 Test12= 2.91D-14 1.11D-09 XBig12= 3.57D-01 8.59D-02.
     87 vectors produced by pass  3 Test12= 2.91D-14 1.11D-09 XBig12= 2.93D-03 6.58D-03.
     87 vectors produced by pass  4 Test12= 2.91D-14 1.11D-09 XBig12= 2.64D-05 4.20D-04.
     87 vectors produced by pass  5 Test12= 2.91D-14 1.11D-09 XBig12= 1.70D-07 3.55D-05.
     74 vectors produced by pass  6 Test12= 2.91D-14 1.11D-09 XBig12= 8.38D-10 2.16D-06.
     26 vectors produced by pass  7 Test12= 2.91D-14 1.11D-09 XBig12= 3.08D-12 1.16D-07.
      3 vectors produced by pass  8 Test12= 2.91D-14 1.11D-09 XBig12= 1.04D-14 6.99D-09.
 InvSVY:  IOpt=1 It=  1 EMax= 5.33D-15
 Solved reduced A of dimension   625 with    90 vectors.
 Isotropic polarizability for W=    0.000000      174.92 Bohr**3.
 End of Minotr F.D. properties file   721 does not exist.
 End of Minotr F.D. properties file   722 does not exist.
 End of Minotr F.D. properties file   788 does not exist.

 **********************************************************************

            Population analysis using the SCF Density.

 **********************************************************************

 Alpha  occ. eigenvalues -- -102.68687 -25.28795 -25.28011 -25.27996 -19.67647
 Alpha  occ. eigenvalues --  -19.61427 -14.80573 -10.81334 -10.71261 -10.62682
 Alpha  occ. eigenvalues --  -10.62065 -10.59846 -10.59565 -10.57926 -10.57237
 Alpha  occ. eigenvalues --  -10.56695 -10.54073 -10.53009  -9.82956  -7.55477
 Alpha  occ. eigenvalues --   -7.54785  -7.54775  -1.47799  -1.38494  -1.37875
 Alpha  occ. eigenvalues --   -1.25522  -1.15266  -1.08204  -1.01964  -0.95548
 Alpha  occ. eigenvalues --   -0.91035  -0.90115  -0.85974  -0.81956  -0.79743
 Alpha  occ. eigenvalues --   -0.75125  -0.73230  -0.71180  -0.70016  -0.69771
 Alpha  occ. eigenvalues --   -0.68212  -0.65706  -0.64873  -0.60099  -0.59561
 Alpha  occ. eigenvalues --   -0.58426  -0.58284  -0.57943  -0.56412  -0.55297
 Alpha  occ. eigenvalues --   -0.54239  -0.53901  -0.53369  -0.52223  -0.51885
 Alpha  occ. eigenvalues --   -0.51289  -0.49744  -0.49630  -0.47431  -0.46563
 Alpha  occ. eigenvalues --   -0.45661  -0.44856  -0.43616  -0.43495  -0.40997
 Alpha  occ. eigenvalues --   -0.40813  -0.38936  -0.38392  -0.37978  -0.37249
 Alpha  occ. eigenvalues --   -0.34277  -0.29060
 Alpha virt. eigenvalues --   -0.01628  -0.00667   0.00410   0.01945   0.02051
 Alpha virt. eigenvalues --    0.02841   0.03347   0.03594   0.03734   0.04894
 Alpha virt. eigenvalues --    0.05146   0.05327   0.06361   0.06539   0.06731
 Alpha virt. eigenvalues --    0.07223   0.07368   0.07838   0.08168   0.08560
 Alpha virt. eigenvalues --    0.08916   0.08945   0.09516   0.10526   0.11127
 Alpha virt. eigenvalues --    0.11498   0.11994   0.12660   0.13175   0.13353
 Alpha virt. eigenvalues --    0.13404   0.14593   0.14862   0.15035   0.15881
 Alpha virt. eigenvalues --    0.16224   0.17456   0.17540   0.17817   0.18309
 Alpha virt. eigenvalues --    0.18819   0.19471   0.19802   0.19921   0.20356
 Alpha virt. eigenvalues --    0.20543   0.20602   0.21051   0.21465   0.22188
 Alpha virt. eigenvalues --    0.22481   0.22900   0.23293   0.23417   0.24213
 Alpha virt. eigenvalues --    0.24429   0.24940   0.25488   0.25668   0.26039
 Alpha virt. eigenvalues --    0.26436   0.26877   0.27546   0.27614   0.28029
 Alpha virt. eigenvalues --    0.28295   0.28524   0.29395   0.29521   0.29975
 Alpha virt. eigenvalues --    0.30317   0.30668   0.30819   0.31283   0.31574
 Alpha virt. eigenvalues --    0.32185   0.32945   0.33532   0.33892   0.34414
 Alpha virt. eigenvalues --    0.34825   0.34953   0.36970   0.37438   0.37906
 Alpha virt. eigenvalues --    0.37980   0.38541   0.39539   0.40719   0.41320
 Alpha virt. eigenvalues --    0.41977   0.42612   0.42766   0.43284   0.43582
 Alpha virt. eigenvalues --    0.44994   0.45610   0.46389   0.46677   0.48153
 Alpha virt. eigenvalues --    0.48591   0.49257   0.49710   0.50417   0.50884
 Alpha virt. eigenvalues --    0.51771   0.52654   0.54414   0.55628   0.57014
 Alpha virt. eigenvalues --    0.57632   0.58322   0.58966   0.60277   0.61499
 Alpha virt. eigenvalues --    0.61883   0.62848   0.63177   0.63540   0.64545
 Alpha virt. eigenvalues --    0.65756   0.66389   0.67094   0.67950   0.68513
 Alpha virt. eigenvalues --    0.69012   0.70062   0.70928   0.71174   0.71557
 Alpha virt. eigenvalues --    0.72092   0.72807   0.73386   0.73643   0.75134
 Alpha virt. eigenvalues --    0.75991   0.76812   0.77538   0.78180   0.78795
 Alpha virt. eigenvalues --    0.79300   0.80537   0.81428   0.83966   0.84354
 Alpha virt. eigenvalues --    0.86934   0.88834   0.90256   0.91726   0.92422
 Alpha virt. eigenvalues --    0.92768   0.94091   0.94396   0.94857   0.95837
 Alpha virt. eigenvalues --    0.96591   0.97776   0.99782   1.01407   1.03179
 Alpha virt. eigenvalues --    1.03909   1.04488   1.05063   1.05901   1.09139
 Alpha virt. eigenvalues --    1.09964   1.10589   1.11639   1.12130   1.12786
 Alpha virt. eigenvalues --    1.14821   1.18191   1.19583   1.21095   1.22660
 Alpha virt. eigenvalues --    1.23083   1.23954   1.25331   1.28506   1.31975
 Alpha virt. eigenvalues --    1.32252   1.32547   1.33720   1.36198   1.38366
 Alpha virt. eigenvalues --    1.38672   1.41079   1.41921   1.43766   1.45905
 Alpha virt. eigenvalues --    1.47291   1.48099   1.49472   1.50003   1.50302
 Alpha virt. eigenvalues --    1.52985   1.53421   1.53649   1.55313   1.57653
 Alpha virt. eigenvalues --    1.57792   1.58283   1.58668   1.59870   1.61327
 Alpha virt. eigenvalues --    1.62557   1.63283   1.63932   1.66512   1.67676
 Alpha virt. eigenvalues --    1.70280   1.73178   1.74400   1.77680   1.78587
 Alpha virt. eigenvalues --    1.78894   1.79921   1.80068   1.81033   1.84200
 Alpha virt. eigenvalues --    1.84910   1.86091   1.86676   1.86726   1.90931
 Alpha virt. eigenvalues --    1.91965   1.93794   1.96177   1.96764   1.98617
 Alpha virt. eigenvalues --    1.99194   2.01313   2.06214   2.08124   2.08427
 Alpha virt. eigenvalues --    2.08831   2.11235   2.17249   2.18767   2.20832
 Alpha virt. eigenvalues --    2.23061   2.27226   2.31459   2.31595   2.32863
 Alpha virt. eigenvalues --    2.36370   2.37681   2.38997   2.44963   2.48300
 Alpha virt. eigenvalues --    2.50682   2.52189   2.55001   2.55289   2.56636
 Alpha virt. eigenvalues --    2.58087   2.59932   2.60869   2.61885   2.64861
 Alpha virt. eigenvalues --    2.69022   2.70811   2.73285   2.75964   2.80092
 Alpha virt. eigenvalues --    2.81565   2.84620   2.87004   2.91723   2.92033
 Alpha virt. eigenvalues --    2.93861   2.96620   3.00784   3.01039   3.03451
 Alpha virt. eigenvalues --    3.03652   3.04676   3.06567   3.10137   3.11828
 Alpha virt. eigenvalues --    3.12214   3.18426   3.18689   3.21383   3.22542
 Alpha virt. eigenvalues --    3.24208   3.29055   3.30068   3.30302   3.34081
 Alpha virt. eigenvalues --    3.37564   3.38927   3.40438   3.43796   3.43981
 Alpha virt. eigenvalues --    3.52677   3.53957   3.67951   3.70553   3.72775
 Alpha virt. eigenvalues --    3.77208   3.79957   3.81564   3.83659   3.84192
 Alpha virt. eigenvalues --    3.86250   3.86263   3.88272   3.90092   3.96454
 Alpha virt. eigenvalues --    3.98226   4.00463   4.00805   4.02695   4.07273
 Alpha virt. eigenvalues --    4.10581   4.11596   4.18626   4.22547   4.27168
 Alpha virt. eigenvalues --    4.31561   4.55896   4.76334   4.81043   4.98075
 Alpha virt. eigenvalues --    5.01909   5.08223   5.10784   5.17289   5.35826
 Alpha virt. eigenvalues --    5.49002   5.79949   5.95836   6.44225   6.48365
 Alpha virt. eigenvalues --    6.50158   6.52346   6.55687   6.57541   6.63322
 Alpha virt. eigenvalues --    6.86818   6.90926  10.00026  23.43915  23.57053
 Alpha virt. eigenvalues --   23.65172  23.72072  23.81885  23.91953  23.93358
 Alpha virt. eigenvalues --   23.95228  24.07695  24.12135  24.19284  25.95578
 Alpha virt. eigenvalues --   26.30580  26.80842  35.65827  50.01680  50.13274
 Alpha virt. eigenvalues --   66.88508  66.91017  66.96981 216.10971
          Condensed to atoms (all electrons):
               1          2          3          4          5          6
     1  C   27.445328  -0.085461  -1.041349  -0.396546  -0.398228  -0.931718
     2  N   -0.085461   7.644322   0.091765  -0.028778  -0.254516  -0.394221
     3  C   -1.041349   0.091765   9.779004   0.632297   0.368835  -0.537619
     4  O   -0.396546  -0.028778   0.632297   8.116923  -0.190379  -0.173442
     5  O   -0.398228  -0.254516   0.368835  -0.190379   8.365645   0.450580
     6  C   -0.931718  -0.394221  -0.537619  -0.173442   0.450580   8.420543
     7  C    0.009749   0.039554   0.165514   0.033836  -0.169177  -0.974279
     8  C   -0.023429  -0.009735  -0.247222   0.000179   0.034268   0.346595
     9  C   -6.541098   0.191381  -3.709839  -0.147085  -0.160199  -0.375244
    10  C   -0.797849   0.199964  -0.532190  -0.049914  -0.003312  -0.054657
    11  C   -0.413160   0.008810   0.912730   0.035638   0.011658   0.039926
    12  C   -5.546674   0.042028  -2.533112   0.091213  -0.040676  -0.236729
    13  C    0.499176  -0.227073   2.999219   0.412963   0.110018   0.121620
    14  H   -0.061232   0.262766   0.033647  -0.000382   0.023975   0.008851
    15  H   -0.002343   0.005551   0.021063  -0.001210  -0.045236   0.381847
    16  H    0.018783   0.004381   0.062058  -0.001705  -0.042920   0.326200
    17  H   -0.000687  -0.000668   0.004971  -0.000294   0.000946  -0.067168
    18  H    0.000676  -0.001111   0.007503  -0.000270   0.001225  -0.058200
    19  H   -0.000126  -0.000079  -0.002662  -0.000065  -0.000469  -0.043552
    20  H    0.000158   0.000042   0.007877   0.000025  -0.000635   0.086583
    21  H   -0.000037  -0.000007   0.000763  -0.000071  -0.000303  -0.051576
    22  H    0.197816  -0.018887   0.019474  -0.000026  -0.000486   0.000612
    23  C   -5.494799   0.012280  -0.539597  -0.003471  -0.003407  -0.022408
    24  Cl   0.258705   0.001049  -0.020774   0.000067   0.000057  -0.000608
    25  H   -0.008025  -0.000642   0.010077   0.000009   0.000028   0.000185
    26  H    0.038418  -0.021902   0.066713  -0.002942   0.001181   0.008151
    27  F    0.207368   0.000307   0.000999  -0.000001   0.000002  -0.000008
    28  F   -0.001211   0.000641  -0.000880  -0.000001   0.000000  -0.000009
    29  F    0.030798   0.000477   0.000411   0.000001  -0.000001  -0.000006
               7          8          9         10         11         12
     1  C    0.009749  -0.023429  -6.541098  -0.797849  -0.413160  -5.546674
     2  N    0.039554  -0.009735   0.191381   0.199964   0.008810   0.042028
     3  C    0.165514  -0.247222  -3.709839  -0.532190   0.912730  -2.533112
     4  O    0.033836   0.000179  -0.147085  -0.049914   0.035638   0.091213
     5  O   -0.169177   0.034268  -0.160199  -0.003312   0.011658  -0.040676
     6  C   -0.974279   0.346595  -0.375244  -0.054657   0.039926  -0.236729
     7  C    6.472157  -0.160978   0.045063  -0.005345  -0.001765   0.007331
     8  C   -0.160978   6.078712  -0.003400  -0.000540   0.000239  -0.003010
     9  C    0.045063  -0.003400  33.394133  -2.373279 -12.143964  10.610892
    10  C   -0.005345  -0.000540  -2.373279  38.619487 -12.557922  -7.311536
    11  C   -0.001765   0.000239 -12.143964 -12.557922  41.465120 -10.250093
    12  C    0.007331  -0.003010  10.610892  -7.311536 -10.250093  30.209006
    13  C   -0.031616  -0.007025 -15.221911  -1.786171   3.255829 -11.651058
    14  H   -0.002237  -0.000267  -0.093470   0.026538  -0.003022  -0.016032
    15  H   -0.027769  -0.012882   0.000167  -0.000041   0.000013   0.000559
    16  H   -0.022317  -0.018202   0.001384   0.000460  -0.000079  -0.000599
    17  H    0.449886  -0.046987   0.000693   0.000021   0.000002   0.000024
    18  H    0.435136  -0.044119  -0.000615   0.000015   0.000003   0.000001
    19  H    0.004864   0.386108  -0.000018  -0.000001   0.000000  -0.000003
    20  H   -0.132492   0.390179  -0.000004  -0.000000  -0.000000   0.000002
    21  H    0.020460   0.374599   0.000038  -0.000001  -0.000000   0.000007
    22  H   -0.000042   0.000006   0.097901   0.047382  -0.036722  -0.088475
    23  C   -0.000014  -0.000137   2.650413  -6.491313  -3.416904   2.679269
    24  Cl  -0.000016  -0.000002   0.371831   0.174134  -1.584365   0.652717
    25  H   -0.000005   0.000000  -0.079258   0.076337   0.101591   0.118569
    26  H   -0.000215   0.000044   0.043117  -0.017603  -0.013441  -0.043646
    27  F   -0.000000  -0.000000   0.141576  -0.326578  -0.208480  -0.030582
    28  F    0.000000  -0.000000   0.054019   0.264239  -0.205128   0.051727
    29  F    0.000000   0.000000  -0.004647   0.235151  -0.162437   0.023966
              13         14         15         16         17         18
     1  C    0.499176  -0.061232  -0.002343   0.018783  -0.000687   0.000676
     2  N   -0.227073   0.262766   0.005551   0.004381  -0.000668  -0.001111
     3  C    2.999219   0.033647   0.021063   0.062058   0.004971   0.007503
     4  O    0.412963  -0.000382  -0.001210  -0.001705  -0.000294  -0.000270
     5  O    0.110018   0.023975  -0.045236  -0.042920   0.000946   0.001225
     6  C    0.121620   0.008851   0.381847   0.326200  -0.067168  -0.058200
     7  C   -0.031616  -0.002237  -0.027769  -0.022317   0.449886   0.435136
     8  C   -0.007025  -0.000267  -0.012882  -0.018202  -0.046987  -0.044119
     9  C  -15.221911  -0.093470   0.000167   0.001384   0.000693  -0.000615
    10  C   -1.786171   0.026538  -0.000041   0.000460   0.000021   0.000015
    11  C    3.255829  -0.003022   0.000013  -0.000079   0.000002   0.000003
    12  C  -11.651058  -0.016032   0.000559  -0.000599   0.000024   0.000001
    13  C   27.405645   0.088016   0.001592  -0.004494  -0.000280   0.000446
    14  H    0.088016   0.299857   0.000037  -0.000014  -0.000013   0.000020
    15  H    0.001592   0.000037   0.441360  -0.038538   0.005310  -0.007671
    16  H   -0.004494  -0.000014  -0.038538   0.441670  -0.007792   0.005248
    17  H   -0.000280  -0.000013   0.005310  -0.007792   0.440487  -0.036195
    18  H    0.000446   0.000020  -0.007671   0.005248  -0.036195   0.440175
    19  H   -0.000014  -0.000000  -0.000497   0.003564  -0.007929   0.006008
    20  H    0.000024  -0.000000  -0.000173  -0.000183  -0.003206  -0.003304
    21  H    0.000002  -0.000000   0.003695  -0.000500   0.006046  -0.008092
    22  H    0.097822   0.005997  -0.000000  -0.000000  -0.000000  -0.000000
    23  C   -0.839576   0.001421   0.000003   0.000010   0.000001  -0.000000
    24  Cl  -0.347207   0.000119   0.000000  -0.000000   0.000000   0.000000
    25  H    0.110446   0.000006  -0.000000  -0.000000  -0.000000   0.000000
    26  H    0.269047  -0.000126  -0.000021  -0.000008  -0.000000  -0.000000
    27  F    0.017114   0.000121   0.000000  -0.000000   0.000000  -0.000000
    28  F   -0.002381  -0.000017   0.000000   0.000000   0.000000  -0.000000
    29  F    0.012859  -0.000013   0.000000   0.000000  -0.000000   0.000000
              19         20         21         22         23         24
     1  C   -0.000126   0.000158  -0.000037   0.197816  -5.494799   0.258705
     2  N   -0.000079   0.000042  -0.000007  -0.018887   0.012280   0.001049
     3  C   -0.002662   0.007877   0.000763   0.019474  -0.539597  -0.020774
     4  O   -0.000065   0.000025  -0.000071  -0.000026  -0.003471   0.000067
     5  O   -0.000469  -0.000635  -0.000303  -0.000486  -0.003407   0.000057
     6  C   -0.043552   0.086583  -0.051576   0.000612  -0.022408  -0.000608
     7  C    0.004864  -0.132492   0.020460  -0.000042  -0.000014  -0.000016
     8  C    0.386108   0.390179   0.374599   0.000006  -0.000137  -0.000002
     9  C   -0.000018  -0.000004   0.000038   0.097901   2.650413   0.371831
    10  C   -0.000001  -0.000000  -0.000001   0.047382  -6.491313   0.174134
    11  C    0.000000  -0.000000  -0.000000  -0.036722  -3.416904  -1.584365
    12  C   -0.000003   0.000002   0.000007  -0.088475   2.679269   0.652717
    13  C   -0.000014   0.000024   0.000002   0.097822  -0.839576  -0.347207
    14  H   -0.000000  -0.000000  -0.000000   0.005997   0.001421   0.000119
    15  H   -0.000497  -0.000173   0.003695  -0.000000   0.000003   0.000000
    16  H    0.003564  -0.000183  -0.000500  -0.000000   0.000010  -0.000000
    17  H   -0.007929  -0.003206   0.006046  -0.000000   0.000001   0.000000
    18  H    0.006008  -0.003304  -0.008092  -0.000000  -0.000000   0.000000
    19  H    0.451870  -0.024461  -0.037122  -0.000000  -0.000000  -0.000000
    20  H   -0.024461   0.425838  -0.024509   0.000000   0.000000   0.000000
    21  H   -0.037122  -0.024509   0.452636  -0.000000   0.000000   0.000000
    22  H   -0.000000   0.000000  -0.000000   0.385561  -0.002572  -0.000267
    23  C   -0.000000   0.000000   0.000000  -0.002572  16.875885  -0.571440
    24  Cl  -0.000000   0.000000   0.000000  -0.000267  -0.571440  17.656595
    25  H    0.000000  -0.000000  -0.000000   0.000067   0.008516  -0.017766
    26  H   -0.000000   0.000000  -0.000000  -0.000099   0.001659   0.000259
    27  F   -0.000000  -0.000000   0.000000   0.013146   0.324936   0.011506
    28  F   -0.000000  -0.000000   0.000000  -0.000042   0.002439  -0.013977
    29  F   -0.000000   0.000000   0.000000  -0.000044   0.028223  -0.016218
              25         26         27         28         29
     1  C   -0.008025   0.038418   0.207368  -0.001211   0.030798
     2  N   -0.000642  -0.021902   0.000307   0.000641   0.000477
     3  C    0.010077   0.066713   0.000999  -0.000880   0.000411
     4  O    0.000009  -0.002942  -0.000001  -0.000001   0.000001
     5  O    0.000028   0.001181   0.000002   0.000000  -0.000001
     6  C    0.000185   0.008151  -0.000008  -0.000009  -0.000006
     7  C   -0.000005  -0.000215  -0.000000   0.000000   0.000000
     8  C    0.000000   0.000044  -0.000000  -0.000000   0.000000
     9  C   -0.079258   0.043117   0.141576   0.054019  -0.004647
    10  C    0.076337  -0.017603  -0.326578   0.264239   0.235151
    11  C    0.101591  -0.013441  -0.208480  -0.205128  -0.162437
    12  C    0.118569  -0.043646  -0.030582   0.051727   0.023966
    13  C    0.110446   0.269047   0.017114  -0.002381   0.012859
    14  H    0.000006  -0.000126   0.000121  -0.000017  -0.000013
    15  H   -0.000000  -0.000021   0.000000   0.000000   0.000000
    16  H   -0.000000  -0.000008  -0.000000   0.000000   0.000000
    17  H   -0.000000  -0.000000   0.000000   0.000000  -0.000000
    18  H    0.000000  -0.000000  -0.000000  -0.000000   0.000000
    19  H    0.000000  -0.000000  -0.000000  -0.000000  -0.000000
    20  H   -0.000000   0.000000  -0.000000  -0.000000   0.000000
    21  H   -0.000000  -0.000000   0.000000   0.000000   0.000000
    22  H    0.000067  -0.000099   0.013146  -0.000042  -0.000044
    23  C    0.008516   0.001659   0.324936   0.002439   0.028223
    24  Cl  -0.017766   0.000259   0.011506  -0.013977  -0.016218
    25  H    0.384404  -0.003070   0.000023  -0.000017  -0.000012
    26  H   -0.003070   0.366267  -0.000004   0.000001  -0.000004
    27  F    0.000023  -0.000004   9.061404  -0.036897  -0.037926
    28  F   -0.000017   0.000001  -0.036897   8.978351  -0.049067
    29  F   -0.000012  -0.000004  -0.037926  -0.049067   8.975743
 Mulliken charges:
               1
     1  C   -0.963005
     2  N   -0.462239
     3  C   -0.019675
     4  O   -0.326568
     5  O   -0.058472
     6  C   -0.270248
     7  C   -0.155284
     8  C   -1.032995
     9  C   -0.748578
    10  C   -1.335477
    11  C    1.165922
    12  C   -0.735087
    13  C    0.716967
    14  H    0.425454
    15  H    0.275184
    16  H    0.273596
    17  H    0.262833
    18  H    0.263121
    19  H    0.264585
    20  H    0.278241
    21  H    0.263971
    22  H    0.281878
    23  C    0.800584
    24  Cl   0.445602
    25  H    0.298537
    26  H    0.308225
    27  F   -0.138024
    28  F   -0.041791
    29  F   -0.037256
 Sum of Mulliken charges =  -0.00000
 Mulliken charges with hydrogens summed into heavy atoms:
               1
     1  C   -0.963005
     2  N   -0.036785
     3  C   -0.019675
     4  O   -0.326568
     5  O   -0.058472
     6  C    0.278531
     7  C    0.370670
     8  C   -0.226198
     9  C   -0.466700
    10  C   -1.335477
    11  C    1.165922
    12  C   -0.436549
    13  C    1.025192
    23  C    0.800584
    24  Cl   0.445602
    27  F   -0.138024
    28  F   -0.041791
    29  F   -0.037256
 APT charges:
               1
     1  C    0.654036
     2  N   -1.211867
     3  C    1.974108
     4  O   -0.911617
     5  O   -1.245930
     6  C    0.658152
     7  C    0.078897
     8  C    0.048418
     9  C   -0.169173
    10  C   -0.177824
    11  C    0.366953
    12  C   -0.064344
    13  C   -0.117560
    14  H    0.251347
    15  H   -0.036272
    16  H   -0.035942
    17  H   -0.020832
    18  H   -0.020268
    19  H   -0.009932
    20  H   -0.015280
    21  H   -0.009361
    22  H    0.088913
    23  C    1.979620
    24  Cl  -0.350780
    25  H    0.083310
    26  H    0.129852
    27  F   -0.623815
    28  F   -0.646520
    29  F   -0.646289
 Sum of APT charges =   0.00000
 APT charges with hydrogens summed into heavy atoms:
               1
     1  C    0.654036
     2  N   -0.960521
     3  C    1.974108
     4  O   -0.911617
     5  O   -1.245930
     6  C    0.585938
     7  C    0.037798
     8  C    0.013845
     9  C   -0.080260
    10  C   -0.177824
    11  C    0.366953
    12  C    0.018966
    13  C    0.012292
    23  C    1.979620
    24  Cl  -0.350780
    27  F   -0.623815
    28  F   -0.646520
    29  F   -0.646289
 Electronic spatial extent (au):  <R**2>=          30128.9979
 Charge=             -0.0000 electrons
 Dipole moment (field-independent basis, Debye):
    X=              5.3597    Y=             -1.5223    Z=              0.7267  Tot=              5.6189
 Quadrupole moment (field-independent basis, Debye-Ang):
   XX=           -179.5032   YY=           -112.6465   ZZ=           -113.5681
   XY=              6.3651   XZ=             -4.4337   YZ=              1.8322
 Traceless Quadrupole moment (field-independent basis, Debye-Ang):
   XX=            -44.2639   YY=             22.5928   ZZ=             21.6712
   XY=              6.3651   XZ=             -4.4337   YZ=              1.8322
 Octapole moment (field-independent basis, Debye-Ang**2):
  XXX=           2900.3026  YYY=           -433.0353  ZZZ=             28.7434  XYY=            678.1842
  XXY=           -185.9810  XXZ=             42.3693  XZZ=            715.4565  YZZ=           -153.1296
  YYZ=             16.2465  XYZ=             -7.3716
 Hexadecapole moment (field-independent basis, Debye-Ang**3):
 XXXX=         -44544.5151 YYYY=          -2321.9323 ZZZZ=           -221.7482 XXXY=           3543.9194
 XXXZ=           -565.6159 YYYX=           2988.8970 YYYZ=             66.0817 ZZZX=           -303.2793
 ZZZY=             45.3896 XXYY=          -6108.8060 XXZZ=          -6104.7060 YYZZ=           -458.5795
 XXYZ=             49.7807 YYXZ=           -124.4771 ZZXY=           1103.5661
 N-N= 1.436412393314D+03 E-N=-6.151486756521D+03  KE= 1.386731505594D+03
  Exact polarizability:     246.657     -16.454     170.275       4.222      -1.646     107.826
 Approx polarizability:     223.270      -9.704     197.731       3.631      -2.328     128.420
 D2PCM: PCM CHGder 2nd derivatives, FixD1E=F FixD2E=F DoIter=F DoCFld=F I1PDM=0
 Calling FoFJK, ICntrl=    100127 FMM=F ISym2X=0 I1Cent= 0 IOpClX= 0 NMat=1 NMatS=1 NMatT=0.
 -------------------------------------------------------------------
 Center     Atomic                   Forces (Hartrees/Bohr)
 Number     Number              X              Y              Z
 -------------------------------------------------------------------
      1        6           0.000240893   -0.001013413    0.000111555
      2        7          -0.004198785   -0.004814213    0.000697652
      3        6           0.008974877    0.017021847   -0.003475933
      4        8          -0.003072665   -0.011764474    0.002781638
      5        8           0.000634948   -0.001530289    0.000058051
      6        6          -0.003663510   -0.001633557    0.000452554
      7        6           0.000157409    0.000010153    0.000013656
      8        6          -0.000307859   -0.000352036    0.000059914
      9        6           0.000913178    0.001562472    0.000195882
     10        6          -0.000181419   -0.000019358    0.000060406
     11        6          -0.002344252    0.000720988   -0.000250026
     12        6           0.001269808   -0.001374532    0.000118976
     13        6          -0.000313207    0.001334533    0.000404750
     14        1           0.000641205    0.002116049    0.000040032
     15        1          -0.000003820    0.000846615   -0.000618086
     16        1           0.000035523    0.001025896    0.000254436
     17        1          -0.000178871   -0.000208557    0.000263839
     18        1          -0.000146636   -0.000301369   -0.000162971
     19        1           0.000454872    0.000049434    0.000046768
     20        1           0.000270089    0.000298722   -0.000064427
     21        1           0.000477792    0.000011192   -0.000088646
     22        1          -0.000983482   -0.000102242   -0.000197623
     23        6          -0.006415000    0.000764704   -0.000541585
     24       17           0.001289246   -0.000579367    0.000081857
     25        1          -0.000381241   -0.000185934   -0.000023450
     26        1           0.001231416   -0.000857562   -0.000646979
     27        9           0.001649694   -0.000862820    0.000100706
     28        9           0.002033545   -0.000056552   -0.000874960
     29        9           0.001916251   -0.000106330    0.001202014
 -------------------------------------------------------------------
 Cartesian Forces:  Max     0.017021847 RMS     0.002804020
 FormGI is forming the generalized inverse of G from B-inverse, IUseBI=4.

 GradGradGradGradGradGradGradGradGradGradGradGradGradGradGradGradGradGrad
 Berny optimization.
 Internal  Forces:  Max     0.012411160 RMS     0.001385728
 Search for a local minimum.
 Step number   1 out of a maximum of  149
 All quantities printed in internal units (Hartrees-Bohrs-Radians)
 Mixed Optimization -- RFO/linear search
 Second derivative matrix not updated -- analytic derivatives used.
 ITU=  0
     Eigenvalues ---    0.00071   0.00199   0.00312   0.00382   0.00446
     Eigenvalues ---    0.00489   0.01032   0.01287   0.01495   0.01648
     Eigenvalues ---    0.01862   0.02063   0.02358   0.02463   0.02574
     Eigenvalues ---    0.02699   0.02982   0.03622   0.03924   0.04596
     Eigenvalues ---    0.04608   0.04816   0.06291   0.06739   0.08097
     Eigenvalues ---    0.09891   0.10461   0.11337   0.12124   0.12456
     Eigenvalues ---    0.12487   0.12638   0.13296   0.13660   0.13814
     Eigenvalues ---    0.14280   0.16342   0.16597   0.17386   0.18193
     Eigenvalues ---    0.19055   0.19330   0.20394   0.22609   0.24055
     Eigenvalues ---    0.24328   0.24417   0.25027   0.25497   0.26598
     Eigenvalues ---    0.27357   0.29793   0.30774   0.32054   0.33163
     Eigenvalues ---    0.33791   0.34106   0.34218   0.34290   0.34464
     Eigenvalues ---    0.34705   0.35240   0.36295   0.36749   0.36998
     Eigenvalues ---    0.37144   0.37209   0.37922   0.38553   0.40411
     Eigenvalues ---    0.41998   0.45836   0.46274   0.46791   0.49442
     Eigenvalues ---    0.49962   0.52848   0.53635   0.56017   0.57271
     Eigenvalues ---    0.84650
 RFO step:  Lambda=-9.39885613D-04 EMin= 7.07178216D-04
 Linear search not attempted -- first point.
 Iteration  1 RMS(Cart)=  0.11226031 RMS(Int)=  0.00490252
 Iteration  2 RMS(Cart)=  0.01126905 RMS(Int)=  0.00016386
 Iteration  3 RMS(Cart)=  0.00007490 RMS(Int)=  0.00016254
 Iteration  4 RMS(Cart)=  0.00000001 RMS(Int)=  0.00016254
 Variable       Old X    -DE/DX   Delta X   Delta X   Delta X     New X
                                 (Linear)    (Quad)   (Total)
    R1        2.64759  -0.00026   0.00000  -0.00440  -0.00440   2.64318
    R2        2.64090   0.00015   0.00000   0.00063   0.00063   2.64153
    R3        2.63672  -0.00072   0.00000   0.00276   0.00277   2.63949
    R4        2.57375   0.00483   0.00000   0.01504   0.01504   2.58879
    R5        1.91421  -0.00209   0.00000  -0.00512  -0.00512   1.90909
    R6        2.29684  -0.01241   0.00000  -0.01849  -0.01849   2.27835
    R7        2.52980  -0.00043   0.00000   0.00313   0.00313   2.53293
    R8        2.72786  -0.00281   0.00000  -0.01022  -0.01022   2.71764
    R9        2.85675   0.00083   0.00000   0.00236   0.00236   2.85911
   R10        2.06349   0.00017   0.00000   0.00144   0.00144   2.06493
   R11        2.06355   0.00019   0.00000   0.00154   0.00154   2.06509
   R12        2.88157   0.00086   0.00000   0.00082   0.00082   2.88239
   R13        2.06621   0.00000   0.00000   0.00018   0.00018   2.06638
   R14        2.06625  -0.00000   0.00000   0.00032   0.00032   2.06657
   R15        2.06529   0.00006   0.00000   0.00028   0.00028   2.06557
   R16        2.06201  -0.00007   0.00000  -0.00005  -0.00005   2.06196
   R17        2.06529   0.00006   0.00000   0.00030   0.00030   2.06559
   R18        2.61899   0.00050   0.00000   0.00085   0.00085   2.61984
   R19        2.04829  -0.00004   0.00000  -0.00020  -0.00020   2.04810
   R20        2.63773  -0.00033   0.00000  -0.00087  -0.00087   2.63686
   R21        2.84154   0.00081   0.00000   0.00520   0.00520   2.84674
   R22        2.61689   0.00074   0.00000   0.00179   0.00179   2.61868
   R23        3.29539  -0.00142   0.00000  -0.00563  -0.00563   3.28976
   R24        2.62612  -0.00004   0.00000  -0.00117  -0.00117   2.62495
   R25        2.04680  -0.00013   0.00000   0.00015   0.00015   2.04695
   R26        2.03931   0.00035   0.00000  -0.00011  -0.00011   2.03920
   R27        2.52899   0.00131   0.00000   0.00584   0.00584   2.53483
   R28        2.53928  -0.00197   0.00000  -0.00715  -0.00715   2.53213
   R29        2.53917  -0.00204   0.00000  -0.00709  -0.00709   2.53207
    A1        2.03741   0.00256   0.00000   0.00299   0.00298   2.04038
    A2        2.16438  -0.00224   0.00000   0.00157   0.00155   2.16593
    A3        2.08117  -0.00032   0.00000  -0.00435  -0.00436   2.07681
    A4        2.22072  -0.00146   0.00000   0.00867   0.00760   2.22832
    A5        2.03764   0.00134   0.00000   0.00680   0.00573   2.04337
    A6        2.02141   0.00014   0.00000  -0.00885  -0.00991   2.01149
    A7        2.19944  -0.00009   0.00000   0.00641   0.00640   2.20584
    A8        1.91745  -0.00240   0.00000  -0.01580  -0.01581   1.90164
    A9        2.16630   0.00249   0.00000   0.00940   0.00940   2.17570
   A10        2.02674  -0.00230   0.00000  -0.00571  -0.00571   2.02103
   A11        1.87798  -0.00016   0.00000   0.00129   0.00128   1.87926
   A12        1.89518  -0.00002   0.00000   0.00367   0.00367   1.89885
   A13        1.89554  -0.00003   0.00000   0.00380   0.00379   1.89933
   A14        1.94629   0.00054   0.00000   0.00199   0.00199   1.94828
   A15        1.94674   0.00051   0.00000   0.00269   0.00268   1.94942
   A16        1.90072  -0.00086   0.00000  -0.01304  -0.01304   1.88768
   A17        1.92780   0.00061   0.00000   0.00600   0.00600   1.93380
   A18        1.90522  -0.00021   0.00000  -0.00110  -0.00111   1.90411
   A19        1.90433  -0.00016   0.00000  -0.00127  -0.00128   1.90305
   A20        1.92506  -0.00007   0.00000   0.00081   0.00081   1.92586
   A21        1.92512  -0.00009   0.00000   0.00012   0.00012   1.92524
   A22        1.87539  -0.00010   0.00000  -0.00490  -0.00491   1.87049
   A23        1.93965   0.00046   0.00000   0.00379   0.00378   1.94344
   A24        1.93527   0.00035   0.00000   0.00160   0.00160   1.93686
   A25        1.93942   0.00050   0.00000   0.00336   0.00335   1.94277
   A26        1.88200  -0.00045   0.00000  -0.00334  -0.00334   1.87866
   A27        1.88294  -0.00045   0.00000  -0.00218  -0.00219   1.88075
   A28        1.88217  -0.00047   0.00000  -0.00373  -0.00373   1.87844
   A29        2.10718   0.00086   0.00000   0.00574   0.00574   2.11292
   A30        2.08279   0.00059   0.00000   0.00468   0.00468   2.08747
   A31        2.09321  -0.00145   0.00000  -0.01042  -0.01042   2.08279
   A32        2.08882  -0.00045   0.00000  -0.00114  -0.00115   2.08767
   A33        2.08059  -0.00054   0.00000  -0.00057  -0.00057   2.08001
   A34        2.11377   0.00099   0.00000   0.00172   0.00172   2.11550
   A35        2.09074  -0.00068   0.00000  -0.00465  -0.00466   2.08608
   A36        2.12023   0.00031   0.00000   0.00097   0.00097   2.12120
   A37        2.07221   0.00038   0.00000   0.00368   0.00368   2.07589
   A38        2.10632   0.00100   0.00000   0.00676   0.00676   2.11308
   A39        2.08951  -0.00091   0.00000  -0.00599  -0.00599   2.08352
   A40        2.08733  -0.00008   0.00000  -0.00074  -0.00074   2.08658
   A41        2.09210  -0.00039   0.00000  -0.00229  -0.00229   2.08980
   A42        2.11051  -0.00126   0.00000  -0.00832  -0.00834   2.10217
   A43        2.08055   0.00165   0.00000   0.01067   0.01066   2.09121
   A44        1.95862  -0.00218   0.00000  -0.00844  -0.00846   1.95016
   A45        1.95730  -0.00061   0.00000  -0.00078  -0.00079   1.95650
   A46        1.95771  -0.00055   0.00000  -0.00103  -0.00104   1.95666
   A47        1.86074   0.00107   0.00000   0.00144   0.00143   1.86217
   A48        1.86085   0.00108   0.00000   0.00152   0.00151   1.86236
   A49        1.86176   0.00151   0.00000   0.00826   0.00826   1.87001
    D1        2.91027   0.00043   0.00000   0.19957   0.19973   3.11000
    D2       -0.13822   0.00020   0.00000   0.11019   0.11001  -0.02822
    D3       -0.25447   0.00054   0.00000   0.21035   0.21053  -0.04394
    D4        2.98022   0.00031   0.00000   0.12096   0.12080   3.10102
    D5        3.12088  -0.00001   0.00000   0.00950   0.00947   3.13035
    D6       -0.01981  -0.00004   0.00000   0.01078   0.01076  -0.00905
    D7        0.00128  -0.00009   0.00000  -0.00082  -0.00083   0.00045
    D8       -3.13941  -0.00012   0.00000   0.00046   0.00046  -3.13895
    D9       -3.12567  -0.00004   0.00000  -0.00480  -0.00478  -3.13045
   D10        0.00771   0.00027   0.00000   0.00434   0.00431   0.01202
   D11       -0.00777   0.00010   0.00000   0.00633   0.00632  -0.00145
   D12        3.12560   0.00041   0.00000   0.01547   0.01541   3.14101
   D13        0.02158   0.00031   0.00000  -0.03705  -0.03688  -0.01529
   D14       -3.11933   0.00011   0.00000  -0.04059  -0.04042   3.12344
   D15        3.07082   0.00059   0.00000   0.05233   0.05216   3.12298
   D16       -0.07010   0.00039   0.00000   0.04879   0.04862  -0.02148
   D17        3.13963   0.00011   0.00000   0.01171   0.01171  -3.13184
   D18       -0.00130  -0.00008   0.00000   0.00825   0.00825   0.00695
   D19        3.13451   0.00002   0.00000  -0.02083  -0.02083   3.11368
   D20        1.02552  -0.00052   0.00000  -0.02607  -0.02607   0.99945
   D21       -1.03894   0.00053   0.00000  -0.01468  -0.01467  -1.05361
   D22       -3.13879  -0.00002   0.00000  -0.00052  -0.00052  -3.13931
   D23        1.02493  -0.00018   0.00000  -0.00463  -0.00463   1.02030
   D24       -1.01982   0.00015   0.00000   0.00261   0.00260  -1.01721
   D25       -1.06223   0.00017   0.00000   0.00594   0.00594  -1.05629
   D26        3.10148   0.00001   0.00000   0.00183   0.00183   3.10331
   D27        1.05674   0.00034   0.00000   0.00906   0.00906   1.06580
   D28        1.06714  -0.00018   0.00000  -0.00754  -0.00754   1.05960
   D29       -1.05233  -0.00035   0.00000  -0.01165  -0.01165  -1.06398
   D30       -3.09708  -0.00002   0.00000  -0.00441  -0.00442  -3.10149
   D31       -1.04913  -0.00002   0.00000  -0.00202  -0.00202  -1.05115
   D32        3.14100   0.00002   0.00000  -0.00139  -0.00139   3.13961
   D33        1.04788   0.00005   0.00000   0.00003   0.00003   1.04791
   D34        1.05855   0.00008   0.00000   0.00106   0.00106   1.05960
   D35       -1.03451   0.00011   0.00000   0.00169   0.00169  -1.03282
   D36       -3.12763   0.00015   0.00000   0.00310   0.00311  -3.12452
   D37        3.12745  -0.00015   0.00000  -0.00442  -0.00442   3.12303
   D38        1.03439  -0.00012   0.00000  -0.00378  -0.00379   1.03061
   D39       -1.05872  -0.00009   0.00000  -0.00237  -0.00237  -1.06109
   D40        0.00543   0.00002   0.00000  -0.00530  -0.00531   0.00012
   D41       -3.13777  -0.00001   0.00000  -0.00171  -0.00172  -3.13949
   D42       -3.13707   0.00005   0.00000  -0.00658  -0.00659   3.13953
   D43        0.00292   0.00003   0.00000  -0.00299  -0.00300  -0.00008
   D44       -0.00565   0.00004   0.00000   0.00595   0.00595   0.00030
   D45        3.14006  -0.00002   0.00000   0.00625   0.00625  -3.13687
   D46        3.13758   0.00007   0.00000   0.00229   0.00229   3.13987
   D47        0.00011   0.00001   0.00000   0.00260   0.00259   0.00269
   D48        0.00014   0.00002   0.00000  -0.00490  -0.00490  -0.00477
   D49        2.09416  -0.00056   0.00000  -0.00955  -0.00954   2.08462
   D50       -2.09433   0.00056   0.00000  -0.00018  -0.00018  -2.09451
   D51        3.14010   0.00000   0.00000  -0.00126  -0.00126   3.13884
   D52       -1.04906  -0.00059   0.00000  -0.00591  -0.00590  -1.05496
   D53        1.04564   0.00054   0.00000   0.00346   0.00346   1.04910
   D54       -0.00085  -0.00003   0.00000  -0.00046  -0.00047  -0.00133
   D55       -3.13490  -0.00012   0.00000  -0.00534  -0.00535  -3.14025
   D56        3.13673   0.00003   0.00000  -0.00076  -0.00077   3.13597
   D57        0.00269  -0.00006   0.00000  -0.00563  -0.00564  -0.00295
   D58        0.00761  -0.00004   0.00000  -0.00570  -0.00570   0.00191
   D59       -3.12590  -0.00033   0.00000  -0.01459  -0.01464  -3.14055
   D60       -3.14152   0.00005   0.00000  -0.00085  -0.00084   3.14082
   D61        0.00815  -0.00024   0.00000  -0.00975  -0.00978  -0.00163
         Item               Value     Threshold  Converged?
 Maximum Force            0.012411     0.000450     NO 
 RMS     Force            0.001386     0.000300     NO 
 Maximum Displacement     0.481556     0.001800     NO 
 RMS     Displacement     0.115954     0.001200     NO 
 Predicted change in Energy=-5.285641D-04
 GradGradGradGradGradGradGradGradGradGradGradGradGradGradGradGradGradGrad

                          Input orientation:                          
 ---------------------------------------------------------------------
 Center     Atomic      Atomic             Coordinates (Angstroms)
 Number     Number       Type             X           Y           Z
 ---------------------------------------------------------------------
      1          6           0       -6.181759    1.479130   -0.085231
      2          7           0       -4.919389    0.877372   -0.058624
      3          6           0       -3.696821    1.495179   -0.077351
      4          8           0       -3.496350    2.682621   -0.135528
      5          8           0       -2.736481    0.562103   -0.016465
      6          6           0       -1.385132    1.054059   -0.014345
      7          6           0       -0.462019   -0.139378    0.098189
      8          6           0        0.997377    0.303963    0.110135
      9          6           0       -7.289035    0.626044   -0.096790
     10          6           0       -8.580384    1.130274   -0.109705
     11          6           0       -8.781487    2.511072   -0.111372
     12          6           0       -7.686745    3.360606   -0.100452
     13          6           0       -6.391057    2.860117   -0.086281
     14          1           0       -4.891719   -0.131909   -0.024163
     15          1           0       -1.261391    1.739735    0.827414
     16          1           0       -1.211959    1.613090   -0.937221
     17          1           0       -0.647144   -0.815271   -0.741216
     18          1           0       -0.699291   -0.688794    1.013482
     19          1           0        1.258193    0.839246   -0.806495
     20          1           0        1.665703   -0.554541    0.193243
     21          1           0        1.204175    0.967318    0.953923
     22          1           0       -7.138089   -0.447194   -0.093597
     23          6           0       -9.742816    0.172151   -0.119094
     24         17           0      -10.380963    3.198248   -0.120350
     25          1           0       -7.845617    4.432091   -0.100503
     26          1           0       -5.553246    3.540144   -0.076971
     27          9           0       -9.333650   -1.105294   -0.119171
     28          9           0      -10.530037    0.324122    0.954520
     29          9           0      -10.516698    0.328776   -1.201661
 ---------------------------------------------------------------------
                    Distance matrix (angstroms):
                    1          2          3          4          5
     1  C    0.000000
     2  N    1.398713   0.000000
     3  C    2.485003   1.369931   0.000000
     4  O    2.943186   2.299974   1.205650   0.000000
     5  O    3.565895   2.205960   1.340370   2.255699   0.000000
     6  C    4.815946   3.538948   2.354243   2.669109   1.438113
     7  C    5.947153   4.574551   3.628571   4.150358   2.382939
     8  C    7.277306   5.946882   4.846612   5.090379   3.744912
     9  C    1.397838   2.383242   3.695914   4.314565   4.553712
    10  C    2.423984   3.670075   4.897284   5.315811   5.872198
    11  C    2.797172   4.193752   5.185270   5.287975   6.352132
    12  C    2.409392   3.718395   4.404526   4.245033   5.687160
    13  C    1.396758   2.469383   3.020272   2.900562   4.317600
    14  H    2.064795   1.010247   2.019412   3.143411   2.264235
    15  H    5.011074   3.861306   2.609545   2.609854   2.067569
    16  H    5.044081   3.880497   2.632075   2.646707   2.067978
    17  H    6.027152   4.645757   3.883224   4.551933   2.605332
    18  H    5.997043   4.627258   3.865856   4.528819   2.603013
    19  H    7.502170   6.222803   5.051144   5.143336   4.081467
    20  H    8.111475   6.743682   5.747281   6.101976   4.546438
    21  H    7.476217   6.207365   5.036062   5.120948   4.078557
    22  H    2.150665   2.584246   3.951633   4.802058   4.516501
    23  C    3.793477   4.875083   6.189200   6.732092   7.017929
    24  Cl   4.537611   5.934565   6.897829   6.903911   8.086913
    25  H    3.389489   4.604410   5.083158   4.688069   6.409925
    26  H    2.154734   2.737237   2.761919   2.229258   4.099580
    27  F    4.076128   4.839455   6.207903   6.958638   6.805395
    28  F    4.617645   5.728168   7.009206   7.498231   7.857414
    29  F    4.621842   5.739107   7.009657   7.480809   7.873430
                    6          7          8          9         10
     6  C    0.000000
     7  C    1.512975   0.000000
     8  C    2.500898   1.525298   0.000000
     9  C    5.919971   6.872556   8.295251   0.000000
    10  C    7.196287   8.219676   9.615853   1.386361   0.000000
    11  C    7.539122   8.733976  10.027292   2.404362   1.395367
    12  C    6.711028   8.030318   9.208768   2.763335   2.402719
    13  C    5.322246   6.647141   7.820580   2.407812   2.790351
    14  H    3.701725   4.431395   5.906731   2.515331   3.899573
    15  H    1.092713   2.168370   2.770914   6.198948   7.403870
    16  H    1.092797   2.169246   2.773434   6.213811   7.430450
    17  H    2.137140   1.093483   2.163777   6.826961   8.192695
    18  H    2.136432   1.093579   2.163396   6.810744   8.165916
    19  H    2.767817   2.176071   1.093052   8.579291   9.867512
    20  H    3.455182   2.169931   1.091143   9.036882  10.388103
    21  H    2.765787   2.175606   1.093062   8.564758   9.843549
    22  H    5.946138   6.685913   8.172610   1.083806   2.137494
    23  C    8.404737   9.288565  10.743448   2.495507   1.506431
    24  Cl   9.248446  10.467710  11.742940   4.022040   2.742028
    25  H    7.290842   8.686502   9.761371   3.846530   3.382598
    26  H    4.853628   6.284119   7.308799   3.391952   3.869382
    27  F    8.237277   8.926706  10.429224   2.679269   2.359081
    28  F    9.225009  10.114994  11.558316   3.420600   2.362965
    29  F    9.236950  10.149154  11.588587   3.424458   2.363065
                   11         12         13         14         15
    11  C    0.000000
    12  C    1.385744   0.000000
    13  C    2.415908   1.389063   0.000000
    14  H    4.703535   4.473886   3.347251   0.000000
    15  H    7.617619   6.691288   5.329500   4.172232   0.000000
    16  H    7.667213   6.758466   5.394649   4.173647   1.769865
    17  H    8.810721   8.210026   6.850545   4.358620   3.060385
    18  H    8.765063   8.152485   6.797091   4.354685   2.499666
    19  H   10.201635   9.320283   7.944410   6.275077   3.135098
    20  H   10.891949  10.143122   8.754965   6.574623   3.772765
    21  H   10.160289   9.267578   7.896345   6.270955   2.586822
    22  H    3.384141   3.847131   3.390637   2.269450   6.337705
    23  C    2.528787   3.793945   4.296571   4.861544   8.676853
    24  Cl   1.740866   2.699179   4.004353   6.421137   9.283971
    25  H    2.136887   1.083199   2.141740   5.437043   7.173691
    26  H    3.388468   2.141169   1.079098   3.731538   4.741245
    27  F    3.658285   4.759928   4.938058   4.548325   8.611132
    28  F    2.996048   4.291563   4.964443   5.740768   9.376989
    29  F    2.993677   4.291070   4.967159   5.765338   9.579596
                   16         17         18         19         20
    16  H    0.000000
    17  H    2.500874   0.000000
    18  H    3.060513   1.760023   0.000000
    19  H    2.591828   2.524281   3.078792   0.000000
    20  H    3.775912   2.508078   2.506793   1.763003   0.000000
    21  H    3.135466   3.078718   2.523774   1.765897   1.762866
    22  H    6.330521   6.533549   6.537745   8.524124   8.809118
    23  C    8.690291   9.170240   9.154742  11.042632  11.435906
    24  Cl   9.340805  10.547087  10.494258  11.895614  12.621566
    25  H    7.256190   8.931033   8.861964   9.812559  10.743277
    26  H    4.827043   6.593990   6.529463   7.363610   8.303775
    27  F    8.603528   8.713579   8.718288  10.790773  11.017564
    28  F    9.595140  10.091844   9.882967  11.930167  12.251027
    29  F    9.396678   9.946303  10.115522  11.792573  12.293775
                   21         22         23         24         25
    21  H    0.000000
    22  H    8.525932   0.000000
    23  C   11.028158   2.677469   0.000000
[...]
 .00119283,-0.00045787,0.00003522,0.57804083,0.00305142,0.00216774,0.00
 013725,0.00497906,0.00059715,0.00006988,-0.00380614,-0.00023027,-0.000
 07447,0.00121619,0.00008065,0.00002181,0.00258413,-0.00116283,0.000079
 07,-0.00083962,-0.00021734,-0.00001627,0.00006746,0.00017125,-0.000002
 85,0.00002731,-0.00011775,0.00000554,-0.00208703,0.01770903,-0.0003694
 8,-0.06370507,-0.14344681,0.00073207,-0.02102210,-0.02103985,0.0001162
 6,0.00078257,-0.00480808,0.00020014,0.00330866,-0.00175898,0.00003856,
 0.00025362,0.00065847,0.00000208,0.00008037,0.00003980,-0.00002261,0.0
 0008006,0.00004149,0.00002463,0.00000480,-0.00001810,-0.00003925,0.000
 00281,-0.00001520,0.00003878,-0.00001614,0.00001358,0.00001089,0.00007
 138,-0.00001321,0.00000232,-0.00001703,0.00001306,-0.00001271,0.003908
 85,-0.00184919,0.00003293,0.03774471,0.57079994,-0.00024000,0.00017909
 ,0.00719972,-0.00003081,-0.00001492,-0.00013765,-0.00000600,-0.0000041
 4,0.00026376,0.00000498,0.00000953,-0.00013334,-0.00000542,0.00000493,
 -0.00013878,-0.00000513,0.00000127,0.00007307,-0.00000066,-0.00000052,
 0.00003903,-0.00000040,0.00000023,-0.00000345,-0.00032496,-0.00052325,
 0.00124110,-0.00018533,0.00076518,-0.06520595,0.00074775,0.00029669,-0
 .00126588,-0.00007291,0.00025932,0.00536652,-0.00002906,0.00003022,-0.
 00122833,-0.00002179,-0.00000190,0.00040800,-0.00000995,-0.00001796,-0
 .00001414,0.00001094,0.00001774,-0.00001594,0.00000410,-0.00001872,-0.
 00001318,-0.00000371,0.00001885,-0.00001703,0.00000997,0.00001297,-0.0
 0000906,-0.00000022,0.00000002,0.00000865,-0.00000937,-0.00001276,-0.0
 0000773,-0.00004585,-0.00003259,-0.00328134,0.00043462,-0.00098004,0.5
 0596591,0.00362497,0.00160896,0.00001919,-0.00540787,0.00043452,-0.000
 09309,0.00423330,0.00158536,0.00005555,-0.00123919,-0.00115894,-0.0000
 0403,-0.00215001,0.00078611,-0.00006406,0.00080564,0.00021912,0.000016
 10,-0.00005920,-0.00011399,0.00000383,-0.00000622,0.00008778,-0.000005
 20,-0.00121674,0.00118067,-0.00007634,-0.01538600,0.00924714,-0.000409
 91,-0.15591060,0.05144353,-0.00306764,-0.04404495,0.01877175,-0.000964
 05,0.00108989,-0.00690098,0.00008637,-0.00005319,-0.00026715,0.0000028
 2,-0.00008726,-0.00003876,0.00000047,-0.00008772,-0.00003881,-0.000003
 52,0.00000888,0.00001145,-0.00000020,0.00000907,0.00001065,0.00000185,
 0.00000224,-0.00001509,0.00000644,-0.00005134,0.00000975,-0.00000167,0
 .00000349,-0.00001596,-0.00000568,-0.00099895,0.00003114,-0.00002193,-
 0.00794706,-0.00197787,-0.00006864,0.21788090,-0.00098131,0.00141042,-
 0.00005557,0.00264418,0.00000206,0.00003497,-0.00203965,-0.00108296,-0
 .00002326,0.00039136,0.00076611,-0.00000652,0.00100062,-0.00029154,0.0
 0002903,-0.00037055,-0.00010972,-0.00000641,0.00002949,0.00005129,-0.0
 0000166,0.00000203,-0.00003989,0.00000227,-0.00271592,-0.00467290,0.00
 012066,0.03330668,-0.00899180,0.00065032,0.05057069,-0.06215096,0.0015
 2704,-0.00791619,0.00723257,-0.00016231,-0.00089879,-0.00159817,0.0001
 2075,-0.00008447,0.00011555,-0.00000183,0.00004221,0.00001770,0.000002
 65,0.00004248,0.00001772,-0.00000129,-0.00000519,-0.00000420,0.0000018
 9,-0.00000524,-0.00000383,-0.00000275,-0.00000042,0.00000676,-0.000003
 91,0.00002315,-0.00000436,0.00000074,-0.00000101,0.00000713,0.00000358
 ,0.00153023,-0.00024127,0.00003922,0.00269170,0.00005235,0.00000690,-0
 .07456759,0.07574244,0.00007211,-0.00002136,-0.00069117,-0.00011134,-0
 .00000429,-0.00055369,0.00009743,0.00003637,-0.00017837,-0.00002451,-0
 .00002890,-0.00000367,-0.00004969,0.00001750,0.00007201,0.00001738,0.0
 0000549,0.00002923,-0.00000124,-0.00000255,-0.00000257,-0.00000015,0.0
 0000195,-0.00000070,-0.00001770,0.00017654,0.00393409,-0.00088496,0.00
 041635,0.00251317,-0.00305527,0.00151928,-0.02092851,-0.00046031,0.000
 16971,0.00351642,-0.00004470,0.00003849,0.00504284,0.00000107,-0.00000
 531,-0.00001673,0.00000315,-0.00000377,-0.00000315,-0.00000699,0.00000
 191,-0.00000346,0.00000060,-0.00000056,0.00000036,-0.00000015,0.000001
 02,0.00000038,0.00000007,-0.00000022,0.00000029,-0.00000118,0.00000024
 ,-0.00000027,0.00000008,-0.00000048,0.00000002,-0.00004887,0.00001591,
 0.00051908,-0.00012833,-0.00008888,-0.00289497,0.00444708,-0.00222002,
 0.01239925,-0.00483958,0.00159659,-0.00018809,0.00003540,0.00149658,-0
 .00003770,0.00067363,0.00044465,0.00000424,-0.00013236,-0.00033508,0.0
 0000232,-0.00029627,-0.00002172,-0.00000557,0.00010151,0.00004262,0.00
 000123,-0.00001359,-0.00001518,0.00000002,0.00000053,0.00001142,-0.000
 00028,-0.00135478,-0.00003791,-0.00000284,-0.00378895,-0.00290604,-0.0
 0006612,0.00522236,-0.02512944,0.00052655,-0.06347189,0.04154015,-0.00
 116190,-0.00000994,0.02892174,-0.00062905,-0.00038325,0.00007479,-0.00
 000400,-0.00001460,-0.00000492,-0.00000378,-0.00001489,-0.00000482,0.0
 0000343,0.00000208,-0.00000003,-0.00000170,0.00000202,0.,0.00000186,-0
 .00000106,-0.00000090,0.00000233,-0.00000567,-0.00000083,-0.00000011,-
 0.00000097,-0.00000096,-0.00000230,0.00007753,0.00001618,0.00000582,0.
 00117203,-0.00075064,0.00001936,0.00087882,-0.00123842,0.00006817,0.06
 569013,0.00102554,0.00146369,0.00013007,0.00016421,-0.00035910,0.00001
 207,-0.00033217,-0.00016761,-0.00000228,0.00007187,0.00010911,0.000000
 20,0.00016209,-0.00003545,0.00000374,-0.00005551,-0.00001946,-0.000000
 62,0.00000569,0.00000895,-0.00000023,0.00000023,-0.00000641,0.00000034
 ,-0.00018998,0.00073377,-0.00003840,-0.00330786,-0.00071114,0.00008556
 ,0.00526640,-0.01449405,0.00041513,0.03886874,-0.34527174,0.00650165,0
 .00001439,-0.00513638,0.00018598,0.00008333,0.00003471,-0.00000297,0.0
 0000750,0.00000349,-0.00000003,0.00000762,0.00000351,0.00000016,-0.000
 00083,-0.00000094,0.00000023,-0.00000082,-0.00000085,-0.00000036,0.000
 00016,0.00000100,-0.00000046,0.00000335,-0.00000023,0.00000010,0.00000
 006,0.00000100,0.00000038,0.00001316,-0.00006842,-0.00000600,0.0010991
 8,-0.00011097,0.00003139,0.00059193,0.00128963,-0.00007955,-0.04287823
 ,0.36240675,-0.00018182,0.00012352,0.00729382,-0.00000653,0.00002786,0
 .00004807,0.00001805,0.00000878,0.00005912,-0.00000634,-0.00000572,0.0
 0000426,-0.00000936,0.00000130,-0.00003412,0.00000282,0.00000183,0.000
 03136,-0.00000029,-0.00000056,0.00000036,0.,0.00000043,0.00000074,0.00
 001394,-0.00003494,-0.00104844,-0.00006040,0.00010072,0.00562646,-0.00
 008456,-0.00000262,0.00316501,-0.00105766,0.00654063,-0.03797707,-0.00
 008544,0.00058149,0.00417595,-0.00000389,-0.00000325,-0.00015818,-0.00
 000267,-0.00000110,-0.00000294,0.00000193,0.00000061,-0.00000286,0.000
 00033,-0.00000250,-0.00000133,-0.00000014,0.00000256,-0.00000147,0.000
 00117,0.00000119,-0.00000125,-0.00000023,0.00000006,0.00000015,-0.0000
 0113,-0.00000138,-0.00000131,0.00000585,-0.00000594,-0.00038400,-0.000
 01856,0.00000339,0.00073045,0.00000788,-0.00010284,-0.00261954,0.00137
 956,-0.00712157,0.02603110,0.01166718,0.00426814,-0.00000091,-0.002665
 20,-0.00183949,0.00004127,0.00193672,0.00693381,-0.00010657,-0.0078269
 8,-0.00196792,-0.00001030,0.00058006,-0.00135356,0.00003064,-0.0004766
 7,-0.00012526,-0.00001040,0.00001284,0.00004690,-0.00000165,0.00000569
 ,-0.00004169,0.00000191,0.00006230,0.00200458,-0.00012851,0.00020098,0
 .00093009,-0.00000853,-0.00241430,0.00218895,-0.00017682,-0.01621891,-
 0.01670810,0.00006433,-0.23723968,-0.15063792,0.00045709,-0.00012002,-
 0.00008380,0.00000164,-0.00000363,0.00003540,-0.00000494,-0.00000323,0
 .00003462,0.00000487,0.00000144,-0.00001026,-0.00000246,0.00000135,-0.
 00001034,0.00000258,-0.00000189,0.00000781,-0.00000026,0.00002317,-0.0
 0000434,0.00000073,-0.00000205,0.00000810,-0.00000009,0.00040691,0.000
 48810,0.00000003,-0.00051820,-0.00026921,0.00000746,-0.00103484,-0.000
 20783,-0.00000884,0.00102028,0.00004203,0.00007443,0.25212594,-0.02540
 229,-0.01271144,0.00002125,0.00064881,0.00225756,-0.00009935,0.0005516
 3,-0.00565353,0.00012863,-0.00152941,0.00272194,-0.00009301,-0.0007035
 7,0.00120207,-0.00003320,0.00043656,0.00013021,0.00001211,-0.00001223,
 -0.00003809,0.00000121,0.00000166,0.00003974,-0.00000161,0.00167495,-0
 .00516294,0.00025414,0.00125551,-0.00066829,0.00001963,0.00284070,0.00
 037808,0.00017973,0.01175344,0.01249864,-0.00002053,-0.14687855,-0.181
 05655,0.00090981,-0.00004427,-0.00007095,-0.00000540,-0.00000963,-0.00
 002241,0.00001288,-0.00001004,-0.00002216,-0.00001390,-0.00000453,0.00
 001106,0.00000025,-0.00000455,0.00001140,-0.00000073,0.00000090,-0.000
 00662,0.00000447,-0.00002495,0.00000241,-0.00000071,0.00000106,-0.0000
 0712,-0.00000431,-0.00113050,-0.00061478,-0.00000945,0.00001731,-0.000
 30987,-0.00000598,0.00095625,0.00007367,0.00001163,-0.00034922,0.00065
 508,-0.00010987,0.15614135,0.18610323,0.00061224,0.00040545,0.00531396
 ,0.00000114,-0.00014094,-0.00346944,0.00002522,0.00022030,-0.00023042,
 -0.00002744,-0.00008000,-0.00053620,0.00000611,-0.00003583,0.00054185,
 -0.00001931,-0.00000028,0.00016181,0.00000034,0.00000112,-0.00000060,0
 .00000015,-0.00000124,0.00000602,-0.00012701,0.00026281,0.00624299,-0.
 00001693,0.00000968,-0.00057983,-0.00018137,0.00017143,0.00751761,-0.0
 0049496,-0.00038341,0.00376400,0.00035139,0.00083564,-0.03964697,0.000
 00216,-0.00000810,-0.00033474,0.00002270,-0.00001950,-0.00003044,-0.00
 002150,0.00002026,-0.00003206,0.00000391,-0.00001336,-0.00000445,-0.00
 000331,0.00001241,-0.00000525,0.00000578,0.00000362,-0.00000379,0.0000
 0083,-0.00000017,-0.00000083,-0.00000582,-0.00000322,-0.00000375,0.000
 03421,0.00001317,-0.00031671,0.00000002,-0.00000958,-0.00061508,-0.000
 03152,-0.00000394,0.00004223,0.00008075,-0.00010410,-0.00452756,-0.000
 23291,-0.00114587,0.02693400,0.00201215,-0.00124585,0.00005165,-0.0007
 9878,-0.00010969,-0.00001769,0.00105081,0.00039507,0.00001336,-0.00030
 157,-0.00031924,-0.00000041,-0.00056310,0.00012987,-0.00001524,0.00023
 931,0.00006946,0.00000490,-0.00001696,-0.00002653,0.00000158,0.0000004
 7,0.00002243,-0.00000188,-0.00534852,-0.00159776,-0.00004684,0.0086493
 3,-0.02151441,0.00040289,-0.00501905,-0.00022182,-0.00008827,0.0004611
 2,-0.00143590,0.00004285,-0.00033775,-0.00043704,0.00000516,0.00020496
 ,0.00001736,0.00000257,-0.00002349,-0.00001248,-0.00000185,-0.00002375
 ,-0.00001219,0.00000091,0.00000550,0.00000247,-0.00000447,0.00000538,0
 .00000232,0.00000537,-0.00000048,-0.00000557,0.00000357,-0.00001480,0.
 00000441,-0.00000054,0.00000004,-0.00000600,-0.00000339,-0.00212001,-0
 .00430670,0.00013054,-0.08514837,0.03740130,-0.00080548,0.00110026,-0.
 00010552,0.00001897,-0.00023908,-0.00018549,0.00000448,0.00008605,-0.0
 0015442,0.00000531,0.12188800,0.00135199,-0.00046091,0.00003277,-0.002
 11867,0.00022212,-0.00003401,0.00168604,-0.00006476,0.00003543,-0.0005
 2843,0.00002467,-0.00001080,-0.00103665,0.00056253,-0.00003380,0.00032
 769,0.00006642,0.00000677,-0.00002306,-0.00007381,0.00000122,-0.000013
 98,0.00004902,-0.00000218,0.00281806,-0.00305038,0.00008285,0.01228295
 ,-0.04807747,0.00114453,-0.00974309,0.00080942,-0.00011899,0.00124004,
 -0.00262720,0.00006088,-0.00033858,0.00012803,-0.00000234,-0.00015947,
 -0.00033312,-0.00000127,-0.00003274,-0.00001359,0.00001353,-0.00003236
 ,-0.00001443,-0.00001454,-0.00000501,0.00000806,0.00002281,-0.00000393
 ,0.00000673,-0.00002295,0.00000870,-0.00000415,-0.00000770,-0.00002990
 ,0.00000489,-0.00000093,0.00000882,-0.00000382,0.00000844,-0.00263120,
 -0.00038366,-0.00000869,0.02650270,-0.26697362,0.00384445,0.00000171,0
 .00020503,-0.00000341,-0.00068521,-0.00041431,-0.00000117,0.00005062,0
 .00015164,-0.00000311,-0.09754956,0.37520379,-0.00000077,-0.00001119,0
 .00001151,0.00002789,-0.00000314,0.00011201,-0.00001929,0.00000673,0.0
 0000576,0.00000596,-0.00000460,0.00001894,0.00001243,-0.00000871,0.000
 02883,-0.00000244,-0.00000092,-0.00002373,0.00000049,0.00000099,-0.000
 01235,0.00000024,-0.00000065,0.00000173,-0.00016387,0.00002061,0.00011
 219,-0.00016013,0.00076483,0.00810133,0.00008819,0.00000594,0.00168960
 ,-0.00000424,0.00002103,-0.00047909,-0.00000211,-0.00000133,0.00011819
 ,0.00000909,0.00000444,-0.00011843,0.00000184,0.00000424,0.00000278,-0
 .00000134,-0.00000389,0.00000359,-0.00000108,0.00000374,0.00000276,0.0
 0000121,-0.00000393,0.00000421,-0.00000210,-0.00000258,0.00000191,0.00
 000040,-0.00000007,-0.00000166,0.00000171,0.00000262,0.00000141,0.0000
 8333,-0.00002493,-0.00029098,-0.00058406,0.00398541,-0.07155414,0.0000
 1389,0.00000018,0.00024701,0.00001278,0.00000040,-0.00024430,0.0000003
 4,-0.00000560,-0.00003047,0.00213330,-0.00650416,0.08224146,-0.0000131
 2,-0.00147669,-0.00204032,-0.00157553,-0.00048233,-0.00023388,0.001786
 71,0.00036798,0.00006981,-0.00060523,-0.00028129,-0.00004319,-0.001145
 63,0.00035309,-0.00003580,0.00045411,0.00013566,0.00002884,-0.00003593
 ,-0.00006162,0.00000814,-0.00000279,0.00004858,-0.00000325,0.00084763,
 -0.00453885,0.00132117,-0.02726252,-0.00025060,0.03522234,-0.00538111,
 0.00352937,-0.00026458,0.00031948,-0.00034016,-0.00122939,-0.00111458,
 0.00007581,0.00029425,0.00012872,-0.00007133,0.00006900,-0.00004239,-0
 .00002633,-0.00000165,-0.00004079,-0.00002100,-0.00000466,0.00000764,0
 .00000298,-0.00000349,0.00000636,0.00000841,-0.00000019,0.00000314,-0.
 00000798,0.00000236,-0.00003090,0.00000817,0.00000011,0.00000117,-0.00
 001276,-0.00000463,0.00042039,0.00028160,0.00109983,-0.16125690,0.0011
 9385,0.10041184,0.00301921,-0.00060270,0.00024237,-0.00015614,-0.00023
 991,0.00001157,0.00019609,-0.00000791,0.00017489,-0.01849712,0.0352055
 3,0.02647827,0.18844273,-0.00033646,-0.00052860,-0.00075389,-0.0010228
 2,-0.00008420,-0.00011893,0.00082429,0.00008623,-0.00001582,-0.0002486
 7,-0.00005073,-0.00000041,-0.00053632,0.00023262,-0.00000887,0.0001808
 1,0.00004695,0.00000572,-0.00001437,-0.00003445,0.00000052,-0.00000513
 ,0.00002396,-0.00000101,-0.00001861,-0.00290752,0.00108595,-0.01553320
 ,0.01016385,0.01343587,0.00165257,0.00019608,-0.00057890,0.00033971,0.
 00073520,-0.00011618,-0.00072373,0.00050128,0.00010309,-0.00003268,-0.
 00011812,0.00000863,-0.00001690,-0.00000824,0.00000410,-0.00001834,-0.
 00000887,-0.00000454,-0.00000025,0.00000385,0.00000702,-0.00000011,0.0
 0000302,-0.00000680,0.00000299,-0.00000314,-0.00000181,-0.00001487,0.0
 0000301,-0.00000056,0.00000328,-0.00000296,0.00000230,-0.00044777,0.00
 014552,0.00027916,0.00273442,-0.07528433,-0.00858681,-0.00094629,-0.00
 372818,0.00196769,0.00010756,0.00004532,0.00002743,0.00003840,0.000054
 73,-0.00000822,0.04659329,-0.02891790,-0.04407859,-0.03263028,0.087537
 19,0.00018055,0.00011924,0.00043058,0.00108603,0.00040272,0.00025828,-
 0.00101819,-0.00035324,-0.00006975,0.00032255,0.00023690,0.00006782,0.
 00064523,-0.00016855,0.00005518,-0.00024362,-0.00008118,-0.00004660,0.
 00002140,0.00003356,-0.00001657,0.00000125,-0.00002682,0.00000278,0.00
 086512,0.00346904,-0.00057355,0.01682532,-0.00264964,-0.00865026,0.001
 92895,-0.00206541,0.00088814,-0.00001585,0.00047549,0.00036283,0.00033
 794,-0.00002679,-0.00009193,-0.00009347,0.00002521,-0.00014895,0.00002
 679,0.00002034,0.00000595,0.00002053,0.00000751,0.00000646,-0.00000565
 ,0.00000379,0.00000742,-0.00000246,-0.00001072,0.00000349,-0.00000389,
 0.00000067,0.00000084,0.00001638,-0.00000402,-0.00000231,0.00000270,0.
 00001070,0.00000523,-0.00036447,-0.00006122,-0.00046135,0.10093628,-0.
 00456831,-0.18478765,-0.00124444,0.00175183,-0.00033562,0.00007062,0.0
 0012492,-0.00008400,-0.00008535,0.00003503,-0.00007851,0.02397010,-0.0
 3209159,-0.00790455,-0.15417146,0.03816657,0.29025137,-0.00006347,-0.0
 0138831,0.00207799,-0.00156554,-0.00046549,0.00018023,0.00177115,0.000
 36215,-0.00000414,-0.00060007,-0.00027682,0.00002591,-0.00113359,0.000
 35025,-0.00003188,0.00045075,0.00013320,-0.00000963,-0.00003541,-0.000
 06103,-0.00000303,-0.00000279,0.00004807,-0.00000365,0.00089618,-0.004
 52383,-0.00108894,-0.02592281,-0.00158872,-0.03568869,-0.00534117,0.00
 344921,-0.00002438,0.00029874,-0.00026859,0.00123215,-0.00109919,0.000
 06818,-0.00031133,0.00012980,-0.00007333,-0.00006190,-0.00004030,-0.00
 002093,0.00000287,-0.00004212,-0.00002576,0.00000025,0.00000608,0.0000
 0875,0.00000111,0.00000748,0.00000252,0.00000493,0.00000034,-0.0000119
 3,0.00000511,-0.00003059,0.00000806,-0.00000220,0.00000390,-0.00000853
 ,-0.00000196,0.00044360,0.00023729,-0.00107995,-0.15679865,-0.00226769
 ,-0.09978535,0.00302448,-0.00053403,-0.00012425,-0.00015331,-0.0002366
 9,-0.00000297,0.00019860,-0.00001406,-0.00016507,-0.01725054,0.0334469
 7,-0.02792993,0.02152731,0.00006947,0.00999110,0.18132115,-0.00037265,
 -0.00048801,0.00077579,-0.00105738,-0.00009481,0.00009618,0.00085115,0
 .00009969,0.00004718,-0.00025718,-0.00005879,-0.00000549,-0.00055344,0
 .00023640,-0.00002377,0.00018720,0.00004904,-0.00000020,-0.00001501,-0
 .00003540,0.00000062,-0.00000516,0.00002466,-0.00000142,-0.00005011,-0
 .00308003,-0.00098012,-0.01583826,0.00977906,-0.01445059,0.00162506,0.
 00036652,0.00064247,0.00033372,0.00072357,0.00010750,-0.00072482,0.000
 49278,-0.00014149,-0.00002884,-0.00011888,-0.00001204,-0.00001898,-0.0
 0000885,0.00000421,-0.00001756,-0.00000906,-0.00000451,-0.00000040,0.0
 0000386,0.00000702,0.00000025,0.00000323,-0.00000666,0.00000300,-0.000
 00327,-0.00000181,-0.00001527,0.00000307,-0.00000048,0.00000326,-0.000
 00310,0.00000220,-0.00042487,0.00013590,-0.00031287,-0.00086599,-0.074
 98809,0.00472080,-0.00093639,-0.00407065,-0.00192077,0.00010729,0.0000
 4105,-0.00002834,0.00004083,0.00005330,0.00000498,0.04460821,-0.026029
 22,0.04583312,-0.00015929,0.01189843,-0.00277604,-0.02641838,0.0850775
 9,-0.00016120,-0.00011728,0.00044307,-0.00111266,-0.00040347,0.0002296
 2,0.00105137,0.00036491,-0.00003779,-0.00033583,-0.00024550,0.00006255
 ,-0.00066406,0.00017244,0.00001887,0.00025562,0.00008198,-0.00003750,-
 0.00002155,-0.00003429,-0.00001409,-0.00000116,0.00002752,-0.00000075,
 -0.00082721,-0.00349173,-0.00044259,-0.01670721,0.00196908,-0.00936770
 ,-0.00217896,0.00213793,0.00072834,0.00001850,-0.00048211,0.00040697,-
 0.00033053,0.00001152,-0.00009845,0.00010765,-0.00002878,-0.00014624,-
 0.00002133,-0.00000786,0.00000504,-0.00002790,-0.00002050,0.00000589,0
 .00000241,0.00001099,0.00000293,0.00000558,-0.00000398,0.00000924,-0.0
 0000329,-0.00001060,0.00000595,-0.00001687,0.00000417,-0.00000344,0.00
 000421,-0.00000119,0.00000065,0.00040756,0.00004026,-0.00045531,-0.100
 44701,0.00068344,-0.18997257,0.00140044,-0.00169972,-0.00008396,-0.000
 07562,-0.00013574,-0.00007851,0.00009122,-0.00004129,-0.00007735,-0.02
 581147,0.03360796,-0.01204553,-0.00739831,-0.00081270,-0.08909475,0.15
 279760,-0.03157546,0.30003740\\0.00000045,0.00000031,-0.00000082,-0.00
 000016,0.00000030,-0.00000023,-0.00000008,-0.00000055,0.00000084,0.000
 00059,-0.00000014,0.00000191,-0.00000012,-0.00000045,0.00000065,-0.000
 00015,-0.00000053,0.00000194,-0.00000026,-0.00000103,0.00000139,-0.000
 00021,-0.00000113,0.00000245,-0.00000023,0.00000048,-0.00000188,0.0000
 0017,0.00000075,-0.00000216,0.00000047,0.00000109,-0.00000065,0.000000
 27,0.00000046,0.00000021,0.00000034,0.00000086,0.00000073,-0.00000022,
 0.00000002,-0.00000101,-0.00000041,-0.00000153,0.00000240,0.00000050,-
 0.00000007,0.00000233,0.00000008,-0.00000025,0.00000063,-0.00000104,-0
 .00000149,0.00000054,0.00000039,-0.00000062,0.00000311,-0.00000043,-0.
 00000141,0.00000206,-0.00000054,-0.00000203,0.00000320,-0.00000027,0.0
 0000044,-0.00000269,-0.00000010,0.00000100,-0.00000354,0.00000031,0.00
 000122,-0.00000181,0.00000073,0.00000070,0.00000107,0.00000058,0.00000
 012,0.00000149,-0.00000044,0.00000094,-0.00000442,-0.00000070,0.000000
 46,-0.00000388,0.00000048,0.00000208,-0.00000389\\\@


 THEREFORE SHALL EVIL COME UPON THEE...
 THOU SHALT NOT KNOW FROM WHENCE IT RISETH...
 AND MISCHIEF SHALL FALL UPON THEE...
 THOU SHALT NOT BE ABLE TO PUT IT OFF...
 AND DESOLATION SHALL COME UPON THEE SUDDENLY...
 WHICH THOU SHALT NOT KNOW...

                                         ISAIAH 47.11
 Job cpu time:       0 days  3 hours 26 minutes 37.1 seconds.
 Elapsed time:       0 days  3 hours 26 minutes 37.6 seconds.
 File lengths (MBytes):  RWF=    663 Int=      0 D2E=      0 Chk=     29 Scr=      1
 Normal termination of Gaussian 16 at Sat Sep  5 13:24:47 2020.
