Process 0 of 1 is on r3767 - thread support 0
initial socket setup ...start
initial socket setup ...done 
now start server 0 ... 
r3767 10.9.65
Q-Chem Developer Version! Running on 10.9.65.*
                  Welcome to Q-Chem
     A Quantum Leap Into The Future Of Chemistry


 Q-Chem 5.0, Q-Chem, Inc., Pleasanton, CA (2017)

 Yihan Shao,  Zhengting Gan,  E. Epifanovsky,  A. T. B. Gilbert,  M. Wormit,  
 J. Kussmann,  A. W. Lange,  A. Behn,  Jia Deng,  Xintian Feng,  D. Ghosh,  
 M. Goldey,  P. R. Horn,  L. D. Jacobson,  I. Kaliman,  T. Kus,  A. Landau,  
 Jie Liu,  E. I. Proynov,  R. M. Richard,  R. P. Steele,  E. J. Sundstrom,  
 H. L. Woodcock III,  P. M. Zimmerman,  D. Zuev,  B. Albrecht,  E. Alguire,  
 S. A. Baeppler,  Z. Benda,  Y. A. Bernard,  E. J. Berquist,  K. B. Bravaya,  
 D. Casanova,  Chun-Min Chang,  Yunqing Chen,  A. Chien,  K. D. Closser,  
 M. P. Coons,  S. Dasgupta,  M. Diedenhofen,  Hainam Do,  R. G. Edgar,  
 Po-Tung Fang,  S. Fatehi,  Qingguo Feng,  Qinghui Ge,  A. Ghysels,  
 J. Gomes,  J. Gonthier,  A. Gunina,  M. W. D. Hanson-Heine,  
 P. H. P. Harbach,  A. W. Hauser,  J. E. Herr,  E. G. Hohenstein,  
 Z. C. Holden,  Kerwin Hui,  T.-C. Jagau,  Hyunjun Ji,  B. Kaduk,  
 K. Khistyaev,  Jaehoon Kim,  P. Klunzinger,  K. Koh,  D. Kosenkov,  
 T. Kowalczyk,  C. M. Krauter,  A. Kunitsa,  Ka Un Lao,  A. Laurent,  
 K. V. Lawler,  Joonho Lee,  D. Lefrancois,  S. Lehtola,  D. S. Levine,  
 Yi-Pei Li,  You-Sheng Lin,  Fenglai Liu,  E. Livshits,  A. Luenser,  
 P. Manohar,  E. Mansoor,  S. F. Manzer,  Shan-Ping Mao,  Yuezhi Mao,  
 N. Mardirossian,  A. V. Marenich,  L. A. Martinez-Martinez,  S. A. Maurer,  
 N. J. Mayhall,  S. C. McKenzie,  J.-M. Mewes,  A. F. Morrison,  K. Nanda,  
 T. S. Nguyen-Beck,  R. Olivares-Amaya,  J. A. Parkhill,  T. M. Perrine,  
 F. Plasser,  S. Prager,  A. Prociuk,  D. R. Rehn,  F. Rob,  M. Schneider,  
 N. Sergueev,  S. M. Sharada,  S. Sharma,  D. W. Small,  T. Stauch,  
 T. Stein,  Yu-Chuan Su,  A. J. W. Thom,  T. Tsuchimochi,  L. Vogt,  
 O. Vydrov,  M. A. Watson,  J. Wenzel,  M. de Wergifosse,  T. A. Wesolowski,  
 A. White,  J. Witte,  A. Yamada,  Jun Yang,  K. Yao,  S. Yeganeh,  
 S. R. Yost,  Zhi-Qiang You,  A. Zech,  Igor Ying Zhang,  Xing Zhang,  
 Yan Zhao,  Ying Zhu,  B. R. Brooks,  G. K. L. Chan,  C. J. Cramer,  
 M. S. Gordon,  W. J. Hehre,  A. Klamt,  M. W. Schmidt,  C. D. Sherrill,  
 D. G. Truhlar,  A. Aspuru-Guzik,  R. Baer,  A. T. Bell,  N. A. Besley,  
 Jeng-Da Chai,  A. Dreuw,  B. D. Dunietz,  T. R. Furlani,  Chao-Ping Hsu,  
 Yousung Jung,  Jing Kong,  D. S. Lambrecht,  WanZhen Liang,  C. Ochsenfeld,  
 V. A. Rassolov,  L. V. Slipchenko,  J. E. Subotnik,  T. Van Voorhis,  
 J. M. Herbert,  A. I. Krylov,  P. M. W. Gill,  M. Head-Gordon

 Contributors to earlier versions of Q-Chem not listed above: 
 R. D. Adamson,  B. Austin,  J. Baker,  G. J. O. Beran,  K. Brandhorst,  
 S. T. Brown,  E. F. C. Byrd,  A. K. Chakraborty,  C.-L. Cheng,  
 Siu Hung Chien,  D. M. Chipman,  D. L. Crittenden,  H. Dachsel,  
 R. A. DiStasio Jr.,  R. J. Doerksen,  A. D. Dutoi,  L. Fusti-Molnar,  
 W. A. Goddard III,  A. Golubeva-Zadorozhnaya,  S. R. Gwaltney,  G. Hawkins,  
 A. Heyden,  S. Hirata,  G. Kedziora,  F. J. Keil,  C. Kelley,  Jihan Kim,  
 R. A. King,  R. Z. Khaliullin,  P. P. Korambath,  W. Kurlancheek,  
 A. M. Lee,  M. S. Lee,  S. V. Levchenko,  Ching Yeh Lin,  D. Liotard,  
 R. C. Lochan,  I. Lotan,  P. E. Maslen,  N. Nair,  D. P. O'Neill,  
 D. Neuhauser,  E. Neuscamman,  C. M. Oana,  R. Olson,  B. Peters,  
 R. Peverati,  P. A. Pieniazek,  Y. M. Rhee,  J. Ritchie,  M. A. Rohrdanz,  
 E. Rosta,  N. J. Russ,  H. F. Schaefer III,  N. E. Schultz,  N. Shenvi,  
 A. C. Simmonett,  A. Sodt,  D. Stuck,  K. S. Thanthiriwatte,  V. Vanovschi,  
 Tao Wang,  A. Warshel,  C. F. Williams,  Q. Wu,  X. Xu,  W. Zhang

 Please cite Q-Chem as follows:
 Y. Shao et al., Mol. Phys. 113, 184-215 (2015)
 DOI: 10.1080/00268976.2014.952696

 Q-Chem 5.0.0 for Intel X86 EM64T Linux

 Parts of Q-Chem use Armadillo 5.200.1 (Boston Tea Smuggler).
 http://arma.sourceforge.net/

 Q-Chem begins on Mon Dec  9 10:12:13 2019  

Host: r3767
0

     Scratch files written to /jobfs/local/4046342.r-man2/CP19_c2.CCSD-T_6-31pGd.mo//
 Parallel job on  1  processors
Core orbitals will be frozen

Checking the input file for inconsistencies... 	...done.

--------------------------------------------------------------
User input:
--------------------------------------------------------------
$molecule
  0 1
    C     -6.2723304200    1.4157811597   -0.0006268092
    N     -5.0228905115    0.7930530560    0.0350288231
    C     -3.7728366790    1.4072440652    0.0160819501
    O     -3.6095794860    2.6070636568    0.0146574578
    N     -2.7340192472    0.5105491394    0.0308891718
    C     -1.3707340862    1.0100418431   -0.0989844890
    C     -0.3690942356   -0.1077962292    0.1504779418
    C      1.0672538533    0.3911555746    0.0281129047
    C     -7.3935234681    0.5932937771    0.1665888279
    C     -8.6688587036    1.1242917509    0.1226786916
    C     -8.8673955835    2.4893488258   -0.0872874356
    C     -7.7462770605    3.2960052430   -0.2506130266
    C     -6.4571885420    2.7855613836   -0.2106085962
    H     -5.0383620591   -0.1967102376    0.2301051026
    H     -2.9037689183   -0.4226499675   -0.3157040869
    H     -1.2418841584    1.8107001969    0.6310220645
    H     -1.2147580036    1.4539093437   -1.0893548604
    H     -0.5370531127   -0.9191438891   -0.5678051958
    H     -0.5423395604   -0.5259023146    1.1464668854
    H      1.2623655568    0.7922771580   -0.9692775949
    H      1.7821559004   -0.4127141529    0.2091445643
    H      1.2688197240    1.1853501596    0.7507164431
    H     -7.2759974095   -0.4722417649    0.3307563214
    Cl   -10.0089927485    0.0380259625    0.3370431866
    C    -10.2447112205    3.0876849677   -0.1390183572
    H     -7.8838643184    4.3575280509   -0.4132489856
    H     -5.6066341860    3.4367851958   -0.3323987941
    F    -10.1953508559    4.4108054742   -0.3514700238
    F    -10.9885083580    2.5642817182   -1.1244726977
    F    -10.9221421016    2.9031908532    1.0032506160

$end

$rem

    JOBTYPE               sp
    METHOD                CCSD(T)
    BASIS                 6-31+G*
    CC_BACKEND            XM

    MEM_TOTAL             60000
$end
--------------------------------------------------------------
 ----------------------------------------------------------------
             Standard Nuclear Orientation (Angstroms)
    I     Atom           X                Y                Z
 ----------------------------------------------------------------
    1      C       0.2269562013    -0.1731451973    -0.0251756170
    2      N       1.5687674488    -0.5592144591    -0.0507647056
    3      C       2.6866214808     0.2667852824     0.0406188480
    4      O       2.6296169457     1.4646258798     0.2083995947
    5      N       3.8708686506    -0.4210906014    -0.0477446608
    6      C       5.1202864100     0.3291333175    -0.0797742250
    7      C       6.3093085591    -0.6135274833     0.0328880772
    8      C       7.6307149148     0.1482921540     0.0096928070
    9      C      -0.7256244253    -1.1994279033     0.0040540250
   10      C      -2.0763129110    -0.9061877216     0.0082637295
   11      C      -2.5201709984     0.4164372275    -0.0149036455
   12      C      -1.5647727191     1.4267494018    -0.0424718347
   13      C      -0.2043065107     1.1565464880    -0.0474294510
   14      H       1.7340421264    -1.5529317766     0.0052323904
   15      H       3.8713082238    -1.3119100902    -0.5233945910
   16      H       5.1056819531     1.0299936324     0.7563760009
   17      H       5.1879651130     0.9277134481    -0.9959083797
   18      H       6.2874528971    -1.3334825301    -0.7939208100
   19      H       6.2200058225    -1.1909224609     0.9577992503
   20      H       7.7445934369     0.7132875512    -0.9185134166
   21      H       8.4804673221    -0.5308055186     0.0922224068
   22      H       7.6887529903     0.8570009572     0.8390860352
   23      H      -0.4159830001    -2.2386304004     0.0216520248
   24      Cl     -3.1961263859    -2.2353512550     0.0432900172
   25      C      -3.9833988654     0.7579499954    -0.0111848116
   26      H      -1.8934068859     2.4582146538    -0.0595129175
   27      H       0.5134177205     1.9609472813    -0.0608201196
   28      F      -4.1758815004     2.0847778525    -0.0376102509
   29      F      -4.6251597164     0.2518552292    -1.0743482506
   30      F      -4.6101081428     0.2966993190     1.0806999714
 ----------------------------------------------------------------
 Molecular Point Group                 C1    NOp =  1
 Largest Abelian Subgroup              C1    NOp =  1
 Nuclear Repulsion Energy =  1425.2033829483 hartrees
 There are       72 alpha and       72 beta electrons
 Requested basis set is 6-31+G(d)
 There are 115 shells and 370 basis functions
 Total memory of 101220MB is distributed as follows: 
   QALLOC including MEM_STATIC uses 30062MB
   MEM_STATIC is set to 62MB
   CCMAN JOB total memory use is  101158MB
 Warning: actual memory use might exceed 101220MB

 Total QAlloc Memory Limit  30062 MB
 Mega-Array Size        61 MB
 MEM_STATIC part        62 MB
 A cutoff of  1.0D-14 yielded   4880 shell pairs
 There are     54104 function pairs
 
 -------------------------------------------------------
 OpenMP Integral Computing Module                       
 Release: version 1.0, May 2013, Q-Chem Inc. Pittsburgh 
 -------------------------------------------------------
 Integral Job Info:
 Integral job number is                      11
 Integral operator is                         1
 short-range coefficients                     0
 long-range coefficients              100000000
 Omega coefficients                           0
 if combine SR and LR in K                    0
 Integral screening is                        0
 Integral computing path is                   2
 max size of driver memory is            800000
 size of driver memory is                593474
 size of scratch memory is             15166112
 max col of scratch BK array               1296
 max len of scratch array in speh3          155
 max len of scratch index in speh4           18
 max int batch size is                      520
 min int batch size is                       52
 fixed nKL is                                52
 max L of basis functions is                  2
 order of int derivative is                   0
 number of shells is                        115
 number of basis is                         370
 number of cartesian basis is               370
 number of contracted shell pairs          4880
 number of primitive shell pairs          15836
 maxK2 (contraction) of shell pair           36
 max number of K2 of shell pair               1
 max number of CS2 of shell pair            667
 max number of PS2 of shell pair           3786
 mem total for path MDJ                  135054
 -------------------------------------------------------
 Smallest overlap matrix eigenvalue = 8.55E-07
 Linear dependence detected in AO basis
 Number of orthogonalized atomic orbitals = 369
 Maximum deviation from orthogonality = 2.040E-10

 Scale SEOQF with 1.000000e-02/1.000000e-01/1.000000e-01

 Standard Electronic Orientation quadrupole field applied
 Nucleus-field energy     =     0.0000000203 hartrees
 Guess from superposition of atomic densities
 Warning:  Energy on first SCF cycle will be non-variational
 A restricted Hartree-Fock SCF calculation will be
 performed using Pulay DIIS extrapolation
 SCF converges when DIIS error is below 1.0E-08
 -------------------------------------------------------
 OpenMP Integral computing Module                
 Release: version 1.0, May 2013, Q-Chem Inc. Pittsburgh 
 -------------------------------------------------------
 ---------------------------------------
  Cycle       Energy         DIIS Error
 ---------------------------------------
    1   -1371.4029025427      3.92E-02
    2   -1364.8014438277      4.55E-03
    3   -1365.0571360727      2.84E-03
    4   -1365.1579134115      5.37E-04
    5   -1365.1636357336      1.84E-04
    6   -1365.1642706434      4.37E-05
    7   -1365.1643283516      1.89E-05
    8   -1365.1643412649      5.62E-06
    9   -1365.1643427245      2.12E-06
   10   -1365.1643428947      7.77E-07
   11   -1365.1643429206      3.35E-07
   12   -1365.1643429255      1.22E-07
   13   -1365.1643429261      4.13E-08
   14   -1365.1643429263      1.83E-08
   15   -1365.1643429263      7.98E-09 Convergence criterion met
 ---------------------------------------
 SCF time:  CPU 201.65 s  wall 51.64 s
 SCF   energy in the final basis set = -1365.1643429263
 Total energy in the final basis set = -1365.1643429263


 ------------------------------------------------------------------------------

   CCMAN2: suite of methods based on coupled cluster
           and equation of motion theories.

   Components:
   * libvmm-1.3-trunk
     by Evgeny Epifanovsky, Ilya Kaliman.
   * libtensor-2.5-release
     by Evgeny Epifanovsky, Michael Wormit, Dmitry Zuev, Sam Manzer, 
        Ilya Kaliman.
   * libcc-2.5-trunk
     by Evgeny Epifanovsky, Arik Landau, Tomasz Kus, Kirill Khistyaev, 
        Dmitry Zuev, Prashant Manohar, Xintian Feng, Anna Krylov, 
        Matthew Goldey, Alec White, Thomas Jagau, Kaushik Nanda, 
        Anastasia Gunina, Alexander Kunitsa, Joonho Lee.

   CCMAN original authors:
   Anna I. Krylov, C. David Sherrill, Steven R. Gwaltney,
   Edward F. C. Byrd (2000)
   Sergey V. Levchenko, Lyudmila V. Slipchenko, Tao Wang,
   Ana-Maria C. Cristian (2003)
   Piotr A. Pieniazek, C. Melania Oana, Evgeny Epifanovsky (2007)
   Prashant Manohar (2009)

 ------------------------------------------------------------------------------


================================================================================
This program uses libxm tensor contraction code.
See https://github.com/ilyak/libxm for more info.
libxm is (c) Ilya Kaliman 2014-2016.
================================================================================

 Calculation will run on 4 cores using libxm for tensor contractions

 
 Alpha MOs, Restricted
 -- Occupied --                  
-104.84  -26.35  -26.34  -26.34  -20.55  -15.63  -15.61  -11.52
  1 A     2 A     3 A     4 A     5 A     6 A     7 A     8 A                  
-11.409 -11.336 -11.326 -11.276 -11.276 -11.274 -11.269 -11.251
  9 A    10 A    11 A    12 A    13 A    14 A    15 A    16 A                  
-11.245 -11.233 -10.576  -8.046  -8.042  -8.042  -1.731  -1.635
 17 A    18 A    19 A    20 A    21 A    22 A    23 A    24 A                  
 -1.630  -1.427  -1.290  -1.249  -1.210  -1.134  -1.084  -1.065
 25 A    26 A    27 A    28 A    29 A    30 A    31 A    32 A                  
 -1.025  -0.972  -0.943  -0.883  -0.874  -0.836  -0.826  -0.819
 33 A    34 A    35 A    36 A    37 A    38 A    39 A    40 A                  
 -0.815  -0.792  -0.769  -0.734  -0.706  -0.706  -0.679  -0.670
 41 A    42 A    43 A    44 A    45 A    46 A    47 A    48 A                  
 -0.668  -0.657  -0.655  -0.651  -0.642  -0.633  -0.628  -0.611
 49 A    50 A    51 A    52 A    53 A    54 A    55 A    56 A                  
 -0.604  -0.585  -0.571  -0.556  -0.555  -0.534  -0.525  -0.509
 57 A    58 A    59 A    60 A    61 A    62 A    63 A    64 A                  
 -0.502  -0.494  -0.468  -0.460  -0.458  -0.417  -0.359  -0.335
 65 A    66 A    67 A    68 A    69 A    70 A    71 A    72 A                  
 -- Virtual --                   
  0.044   0.072   0.078   0.082   0.084   0.088   0.091   0.095
 73 A    74 A    75 A    76 A    77 A    78 A    79 A    80 A                  
  0.098   0.109   0.111   0.116   0.122   0.123   0.127   0.130
 81 A    82 A    83 A    84 A    85 A    86 A    87 A    88 A                  
  0.136   0.142   0.147   0.152   0.155   0.161   0.173   0.178
 89 A    90 A    91 A    92 A    93 A    94 A    95 A    96 A                  
  0.180   0.188   0.189   0.194   0.197   0.210   0.214   0.217
 97 A    98 A    99 A   100 A   101 A   102 A   103 A   104 A                  
  0.221   0.227   0.230   0.242   0.245   0.254   0.258   0.265
105 A   106 A   107 A   108 A   109 A   110 A   111 A   112 A                  
  0.270   0.275   0.280   0.286   0.297   0.301   0.307   0.316
113 A   114 A   115 A   116 A   117 A   118 A   119 A   120 A                  
  0.320   0.325   0.325   0.327   0.332   0.338   0.342   0.346
121 A   122 A   123 A   124 A   125 A   126 A   127 A   128 A                  
  0.350   0.354   0.361   0.373   0.376   0.382   0.393   0.393
129 A   130 A   131 A   132 A   133 A   134 A   135 A   136 A                  
  0.400   0.408   0.415   0.416   0.420   0.424   0.432   0.437
137 A   138 A   139 A   140 A   141 A   142 A   143 A   144 A                  
  0.441   0.443   0.452   0.456   0.458   0.465   0.466   0.467
145 A   146 A   147 A   148 A   149 A   150 A   151 A   152 A                  
  0.473   0.485   0.488   0.498   0.500   0.500   0.507   0.512
153 A   154 A   155 A   156 A   157 A   158 A   159 A   160 A                  
  0.521   0.545   0.557   0.566   0.572   0.578   0.583   0.592
161 A   162 A   163 A   164 A   165 A   166 A   167 A   168 A                  
  0.603   0.610   0.626   0.644   0.661   0.692   0.734   0.776
169 A   170 A   171 A   172 A   173 A   174 A   175 A   176 A                  
  0.793   0.827   0.844   0.848   0.851   0.866   0.891   0.900
177 A   178 A   179 A   180 A   181 A   182 A   183 A   184 A                  
  0.911   0.916   0.922   0.926   0.934   0.946   0.955   0.962
185 A   186 A   187 A   188 A   189 A   190 A   191 A   192 A                  
  0.965   0.974   0.997   1.014   1.021   1.030   1.033   1.050
193 A   194 A   195 A   196 A   197 A   198 A   199 A   200 A                  
  1.058   1.065   1.073   1.082   1.086   1.130   1.137   1.161
201 A   202 A   203 A   204 A   205 A   206 A   207 A   208 A                  
  1.169   1.181   1.184   1.189   1.206   1.213   1.224   1.231
209 A   210 A   211 A   212 A   213 A   214 A   215 A   216 A                  
  1.242   1.243   1.252   1.256   1.262   1.280   1.292   1.314
217 A   218 A   219 A   220 A   221 A   222 A   223 A   224 A                  
  1.332   1.341   1.345   1.352   1.370   1.385   1.394   1.405
225 A   226 A   227 A   228 A   229 A   230 A   231 A   232 A                  
  1.408   1.436   1.454   1.473   1.485   1.491   1.505   1.524
233 A   234 A   235 A   236 A   237 A   238 A   239 A   240 A                  
  1.540   1.570   1.588   1.598   1.605   1.622   1.631   1.657
241 A   242 A   243 A   244 A   245 A   246 A   247 A   248 A                  
  1.683   1.690   1.692   1.715   1.720   1.738   1.763   1.773
249 A   250 A   251 A   252 A   253 A   254 A   255 A   256 A                  
  1.793   1.819   1.853   1.877   1.886   1.908   1.917   1.937
257 A   258 A   259 A   260 A   261 A   262 A   263 A   264 A                  
  1.944   1.970   1.975   1.979   1.987   2.001   2.012   2.030
265 A   266 A   267 A   268 A   269 A   270 A   271 A   272 A                  
  2.044   2.053   2.090   2.106   2.109   2.121   2.128   2.131
273 A   274 A   275 A   276 A   277 A   278 A   279 A   280 A                  
  2.132   2.140   2.160   2.162   2.185   2.189   2.203   2.219
281 A   282 A   283 A   284 A   285 A   286 A   287 A   288 A                  
  2.228   2.255   2.263   2.288   2.305   2.320   2.337   2.354
289 A   290 A   291 A   292 A   293 A   294 A   295 A   296 A                  
  2.360   2.366   2.390   2.397   2.404   2.414   2.419   2.433
297 A   298 A   299 A   300 A   301 A   302 A   303 A   304 A                  
  2.438   2.444   2.445   2.500   2.508   2.523   2.550   2.565
305 A   306 A   307 A   308 A   309 A   310 A   311 A   312 A                  
  2.581   2.594   2.616   2.633   2.663   2.677   2.689   2.714
313 A   314 A   315 A   316 A   317 A   318 A   319 A   320 A                  
  2.739   2.744   2.798   2.807   2.836   2.882   2.909   2.949
321 A   322 A   323 A   324 A   325 A   326 A   327 A   328 A                  
  2.973   2.982   2.996   3.014   3.050   3.089   3.097   3.112
329 A   330 A   331 A   332 A   333 A   334 A   335 A   336 A                  
  3.116   3.150   3.173   3.215   3.246   3.300   3.327   3.468
337 A   338 A   339 A   340 A   341 A   342 A   343 A   344 A                  
  3.488   3.524   3.602   3.613   3.677   3.714   3.798   4.546
345 A   346 A   347 A   348 A   349 A   350 A   351 A   352 A                  
  4.643   4.656   4.692   4.707   4.789   4.800   4.805   4.844
353 A   354 A   355 A   356 A   357 A   358 A   359 A   360 A                  
  4.865   4.878   4.969   5.010   5.069   5.193   5.995   6.471
361 A   362 A   363 A   364 A   365 A   366 A   367 A   368 A                  
  7.377
369 A                                                                          
 
 Beta MOs, Restricted
 -- Occupied --                  
-104.84  -26.35  -26.34  -26.34  -20.55  -15.63  -15.61  -11.52
  1 A     2 A     3 A     4 A     5 A     6 A     7 A     8 A                  
-11.409 -11.336 -11.326 -11.276 -11.276 -11.274 -11.269 -11.251
  9 A    10 A    11 A    12 A    13 A    14 A    15 A    16 A                  
-11.245 -11.233 -10.576  -8.046  -8.042  -8.042  -1.731  -1.635
 17 A    18 A    19 A    20 A    21 A    22 A    23 A    24 A                  
 -1.630  -1.427  -1.290  -1.249  -1.210  -1.134  -1.084  -1.065
 25 A    26 A    27 A    28 A    29 A    30 A    31 A    32 A                  
 -1.025  -0.972  -0.943  -0.883  -0.874  -0.836  -0.826  -0.819
 33 A    34 A    35 A    36 A    37 A    38 A    39 A    40 A                  
 -0.815  -0.792  -0.769  -0.734  -0.706  -0.706  -0.679  -0.670
 41 A    42 A    43 A    44 A    45 A    46 A    47 A    48 A                  
 -0.668  -0.657  -0.655  -0.651  -0.642  -0.633  -0.628  -0.611
 49 A    50 A    51 A    52 A    53 A    54 A    55 A    56 A                  
 -0.604  -0.585  -0.571  -0.556  -0.555  -0.534  -0.525  -0.509
 57 A    58 A    59 A    60 A    61 A    62 A    63 A    64 A                  
 -0.502  -0.494  -0.468  -0.460  -0.458  -0.417  -0.359  -0.335
 65 A    66 A    67 A    68 A    69 A    70 A    71 A    72 A                  
 -- Virtual --                   
  0.044   0.072   0.078   0.082   0.084   0.088   0.091   0.095
 73 A    74 A    75 A    76 A    77 A    78 A    79 A    80 A                  
  0.098   0.109   0.111   0.116   0.122   0.123   0.127   0.130
 81 A    82 A    83 A    84 A    85 A    86 A    87 A    88 A                  
  0.136   0.142   0.147   0.152   0.155   0.161   0.173   0.178
 89 A    90 A    91 A    92 A    93 A    94 A    95 A    96 A                  
  0.180   0.188   0.189   0.194   0.197   0.210   0.214   0.217
 97 A    98 A    99 A   100 A   101 A   102 A   103 A   104 A                  
  0.221   0.227   0.230   0.242   0.245   0.254   0.258   0.265
105 A   106 A   107 A   108 A   109 A   110 A   111 A   112 A                  
  0.270   0.275   0.280   0.286   0.297   0.301   0.307   0.316
113 A   114 A   115 A   116 A   117 A   118 A   119 A   120 A                  
  0.320   0.325   0.325   0.327   0.332   0.338   0.342   0.346
121 A   122 A   123 A   124 A   125 A   126 A   127 A   128 A                  
  0.350   0.354   0.361   0.373   0.376   0.382   0.393   0.393
129 A   130 A   131 A   132 A   133 A   134 A   135 A   136 A                  
  0.400   0.408   0.415   0.416   0.420   0.424   0.432   0.437
137 A   138 A   139 A   140 A   141 A   142 A   143 A   144 A                  
  0.441   0.443   0.452   0.456   0.458   0.465   0.466   0.467
145 A   146 A   147 A   148 A   149 A   150 A   151 A   152 A                  
  0.473   0.485   0.488   0.498   0.500   0.500   0.507   0.512
153 A   154 A   155 A   156 A   157 A   158 A   159 A   160 A                  
  0.521   0.545   0.557   0.566   0.572   0.578   0.583   0.592
161 A   162 A   163 A   164 A   165 A   166 A   167 A   168 A                  
  0.603   0.610   0.626   0.644   0.661   0.692   0.734   0.776
169 A   170 A   171 A   172 A   173 A   174 A   175 A   176 A                  
  0.793   0.827   0.844   0.848   0.851   0.866   0.891   0.900
177 A   178 A   179 A   180 A   181 A   182 A   183 A   184 A                  
  0.911   0.916   0.922   0.926   0.934   0.946   0.955   0.962
185 A   186 A   187 A   188 A   189 A   190 A   191 A   192 A                  
  0.965   0.974   0.997   1.014   1.021   1.030   1.033   1.050
193 A   194 A   195 A   196 A   197 A   198 A   199 A   200 A                  
  1.058   1.065   1.073   1.082   1.086   1.130   1.137   1.161
201 A   202 A   203 A   204 A   205 A   206 A   207 A   208 A                  
  1.169   1.181   1.184   1.189   1.206   1.213   1.224   1.231
209 A   210 A   211 A   212 A   213 A   214 A   215 A   216 A                  
  1.242   1.243   1.252   1.256   1.262   1.280   1.292   1.314
217 A   218 A   219 A   220 A   221 A   222 A   223 A   224 A                  
  1.332   1.341   1.345   1.352   1.370   1.385   1.394   1.405
225 A   226 A   227 A   228 A   229 A   230 A   231 A   232 A                  
  1.408   1.436   1.454   1.473   1.485   1.491   1.505   1.524
233 A   234 A   235 A   236 A   237 A   238 A   239 A   240 A                  
  1.540   1.570   1.588   1.598   1.605   1.622   1.631   1.657
241 A   242 A   243 A   244 A   245 A   246 A   247 A   248 A                  
  1.683   1.690   1.692   1.715   1.720   1.738   1.763   1.773
249 A   250 A   251 A   252 A   253 A   254 A   255 A   256 A                  
  1.793   1.819   1.853   1.877   1.886   1.908   1.917   1.937
257 A   258 A   259 A   260 A   261 A   262 A   263 A   264 A                  
  1.944   1.970   1.975   1.979   1.987   2.001   2.012   2.030
265 A   266 A   267 A   268 A   269 A   270 A   271 A   272 A                  
  2.044   2.053   2.090   2.106   2.109   2.121   2.128   2.131
273 A   274 A   275 A   276 A   277 A   278 A   279 A   280 A                  
  2.132   2.140   2.160   2.162   2.185   2.189   2.203   2.219
281 A   282 A   283 A   284 A   285 A   286 A   287 A   288 A                  
  2.228   2.255   2.263   2.288   2.305   2.320   2.337   2.354
289 A   290 A   291 A   292 A   293 A   294 A   295 A   296 A                  
  2.360   2.366   2.390   2.397   2.404   2.414   2.419   2.433
297 A   298 A   299 A   300 A   301 A   302 A   303 A   304 A                  
  2.438   2.444   2.445   2.500   2.508   2.523   2.550   2.565
305 A   306 A   307 A   308 A   309 A   310 A   311 A   312 A                  
  2.581   2.594   2.616   2.633   2.663   2.677   2.689   2.714
313 A   314 A   315 A   316 A   317 A   318 A   319 A   320 A                  
  2.739   2.744   2.798   2.807   2.836   2.882   2.909   2.949
321 A   322 A   323 A   324 A   325 A   326 A   327 A   328 A                  
  2.973   2.982   2.996   3.014   3.050   3.089   3.097   3.112
329 A   330 A   331 A   332 A   333 A   334 A   335 A   336 A                  
  3.116   3.150   3.173   3.215   3.246   3.300   3.327   3.468
337 A   338 A   339 A   340 A   341 A   342 A   343 A   344 A                  
  3.488   3.524   3.602   3.613   3.677   3.714   3.798   4.546
345 A   346 A   347 A   348 A   349 A   350 A   351 A   352 A                  
  4.643   4.656   4.692   4.707   4.789   4.800   4.805   4.844
353 A   354 A   355 A   356 A   357 A   358 A   359 A   360 A                  
  4.865   4.878   4.969   5.010   5.069   5.193   5.995   6.471
361 A   362 A   363 A   364 A   365 A   366 A   367 A   368 A                  
  7.377
369 A                                                                          

 Occupation and symmetry of molecular orbitals

 Point group: C1 (1 irreducible representation).

                           A     All 
 -------------------------------------
 All molecular orbitals:
  - Alpha                  369   369 
  - Beta                   369   369 
 -------------------------------------
 Alpha orbitals:
  - Frozen occupied        22    22  
  - Active occupied        50    50  
  - Active virtual         297   297 
  - Frozen virtual         0     0   
 -------------------------------------
 Beta orbitals:
  - Frozen occupied        22    22  
  - Active occupied        50    50  
  - Active virtual         297   297 
  - Frozen virtual         0     0   
 -------------------------------------

 Import integrals:   CPU 0.00 s  wall 0.00 s

 Import integrals:   CPU 1443.52 s  wall 563.75 s

 MP2 amplitudes:   CPU 22.35 s  wall 66.55 s

           CCSD T amplitudes will be solved using DIIS.

           Start     Size      MaxIter   EConv     TConv     
           3         7         100       1.00e-06  1.00e-04  
 ------------------------------------------------------------------------------
           Energy (a.u.)   Ediff      Tdiff       Comment
 ------------------------------------------------------------------------------
         -1367.74409410                           
     1   -1367.73834911   5.74e-03   1.48e+00     Step took 44.00.
     2   -1367.81612474   7.78e-02   2.00e-01     
     3   -1367.81559489   5.30e-04   7.35e-02     
     4   -1367.82324668   7.65e-03   2.43e-02     Switched to DIIS steps.
     5   -1367.82589687   2.65e-03   1.65e-02     
     6   -1367.82606114   1.64e-04   3.45e-03     
     7   -1367.82604727   1.39e-05   1.79e-03     
     8   -1367.82603801   9.26e-06   4.65e-04     
     9   -1367.82603913   1.12e-06   1.97e-04     
    10   -1367.82603927   1.38e-07   5.53e-05     
 ------------------------------------------------------------------------------
         -1367.82603927                           CCSD T converged.


 ------------------------------------------------------------------------------
 == (T) code is based on LIBPT ==
 == Author: Ilya Kaliman, 2016 ==

 Starting (T) calculation...
 (T) calculation completed in 68104 sec
 ------------------------------------------------------------------------------

 SCF energy                 = -1365.16434293
 MP2 energy                 = -1367.74409410
 CCSD correlation energy     =    -2.66169635
 CCSD total energy           = -1367.82603927
 CCSD(T) correlation energy =    -0.09972229
 CCSD(T) total energy       = -1367.92576157

 CCSD  T1^2 = 0.0366  T2^2 = 0.8928  Leading amplitudes:

 Amplitude    Orbitals with energies
 -0.0175       64 (A) A                  ->    80 (A) A                   
              -0.5090                          0.0949                     
 -0.0175       64 (A) B                  ->    80 (A) B                   
              -0.5090                          0.0949                     
  0.0165       54 (A) A                  ->    99 (A) A                   
              -0.6330                          0.1892                     
  0.0165       54 (A) B                  ->    99 (A) B                   
              -0.6330                          0.1892                     

 Amplitude    Orbitals with energies
 -0.0453       72 (A) A      72 (A) B    ->    80 (A) A      80 (A) B     
              -0.3348       -0.3348            0.0949        0.0949       
  0.0453       72 (A) A      72 (A) B    ->    80 (A) B      80 (A) A     
              -0.3348       -0.3348            0.0949        0.0949       
  0.0453       72 (A) B      72 (A) A    ->    80 (A) A      80 (A) B     
              -0.3348       -0.3348            0.0949        0.0949       
 -0.0453       72 (A) B      72 (A) A    ->    80 (A) B      80 (A) A     
              -0.3348       -0.3348            0.0949        0.0949       

 CCSD calculation:   CPU 338224.37 s  wall 99826.41 s

 Total ccman2 time:   CPU 339710.52 s  wall 100475.29 s

 
 --------------------------------------------------------------
 
                    Orbital Energies (a.u.)
 --------------------------------------------------------------
 
 Alpha MOs
 -- Occupied --
******* -26.351 -26.345 -26.345 -20.551 -15.633 -15.609 -11.518
-11.409 -11.336 -11.326 -11.276 -11.276 -11.274 -11.269 -11.251
-11.245 -11.233 -10.576  -8.046  -8.042  -8.042  -1.731  -1.635
 -1.630  -1.427  -1.290  -1.249  -1.210  -1.134  -1.084  -1.065
 -1.025  -0.972  -0.943  -0.883  -0.874  -0.836  -0.826  -0.819
 -0.815  -0.792  -0.769  -0.734  -0.706  -0.706  -0.679  -0.670
 -0.668  -0.657  -0.655  -0.651  -0.642  -0.633  -0.628  -0.611
 -0.604  -0.585  -0.571  -0.556  -0.555  -0.534  -0.525  -0.509
 -0.502  -0.494  -0.468  -0.460  -0.458  -0.417  -0.359  -0.335
 -- Virtual --
  0.044   0.072   0.078   0.082   0.084   0.088   0.091   0.095
  0.098   0.109   0.111   0.116   0.122   0.123   0.127   0.130
  0.136   0.142   0.147   0.152   0.155   0.161   0.173   0.178
  0.180   0.188   0.189   0.194   0.197   0.210   0.214   0.217
  0.221   0.227   0.230   0.242   0.245   0.254   0.258   0.265
  0.270   0.275   0.280   0.286   0.297   0.301   0.307   0.316
  0.320   0.325   0.325   0.327   0.332   0.338   0.342   0.346
  0.350   0.354   0.361   0.373   0.376   0.382   0.393   0.393
  0.400   0.408   0.415   0.416   0.420   0.424   0.432   0.437
  0.441   0.443   0.452   0.456   0.458   0.465   0.466   0.467
  0.473   0.485   0.488   0.498   0.500   0.500   0.507   0.512
  0.521   0.545   0.557   0.566   0.572   0.578   0.583   0.592
  0.603   0.610   0.626   0.644   0.661   0.692   0.734   0.776
  0.793   0.827   0.844   0.848   0.851   0.866   0.891   0.900
  0.911   0.916   0.922   0.926   0.934   0.946   0.955   0.962
  0.965   0.974   0.997   1.014   1.021   1.030   1.033   1.050
  1.058   1.065   1.073   1.082   1.086   1.130   1.137   1.161
  1.169   1.181   1.184   1.189   1.206   1.213   1.224   1.231
  1.242   1.243   1.252   1.256   1.262   1.280   1.292   1.314
  1.332   1.341   1.345   1.352   1.370   1.385   1.394   1.405
  1.408   1.436   1.454   1.473   1.485   1.491   1.505   1.524
  1.540   1.570   1.588   1.598   1.605   1.622   1.631   1.657
  1.683   1.690   1.692   1.715   1.720   1.738   1.763   1.773
  1.793   1.819   1.853   1.877   1.886   1.908   1.917   1.937
  1.944   1.970   1.975   1.979   1.987   2.001   2.012   2.030
  2.044   2.053   2.090   2.106   2.109   2.121   2.128   2.131
  2.132   2.140   2.160   2.162   2.185   2.189   2.203   2.219
  2.228   2.255   2.263   2.288   2.305   2.320   2.337   2.354
  2.360   2.366   2.390   2.397   2.404   2.414   2.419   2.433
  2.438   2.444   2.445   2.500   2.508   2.523   2.550   2.565
  2.581   2.594   2.616   2.633   2.663   2.677   2.689   2.714
  2.739   2.744   2.798   2.807   2.836   2.882   2.909   2.949
  2.973   2.982   2.996   3.014   3.050   3.089   3.097   3.112
  3.116   3.150   3.173   3.215   3.246   3.300   3.327   3.468
  3.488   3.524   3.602   3.613   3.677   3.714   3.798   4.546
  4.643   4.656   4.692   4.707   4.789   4.800   4.805   4.844
  4.865   4.878   4.969   5.010   5.069   5.193   5.995   6.471
  7.377
 --------------------------------------------------------------
 
          Ground-State Mulliken Net Atomic Charges

     Atom                 Charge (a.u.)
  ----------------------------------------
      1 C                     0.004185
      2 N                    -0.818113
      3 C                     0.776047
      4 O                    -0.632793
      5 N                    -0.673964
      6 C                    -0.052661
      7 C                    -0.277101
      8 C                    -0.675621
      9 C                    -1.149251
     10 C                     0.511314
     11 C                    -1.612165
     12 C                     0.041976
     13 C                     0.457006
     14 H                     0.461647
     15 H                     0.418410
     16 H                     0.225312
     17 H                     0.202941
     18 H                     0.181209
     19 H                     0.207620
     20 H                     0.196971
     21 H                     0.200272
     22 H                     0.198756
     23 H                     0.249177
     24 Cl                    0.299132
     25 C                     1.827903
     26 H                     0.278674
     27 H                     0.318059
     28 F                    -0.439298
     29 F                    -0.363919
     30 F                    -0.361725
  ----------------------------------------
  Sum of atomic charges =     0.000000

 -----------------------------------------------------------------
                    Cartesian Multipole Moments
 -----------------------------------------------------------------
    Charge (ESU x 10^10)
                -0.0000
    Dipole Moment (Debye)
         X       6.3720      Y      -3.2023      Z      -0.9370
       Tot       7.1928
    Quadrupole Moments (Debye-Ang)
        XX    -112.8019     XY     -10.7200     YY    -109.9608
        XZ      -3.2925     YZ       0.2600     ZZ    -115.5759
    Octopole Moments (Debye-Ang^2)
       XXX     121.1865    XXY     -28.7830    XYY     -23.5329
       YYY      -0.9947    XXZ     -10.2419    XYZ       3.0737
       YYZ      -2.6726    XZZ     -15.7110    YZZ       4.5347
       ZZZ       0.3517
    Hexadecapole Moments (Debye-Ang^3)
      XXXX   -9833.0277   XXXY     -71.1004   XXYY   -1881.0564
      XYYY     -74.6334   YYYY   -1011.0450   XXXZ     -30.4339
      XXYZ      14.5455   XYYZ      -8.8395   YYYZ       1.2104
      XXZZ   -1743.1689   XYZZ     -12.4745   YYZZ    -213.4359
      XZZZ      -0.1237   YZZZ       1.1264   ZZZZ    -209.2816
 -----------------------------------------------------------------
Archival summary:
1\1\r3767\SP\ProcedureUnspecified\6-31+G*\l13121112\hio507\TueDec1014:07:412019TueDec1014:07:412019\0\\#,ProcedureUnspecified,6-31+G*,\\0,1\Cl\C,1,1.73836\C,2,1.38216,1,117.863\H,3,1.08449,2,118.834,1,0.0562237,0\C,2,1.39531,1,121.345,3,-179.998,0\C,5,1.39078,2,118.06,1,-179.992,0\H,6,1.08269,5,118.938,2,-179.93,0\C,6,1.38705,5,122.164,2,0,0\H,8,1.07813,6,120.508,5,-179.492,0\C,8,1.39806,6,119.195,5,0.0536891,0\N,10,1.39648,8,123.99,6,178.863,0\H,11,1.00892,10,115.383,8,177.786,0\C,11,1.39292,10,127.298,8,7.34303,0\O,13,1.21088,11,123.912,10,2.8764,0\N,13,1.37238,11,113.02,10,-178.569,0\H,15,1.00985,13,118.22,11,24.3956,0\C,15,1.45771,13,118.886,11,174.926,0\H,17,1.09113,15,107.594,13,50.6802,0\H,17,1.09644,15,110.624,13,-65.7381,0\C,5,1.50256,2,121.681,1,-0.0185532,0\F,20,1.34079,5,112.272,2,60.3165,0\F,20,1.34098,5,111.384,2,-179.937,0\F,20,1.34101,5,112.228,2,-60.2394,0\C,17,1.52154,15,110.446,13,171.474,0\H,24,1.09399,17,109.014,15,-57.6534,0\H,24,1.09655,17,109.595,15,58.9298,0\C,24,1.52546,17,111.494,15,-179.681,0\H,27,1.0909,24,111.267,17,179.912,0\H,27,1.09249,24,111.005,17,59.9088,0\H,27,1.09259,24,111.189,17,-59.9624,0\\HF=-1365.16434\\@

 Total job time:  100528.47s(wall), 339913.29s(cpu) 
 Tue Dec 10 14:07:41 2019

        *************************************************************
        *                                                           *
        *  Thank you very much for using Q-Chem.  Have a nice day.  *
        *                                                           *
        *************************************************************


0 sent ACK to 0 
now end server 0 ... 
