 Entering Gaussian System, Link 0=/apps/gaussian/g09e01/g09/g09
 Initial command:
 /apps/gaussian/g09e01/g09/l1.exe "/jobfs/local/3579012.r-man2/Gau-8382.inp" -scrdir="/jobfs/local/3579012.r-man2/"
 Entering Link 1 = /apps/gaussian/g09e01/g09/l1.exe PID=      8383.
  
 Copyright (c) 1988,1990,1992,1993,1995,1998,2003,2009,2015,
            Gaussian, Inc.  All Rights Reserved.
  
 This is part of the Gaussian(R) 09 program.  It is based on
 the Gaussian(R) 03 system (copyright 2003, Gaussian, Inc.),
 the Gaussian(R) 98 system (copyright 1998, Gaussian, Inc.),
 the Gaussian(R) 94 system (copyright 1995, Gaussian, Inc.),
 the Gaussian 92(TM) system (copyright 1992, Gaussian, Inc.),
 the Gaussian 90(TM) system (copyright 1990, Gaussian, Inc.),
 the Gaussian 88(TM) system (copyright 1988, Gaussian, Inc.),
 the Gaussian 86(TM) system (copyright 1986, Carnegie Mellon
 University), and the Gaussian 82(TM) system (copyright 1983,
 Carnegie Mellon University). Gaussian is a federally registered
 trademark of Gaussian, Inc.
  
 This software contains proprietary and confidential information,
 including trade secrets, belonging to Gaussian, Inc.
  
 This software is provided under written license and may be
 used, copied, transmitted, or stored only in accord with that
 written license.
  
 The following legend is applicable only to US Government
 contracts under FAR:
  
                    RESTRICTED RIGHTS LEGEND
  
 Use, reproduction and disclosure by the US Government is
 subject to restrictions as set forth in subparagraphs (a)
 and (c) of the Commercial Computer Software - Restricted
 Rights clause in FAR 52.227-19.
  
 Gaussian, Inc.
 340 Quinnipiac St., Bldg. 40, Wallingford CT 06492
  
  
 ---------------------------------------------------------------
 Warning -- This program may not be used in any manner that
 competes with the business of Gaussian, Inc. or will provide
 assistance to any competitor of Gaussian, Inc.  The licensee
 of this program is prohibited from giving any competitor of
 Gaussian, Inc. access to this program.  By using this program,
 the user acknowledges that Gaussian, Inc. is engaged in the
 business of creating and licensing software in the field of
 computational chemistry and represents and warrants to the
 licensee that it is not a competitor of Gaussian, Inc. and that
 it will not use this program in any manner prohibited above.
 ---------------------------------------------------------------
  

 Cite this work as:
 Gaussian 09, Revision E.01,
 M. J. Frisch, G. W. Trucks, H. B. Schlegel, G. E. Scuseria, 
 M. A. Robb, J. R. Cheeseman, G. Scalmani, V. Barone, B. Mennucci, 
 G. A. Petersson, H. Nakatsuji, M. Caricato, X. Li, H. P. Hratchian, 
 A. F. Izmaylov, J. Bloino, G. Zheng, J. L. Sonnenberg, M. Hada, 
 M. Ehara, K. Toyota, R. Fukuda, J. Hasegawa, M. Ishida, T. Nakajima, 
 Y. Honda, O. Kitao, H. Nakai, T. Vreven, J. A. Montgomery, Jr., 
 J. E. Peralta, F. Ogliaro, M. Bearpark, J. J. Heyd, E. Brothers, 
 K. N. Kudin, V. N. Staroverov, T. Keith, R. Kobayashi, J. Normand, 
 K. Raghavachari, A. Rendell, J. C. Burant, S. S. Iyengar, J. Tomasi, 
 M. Cossi, N. Rega, J. M. Millam, M. Klene, J. E. Knox, J. B. Cross, 
 V. Bakken, C. Adamo, J. Jaramillo, R. Gomperts, R. E. Stratmann, 
 O. Yazyev, A. J. Austin, R. Cammi, C. Pomelli, J. W. Ochterski, 
 R. L. Martin, K. Morokuma, V. G. Zakrzewski, G. A. Voth, 
 P. Salvador, J. J. Dannenberg, S. Dapprich, A. D. Daniels, 
 O. Farkas, J. B. Foresman, J. V. Ortiz, J. Cioslowski, 
 and D. J. Fox, Gaussian, Inc., Wallingford CT, 2013.
 
 ******************************************
 Gaussian 09:  ES64L-G09RevE.01 30-Nov-2015
                14-Nov-2019 
 ******************************************
 %chk=CP19_c2.M062X_6-311pGd_opt_GD3.chk
 %mem=196608000
 %nproc=4
 Will use up to    4 processors via shared memory.
 ----------------------------------------------------------------------
 # M062X/6-311+G* SCF=Tight INT(grid=ultrafine) OPT IOP(2/17=4) Empiric
 alDispersion=GD3 maxdisk=2147483648
 ----------------------------------------------------------------------
 1/14=-1,18=20,19=15,26=4,38=1/1,3;
 2/9=110,12=2,17=4,18=5,40=1/2;
 3/5=4,6=6,7=11,11=2,16=1,25=1,30=1,71=1,74=-55,75=-5,124=31/1,2,3;
 4//1;
 5/5=2,32=2,38=5/2;
 6/7=2,8=2,9=2,10=2,28=1/1;
 7//1,2,3,16;
 1/14=-1,18=20,19=15,26=4/3(2);
 2/9=110,17=4/2;
 99//99;
 2/9=110,17=4/2;
 3/5=4,6=6,7=11,11=2,16=1,25=1,30=1,71=1,74=-55,75=-5,124=31/1,2,3;
 4/5=5,16=3,69=1/1;
 5/5=2,32=2,38=5/2;
 7//1,2,3,16;
 1/14=-1,18=20,19=15,26=4/3(-5);
 2/9=110,17=4/2;
 6/7=2,8=2,9=2,10=2,19=2,28=1/1;
 99/9=1/99;
 ------------------------------
 CP19_c2.M062X_6-311pGd_opt_GD3
 ------------------------------
 Symbolic Z-matrix:
 Charge =  0 Multiplicity = 1
 C                    -6.27233   1.41578  -0.00063 
 N                    -5.02289   0.79305   0.03503 
 C                    -3.77284   1.40724   0.01608 
 O                    -3.60958   2.60706   0.01466 
 N                    -2.73402   0.51055   0.03089 
 C                    -1.37073   1.01004  -0.09898 
 C                    -0.36909  -0.1078    0.15048 
 C                     1.06725   0.39116   0.02811 
 C                    -7.39352   0.59329   0.16659 
 C                    -8.66886   1.12429   0.12268 
 C                    -8.8674    2.48935  -0.08729 
 C                    -7.74628   3.29601  -0.25061 
 C                    -6.45719   2.78556  -0.21061 
 H                    -5.03836  -0.19671   0.23011 
 H                    -2.90377  -0.42265  -0.3157 
 H                    -1.24188   1.8107    0.63102 
 H                    -1.21476   1.45391  -1.08935 
 H                    -0.53705  -0.91914  -0.56781 
 H                    -0.54234  -0.5259    1.14647 
 H                     1.26237   0.79228  -0.96928 
 H                     1.78216  -0.41271   0.20914 
 H                     1.26882   1.18535   0.75072 
 H                    -7.276    -0.47224   0.33076 
 Cl                   -10.00899   0.03803   0.33704 
 C                    -10.24471   3.08768  -0.13902 
 H                    -7.88386   4.35753  -0.41325 
 H                    -5.60663   3.43679  -0.3324 
 F                    -10.19535   4.41081  -0.35147 
 F                    -10.98851   2.56428  -1.12447 
 F                    -10.92214   2.90319   1.00325 
 

 GradGradGradGradGradGradGradGradGradGradGradGradGradGradGradGradGradGrad
 Berny optimization.
 Initialization pass.
                           ----------------------------
                           !    Initial Parameters    !
                           ! (Angstroms and Degrees)  !
 --------------------------                            --------------------------
 ! Name  Definition              Value          Derivative Info.                !
 --------------------------------------------------------------------------------
 ! R1    R(1,2)                  1.3965         estimate D2E/DX2                !
 ! R2    R(1,9)                  1.4005         estimate D2E/DX2                !
 ! R3    R(1,13)                 1.3981         estimate D2E/DX2                !
 ! R4    R(2,3)                  1.3929         estimate D2E/DX2                !
 ! R5    R(2,14)                 1.0089         estimate D2E/DX2                !
 ! R6    R(3,4)                  1.2109         estimate D2E/DX2                !
 ! R7    R(3,5)                  1.3724         estimate D2E/DX2                !
 ! R8    R(5,6)                  1.4577         estimate D2E/DX2                !
 ! R9    R(5,15)                 1.0099         estimate D2E/DX2                !
 ! R10   R(6,7)                  1.5215         estimate D2E/DX2                !
 ! R11   R(6,16)                 1.0911         estimate D2E/DX2                !
 ! R12   R(6,17)                 1.0964         estimate D2E/DX2                !
 ! R13   R(7,8)                  1.5255         estimate D2E/DX2                !
 ! R14   R(7,18)                 1.0966         estimate D2E/DX2                !
 ! R15   R(7,19)                 1.094          estimate D2E/DX2                !
 ! R16   R(8,20)                 1.0926         estimate D2E/DX2                !
 ! R17   R(8,21)                 1.0909         estimate D2E/DX2                !
 ! R18   R(8,22)                 1.0925         estimate D2E/DX2                !
 ! R19   R(9,10)                 1.3822         estimate D2E/DX2                !
 ! R20   R(9,23)                 1.0845         estimate D2E/DX2                !
 ! R21   R(10,11)                1.3953         estimate D2E/DX2                !
 ! R22   R(10,24)                1.7384         estimate D2E/DX2                !
 ! R23   R(11,12)                1.3908         estimate D2E/DX2                !
 ! R24   R(11,25)                1.5026         estimate D2E/DX2                !
 ! R25   R(12,13)                1.387          estimate D2E/DX2                !
 ! R26   R(12,26)                1.0827         estimate D2E/DX2                !
 ! R27   R(13,27)                1.0781         estimate D2E/DX2                !
 ! R28   R(25,28)                1.341          estimate D2E/DX2                !
 ! R29   R(25,29)                1.341          estimate D2E/DX2                !
 ! R30   R(25,30)                1.3408         estimate D2E/DX2                !
 ! A1    A(2,1,9)              116.8287         estimate D2E/DX2                !
 ! A2    A(2,1,13)             123.9897         estimate D2E/DX2                !
 ! A3    A(9,1,13)             119.1742         estimate D2E/DX2                !
 ! A4    A(1,2,3)              127.2984         estimate D2E/DX2                !
 ! A5    A(1,2,14)             115.3835         estimate D2E/DX2                !
 ! A6    A(3,2,14)             116.6767         estimate D2E/DX2                !
 ! A7    A(2,3,4)              123.9124         estimate D2E/DX2                !
 ! A8    A(2,3,5)              113.0205         estimate D2E/DX2                !
 ! A9    A(4,3,5)              123.0505         estimate D2E/DX2                !
 ! A10   A(3,5,6)              118.886          estimate D2E/DX2                !
 ! A11   A(3,5,15)             118.2195         estimate D2E/DX2                !
 ! A12   A(6,5,15)             116.313          estimate D2E/DX2                !
 ! A13   A(5,6,7)              110.4456         estimate D2E/DX2                !
 ! A14   A(5,6,16)             107.594          estimate D2E/DX2                !
 ! A15   A(5,6,17)             110.624          estimate D2E/DX2                !
 ! A16   A(7,6,16)             110.5893         estimate D2E/DX2                !
 ! A17   A(7,6,17)             110.6012         estimate D2E/DX2                !
 ! A18   A(16,6,17)            106.8854         estimate D2E/DX2                !
 ! A19   A(6,7,8)              111.4938         estimate D2E/DX2                !
 ! A20   A(6,7,18)             109.5947         estimate D2E/DX2                !
 ! A21   A(6,7,19)             109.0139         estimate D2E/DX2                !
 ! A22   A(8,7,18)             109.4929         estimate D2E/DX2                !
 ! A23   A(8,7,19)             110.3128         estimate D2E/DX2                !
 ! A24   A(18,7,19)            106.8173         estimate D2E/DX2                !
 ! A25   A(7,8,20)             111.1895         estimate D2E/DX2                !
 ! A26   A(7,8,21)             111.2671         estimate D2E/DX2                !
 ! A27   A(7,8,22)             111.0046         estimate D2E/DX2                !
 ! A28   A(20,8,21)            107.7577         estimate D2E/DX2                !
 ! A29   A(20,8,22)            107.6957         estimate D2E/DX2                !
 ! A30   A(21,8,22)            107.759          estimate D2E/DX2                !
 ! A31   A(1,9,10)             120.6146         estimate D2E/DX2                !
 ! A32   A(1,9,23)             120.5517         estimate D2E/DX2                !
 ! A33   A(10,9,23)            118.8335         estimate D2E/DX2                !
 ! A34   A(9,10,11)            120.792          estimate D2E/DX2                !
 ! A35   A(9,10,24)            117.8626         estimate D2E/DX2                !
 ! A36   A(11,10,24)           121.3454         estimate D2E/DX2                !
 ! A37   A(10,11,12)           118.0602         estimate D2E/DX2                !
 ! A38   A(10,11,25)           121.6809         estimate D2E/DX2                !
 ! A39   A(12,11,25)           120.2589         estimate D2E/DX2                !
 ! A40   A(11,12,13)           122.1639         estimate D2E/DX2                !
 ! A41   A(11,12,26)           118.9381         estimate D2E/DX2                !
 ! A42   A(13,12,26)           118.8979         estimate D2E/DX2                !
 ! A43   A(1,13,12)            119.1949         estimate D2E/DX2                !
 ! A44   A(1,13,27)            120.2959         estimate D2E/DX2                !
 ! A45   A(12,13,27)           120.5076         estimate D2E/DX2                !
 ! A46   A(11,25,28)           111.3843         estimate D2E/DX2                !
 ! A47   A(11,25,29)           112.2283         estimate D2E/DX2                !
 ! A48   A(11,25,30)           112.2722         estimate D2E/DX2                !
 ! A49   A(28,25,29)           106.8041         estimate D2E/DX2                !
 ! A50   A(28,25,30)           106.8184         estimate D2E/DX2                !
 ! A51   A(29,25,30)           106.9843         estimate D2E/DX2                !
 ! D1    D(9,1,2,3)           -173.6562         estimate D2E/DX2                !
 ! D2    D(9,1,2,14)            -3.2128         estimate D2E/DX2                !
 ! D3    D(13,1,2,3)             7.343          estimate D2E/DX2                !
 ! D4    D(13,1,2,14)          177.7865         estimate D2E/DX2                !
 ! D5    D(2,1,9,10)          -178.9232         estimate D2E/DX2                !
 ! D6    D(2,1,9,23)             0.9458         estimate D2E/DX2                !
 ! D7    D(13,1,9,10)            0.1279         estimate D2E/DX2                !
 ! D8    D(13,1,9,23)          179.9969         estimate D2E/DX2                !
 ! D9    D(2,1,13,12)          178.8626         estimate D2E/DX2                !
 ! D10   D(2,1,13,27)           -1.5904         estimate D2E/DX2                !
 ! D11   D(9,1,13,12)           -0.1162         estimate D2E/DX2                !
 ! D12   D(9,1,13,27)          179.4309         estimate D2E/DX2                !
 ! D13   D(1,2,3,4)              2.8764         estimate D2E/DX2                !
 ! D14   D(1,2,3,5)           -178.5693         estimate D2E/DX2                !
 ! D15   D(14,2,3,4)          -167.4601         estimate D2E/DX2                !
 ! D16   D(14,2,3,5)            11.0942         estimate D2E/DX2                !
 ! D17   D(2,3,5,6)            174.9261         estimate D2E/DX2                !
 ! D18   D(2,3,5,15)            24.3956         estimate D2E/DX2                !
 ! D19   D(4,3,5,6)             -6.5054         estimate D2E/DX2                !
 ! D20   D(4,3,5,15)          -157.0359         estimate D2E/DX2                !
 ! D21   D(3,5,6,7)            171.4736         estimate D2E/DX2                !
 ! D22   D(3,5,6,16)            50.6802         estimate D2E/DX2                !
 ! D23   D(3,5,6,17)           -65.7381         estimate D2E/DX2                !
 ! D24   D(15,5,6,7)           -37.4468         estimate D2E/DX2                !
 ! D25   D(15,5,6,16)         -158.2402         estimate D2E/DX2                !
 ! D26   D(15,5,6,17)           85.3415         estimate D2E/DX2                !
 ! D27   D(5,6,7,8)           -179.6805         estimate D2E/DX2                !
 ! D28   D(5,6,7,18)            58.9298         estimate D2E/DX2                !
 ! D29   D(5,6,7,19)           -57.6534         estimate D2E/DX2                !
 ! D30   D(16,6,7,8)           -60.691          estimate D2E/DX2                !
 ! D31   D(16,6,7,18)          177.9194         estimate D2E/DX2                !
 ! D32   D(16,6,7,19)           61.3361         estimate D2E/DX2                !
 ! D33   D(17,6,7,8)            57.5178         estimate D2E/DX2                !
 ! D34   D(17,6,7,18)          -63.8718         estimate D2E/DX2                !
 ! D35   D(17,6,7,19)          179.5449         estimate D2E/DX2                !
 ! D36   D(6,7,8,20)           -59.9624         estimate D2E/DX2                !
 ! D37   D(6,7,8,21)           179.9118         estimate D2E/DX2                !
 ! D38   D(6,7,8,22)            59.9088         estimate D2E/DX2                !
 ! D39   D(18,7,8,20)           61.4864         estimate D2E/DX2                !
 ! D40   D(18,7,8,21)          -58.6394         estimate D2E/DX2                !
 ! D41   D(18,7,8,22)         -178.6424         estimate D2E/DX2                !
 ! D42   D(19,7,8,20)          178.7635         estimate D2E/DX2                !
 ! D43   D(19,7,8,21)           58.6377         estimate D2E/DX2                !
 ! D44   D(19,7,8,22)          -61.3653         estimate D2E/DX2                !
 ! D45   D(1,9,10,11)           -0.0748         estimate D2E/DX2                !
 ! D46   D(1,9,10,24)          179.9274         estimate D2E/DX2                !
 ! D47   D(23,9,10,11)        -179.9459         estimate D2E/DX2                !
 ! D48   D(23,9,10,24)           0.0562         estimate D2E/DX2                !
 ! D49   D(9,10,11,12)           0.0098         estimate D2E/DX2                !
 ! D50   D(9,10,11,25)         179.9837         estimate D2E/DX2                !
 ! D51   D(24,10,11,12)       -179.9924         estimate D2E/DX2                !
 ! D52   D(24,10,11,25)         -0.0186         estimate D2E/DX2                !
 ! D53   D(10,11,12,13)          0.0004         estimate D2E/DX2                !
 ! D54   D(10,11,12,26)       -179.9299         estimate D2E/DX2                !
 ! D55   D(25,11,12,13)       -179.9739         estimate D2E/DX2                !
 ! D56   D(25,11,12,26)          0.0959         estimate D2E/DX2                !
 ! D57   D(10,11,25,28)       -179.9373         estimate D2E/DX2                !
 ! D58   D(10,11,25,29)        -60.2394         estimate D2E/DX2                !
 ! D59   D(10,11,25,30)         60.3165         estimate D2E/DX2                !
 ! D60   D(12,11,25,28)          0.036          estimate D2E/DX2                !
 ! D61   D(12,11,25,29)        119.7339         estimate D2E/DX2                !
 ! D62   D(12,11,25,30)       -119.7102         estimate D2E/DX2                !
 ! D63   D(11,12,13,1)           0.0537         estimate D2E/DX2                !
 ! D64   D(11,12,13,27)       -179.4924         estimate D2E/DX2                !
 ! D65   D(26,12,13,1)         179.984          estimate D2E/DX2                !
 ! D66   D(26,12,13,27)          0.4379         estimate D2E/DX2                !
 --------------------------------------------------------------------------------
 Trust Radius=3.00D-01 FncErr=1.00D-07 GrdErr=1.00D-06
 Number of steps in this run=    157 maximum allowed number of steps=    180.
 GradGradGradGradGradGradGradGradGradGradGradGradGradGradGradGradGradGrad

                          Input orientation:                          
 ---------------------------------------------------------------------
 Center     Atomic      Atomic             Coordinates (Angstroms)
 Number     Number       Type             X           Y           Z
 ---------------------------------------------------------------------
      1          6           0       -6.272330    1.415781   -0.000627
      2          7           0       -5.022891    0.793053    0.035029
      3          6           0       -3.772837    1.407244    0.016082
      4          8           0       -3.609579    2.607064    0.014657
      5          7           0       -2.734019    0.510549    0.030889
      6          6           0       -1.370734    1.010042   -0.098984
      7          6           0       -0.369094   -0.107796    0.150478
      8          6           0        1.067254    0.391156    0.028113
      9          6           0       -7.393523    0.593294    0.166589
     10          6           0       -8.668859    1.124292    0.122679
     11          6           0       -8.867396    2.489349   -0.087287
     12          6           0       -7.746277    3.296005   -0.250613
     13          6           0       -6.457189    2.785561   -0.210609
     14          1           0       -5.038362   -0.196710    0.230105
     15          1           0       -2.903769   -0.422650   -0.315704
     16          1           0       -1.241884    1.810700    0.631022
     17          1           0       -1.214758    1.453909   -1.089355
     18          1           0       -0.537053   -0.919144   -0.567805
     19          1           0       -0.542340   -0.525902    1.146467
     20          1           0        1.262366    0.792277   -0.969278
     21          1           0        1.782156   -0.412714    0.209145
     22          1           0        1.268820    1.185350    0.750716
     23          1           0       -7.275997   -0.472242    0.330756
     24         17           0      -10.008993    0.038026    0.337043
     25          6           0      -10.244711    3.087685   -0.139018
     26          1           0       -7.883864    4.357528   -0.413249
     27          1           0       -5.606634    3.436785   -0.332399
     28          9           0      -10.195351    4.410805   -0.351470
     29          9           0      -10.988508    2.564282   -1.124473
     30          9           0      -10.922142    2.903191    1.003251
 ---------------------------------------------------------------------
                    Distance matrix (angstroms):
                    1          2          3          4          5
     1  C    0.000000
     2  N    1.396482   0.000000
     3  C    2.499564   1.392919   0.000000
     4  O    2.917127   2.299673   1.210877   0.000000
     5  N    3.652408   2.306243   1.372378   2.272057   0.000000
     6  C    4.919344   3.661050   2.437439   2.752421   1.457706
     7  C    6.098550   4.741590   3.728119   4.229617   2.447350
     8  C    7.410815   6.103395   4.945610   5.175249   3.803149
     9  C    1.400543   2.382669   3.714100   4.289124   4.662214
    10  C    2.417337   3.662033   4.905350   5.273195   5.967196
    11  C    2.809701   4.203879   5.209239   5.260122   6.445768
    12  C    2.402135   3.709878   4.407581   4.202056   5.741144
    13  C    1.398057   2.467314   3.026036   2.862077   4.369896
    14  H    2.043537   1.008923   2.054271   3.154201   2.418656
    15  H    3.850495   2.468122   2.052772   3.128334   1.009853
    16  H    5.085305   3.960659   2.635650   2.572952   2.068096
    17  H    5.173569   4.025276   2.787101   2.878155   2.110220
    18  H    6.218277   4.839190   4.027816   4.713154   2.688702
    19  H    6.157821   4.801070   3.930768   4.528182   2.668746
    20  H    7.622249   6.364988   5.167434   5.291259   4.129261
    21  H    8.262091   6.913237   5.848715   6.182855   4.613028
    22  H    7.581989   6.344425   5.099728   5.134377   4.122648
    23  H    2.163745   2.600945   3.987935   4.798402   4.656755
    24  Cl   3.996858   5.051979   6.392763   6.903360   7.296729
    25  C    4.312102   5.706403   6.688281   6.654291   7.942354
    26  H    3.379523   4.592560   5.078292   4.638614   6.443400
    27  H    2.153528   2.732230   2.757406   2.190231   4.116643
    28  F    4.948065   6.323912   7.099659   6.838122   8.427910
    29  F    4.982411   6.330110   7.396318   7.466461   8.584245
    30  F    4.984065   6.339661   7.370545   7.385024   8.585778
                    6          7          8          9         10
     6  C    0.000000
     7  C    1.521537   0.000000
     8  C    2.518523   1.525458   0.000000
     9  C    6.043029   7.059348   8.464324   0.000000
    10  C    7.302384   8.390763   9.764134   1.382160   0.000000
    11  C    7.641232   8.889478  10.154457   2.414907   1.395308
    12  C    6.774671   8.134468   9.284081   2.757380   2.388900
    13  C    5.388594   6.750318   7.899835   2.413512   2.786105
    14  H    3.875054   4.670793   6.137176   2.484940   3.864853
    15  H    2.109448   2.596350   4.068109   4.628460   5.985104
    16  H    1.091130   2.161785   2.776819   6.288119   7.475929
    17  H    1.096440   2.165931   2.754225   6.363584   7.559186
    18  H    2.153271   1.096552   2.155413   7.059603   8.413005
    19  H    2.143948   1.093993   2.163909   7.010812   8.355333
    20  H    2.781734   2.173855   1.092591   8.732365   9.996590
    21  H    3.472736   2.173544   1.090901   9.230761  10.563786
    22  H    2.778483   2.171469   1.092488   8.702179   9.957691
    23  H    6.103604   6.918861   8.393265   1.084495   2.128915
    24  Cl   8.703703   9.642806  11.086180   2.679190   1.738357
    25  C    9.114037  10.383772  11.630123   3.800612   2.531148
    26  H    7.329754   8.759491   9.800481   3.840066   3.370052
    27  H    4.887373   6.342638   7.344836   3.395203   3.864187
    28  F    9.460592  10.827051  11.964445   4.763614   3.654609
    29  F    9.796370  11.024403  12.304159   4.298319   3.001622
    30  F    9.799405  11.007274  12.288484   4.299625   3.002861
                   11         12         13         14         15
    11  C    0.000000
    12  C    1.390783   0.000000
    13  C    2.431470   1.387048   0.000000
    14  H    4.687979   4.445555   3.331853   0.000000
    15  H    6.640539   6.105941   4.788576   2.214824   0.000000
    16  H    7.689275   6.729825   5.371973   4.313198   2.940409
    17  H    7.787113   6.837949   5.479833   4.368692   2.640600
    18  H    9.013508   8.357093   6.992885   4.628213   2.431338
    19  H    8.939824   8.273785   6.913240   4.600250   2.779380
    20  H   10.308735   9.377674   8.008762   6.489667   4.388608
    21  H   11.041865  10.235087   8.848274   6.823970   4.715237
    22  H   10.254049   9.312867   7.948335   6.477783   4.597109
    23  H    3.387968   3.841723   3.402470   2.256781   4.420040
    24  Cl   2.737204   4.009944   4.523736   4.977319   7.150000
    25  C    1.502558   2.509586   3.800228   6.166812   8.138987
    26  H    2.136277   1.082687   2.132498   5.408500   6.903692
    27  H    3.404450   2.145828   1.078132   3.720435   4.711794
    28  F    2.350586   2.692752   4.078617   6.939882   8.748185
    29  F    2.362306   3.436730   4.627847   6.697925   8.656725
    30  F    2.362736   3.436946   4.628510   6.695223   8.780385
                   16         17         18         19         20
    16  H    0.000000
    17  H    1.757194   0.000000
    18  H    3.063662   2.522435   0.000000
    19  H    2.492941   3.061160   1.758805   0.000000
    20  H    3.141562   2.566772   2.515561   3.077488   0.000000
    21  H    3.777085   3.761898   2.497769   2.508917   1.763764
    22  H    2.590178   3.102603   3.070598   2.522955   1.764349
    23  H    6.458522   6.516548   6.813259   6.783097   8.728845
    24  Cl   8.949357   9.020970   9.563083   9.517915  11.371846
    25  C    9.125489   9.225639  10.510812  10.432953  11.763122
    26  H    7.189766   7.305142   9.046700   8.954250   9.832279
    27  H    4.756404   4.877843   6.688063   6.598259   7.387976
    28  F    9.374988   9.483605  11.033489  10.945114  12.031405
    29  F    9.932086   9.836684  11.030732  11.127841  12.379338
    30  F    9.748820  10.035573  11.177143  10.932497  12.522342
                   21         22         23         24         25
    21  H    0.000000
    22  H    1.763696   0.000000
    23  H    9.059165   8.714234   0.000000
    24  Cl  11.800454  11.343568   2.780230   0.000000
    25  C   12.530744  11.703500   4.659080   3.095580   0.000000
    26  H   10.796969   9.756493   4.924401   4.872085   2.694680
    27  H    8.349020   7.315324   4.301981   5.601828   4.655215
    28  F   12.924446  11.960167   5.729940   4.430573   1.340977
    29  F   13.180702  12.476373   5.012076   3.078546   1.341009
    30  F   13.153897  12.313988   5.013997   3.080072   1.340794
                   26         27         28         29         30
    26  H    0.000000
    27  H    2.457658   0.000000
    28  F    2.312926   4.690991   0.000000
    29  F    3.655186   5.509375   2.153203   0.000000
    30  F    3.654135   5.506660   2.153229   2.155567   0.000000
 Stoichiometry    C11H12ClF3N2O
 Framework group  C1[X(C11H12ClF3N2O)]
 Deg. of freedom    84
 Full point group                 C1      NOp   1
 Largest Abelian subgroup         C1      NOp   1
 Largest concise Abelian subgroup C1      NOp   1
                         Standard orientation:                         
 ---------------------------------------------------------------------
 Center     Atomic      Atomic             Coordinates (Angstroms)
 Number     Number       Type             X           Y           Z
 ---------------------------------------------------------------------
      1          6           0        0.226956    0.173145    0.025176
      2          7           0        1.568767    0.559214    0.050765
      3          6           0        2.686621   -0.266785   -0.040619
      4          8           0        2.629617   -1.464626   -0.208400
      5          7           0        3.870869    0.421091    0.047745
      6          6           0        5.120286   -0.329133    0.079774
      7          6           0        6.309309    0.613527   -0.032888
      8          6           0        7.630715   -0.148292   -0.009693
      9          6           0       -0.725624    1.199428   -0.004054
     10          6           0       -2.076313    0.906188   -0.008264
     11          6           0       -2.520171   -0.416437    0.014904
     12          6           0       -1.564773   -1.426749    0.042472
     13          6           0       -0.204307   -1.156546    0.047429
     14          1           0        1.734042    1.552932   -0.005232
     15          1           0        3.871308    1.311910    0.523395
     16          1           0        5.105682   -1.029994   -0.756376
     17          1           0        5.187965   -0.927713    0.995908
     18          1           0        6.287453    1.333483    0.793921
     19          1           0        6.220006    1.190922   -0.957799
     20          1           0        7.744593   -0.713288    0.918513
     21          1           0        8.480467    0.530806   -0.092222
     22          1           0        7.688753   -0.857001   -0.839086
     23          1           0       -0.415983    2.238630   -0.021652
     24         17           0       -3.196126    2.235351   -0.043290
     25          6           0       -3.983399   -0.757950    0.011185
     26          1           0       -1.893407   -2.458215    0.059513
     27          1           0        0.513418   -1.960947    0.060820
     28          9           0       -4.175882   -2.084778    0.037610
     29          9           0       -4.625160   -0.251855    1.074348
     30          9           0       -4.610108   -0.296699   -1.080700
 ---------------------------------------------------------------------
 Rotational constants (GHZ):      1.0957442      0.1212632      0.1115976
 Standard basis: 6-311+G(d) (5D, 7F)
 There are   458 symmetry adapted cartesian basis functions of A   symmetry.
 There are   440 symmetry adapted basis functions of A   symmetry.
   440 basis functions,   725 primitive gaussians,   458 cartesian basis functions
    72 alpha electrons       72 beta electrons
       nuclear repulsion energy      1425.2033769962 Hartrees.
 NAtoms=   30 NActive=   30 NUniq=   30 SFac= 1.00D+00 NAtFMM=   60 NAOKFM=F Big=F
 Integral buffers will be    131072 words long.
 Raffenetti 2 integral format.
 Two-electron integral symmetry is turned on.
 Nuclear repulsion after empirical dispersion term =     1425.2021020084 Hartrees.
 One-electron integrals computed using PRISM.
 NBasis=   440 RedAO= T EigKep=  1.50D-06  NBF=   440
 NBsUse=   438 1.00D-06 EigRej=  7.93D-07 NBFU=   438
 ExpMin= 4.38D-02 ExpMax= 1.06D+05 ExpMxC= 3.62D+03 IAcc=3 IRadAn=         5 AccDes= 0.00D+00
 Harris functional with IExCor= 1009 and IRadAn=       5 diagonalized for initial guess.
 HarFok:  IExCor= 1009 AccDes= 0.00D+00 IRadAn=         5 IDoV= 1 UseB2=F ITyADJ=14
 ICtDFT=  3500011 ScaDFX=  1.000000  1.000000  1.000000  1.000000
 FoFCou: FMM=F IPFlag=           0 FMFlag=      100000 FMFlg1=           0
         NFxFlg=           0 DoJE=T BraDBF=F KetDBF=T FulRan=T
         wScrn=  0.000000 ICntrl=     500 IOpCl=  0 I1Cent=   200000004 NGrid=           0
         NMat0=    1 NMatS0=      1 NMatT0=    0 NMatD0=    1 NMtDS0=    0 NMtDT0=    0
 Petite list used in FoFCou.
 Requested convergence on RMS density matrix=1.00D-08 within 128 cycles.
 Requested convergence on MAX density matrix=1.00D-06.
 Requested convergence on             energy=1.00D-06.
 No special actions if energy rises.
 SCF Done:  E(RM062X) =  -1370.79660840     A.U. after   16 cycles
            NFock= 16  Conv=0.70D-08     -V/T= 2.0028

 **********************************************************************

            Population analysis using the SCF density.

 **********************************************************************

 Orbital symmetries:
       Occupied  (A) (A) (A) (A) (A) (A) (A) (A) (A) (A) (A) (A)
                 (A) (A) (A) (A) (A) (A) (A) (A) (A) (A) (A) (A)
                 (A) (A) (A) (A) (A) (A) (A) (A) (A) (A) (A) (A)
                 (A) (A) (A) (A) (A) (A) (A) (A) (A) (A) (A) (A)
                 (A) (A) (A) (A) (A) (A) (A) (A) (A) (A) (A) (A)
                 (A) (A) (A) (A) (A) (A) (A) (A) (A) (A) (A) (A)
       Virtual   (A) (A) (A) (A) (A) (A) (A) (A) (A) (A) (A) (A)
                 (A) (A) (A) (A) (A) (A) (A) (A) (A) (A) (A) (A)
                 (A) (A) (A) (A) (A) (A) (A) (A) (A) (A) (A) (A)
                 (A) (A) (A) (A) (A) (A) (A) (A) (A) (A) (A) (A)
                 (A) (A) (A) (A) (A) (A) (A) (A) (A) (A) (A) (A)
                 (A) (A) (A) (A) (A) (A) (A) (A) (A) (A) (A) (A)
                 (A) (A) (A) (A) (A) (A) (A) (A) (A) (A) (A) (A)
                 (A) (A) (A) (A) (A) (A) (A) (A) (A) (A) (A) (A)
                 (A) (A) (A) (A) (A) (A) (A) (A) (A) (A) (A) (A)
                 (A) (A) (A) (A) (A) (A) (A) (A) (A) (A) (A) (A)
                 (A) (A) (A) (A) (A) (A) (A) (A) (A) (A) (A) (A)
                 (A) (A) (A) (A) (A) (A) (A) (A) (A) (A) (A) (A)
                 (A) (A) (A) (A) (A) (A) (A) (A) (A) (A) (A) (A)
                 (A) (A) (A) (A) (A) (A) (A) (A) (A) (A) (A) (A)
                 (A) (A) (A) (A) (A) (A) (A) (A) (A) (A) (A) (A)
                 (A) (A) (A) (A) (A) (A) (A) (A) (A) (A) (A) (A)
                 (A) (A) (A) (A) (A) (A) (A) (A) (A) (A) (A) (A)
                 (A) (A) (A) (A) (A) (A) (A) (A) (A) (A) (A) (A)
                 (A) (A) (A) (A) (A) (A) (A) (A) (A) (A) (A) (A)
                 (A) (A) (A) (A) (A) (A) (A) (A) (A) (A) (A) (A)
                 (A) (A) (A) (A) (A) (A) (A) (A) (A) (A) (A) (A)
                 (A) (A) (A) (A) (A) (A) (A) (A) (A) (A) (A) (A)
                 (A) (A) (A) (A) (A) (A) (A) (A) (A) (A) (A) (A)
                 (A) (A) (A) (A) (A) (A) (A) (A) (A) (A) (A) (A)
                 (A) (A) (A) (A) (A) (A) (A) (A) (A) (A) (A) (A)
                 (A) (A) (A) (A) (A) (A) (A) (A) (A) (A) (A) (A)
                 (A) (A) (A) (A) (A) (A) (A) (A) (A) (A) (A) (A)
                 (A) (A) (A) (A) (A) (A) (A) (A) (A) (A) (A) (A)
                 (A) (A) (A) (A) (A) (A) (A) (A) (A) (A) (A) (A)
                 (A) (A) (A) (A) (A) (A) (A) (A) (A) (A) (A) (A)
                 (A) (A) (A) (A) (A) (A)
 The electronic state is 1-A.
 Alpha  occ. eigenvalues -- -102.68832 -25.27659 -25.27090 -25.27087 -19.60777
 Alpha  occ. eigenvalues --  -14.80888 -14.78734 -10.80351 -10.69501 -10.63347
 Alpha  occ. eigenvalues --  -10.62537 -10.58514 -10.58258 -10.57503 -10.57436
 Alpha  occ. eigenvalues --  -10.55895 -10.55553 -10.54101  -9.83114  -7.55636
 Alpha  occ. eigenvalues --   -7.54942  -7.54928  -1.46819  -1.37455  -1.37045
 Alpha  occ. eigenvalues --   -1.20234  -1.08506  -1.05111  -1.01787  -0.95425
 Alpha  occ. eigenvalues --   -0.90932  -0.89158  -0.85632  -0.81883  -0.79103
 Alpha  occ. eigenvalues --   -0.74324  -0.73718  -0.70585  -0.69722  -0.69085
 Alpha  occ. eigenvalues --   -0.68635  -0.66661  -0.65281  -0.62556  -0.57930
 Alpha  occ. eigenvalues --   -0.57435  -0.57299  -0.56106  -0.55778  -0.55098
 Alpha  occ. eigenvalues --   -0.54220  -0.53092  -0.52826  -0.52632  -0.51501
 Alpha  occ. eigenvalues --   -0.50928  -0.50493  -0.49868  -0.48625  -0.47326
 Alpha  occ. eigenvalues --   -0.45722  -0.44477  -0.44264  -0.43270  -0.42245
 Alpha  occ. eigenvalues --   -0.41560  -0.39192  -0.39057  -0.36830  -0.34252
 Alpha  occ. eigenvalues --   -0.32236  -0.29647
 Alpha virt. eigenvalues --   -0.01461  -0.00953  -0.00705   0.00986   0.01877
 Alpha virt. eigenvalues --    0.02222   0.02748   0.02928   0.03299   0.04645
 Alpha virt. eigenvalues --    0.05076   0.05145   0.05629   0.06094   0.06471
 Alpha virt. eigenvalues --    0.06572   0.07110   0.07309   0.07701   0.08050
 Alpha virt. eigenvalues --    0.08735   0.09171   0.09354   0.10115   0.11199
 Alpha virt. eigenvalues --    0.11354   0.11775   0.12056   0.12511   0.12746
 Alpha virt. eigenvalues --    0.12960   0.14135   0.14590   0.14784   0.15090
 Alpha virt. eigenvalues --    0.15804   0.16902   0.17427   0.17771   0.17896
 Alpha virt. eigenvalues --    0.18577   0.18705   0.18912   0.19221   0.20002
 Alpha virt. eigenvalues --    0.20270   0.20536   0.20579   0.20851   0.21199
 Alpha virt. eigenvalues --    0.22104   0.22344   0.22824   0.23082   0.23491
 Alpha virt. eigenvalues --    0.23772   0.23996   0.24559   0.24934   0.25474
 Alpha virt. eigenvalues --    0.25637   0.25963   0.26462   0.26575   0.26903
 Alpha virt. eigenvalues --    0.27679   0.27899   0.28333   0.28923   0.29134
 Alpha virt. eigenvalues --    0.29763   0.29849   0.30327   0.31427   0.31553
 Alpha virt. eigenvalues --    0.31838   0.32310   0.32502   0.33129   0.34265
 Alpha virt. eigenvalues --    0.34930   0.34953   0.35470   0.36279   0.36818
 Alpha virt. eigenvalues --    0.37726   0.38295   0.39506   0.39805   0.40318
 Alpha virt. eigenvalues --    0.40524   0.41677   0.42315   0.42967   0.43645
 Alpha virt. eigenvalues --    0.44155   0.44993   0.45771   0.46208   0.47381
 Alpha virt. eigenvalues --    0.47783   0.48307   0.49066   0.50287   0.50374
 Alpha virt. eigenvalues --    0.51572   0.51719   0.53511   0.55457   0.56372
 Alpha virt. eigenvalues --    0.57106   0.57894   0.58990   0.60009   0.60060
 Alpha virt. eigenvalues --    0.60792   0.61939   0.62618   0.63076   0.63604
 Alpha virt. eigenvalues --    0.64728   0.65522   0.65650   0.66584   0.67721
 Alpha virt. eigenvalues --    0.69405   0.69912   0.70470   0.70918   0.71568
 Alpha virt. eigenvalues --    0.71710   0.72008   0.72356   0.73046   0.73547
 Alpha virt. eigenvalues --    0.74143   0.75120   0.75668   0.76382   0.77141
 Alpha virt. eigenvalues --    0.77453   0.78971   0.80423   0.81979   0.82954
 Alpha virt. eigenvalues --    0.83151   0.85152   0.85979   0.88614   0.90280
 Alpha virt. eigenvalues --    0.90960   0.91697   0.92331   0.93903   0.94334
 Alpha virt. eigenvalues --    0.94679   0.95060   0.96221   0.96497   0.97551
 Alpha virt. eigenvalues --    0.98002   1.01172   1.02032   1.04378   1.04622
 Alpha virt. eigenvalues --    1.04868   1.06328   1.06740   1.08408   1.10682
 Alpha virt. eigenvalues --    1.11457   1.13553   1.15275   1.17078   1.19409
 Alpha virt. eigenvalues --    1.20924   1.22736   1.23800   1.24246   1.25434
 Alpha virt. eigenvalues --    1.27572   1.28879   1.29679   1.33654   1.34557
 Alpha virt. eigenvalues --    1.36783   1.38575   1.39577   1.42397   1.43665
 Alpha virt. eigenvalues --    1.44189   1.46068   1.47642   1.47911   1.49005
 Alpha virt. eigenvalues --    1.50731   1.52296   1.52851   1.53769   1.54012
 Alpha virt. eigenvalues --    1.54438   1.56541   1.57786   1.58254   1.58944
 Alpha virt. eigenvalues --    1.59080   1.60414   1.61704   1.62107   1.63055
 Alpha virt. eigenvalues --    1.65142   1.66778   1.70949   1.73691   1.74634
 Alpha virt. eigenvalues --    1.75195   1.77297   1.77398   1.79410   1.81736
 Alpha virt. eigenvalues --    1.81821   1.83295   1.84183   1.84848   1.85355
 Alpha virt. eigenvalues --    1.88314   1.91747   1.92307   1.94287   1.94971
 Alpha virt. eigenvalues --    1.97578   1.98032   1.99608   2.04449   2.06200
 Alpha virt. eigenvalues --    2.08800   2.09093   2.09800   2.11343   2.14188
 Alpha virt. eigenvalues --    2.19884   2.21145   2.21725   2.26639   2.28388
 Alpha virt. eigenvalues --    2.31040   2.32088   2.34696   2.35481   2.37574
 Alpha virt. eigenvalues --    2.40737   2.41260   2.44867   2.47609   2.51555
 Alpha virt. eigenvalues --    2.53275   2.54106   2.54749   2.56989   2.57945
 Alpha virt. eigenvalues --    2.58648   2.61466   2.62336   2.63586   2.65488
 Alpha virt. eigenvalues --    2.70261   2.70862   2.74380   2.79579   2.81079
 Alpha virt. eigenvalues --    2.82396   2.84050   2.86849   2.90649   2.92509
 Alpha virt. eigenvalues --    2.93289   2.97197   2.99531   3.01611   3.02397
 Alpha virt. eigenvalues --    3.04430   3.04899   3.09934   3.10761   3.11923
 Alpha virt. eigenvalues --    3.15936   3.18654   3.23552   3.24680   3.27030
 Alpha virt. eigenvalues --    3.27720   3.29840   3.34725   3.38717   3.40494
 Alpha virt. eigenvalues --    3.41504   3.43499   3.43906   3.50455   3.55918
 Alpha virt. eigenvalues --    3.64330   3.66019   3.69313   3.76772   3.77439
 Alpha virt. eigenvalues --    3.80935   3.82050   3.84671   3.85085   3.87220
 Alpha virt. eigenvalues --    3.87669   3.89072   3.96929   3.97420   3.99948
 Alpha virt. eigenvalues --    4.00946   4.01854   4.01950   4.04979   4.05713
 Alpha virt. eigenvalues --    4.12823   4.23641   4.28301   4.32923   4.52523
 Alpha virt. eigenvalues --    4.57232   4.77143   4.81009   4.87406   4.99178
 Alpha virt. eigenvalues --    5.02547   5.17680   5.19096   5.41155   5.89245
 Alpha virt. eigenvalues --    6.45033   6.49109   6.50401   6.53057   6.55997
 Alpha virt. eigenvalues --    6.58197   6.63786   6.88281   6.91576   9.99787
 Alpha virt. eigenvalues --   23.43732  23.56988  23.65995  23.72153  23.79463
 Alpha virt. eigenvalues --   23.90497  23.92499  23.96825  24.08314  24.11319
 Alpha virt. eigenvalues --   24.19671  25.95586  26.31580  26.83106  35.57515
 Alpha virt. eigenvalues --   35.67324  50.13104  66.89355  66.91975  66.97807
 Alpha virt. eigenvalues --  216.10618
          Condensed to atoms (all electrons):
               1          2          3          4          5          6
     1  C   18.412076  -0.105522  -1.209727  -0.262250  -0.214769  -0.596808
     2  N   -0.105522   7.983942   0.375285  -0.085976  -0.729055  -0.400495
     3  C   -1.209727   0.375285   8.136608   0.543045  -0.040658  -1.004243
     4  O   -0.262250  -0.085976   0.543045   8.068785  -0.163996  -0.108300
     5  N   -0.214769  -0.729055  -0.040658  -0.163996   7.890777   0.608650
     6  C   -0.596808  -0.400495  -1.004243  -0.108300   0.608650   8.137505
     7  C   -0.017198   0.027318   0.184878   0.017618  -0.150729  -0.834661
     8  C   -0.009995  -0.008968  -0.196613  -0.000889   0.003718   0.331442
     9  C    2.153591  -0.178894  -0.254969  -0.067626  -0.072304  -0.087747
    10  C   -2.094177   0.003042  -1.302935  -0.004339   0.028028  -0.080305
    11  C   -4.147868   0.005453   0.113363   0.026659   0.063673   0.023738
    12  C   -3.810962   0.203818   0.222757   0.105995  -0.031033   0.025395
    13  C   -0.460828  -0.025962   0.132238   0.273913  -0.074036   0.005525
    14  H   -0.056703   0.226420  -0.035733  -0.003892   0.065726   0.020544
    15  H   -0.030638   0.095165   0.034222  -0.001913   0.224921  -0.088009
    16  H    0.004672   0.011584   0.057945  -0.001091  -0.041601   0.330961
    17  H    0.007278   0.010408   0.079805  -0.004478  -0.108517   0.391108
    18  H   -0.003827  -0.000688  -0.017045  -0.000261   0.003916  -0.058838
    19  H    0.004412  -0.000522   0.030145  -0.000129   0.001739  -0.084885
    20  H    0.000209   0.000030   0.009847  -0.000035   0.000129  -0.042417
    21  H    0.000046  -0.000011   0.003123   0.000025  -0.001431   0.075777
    22  H   -0.000321  -0.000075  -0.009303  -0.000086   0.000119  -0.047121
    23  H   -0.006406  -0.019811  -0.013467   0.000039   0.000058  -0.000840
    24  Cl  -0.116949  -0.013191  -0.037539  -0.000086  -0.000333  -0.001283
    25  C   -1.019550   0.017704  -0.002087   0.001784   0.010569   0.003273
    26  H    0.040293  -0.001819   0.005343  -0.000056   0.000029   0.000057
    27  H   -0.010508  -0.022848   0.060242  -0.000938   0.002854   0.006168
    28  F    0.032295   0.000004   0.000276   0.000001   0.000005   0.000004
    29  F    0.016707  -0.000092  -0.000392   0.000001   0.000001  -0.000002
    30  F    0.021653  -0.000149   0.000214  -0.000001   0.000001   0.000001
               7          8          9         10         11         12
     1  C   -0.017198  -0.009995   2.153591  -2.094177  -4.147868  -3.810962
     2  N    0.027318  -0.008968  -0.178894   0.003042   0.005453   0.203818
     3  C    0.184878  -0.196613  -0.254969  -1.302935   0.113363   0.222757
     4  O    0.017618  -0.000889  -0.067626  -0.004339   0.026659   0.105995
     5  N   -0.150729   0.003718  -0.072304   0.028028   0.063673  -0.031033
     6  C   -0.834661   0.331442  -0.087747  -0.080305   0.023738   0.025395
     7  C    6.306739  -0.166215   0.004129   0.000198  -0.001356   0.000075
     8  C   -0.166215   6.030131  -0.000353  -0.000287  -0.000064  -0.000417
     9  C    0.004129  -0.000353  11.367912   1.625260  -3.588776  -2.012732
    10  C    0.000198  -0.000287   1.625260  31.689368 -12.485113  -4.758294
    11  C   -0.001356  -0.000064  -3.588776 -12.485113  32.154100   1.869446
    12  C    0.000075  -0.000417  -2.012732  -4.758294   1.869446  15.428757
    13  C    0.006194  -0.004306  -1.289653  -6.486785  -2.973305  -0.365092
    14  H   -0.003466   0.000033  -0.022180  -0.024836   0.022754   0.014028
    15  H    0.013787   0.006805   0.003092  -0.001835  -0.001466   0.002098
    16  H    0.002681  -0.025926   0.001862   0.000278  -0.000156  -0.000538
    17  H   -0.070116  -0.004643   0.001428   0.000113  -0.000192  -0.000368
    18  H    0.452387  -0.036951   0.000214  -0.000017  -0.000004   0.000025
    19  H    0.441163  -0.049343  -0.000078   0.000052   0.000012  -0.000017
    20  H    0.013258   0.365595  -0.000017   0.000000   0.000001   0.000004
    21  H   -0.119760   0.393832  -0.000010  -0.000000   0.000000   0.000001
    22  H    0.010388   0.391714   0.000020  -0.000000  -0.000001  -0.000003
    23  H    0.000047   0.000001   0.295248   0.033313   0.066452  -0.029762
    24  Cl  -0.000023   0.000000   0.517695  -1.218584  -0.733394   0.384918
    25  C   -0.000201   0.000007  -1.902256   0.820859  -3.592272  -1.502917
    26  H    0.000003   0.000000  -0.008647  -0.062977   0.029945   0.333695
    27  H   -0.000419   0.000049  -0.018762  -0.007465   0.038301  -0.056146
    28  F   -0.000000   0.000000  -0.019987  -0.184533  -0.208240   0.179670
    29  F   -0.000000  -0.000000   0.018936  -0.258600   0.297256   0.057036
    30  F    0.000000   0.000000   0.020210  -0.243248   0.310735   0.034345
              13         14         15         16         17         18
     1  C   -0.460828  -0.056703  -0.030638   0.004672   0.007278  -0.003827
     2  N   -0.025962   0.226420   0.095165   0.011584   0.010408  -0.000688
     3  C    0.132238  -0.035733   0.034222   0.057945   0.079805  -0.017045
     4  O    0.273913  -0.003892  -0.001913  -0.001091  -0.004478  -0.000261
     5  N   -0.074036   0.065726   0.224921  -0.041601  -0.108517   0.003916
     6  C    0.005525   0.020544  -0.088009   0.330961   0.391108  -0.058838
     7  C    0.006194  -0.003466   0.013787   0.002681  -0.070116   0.452387
     8  C   -0.004306   0.000033   0.006805  -0.025926  -0.004643  -0.036951
     9  C   -1.289653  -0.022180   0.003092   0.001862   0.001428   0.000214
    10  C   -6.486785  -0.024836  -0.001835   0.000278   0.000113  -0.000017
    11  C   -2.973305   0.022754  -0.001466  -0.000156  -0.000192  -0.000004
    12  C   -0.365092   0.014028   0.002098  -0.000538  -0.000368   0.000025
    13  C   16.914688   0.058959   0.010816  -0.002179  -0.002633   0.000143
    14  H    0.058959   0.383203   0.000867   0.000009   0.000323   0.000075
    15  H    0.010816   0.000867   0.401624   0.002884   0.001683   0.003676
    16  H   -0.002179   0.000009   0.002884   0.424639  -0.037662   0.005337
    17  H   -0.002633   0.000323   0.001683  -0.037662   0.474560  -0.009543
    18  H    0.000143   0.000075   0.003676   0.005337  -0.009543   0.479070
    19  H   -0.000164  -0.000006  -0.000693  -0.007897   0.006282  -0.045354
    20  H    0.000074  -0.000000   0.000052  -0.000239   0.003331  -0.008628
    21  H    0.000026  -0.000000  -0.000029  -0.000218  -0.000101  -0.003439
    22  H   -0.000052   0.000001  -0.000025   0.003701  -0.000960   0.006744
    23  H   -0.026744   0.008579   0.000020  -0.000000  -0.000000  -0.000000
    24  Cl   0.344409   0.001472   0.000038   0.000001   0.000002   0.000000
    25  C   -0.519338   0.002620  -0.000083  -0.000006  -0.000008  -0.000000
    26  H   -0.038647   0.000001   0.000000  -0.000000  -0.000000   0.000000
    27  H    0.325265   0.000134  -0.000020  -0.000027   0.000020  -0.000000
    28  F    0.203549   0.000002  -0.000000  -0.000000  -0.000000   0.000000
    29  F    0.013663  -0.000000  -0.000000   0.000000  -0.000000   0.000000
    30  F   -0.000992  -0.000000   0.000000  -0.000000  -0.000000  -0.000000
              19         20         21         22         23         24
     1  C    0.004412   0.000209   0.000046  -0.000321  -0.006406  -0.116949
     2  N   -0.000522   0.000030  -0.000011  -0.000075  -0.019811  -0.013191
     3  C    0.030145   0.009847   0.003123  -0.009303  -0.013467  -0.037539
     4  O   -0.000129  -0.000035   0.000025  -0.000086   0.000039  -0.000086
     5  N    0.001739   0.000129  -0.001431   0.000119   0.000058  -0.000333
     6  C   -0.084885  -0.042417   0.075777  -0.047121  -0.000840  -0.001283
     7  C    0.441163   0.013258  -0.119760   0.010388   0.000047  -0.000023
     8  C   -0.049343   0.365595   0.393832   0.391714   0.000001   0.000000
     9  C   -0.000078  -0.000017  -0.000010   0.000020   0.295248   0.517695
    10  C    0.000052   0.000000  -0.000000  -0.000000   0.033313  -1.218584
    11  C    0.000012   0.000001   0.000000  -0.000001   0.066452  -0.733394
    12  C   -0.000017   0.000004   0.000001  -0.000003  -0.029762   0.384918
    13  C   -0.000164   0.000074   0.000026  -0.000052  -0.026744   0.344409
    14  H   -0.000006  -0.000000  -0.000000   0.000001   0.008579   0.001472
    15  H   -0.000693   0.000052  -0.000029  -0.000025   0.000020   0.000038
    16  H   -0.007897  -0.000239  -0.000218   0.003701  -0.000000   0.000001
    17  H    0.006282   0.003331  -0.000101  -0.000960  -0.000000   0.000002
    18  H   -0.045354  -0.008628  -0.003439   0.006744  -0.000000   0.000000
    19  H    0.448147   0.006041  -0.003291  -0.008722   0.000000   0.000000
    20  H    0.006041   0.454051  -0.025684  -0.035962   0.000000  -0.000000
    21  H   -0.003291  -0.025684   0.435264  -0.024136   0.000000  -0.000000
    22  H   -0.008722  -0.035962  -0.024136   0.451998  -0.000000  -0.000000
    23  H    0.000000   0.000000   0.000000  -0.000000   0.421781  -0.015249
    24  Cl   0.000000  -0.000000  -0.000000  -0.000000  -0.015249  17.630517
    25  C    0.000000   0.000000   0.000000  -0.000000   0.032891  -0.192661
    26  H   -0.000000   0.000000  -0.000000   0.000000   0.000044  -0.000175
    27  H    0.000000   0.000000   0.000000  -0.000000  -0.000057   0.000258
    28  F   -0.000000  -0.000000   0.000000  -0.000000   0.000034   0.011385
    29  F   -0.000000  -0.000000   0.000000   0.000000   0.000012  -0.004829
    30  F    0.000000   0.000000   0.000000  -0.000000   0.000017  -0.004885
              25         26         27         28         29         30
     1  C   -1.019550   0.040293  -0.010508   0.032295   0.016707   0.021653
     2  N    0.017704  -0.001819  -0.022848   0.000004  -0.000092  -0.000149
     3  C   -0.002087   0.005343   0.060242   0.000276  -0.000392   0.000214
     4  O    0.001784  -0.000056  -0.000938   0.000001   0.000001  -0.000001
     5  N    0.010569   0.000029   0.002854   0.000005   0.000001   0.000001
     6  C    0.003273   0.000057   0.006168   0.000004  -0.000002   0.000001
     7  C   -0.000201   0.000003  -0.000419  -0.000000  -0.000000   0.000000
     8  C    0.000007   0.000000   0.000049   0.000000  -0.000000   0.000000
     9  C   -1.902256  -0.008647  -0.018762  -0.019987   0.018936   0.020210
    10  C    0.820859  -0.062977  -0.007465  -0.184533  -0.258600  -0.243248
    11  C   -3.592272   0.029945   0.038301  -0.208240   0.297256   0.310735
    12  C   -1.502917   0.333695  -0.056146   0.179670   0.057036   0.034345
    13  C   -0.519338  -0.038647   0.325265   0.203549   0.013663  -0.000992
    14  H    0.002620   0.000001   0.000134   0.000002  -0.000000  -0.000000
    15  H   -0.000083   0.000000  -0.000020  -0.000000  -0.000000   0.000000
    16  H   -0.000006  -0.000000  -0.000027  -0.000000   0.000000  -0.000000
    17  H   -0.000008  -0.000000   0.000020  -0.000000  -0.000000  -0.000000
    18  H   -0.000000   0.000000  -0.000000   0.000000   0.000000  -0.000000
    19  H    0.000000  -0.000000   0.000000  -0.000000  -0.000000   0.000000
    20  H    0.000000   0.000000   0.000000  -0.000000  -0.000000   0.000000
    21  H    0.000000  -0.000000   0.000000   0.000000   0.000000   0.000000
    22  H   -0.000000   0.000000  -0.000000  -0.000000   0.000000  -0.000000
    23  H    0.032891   0.000044  -0.000057   0.000034   0.000012   0.000017
    24  Cl  -0.192661  -0.000175   0.000258   0.011385  -0.004829  -0.004885
    25  C   13.133317   0.019094   0.012818   0.125827   0.008634   0.010470
    26  H    0.019094   0.390788  -0.002057   0.011952   0.000289   0.000191
    27  H    0.012818  -0.002057   0.366440   0.000004   0.000024   0.000034
    28  F    0.125827   0.011952   0.000004   9.060401  -0.035869  -0.036686
    29  F    0.008634   0.000289   0.000024  -0.035869   8.980859  -0.053295
    30  F    0.010470   0.000191   0.000034  -0.036686  -0.053295   8.981321
 Mulliken charges:
               1
     1  C   -0.518226
     2  N   -0.366096
     3  C    0.135376
     4  O   -0.331522
     5  N   -0.276450
     6  C   -0.524195
     7  C   -0.116718
     8  C   -1.018358
     9  C   -0.484607
    10  C    1.013821
    11  C   -1.289682
    12  C   -0.293783
    13  C   -0.018744
    14  H    0.341070
    15  H    0.322963
    16  H    0.270985
    17  H    0.262880
    18  H    0.233005
    19  H    0.263108
    20  H    0.260359
    21  H    0.270015
    22  H    0.262083
    23  H    0.253800
    24  Cl   0.448486
    25  C    0.531512
    26  H    0.282653
    27  H    0.306635
    28  F   -0.140095
    29  F   -0.040338
    30  F   -0.039937
 Sum of Mulliken charges =  -0.00000
 Mulliken charges with hydrogens summed into heavy atoms:
               1
     1  C   -0.518226
     2  N   -0.025026
     3  C    0.135376
     4  O   -0.331522
     5  N    0.046513
     6  C    0.009671
     7  C    0.379395
     8  C   -0.225902
     9  C   -0.230807
    10  C    1.013821
    11  C   -1.289682
    12  C   -0.011130
    13  C    0.287891
    24  Cl   0.448486
    25  C    0.531512
    28  F   -0.140095
    29  F   -0.040338
    30  F   -0.039937
 Electronic spatial extent (au):  <R**2>=           8970.4724
 Charge=             -0.0000 electrons
 Dipole moment (field-independent basis, Debye):
    X=              6.4373    Y=              3.1274    Z=              0.8801  Tot=              7.2107
 Quadrupole moment (field-independent basis, Debye-Ang):
   XX=           -109.9716   YY=           -108.8699   ZZ=           -115.0729
   XY=              9.7094   XZ=              3.1091   YZ=              0.2977
 Traceless Quadrupole moment (field-independent basis, Debye-Ang):
   XX=              1.3332   YY=              2.4349   ZZ=             -3.7681
   XY=              9.7094   XZ=              3.1091   YZ=              0.2977
 Octapole moment (field-independent basis, Debye-Ang**2):
  XXX=            130.1912  YYY=              1.9136  ZZZ=             -0.3946  XYY=            -22.7859
  XXY=             28.8306  XXZ=              9.5628  XZZ=            -15.1860  YZZ=             -4.5224
  YYZ=              2.4952  XYZ=              3.1194
 Hexadecapole moment (field-independent basis, Debye-Ang**3):
 XXXX=          -9696.8241 YYYY=          -1011.5578 ZZZZ=           -210.8206 XXXY=             69.7791
 XXXZ=             28.0351 YYYX=             65.6740 YYYZ=              1.2017 ZZZX=              0.0367
 ZZZY=              0.9687 XXYY=          -1869.9188 XXZZ=          -1737.6842 YYZZ=           -213.0776
 XXYZ=             14.2396 YYXZ=              8.3547 ZZXY=             10.2567
 N-N= 1.425202102008D+03 E-N=-6.080893730406D+03  KE= 1.366905282106D+03
 Calling FoFJK, ICntrl=      2127 FMM=F ISym2X=0 I1Cent= 0 IOpClX= 0 NMat=1 NMatS=1 NMatT=0.
 ***** Axes restored to original set *****
 -------------------------------------------------------------------
 Center     Atomic                   Forces (Hartrees/Bohr)
 Number     Number              X              Y              Z
 -------------------------------------------------------------------
      1        6           0.000002814   -0.000002531    0.000003992
      2        7           0.000002227    0.000013878   -0.000009599
      3        6          -0.000003897    0.000009055   -0.000001464
      4        8          -0.000004128   -0.000018635   -0.000000617
      5        7           0.000010027    0.000009538    0.000013987
      6        6          -0.000004301   -0.000006678   -0.000001502
      7        6          -0.000004609    0.000001408   -0.000000847
      8        6           0.000001049   -0.000000470    0.000000579
      9        6          -0.000007543    0.000001307    0.000001303
     10        6          -0.000002817   -0.000006961   -0.000001854
     11        6           0.000001968    0.000007438   -0.000001793
     12        6          -0.000002324    0.000004397    0.000002724
     13        6           0.000004801   -0.000005968    0.000000183
     14        1           0.000000497   -0.000006303   -0.000003870
     15        1           0.000000220   -0.000004554   -0.000004806
     16        1           0.000001599    0.000001505    0.000002505
     17        1          -0.000000645    0.000002599    0.000000333
     18        1           0.000001786   -0.000001345   -0.000001530
     19        1          -0.000000308   -0.000001867    0.000000298
     20        1          -0.000000397    0.000000015    0.000001147
     21        1          -0.000001280   -0.000002663    0.000000464
     22        1          -0.000000388   -0.000001793    0.000002836
     23        1           0.000001479    0.000000092   -0.000002435
     24       17           0.000001885    0.000000559   -0.000002952
     25        6           0.000010370   -0.000000813    0.000000981
     26        1           0.000002319   -0.000000846    0.000002194
     27        1          -0.000000682    0.000004064    0.000001467
     28        9          -0.000003953    0.000001592    0.000002346
     29        9          -0.000003750    0.000001696   -0.000005953
     30        9          -0.000002022    0.000002284    0.000001881
 -------------------------------------------------------------------
 Cartesian Forces:  Max     0.000018635 RMS     0.000004636

 GradGradGradGradGradGradGradGradGradGradGradGradGradGradGradGradGradGrad
 Berny optimization.
 FormGI is forming the generalized inverse of G from B-inverse, IUseBI=4.
 GSVD:  received Info=                   1 from GESDD.
 Internal  Forces:  Max     0.000018836 RMS     0.000002878
 Search for a local minimum.
 Step number   1 out of a maximum of  157
 All quantities printed in internal units (Hartrees-Bohrs-Radians)
 Mixed Optimization -- En-DIIS/RFO-DIIS
 Second derivative matrix not updated -- first step.
 ITU=  0
     Eigenvalues ---    0.00429   0.00481   0.00732   0.00928   0.01586
     Eigenvalues ---    0.01738   0.01785   0.01811   0.01852   0.01922
     Eigenvalues ---    0.01998   0.02057   0.02118   0.02178   0.02188
     Eigenvalues ---    0.02215   0.02223   0.02238   0.02254   0.03714
     Eigenvalues ---    0.04428   0.04927   0.05503   0.05523   0.05552
     Eigenvalues ---    0.08188   0.09234   0.10641   0.10832   0.12083
     Eigenvalues ---    0.12673   0.14694   0.15903   0.15999   0.16000
     Eigenvalues ---    0.16000   0.16000   0.16000   0.16000   0.21889
     Eigenvalues ---    0.21897   0.22037   0.22307   0.22375   0.23483
     Eigenvalues ---    0.24608   0.24994   0.24996   0.25000   0.25000
     Eigenvalues ---    0.25000   0.25000   0.25000   0.25000   0.29847
     Eigenvalues ---    0.30219   0.31643   0.32110   0.34066   0.34079
     Eigenvalues ---    0.34355   0.34515   0.34527   0.34682   0.34709
     Eigenvalues ---    0.35457   0.35672   0.36221   0.37253   0.42328
     Eigenvalues ---    0.42874   0.45997   0.46146   0.46153   0.46209
     Eigenvalues ---    0.46291   0.46814   0.47269   0.48371   0.50522
     Eigenvalues ---    0.56979   0.56987   0.57027   0.99542
 RFO step:  Lambda=-1.09965847D-08 EMin= 4.29187651D-03
 Linear search not attempted -- first point.
 Iteration  1 RMS(Cart)=  0.00024843 RMS(Int)=  0.00000001
 Iteration  2 RMS(Cart)=  0.00000003 RMS(Int)=  0.00000000
 Variable       Old X    -DE/DX   Delta X   Delta X   Delta X     New X
                                 (Linear)    (Quad)   (Total)
    R1        2.63897  -0.00000   0.00000  -0.00000  -0.00000   2.63896
    R2        2.64664   0.00000   0.00000   0.00001   0.00001   2.64665
    R3        2.64194  -0.00000   0.00000  -0.00000  -0.00000   2.64194
    R4        2.63224  -0.00001   0.00000  -0.00001  -0.00001   2.63222
    R5        1.90659   0.00001   0.00000   0.00001   0.00001   1.90660
    R6        2.28823  -0.00002   0.00000  -0.00002  -0.00002   2.28821
    R7        2.59342   0.00000   0.00000   0.00000   0.00000   2.59342
    R8        2.75466  -0.00001   0.00000  -0.00002  -0.00002   2.75465
    R9        1.90834   0.00001   0.00000   0.00001   0.00001   1.90836
   R10        2.87529  -0.00000   0.00000  -0.00000  -0.00000   2.87528
   R11        2.06194   0.00000   0.00000   0.00001   0.00001   2.06195
   R12        2.07197   0.00000   0.00000   0.00000   0.00000   2.07198
   R13        2.88270  -0.00000   0.00000  -0.00000  -0.00000   2.88269
   R14        2.07218   0.00000   0.00000   0.00000   0.00000   2.07219
   R15        2.06735   0.00000   0.00000   0.00000   0.00000   2.06735
   R16        2.06470   0.00000   0.00000   0.00000   0.00000   2.06470
   R17        2.06150   0.00000   0.00000   0.00000   0.00000   2.06150
   R18        2.06450   0.00000   0.00000   0.00000   0.00000   2.06450
   R19        2.61190  -0.00000   0.00000  -0.00000  -0.00000   2.61190
   R20        2.04940   0.00000   0.00000   0.00000   0.00000   2.04940
   R21        2.63675   0.00001   0.00000   0.00002   0.00002   2.63677
   R22        3.28502  -0.00000   0.00000  -0.00001  -0.00001   3.28501
   R23        2.62820  -0.00000   0.00000  -0.00000  -0.00000   2.62820
   R24        2.83942   0.00000   0.00000   0.00000   0.00000   2.83943
   R25        2.62114   0.00000   0.00000   0.00000   0.00000   2.62114
   R26        2.04598  -0.00000   0.00000  -0.00001  -0.00001   2.04598
   R27        2.03737   0.00000   0.00000   0.00000   0.00000   2.03738
   R28        2.53408   0.00000   0.00000   0.00000   0.00000   2.53408
   R29        2.53414   0.00001   0.00000   0.00001   0.00001   2.53415
   R30        2.53373   0.00000   0.00000   0.00000   0.00000   2.53374
    A1        2.03905   0.00001   0.00000   0.00003   0.00003   2.03907
    A2        2.16403  -0.00001   0.00000  -0.00002  -0.00002   2.16401
    A3        2.07998  -0.00000   0.00000  -0.00000  -0.00000   2.07998
    A4        2.22178  -0.00000   0.00000  -0.00002  -0.00002   2.22175
    A5        2.01382   0.00000   0.00000   0.00000   0.00000   2.01383
    A6        2.03639   0.00000   0.00000  -0.00000  -0.00000   2.03639
    A7        2.16268  -0.00001   0.00000  -0.00002  -0.00002   2.16265
    A8        1.97258   0.00001   0.00000   0.00003   0.00003   1.97261
    A9        2.14764  -0.00000   0.00000  -0.00001  -0.00001   2.14763
   A10        2.07495   0.00000   0.00000   0.00000   0.00000   2.07496
   A11        2.06332  -0.00000   0.00000  -0.00002  -0.00002   2.06330
   A12        2.03004  -0.00000   0.00000  -0.00003  -0.00003   2.03001
   A13        1.92764  -0.00001   0.00000  -0.00003  -0.00003   1.92761
   A14        1.87787   0.00000   0.00000   0.00002   0.00002   1.87788
   A15        1.93075   0.00000   0.00000  -0.00000  -0.00000   1.93075
   A16        1.93015   0.00000   0.00000   0.00000   0.00000   1.93015
   A17        1.93035   0.00000   0.00000   0.00002   0.00002   1.93037
   A18        1.86550  -0.00000   0.00000  -0.00001  -0.00001   1.86549
   A19        1.94593   0.00000   0.00000   0.00001   0.00001   1.94595
   A20        1.91279   0.00000   0.00000   0.00001   0.00001   1.91280
   A21        1.90265  -0.00000   0.00000  -0.00000  -0.00000   1.90265
   A22        1.91101  -0.00000   0.00000  -0.00001  -0.00001   1.91100
   A23        1.92532  -0.00000   0.00000  -0.00001  -0.00001   1.92531
   A24        1.86431   0.00000   0.00000  -0.00000  -0.00000   1.86431
   A25        1.94062  -0.00000   0.00000  -0.00000  -0.00000   1.94062
   A26        1.94198  -0.00000   0.00000  -0.00002  -0.00002   1.94196
   A27        1.93740  -0.00000   0.00000   0.00000   0.00000   1.93740
   A28        1.88073   0.00000   0.00000   0.00001   0.00001   1.88073
   A29        1.87964   0.00000   0.00000   0.00001   0.00001   1.87965
   A30        1.88075   0.00000   0.00000   0.00000   0.00000   1.88075
   A31        2.10512   0.00000   0.00000   0.00000   0.00000   2.10513
   A32        2.10402  -0.00000   0.00000  -0.00001  -0.00001   2.10401
   A33        2.07404   0.00000   0.00000   0.00001   0.00001   2.07405
   A34        2.10822  -0.00000   0.00000  -0.00000  -0.00000   2.10821
   A35        2.05709  -0.00000   0.00000  -0.00001  -0.00001   2.05708
   A36        2.11788   0.00000   0.00000   0.00001   0.00001   2.11789
   A37        2.06054  -0.00000   0.00000  -0.00000  -0.00000   2.06054
   A38        2.12373  -0.00000   0.00000  -0.00001  -0.00001   2.12373
   A39        2.09891   0.00000   0.00000   0.00001   0.00001   2.09892
   A40        2.13216   0.00000   0.00000  -0.00000  -0.00000   2.13216
   A41        2.07586   0.00000   0.00000   0.00001   0.00001   2.07587
   A42        2.07516  -0.00000   0.00000  -0.00001  -0.00001   2.07515
   A43        2.08034   0.00000   0.00000   0.00000   0.00000   2.08035
   A44        2.09956   0.00000   0.00000   0.00002   0.00002   2.09958
   A45        2.10325  -0.00000   0.00000  -0.00002  -0.00002   2.10323
   A46        1.94402   0.00001   0.00000   0.00002   0.00002   1.94405
   A47        1.95875   0.00000   0.00000   0.00001   0.00001   1.95876
   A48        1.95952   0.00000   0.00000   0.00000   0.00000   1.95952
   A49        1.86408  -0.00000   0.00000  -0.00002  -0.00002   1.86407
   A50        1.86433  -0.00001   0.00000  -0.00003  -0.00003   1.86431
   A51        1.86723  -0.00000   0.00000   0.00000   0.00000   1.86723
    D1       -3.03087   0.00000   0.00000   0.00015   0.00015  -3.03073
    D2       -0.05607  -0.00000   0.00000  -0.00001  -0.00001  -0.05609
    D3        0.12816   0.00000   0.00000   0.00010   0.00010   0.12826
    D4        3.10296  -0.00000   0.00000  -0.00006  -0.00006   3.10290
    D5       -3.12280  -0.00000   0.00000  -0.00001  -0.00001  -3.12281
    D6        0.01651  -0.00000   0.00000  -0.00002  -0.00002   0.01649
    D7        0.00223   0.00000   0.00000   0.00004   0.00004   0.00227
    D8        3.14154   0.00000   0.00000   0.00003   0.00003   3.14156
    D9        3.12174   0.00000   0.00000   0.00005   0.00005   3.12179
   D10       -0.02776   0.00000   0.00000   0.00002   0.00002  -0.02774
   D11       -0.00203   0.00000   0.00000  -0.00000  -0.00000  -0.00203
   D12        3.13166  -0.00000   0.00000  -0.00003  -0.00003   3.13163
   D13        0.05020  -0.00001   0.00000  -0.00030  -0.00030   0.04990
   D14       -3.11662  -0.00001   0.00000  -0.00040  -0.00040  -3.11703
   D15       -2.92273  -0.00000   0.00000  -0.00014  -0.00014  -2.92287
   D16        0.19363  -0.00000   0.00000  -0.00024  -0.00024   0.19339
   D17        3.05304  -0.00000   0.00000  -0.00004  -0.00004   3.05300
   D18        0.42578   0.00000   0.00000   0.00007   0.00007   0.42586
   D19       -0.11354  -0.00000   0.00000  -0.00014  -0.00014  -0.11368
   D20       -2.74079  -0.00000   0.00000  -0.00003  -0.00003  -2.74082
   D21        2.99278   0.00000   0.00000   0.00009   0.00009   2.99287
   D22        0.88454   0.00000   0.00000   0.00009   0.00009   0.88463
   D23       -1.14735   0.00000   0.00000   0.00009   0.00009  -1.14725
   D24       -0.65357  -0.00000   0.00000  -0.00001  -0.00001  -0.65358
   D25       -2.76181  -0.00000   0.00000  -0.00001  -0.00001  -2.76182
   D26        1.48949  -0.00000   0.00000  -0.00001  -0.00001   1.48948
   D27       -3.13602  -0.00000   0.00000   0.00005   0.00005  -3.13597
   D28        1.02852   0.00000   0.00000   0.00005   0.00005   1.02857
   D29       -1.00624  -0.00000   0.00000   0.00004   0.00004  -1.00620
   D30       -1.05926   0.00000   0.00000   0.00005   0.00005  -1.05920
   D31        3.10528   0.00000   0.00000   0.00005   0.00005   3.10533
   D32        1.07052  -0.00000   0.00000   0.00005   0.00005   1.07056
   D33        1.00388   0.00000   0.00000   0.00005   0.00005   1.00393
   D34       -1.11477   0.00000   0.00000   0.00006   0.00006  -1.11472
   D35        3.13365   0.00000   0.00000   0.00005   0.00005   3.13370
   D36       -1.04654  -0.00000   0.00000   0.00004   0.00004  -1.04650
   D37        3.14005  -0.00000   0.00000   0.00005   0.00005   3.14010
   D38        1.04561   0.00000   0.00000   0.00005   0.00005   1.04566
   D39        1.07314   0.00000   0.00000   0.00006   0.00006   1.07319
   D40       -1.02345   0.00000   0.00000   0.00006   0.00006  -1.02339
   D41       -3.11790   0.00000   0.00000   0.00007   0.00007  -3.11783
   D42        3.12001  -0.00000   0.00000   0.00004   0.00004   3.12005
   D43        1.02342  -0.00000   0.00000   0.00004   0.00004   1.02347
   D44       -1.07103   0.00000   0.00000   0.00005   0.00005  -1.07098
   D45       -0.00130  -0.00000   0.00000  -0.00004  -0.00004  -0.00134
   D46        3.14033  -0.00000   0.00000  -0.00001  -0.00001   3.14032
   D47       -3.14065  -0.00000   0.00000  -0.00003  -0.00003  -3.14068
   D48        0.00098   0.00000   0.00000   0.00000   0.00000   0.00099
   D49        0.00017   0.00000   0.00000   0.00001   0.00001   0.00018
   D50        3.14131   0.00000   0.00000   0.00002   0.00002   3.14133
   D51       -3.14146  -0.00000   0.00000  -0.00003  -0.00003  -3.14149
   D52       -0.00032  -0.00000   0.00000  -0.00001  -0.00001  -0.00033
   D53        0.00001   0.00000   0.00000   0.00003   0.00003   0.00004
   D54       -3.14037   0.00000   0.00000   0.00001   0.00001  -3.14036
   D55       -3.14114   0.00000   0.00000   0.00001   0.00001  -3.14112
   D56        0.00167  -0.00000   0.00000  -0.00001  -0.00001   0.00167
   D57       -3.14050  -0.00000   0.00000  -0.00003  -0.00003  -3.14053
   D58       -1.05138  -0.00000   0.00000  -0.00003  -0.00003  -1.05140
   D59        1.05272   0.00000   0.00000  -0.00002  -0.00002   1.05271
   D60        0.00063  -0.00000   0.00000  -0.00001  -0.00001   0.00062
   D61        2.08975  -0.00000   0.00000  -0.00001  -0.00001   2.08974
   D62       -2.08934   0.00000   0.00000   0.00000   0.00000  -2.08933
   D63        0.00094  -0.00000   0.00000  -0.00003  -0.00003   0.00090
   D64       -3.13273  -0.00000   0.00000  -0.00001  -0.00001  -3.13274
   D65        3.14131  -0.00000   0.00000  -0.00001  -0.00001   3.14130
   D66        0.00764   0.00000   0.00000   0.00001   0.00001   0.00766
         Item               Value     Threshold  Converged?
 Maximum Force            0.000019     0.000450     YES
 RMS     Force            0.000003     0.000300     YES
 Maximum Displacement     0.001049     0.001800     YES
 RMS     Displacement     0.000248     0.001200     YES
 Predicted change in Energy=-5.498262D-09
 Optimization completed.
    -- Stationary point found.
                           ----------------------------
                           !   Optimized Parameters   !
                           ! (Angstroms and Degrees)  !
 --------------------------                            --------------------------
 ! Name  Definition              Value          Derivative Info.                !
 --------------------------------------------------------------------------------
 ! R1    R(1,2)                  1.3965         -DE/DX =    0.0                 !
 ! R2    R(1,9)                  1.4005         -DE/DX =    0.0                 !
 ! R3    R(1,13)                 1.3981         -DE/DX =    0.0                 !
 ! R4    R(2,3)                  1.3929         -DE/DX =    0.0                 !
 ! R5    R(2,14)                 1.0089         -DE/DX =    0.0                 !
 ! R6    R(3,4)                  1.2109         -DE/DX =    0.0                 !
 ! R7    R(3,5)                  1.3724         -DE/DX =    0.0                 !
 ! R8    R(5,6)                  1.4577         -DE/DX =    0.0                 !
 ! R9    R(5,15)                 1.0099         -DE/DX =    0.0                 !
 ! R10   R(6,7)                  1.5215         -DE/DX =    0.0                 !
 ! R11   R(6,16)                 1.0911         -DE/DX =    0.0                 !
 ! R12   R(6,17)                 1.0964         -DE/DX =    0.0                 !
 ! R13   R(7,8)                  1.5255         -DE/DX =    0.0                 !
 ! R14   R(7,18)                 1.0966         -DE/DX =    0.0                 !
 ! R15   R(7,19)                 1.094          -DE/DX =    0.0                 !
 ! R16   R(8,20)                 1.0926         -DE/DX =    0.0                 !
 ! R17   R(8,21)                 1.0909         -DE/DX =    0.0                 !
 ! R18   R(8,22)                 1.0925         -DE/DX =    0.0                 !
 ! R19   R(9,10)                 1.3822         -DE/DX =    0.0                 !
 ! R20   R(9,23)                 1.0845         -DE/DX =    0.0                 !
 ! R21   R(10,11)                1.3953         -DE/DX =    0.0                 !
 ! R22   R(10,24)                1.7384         -DE/DX =    0.0                 !
 ! R23   R(11,12)                1.3908         -DE/DX =    0.0                 !
 ! R24   R(11,25)                1.5026         -DE/DX =    0.0                 !
 ! R25   R(12,13)                1.387          -DE/DX =    0.0                 !
 ! R26   R(12,26)                1.0827         -DE/DX =    0.0                 !
 ! R27   R(13,27)                1.0781         -DE/DX =    0.0                 !
 ! R28   R(25,28)                1.341          -DE/DX =    0.0                 !
 ! R29   R(25,29)                1.341          -DE/DX =    0.0                 !
 ! R30   R(25,30)                1.3408         -DE/DX =    0.0                 !
 ! A1    A(2,1,9)              116.8287         -DE/DX =    0.0                 !
 ! A2    A(2,1,13)             123.9897         -DE/DX =    0.0                 !
 ! A3    A(9,1,13)             119.1742         -DE/DX =    0.0                 !
 ! A4    A(1,2,3)              127.2984         -DE/DX =    0.0                 !
 ! A5    A(1,2,14)             115.3835         -DE/DX =    0.0                 !
 ! A6    A(3,2,14)             116.6767         -DE/DX =    0.0                 !
 ! A7    A(2,3,4)              123.9124         -DE/DX =    0.0                 !
 ! A8    A(2,3,5)              113.0205         -DE/DX =    0.0                 !
 ! A9    A(4,3,5)              123.0505         -DE/DX =    0.0                 !
 ! A10   A(3,5,6)              118.886          -DE/DX =    0.0                 !
 ! A11   A(3,5,15)             118.2195         -DE/DX =    0.0                 !
 ! A12   A(6,5,15)             116.313          -DE/DX =    0.0                 !
 ! A13   A(5,6,7)              110.4456         -DE/DX =    0.0                 !
 ! A14   A(5,6,16)             107.594          -DE/DX =    0.0                 !
 ! A15   A(5,6,17)             110.624          -DE/DX =    0.0                 !
 ! A16   A(7,6,16)             110.5893         -DE/DX =    0.0                 !
 ! A17   A(7,6,17)             110.6012         -DE/DX =    0.0                 !
 ! A18   A(16,6,17)            106.8854         -DE/DX =    0.0                 !
 ! A19   A(6,7,8)              111.4938         -DE/DX =    0.0                 !
 ! A20   A(6,7,18)             109.5947         -DE/DX =    0.0                 !
 ! A21   A(6,7,19)             109.0139         -DE/DX =    0.0                 !
 ! A22   A(8,7,18)             109.4929         -DE/DX =    0.0                 !
 ! A23   A(8,7,19)             110.3128         -DE/DX =    0.0                 !
 ! A24   A(18,7,19)            106.8173         -DE/DX =    0.0                 !
 ! A25   A(7,8,20)             111.1895         -DE/DX =    0.0                 !
 ! A26   A(7,8,21)             111.2671         -DE/DX =    0.0                 !
 ! A27   A(7,8,22)             111.0046         -DE/DX =    0.0                 !
 ! A28   A(20,8,21)            107.7577         -DE/DX =    0.0                 !
 ! A29   A(20,8,22)            107.6957         -DE/DX =    0.0                 !
 ! A30   A(21,8,22)            107.759          -DE/DX =    0.0                 !
 ! A31   A(1,9,10)             120.6146         -DE/DX =    0.0                 !
 ! A32   A(1,9,23)             120.5517         -DE/DX =    0.0                 !
 ! A33   A(10,9,23)            118.8335         -DE/DX =    0.0                 !
 ! A34   A(9,10,11)            120.792          -DE/DX =    0.0                 !
 ! A35   A(9,10,24)            117.8626         -DE/DX =    0.0                 !
 ! A36   A(11,10,24)           121.3454         -DE/DX =    0.0                 !
 ! A37   A(10,11,12)           118.0602         -DE/DX =    0.0                 !
 ! A38   A(10,11,25)           121.6809         -DE/DX =    0.0                 !
 ! A39   A(12,11,25)           120.2589         -DE/DX =    0.0                 !
 ! A40   A(11,12,13)           122.1639         -DE/DX =    0.0                 !
 ! A41   A(11,12,26)           118.9381         -DE/DX =    0.0                 !
 ! A42   A(13,12,26)           118.8979         -DE/DX =    0.0                 !
 ! A43   A(1,13,12)            119.1949         -DE/DX =    0.0                 !
 ! A44   A(1,13,27)            120.2959         -DE/DX =    0.0                 !
 ! A45   A(12,13,27)           120.5076         -DE/DX =    0.0                 !
 ! A46   A(11,25,28)           111.3843         -DE/DX =    0.0                 !
 ! A47   A(11,25,29)           112.2283         -DE/DX =    0.0                 !
 ! A48   A(11,25,30)           112.2722         -DE/DX =    0.0                 !
 ! A49   A(28,25,29)           106.8041         -DE/DX =    0.0                 !
[...]
 .00001111,0.00000928,-0.00009087,0.00005911,-0.00000113,-0.00001452,0.
 00001087,-0.00005126,-0.00002772,0.00001259,-0.00000101,0.00001301,0.0
 0000565,0.00000481,0.00000343,-0.00000732,0.00000460,-0.00000993,0.000
 00114,-0.00003449,0.00000992,-0.00000213,0.00000659,-0.00000943,0.0000
 0294,0.00085040,0.00130194,-0.00068230,0.09973127,0.12200840,-0.000265
 30,0.00053054,0.00572601,0.00026362,0.00007413,0.00001473,-0.00028778,
 0.00001772,-0.00016819,0.00011951,-0.00003270,0.00005170,0.00016494,-0
 .00007445,0.00001554,-0.00004925,-0.00002837,-0.00000162,0.00000423,0.
 00001746,-0.00000380,0.00000124,-0.00000969,0.00000292,0.00225257,0.00
 141865,0.00385128,0.01371056,0.01360286,-0.02539853,0.00533163,0.00403
 677,0.00260369,-0.00070014,0.00137953,0.00398429,0.00020558,-0.0000311
 4,-0.00102331,0.00000270,0.00003055,0.00001578,-0.00000716,0.00002264,
 -0.00001618,0.00000182,0.00000280,-0.00000189,0.00000901,0.00000599,-0
 .00000233,0.00000047,-0.00000206,-0.00000066,-0.00000127,-0.00000057,0
 .00000224,-0.00000086,0.00000148,0.00000009,0.00000730,-0.00000170,0.0
 0000022,-0.00000110,0.00000225,-0.00000040,-0.00022659,-0.00063219,-0.
 00278686,-0.02073989,-0.02069499,0.01659214,-0.00982690,0.00268522,0.0
 0019503,0.01327111,-0.00211820,-0.00042869,-0.00987270,-0.00328083,0.0
 0069850,0.00230047,0.00214049,-0.00025741,0.00405005,-0.00158056,0.000
 63090,-0.00131331,-0.00056729,-0.00006398,0.00009572,0.00033568,-0.000
 08580,0.00002279,-0.00021082,0.00003197,0.00788492,-0.00293489,0.00044
 763,0.00924434,0.02294798,-0.00398670,-0.19324922,0.04042389,-0.002377
 60,-0.02892207,0.00374394,0.00033567,0.00251531,-0.00693405,0.00109456
 ,0.00018309,0.00051400,-0.00007294,-0.00014636,0.00047961,-0.00022367,
 0.00007192,0.00006089,-0.00002845,0.00032086,0.00011871,-0.00010308,-0
 .00000569,-0.00003401,0.00000588,-0.00003790,-0.00000872,0.00000153,-0
 .00001388,0.00004542,-0.00002411,0.00015651,-0.00004424,0.00000837,-0.
 00002027,0.00005150,0.00000322,0.00137162,-0.00091366,0.00011516,-0.00
 774928,-0.00545422,0.00099791,0.60058431,0.00297093,-0.00456098,0.0004
 1482,-0.00560953,0.00053208,-0.00000651,0.00421944,0.00196140,-0.00029
 160,-0.00107937,-0.00127582,0.00008497,-0.00167371,0.00051786,-0.00020
 661,0.00057830,0.00027152,0.00000895,-0.00005015,-0.00012137,0.0000443
 2,-0.00000240,0.00008684,-0.00001186,-0.00131476,-0.00612019,0.0017918
 9,0.03202533,-0.00991842,0.00019691,0.04832161,-0.11514252,0.00637436,
 -0.00658333,0.02056896,-0.00284343,-0.00778553,-0.00212242,0.00163136,
 -0.00002806,-0.00017391,0.00005246,0.00007812,-0.00017618,0.00007612,-
 0.00003999,-0.00002423,-0.00000256,-0.00014059,-0.00004525,0.00005975,
 0.00000281,-0.00000054,-0.00001964,0.00001844,0.00000274,0.00001175,0.
 00000137,-0.00001417,0.00001833,-0.00005933,0.00001254,-0.00000139,0.0
 0000196,-0.00002473,-0.00001305,0.00114215,-0.00012049,0.00016192,-0.0
 0042025,-0.00172290,-0.00011567,-0.02973860,0.56405514,-0.00023444,0.0
 0051448,-0.00076673,0.00039772,-0.00018058,-0.00095326,-0.00030174,-0.
 00003755,0.00008482,0.00015498,-0.00000766,-0.00022204,0.00016056,-0.0
 0002127,0.00000816,-0.00005456,-0.00002119,0.00008059,0.00000548,0.000
 01236,0.00001400,0.00000132,-0.00000379,0.00000897,0.00015059,0.001916
 10,0.00495598,-0.00545241,0.00051841,-0.00216532,-0.00366071,0.0066365
 5,-0.06641465,0.00194086,-0.00331137,0.00115022,0.00141509,0.00155451,
 0.00619948,0.00001107,0.00006418,0.00015290,-0.00000596,-0.00000515,0.
 00007914,-0.00000240,-0.00001231,-0.00000333,0.00002131,0.00001393,-0.
 00003045,-0.00000217,-0.00001466,-0.00000476,-0.00000392,0.00001087,-0
 .00001517,0.00000636,0.00000716,-0.00001259,0.00000337,0.00000069,0.00
 000395,-0.00000445,-0.00000807,-0.00000236,-0.00019319,0.00021971,0.00
 104349,0.00018079,0.00004069,-0.00288144,0.00184890,-0.00689494,0.5173
 2239,-0.00501145,0.00230613,0.00012074,0.00017464,0.00132192,-0.000292
 47,0.00046530,0.00051056,0.00000106,-0.00002540,-0.00038478,0.00003451
 ,-0.00012961,-0.00009257,0.00001477,0.00003412,0.00003017,-0.00000818,
 -0.00001023,-0.00000942,0.00000394,-0.00000040,0.00000618,-0.00000083,
 -0.00131984,-0.00020827,0.00002931,-0.00323036,-0.00204597,0.00062614,
 0.00758484,-0.02399881,0.00365756,-0.06280035,0.03549563,-0.00484754,0
 .00069780,0.02842605,-0.00443603,-0.00038861,0.00018072,0.00000837,0.0
 0002879,-0.00001771,-0.00002327,-0.00000732,-0.00000131,-0.00000298,-0
 .00001258,-0.00000183,0.00000724,0.00000131,-0.00000168,-0.00000176,0.
 00000206,-0.00000081,0.00000182,-0.00000096,0.00000036,0.00000158,-0.0
 0000239,-0.00000150,0.00000038,-0.00000103,-0.00000063,-0.00000177,0.0
 0005497,0.00002715,-0.00001390,-0.00058655,-0.00170217,0.00029667,-0.0
 0011082,-0.00396660,0.00054578,0.06654613,0.00132921,0.00117882,0.0009
 1318,0.00006616,-0.00032936,0.00005837,-0.00023266,-0.00019855,0.00002
 491,0.00001781,0.00013123,-0.00000812,0.00007948,0.00000897,-0.0000025
 9,-0.00001939,-0.00001368,0.00000547,0.00000397,0.00000600,-0.00000190
 ,0.00000050,-0.00000340,0.00000093,0.00001718,0.00063151,-0.00024960,-
 0.00264208,0.00019253,0.00098336,0.00250545,-0.01349741,0.00274803,0.0
 3386211,-0.33973517,0.04614462,-0.00019386,-0.00552328,0.00160623,0.00
 009275,0.00000387,-0.00004686,-0.00000804,0.00000876,0.00000303,0.0000
 0322,0.00000131,-0.00000057,0.00000737,0.00000216,-0.00000266,-0.00000
 043,-0.00000072,0.00000042,-0.00000092,0.00000007,-0.00000067,0.000000
 23,0.00000056,-0.00000058,0.00000179,0.,-0.00000003,0.00000002,0.00000
 041,0.,0.00002476,-0.00006841,-0.00004666,-0.00007420,-0.00062334,0.00
 013939,0.00062762,-0.00289684,-0.00000425,-0.03883393,0.35807312,0.000
 20896,0.00087695,0.00723029,-0.00003367,0.00006118,-0.00007551,0.00001
 675,0.00004218,0.00007762,-0.00005497,-0.00000415,-0.00000645,-0.00001
 435,0.00000056,-0.00003440,0.00000252,0.00000100,0.00002521,0.00000080
 ,-0.00000020,0.00000105,-0.00000013,0.00000083,0.00000204,-0.00004781,
 -0.00025887,-0.00088394,0.00075574,0.00093896,0.00567964,-0.00051595,0
 .00368179,0.00399900,-0.00460307,0.04601358,-0.04668934,0.00010323,0.0
 0061583,0.00454022,-0.00001735,-0.00003854,-0.00022731,0.00000110,0.00
 000289,-0.00000371,-0.00000087,0.00000038,-0.00000015,0.00000116,-0.00
 000072,-0.00000329,0.00000006,-0.00000231,-0.00000122,-0.00000024,0.00
 000244,-0.00000159,0.00000071,0.00000049,-0.00000153,-0.00000041,0.000
 00024,0.00000010,-0.00000083,-0.00000139,-0.00000058,-0.00001958,-0.00
 004680,-0.00035564,0.00004111,0.00019855,0.00022092,-0.00015460,0.0000
 9520,-0.00285244,0.00487815,-0.05081814,0.03500540,0.01172390,0.003703
 14,-0.00090049,-0.00323521,-0.00194375,0.00008218,0.00213549,0.0074508
 9,-0.00031349,-0.00877138,-0.00221374,-0.00057804,0.00023576,-0.001420
 12,0.00015238,-0.00030651,-0.00011434,-0.00001383,-0.00000427,0.000043
 33,-0.00001630,0.00000466,-0.00003403,0.00000685,0.00012673,0.00195654
 ,-0.00028392,-0.00009152,0.00061789,-0.00011325,-0.00289729,0.00290518
 ,-0.00029943,-0.01603310,-0.01593695,0.00307774,-0.24321395,-0.1489039
 4,0.02926821,-0.00010117,-0.00016322,0.00007543,0.00018728,-0.00000766
 ,-0.00009820,-0.00002970,0.00002052,-0.00001010,0.00000587,0.00004908,
 -0.00000610,0.00000565,-0.00001438,-0.00000188,-0.00000071,-0.00000430
 ,0.00000340,-0.00000257,0.00000903,-0.00000139,0.00002644,-0.00000805,
 0.00000175,-0.00000473,0.00000873,-0.00000308,0.00042674,0.00052445,-0
 .00005282,0.00030142,0.00014976,-0.00003936,-0.00005362,-0.00108750,0.
 00016952,0.00086147,0.00010523,-0.00005836,0.25913507,-0.02594168,-0.0
 1299725,0.00348075,0.00103160,0.00194863,-0.00083757,0.00032145,-0.005
 42574,0.00030406,-0.00155619,0.00263997,-0.00055919,-0.00036380,0.0009
 9055,-0.00001557,0.00023912,0.00011153,0.00001238,0.00000061,-0.000028
 72,0.00002406,0.00000117,0.00003150,-0.00000502,0.00192051,-0.00464920
 ,0.00157964,0.00115028,-0.00107519,0.00002881,0.00353310,0.00009518,0.
 00089604,0.01211683,0.01253920,-0.00181687,-0.14513467,-0.17319453,0.0
 2462830,-0.00008894,-0.00001966,-0.00006504,-0.00010678,0.00004732,0.0
 0011293,0.00002337,-0.00000443,0.00000768,-0.00002088,-0.00002939,0.00
 000738,-0.00000994,0.00000855,-0.00000373,-0.00000014,0.00000514,-0.00
 000211,0.00000154,-0.00000476,0.00000485,-0.00002335,0.00000352,-0.000
 00103,0.00000101,-0.00000852,-0.00000327,-0.00113846,-0.00067579,0.000
 14387,-0.00011410,0.00013852,-0.00011303,0.00008959,0.00088944,-0.0000
 7093,-0.00034441,0.00060047,-0.00075301,0.15396704,0.17837280,0.003840
 60,0.00261047,0.00388081,-0.00064905,-0.00087308,-0.00351057,0.0004435
 8,0.00195008,-0.00004907,-0.00005703,-0.00106566,-0.00060573,0.0000867
 5,-0.00033017,0.00036473,-0.00008416,-0.00002017,0.00015244,0.00000730
 ,0.00001334,-0.00001640,0.00000118,-0.00000600,0.00000674,-0.00009746,
 0.00168139,0.00577115,-0.00027645,0.00008743,-0.00075786,-0.00015420,0
 .00079903,0.00686905,-0.00093782,-0.00065975,0.00291138,0.02789271,0.0
 2370717,-0.04148500,-0.00004025,-0.00004024,-0.00027023,-0.00001471,-0
 .00003269,0.00010876,0.00000681,-0.00002624,-0.00001962,0.00000910,0.0
 0001561,-0.00004883,0.00000182,-0.00001278,-0.00000053,-0.00000614,0.0
 0001046,-0.00000924,0.00000471,0.00000324,-0.00000662,0.00000530,-0.00
 000073,-0.00000105,-0.00000414,-0.00000186,-0.00000193,0.00016747,0.00
 010113,-0.00008355,-0.00001300,-0.00012999,-0.00061231,-0.00002146,0.0
 0001380,0.00052342,-0.00012095,-0.00081795,-0.00444091,-0.02999454,-0.
 02703456,0.03118021,0.00105411,-0.00016093,-0.00006076,-0.00168242,0.0
 0029301,0.00002898,0.00157445,0.00029058,-0.00008280,-0.00047914,-0.00
 021401,0.00001458,-0.00070862,0.00028974,-0.00010126,0.00024311,0.0001
 0859,0.00000526,-0.00001655,-0.00005909,0.00001488,-0.00000349,0.00003
 824,-0.00000463,-0.00034699,0.00208187,-0.00032463,-0.00695362,-0.0022
 1412,0.00063241,0.00199699,0.03596036,-0.00555124,-0.00422950,0.000402
 14,0.00002845,0.00069762,0.00160479,-0.00020064,-0.00002048,-0.0000545
 5,0.00001273,0.00003012,-0.00007555,0.00003334,-0.00000932,-0.00001278
 ,0.00000536,-0.00005365,-0.00002313,0.00001873,0.00000057,0.00000587,-
 0.00000178,0.00000669,0.00000196,0.00000014,0.00000279,-0.00000876,0.0
 0000478,-0.00002909,0.00000877,-0.00000167,0.00000388,-0.00001000,-0.0
 0000076,-0.00051514,0.00022806,-0.00002423,0.00115077,0.00044867,-0.00
 010249,-0.08340956,0.01451119,-0.00199283,-0.00352666,0.00352588,-0.00
 046351,0.00009655,-0.00003697,0.00001412,0.09001126,-0.00246187,0.0007
 8174,0.00005800,0.00315932,0.00004706,-0.00012728,-0.00238770,-0.00126
 666,0.00017796,0.00056023,0.00086822,-0.00007370,0.00092859,-0.0002273
 5,0.00010290,-0.00032244,-0.00015723,-0.00000125,0.00003070,0.00006823
 ,-0.00002136,0.00000088,-0.00004841,0.00000677,0.00054745,-0.00152818,
 0.00015748,0.00642872,0.00219376,-0.00023296,0.00377975,-0.04025488,0.
 00758469,-0.00519632,-0.00384531,0.00085740,0.00137616,0.00047707,-0.0
 0019902,-0.00012175,0.00010130,-0.00002856,-0.00005572,0.00009473,-0.0
 0002792,0.00002392,0.00001324,0.00000187,0.00007912,0.00002523,-0.0000
 3598,-0.00000225,0.00000045,0.00001097,-0.00001113,-0.00000087,-0.0000
 0838,-0.00000026,0.00000812,-0.00001138,0.00003297,-0.00000678,0.00000
 100,-0.00000091,0.00001340,0.00000759,0.00066440,-0.00026234,-0.000030
 98,0.00035680,0.00061466,-0.00007183,0.02300753,-0.27272566,0.03101252
 ,0.00213646,0.00158767,-0.00036371,0.00016521,-0.00012378,0.00001198,0
 .01736182,0.40294988,0.00036513,-0.00012133,0.00001208,-0.00044557,-0.
 00001011,0.00003752,0.00032534,0.00018100,-0.00000156,-0.00007554,-0.0
 0010889,0.00004045,-0.00013186,0.00002686,-0.00000228,0.00004593,0.000
 02072,-0.00001044,-0.00000493,-0.00001079,-0.00000122,-0.00000014,0.00
 000668,-0.00000358,-0.00008691,0.00011327,-0.00041078,-0.00075314,0.00
 000517,0.00179115,-0.00038299,0.00662571,0.00744947,0.00096962,0.00064
 749,0.00021107,-0.00024789,-0.00011018,0.00008008,0.00001824,-0.000024
 25,-0.00004705,0.00000648,-0.00001149,-0.00000872,-0.00000209,0.000000
 41,-0.00000019,-0.00001383,-0.00000527,0.00000873,0.00000082,0.0000027
 7,-0.00000011,0.00000170,-0.00000238,0.00000359,-0.00000099,-0.0000021
 1,0.00000343,-0.00000431,0.00000055,-0.00000070,0.00000082,-0.00000008
 ,-0.00000044,-0.00009825,-0.00001194,-0.00028336,-0.00008575,-0.000070
 14,0.00026997,-0.00338230,0.03121807,-0.07831511,-0.00024651,-0.000420
 20,-0.00033558,-0.00003157,0.00002072,0.00000818,-0.00302828,-0.051623
 70,0.09001439,0.00290760,-0.00210811,-0.00008853,-0.00449695,0.0008890
 7,-0.00003541,0.00338655,0.00095944,-0.00028346,-0.00082309,-0.0006194
 1,0.00008117,-0.00141921,0.00059594,-0.00018096,0.00046045,0.00019831,
 0.00002021,-0.00003161,-0.00011734,0.00002667,-0.00000786,0.00007248,-
 0.00001165,-0.00146770,0.00029252,0.00114803,-0.00283039,-0.00650051,0
 .00112481,-0.03159792,-0.01397488,-0.03476773,0.00043758,0.00480270,-0
 .00270895,-0.00209675,0.00178339,0.00184500,-0.00010795,-0.00017268,-0
 .00002054,0.00003790,-0.00016461,0.00007663,-0.00001968,-0.00002233,0.
 00001012,-0.00011441,-0.00004348,0.00003599,0.00000136,0.00001566,0.,0
 .00001380,0.00000127,0.00000071,0.00000460,-0.00001715,0.00000935,-0.0
 0005483,0.00001543,-0.00000378,0.00000802,-0.00001623,0.00000010,-0.00
 023294,0.00022334,0.00003993,0.00236897,0.00238051,-0.00114972,-0.1595
 2439,-0.03799418,-0.09193962,0.00034161,-0.00028968,-0.00103727,-0.000
 27602,0.00027546,0.00022716,0.00169061,-0.02833212,-0.00979467,0.17268
 875,0.00013783,0.00047555,-0.00004247,0.00008927,0.00013745,0.00002057
 ,-0.00014926,-0.00018673,-0.00002779,0.00004129,0.00013055,0.00001665,
 0.00005327,0.00001718,-0.00000566,-0.00002834,-0.00001936,0.00000038,0
 .00000373,0.00000054,-0.00000396,-0.00000172,-0.00000356,-0.00000050,-
 0.00039210,0.00092375,0.00010769,-0.00326747,-0.00239361,-0.00020476,0
 .00284036,0.01163374,0.00093832,0.00008438,-0.00123213,0.00093106,0.00
 071492,0.00042307,-0.00026899,-0.00003755,-0.00001007,-0.00001487,-0.0
 0001041,0.00000075,-0.00000299,0.00000340,0.00000233,0.00000295,0.0000
 0427,0.00000021,-0.00000422,0.00000037,0.00000417,0.00000482,-0.000001
 64,-0.00000085,-0.00000230,0.00000040,-0.00000065,-0.00000164,0.000001
 50,0.,-0.00000053,0.00000143,0.00000268,0.00000299,-0.00020022,0.00008
 074,0.00001384,0.00273399,-0.00174229,0.00183701,-0.03758379,-0.095622
 26,-0.04704338,0.00065082,0.00024116,-0.00014656,0.00006077,-0.0000802
 5,-0.00008775,-0.04101175,-0.05823917,-0.04110821,0.07468806,0.1347824
 3,0.00117430,-0.00075994,-0.00018635,-0.00163508,0.00036374,0.00008871
 ,0.00130328,0.00021365,-0.00012872,-0.00038267,-0.00013036,0.00006939,
 -0.00058668,0.00026236,-0.00005276,0.00018918,0.00008317,-0.00000693,-
 0.00001320,-0.00005016,0.00000435,-0.00000381,0.00003000,-0.00000895,-
 0.00069761,0.00035671,0.00028671,-0.00059672,-0.00270355,0.00107599,-0
 .01599758,-0.00841463,-0.00548599,-0.00153246,0.00282990,-0.00135918,-
 0.00103341,0.00001932,0.00065110,-0.00003470,-0.00006267,-0.00005822,0
 .00001139,-0.00006118,0.00000879,-0.00000352,-0.00000701,0.00000602,-0
 .00004994,-0.00002227,0.00001957,0.00000049,0.00001227,0.00000299,0.00
 000586,-0.00000293,0.00000402,0.00000019,-0.00000915,0.00000646,-0.000
 02256,0.00000610,-0.00000288,0.00000464,-0.00000379,0.00000151,-0.0001
 0743,0.00009470,-0.00008346,0.00048330,0.00225333,-0.00083730,-0.09159
 225,-0.04437756,-0.17256563,0.00029717,-0.00001446,-0.00042692,-0.0001
 8053,0.00019061,0.00007688,-0.00892982,-0.02845962,0.00421051,0.132320
 19,0.09747843,0.25981621,0.00287620,-0.00198753,0.00039194,-0.00436176
 ,0.00088899,0.00026173,0.00327283,0.00094879,-0.00020486,-0.00085584,-
 0.00060097,0.00006548,-0.00136599,0.00056561,-0.00026096,0.00044285,0.
 00018645,0.00002935,-0.00003158,-0.00011363,0.00003298,-0.00000850,0.0
 0007176,-0.00001001,-0.00150159,-0.00009874,-0.00112432,-0.00275328,-0
 .00631561,0.00110974,-0.02825090,-0.00190851,0.03863573,0.00068232,0.0
 0524816,0.00108064,-0.00219880,0.00116626,-0.00211725,-0.00010603,-0.0
 0016335,0.00005906,0.00004995,-0.00016401,0.00008623,-0.00002670,-0.00
 001954,0.00001123,-0.00010386,-0.00003946,0.00003248,0.00000223,0.0000
 0974,-0.00000262,0.00001190,0.00000512,-0.00000363,0.00000556,-0.00001
 460,0.00000613,-0.00005357,0.00001550,-0.00000213,0.00000668,-0.000018
 94,-0.00000110,-0.00022686,0.00019403,-0.00008585,0.00233372,0.0025200
 4,0.00020115,-0.14781706,-0.00629778,0.09683471,0.00037154,0.00002447,
 0.00101268,-0.00025126,0.00020761,-0.00023726,0.00342472,-0.02174755,0
 .01708344,0.02075389,0.00057421,-0.01239001,0.15567922,-0.00027797,0.0
 0067550,-0.00021220,0.00063185,0.00001161,-0.00001193,-0.00056997,-0.0
 0023602,0.00005374,0.00018416,0.00016094,-0.00002071,0.00024324,-0.000
 06706,0.00003394,-0.00009068,-0.00004470,0.00000037,0.00000833,0.00001
 699,-0.00000688,0.00000001,-0.00001297,0.00000251,-0.00014075,0.000726
 23,-0.00021511,-0.00282790,-0.00107743,0.00109983,0.00765536,0.0121028
 5,-0.00754862,0.00047387,-0.00241978,-0.00067690,0.00105286,0.00049115
 ,0.00026342,-0.00002398,0.00000702,-0.00001149,-0.00001618,0.00002081,
 -0.00000485,0.00000580,0.00000341,0.00000051,0.00002012,0.00000768,-0.
 00001062,-0.00000089,0.00000073,0.00000396,-0.00000264,-0.00000059,-0.
 00000288,0.00000015,0.00000239,-0.00000352,0.00000887,-0.00000212,0.00
 000033,-0.00000024,0.00000406,0.00000231,-0.00015626,0.00003099,-0.000
 04315,0.00229292,-0.00293510,-0.00131137,-0.00586821,-0.07608966,0.015
 11494,0.00052026,0.00022156,-0.00009865,0.00011518,-0.00010509,0.00013
 449,-0.03327992,-0.03115812,0.05477165,0.00317910,0.01067463,-0.019114
 99,0.02686349,0.08899006,-0.00134099,0.00063084,-0.00024570,0.00180864
 ,-0.00040070,0.00000881,-0.00140899,-0.00029594,0.00002986,0.00042267,
 0.00018607,0.00005404,0.00060754,-0.00028190,0.00014728,-0.00019197,-0
 .00008057,-0.00003553,0.00001237,0.00004950,-0.00002372,0.00000464,-0.
 00003300,0.00000282,0.00089274,-0.00049856,0.00053787,0.00179788,0.003
 81001,-0.00030028,0.01568683,0.00261552,-0.00924603,0.00133035,-0.0028
 5013,-0.00037108,0.00092342,-0.00005635,0.00060395,0.00005269,0.000052
 70,-0.00008273,-0.00002240,0.00007624,-0.00006442,0.00001360,0.0000127
 1,-0.00000655,0.00004018,0.00001559,-0.00000603,0.00000011,-0.00000046
 ,0.00000301,-0.00000401,-0.00000684,0.00000770,-0.00000452,0.00000479,
 0.00000150,0.00002482,-0.00000788,-0.00000036,-0.00000205,0.00001170,0
 .00000054,0.00017288,-0.00014608,-0.00004451,-0.00145358,-0.00173352,0
 .00038330,0.09638782,0.01252986,-0.20442220,-0.00052899,-0.00019269,-0
 .00044099,0.00015921,-0.00016116,0.00006567,0.02005755,0.04132651,-0.0
 2471948,0.00505623,-0.01238815,-0.08512591,-0.14049470,-0.04218812,0.3
 2328918\\-0.00000281,0.00000255,-0.00000399,-0.00000223,-0.00001388,0.
 00000960,0.00000390,-0.00000906,0.00000147,0.00000413,0.00001863,0.000
 00062,-0.00001003,-0.00000954,-0.00001399,0.00000430,0.00000668,0.0000
 0150,0.00000461,-0.00000141,0.00000085,-0.00000105,0.00000047,-0.00000
 058,0.00000754,-0.00000130,-0.00000130,0.00000282,0.00000695,0.0000018
 6,-0.00000196,-0.00000742,0.00000179,0.00000231,-0.00000440,-0.0000027
 2,-0.00000480,0.00000595,-0.00000018,-0.00000050,0.00000630,0.00000387
 ,-0.00000022,0.00000456,0.00000481,-0.00000160,-0.00000151,-0.00000251
 ,0.00000065,-0.00000260,-0.00000033,-0.00000179,0.00000134,0.00000153,
 0.00000031,0.00000187,-0.00000030,0.00000040,-0.00000002,-0.00000115,0
 .00000128,0.00000266,-0.00000046,0.00000039,0.00000179,-0.00000284,-0.
 00000148,-0.00000009,0.00000244,-0.00000189,-0.00000056,0.00000295,-0.
 00001037,0.00000081,-0.00000098,-0.00000232,0.00000085,-0.00000219,0.0
 0000068,-0.00000406,-0.00000147,0.00000395,-0.00000159,-0.00000235,0.0
 0000375,-0.00000170,0.00000595,0.00000202,-0.00000228,-0.00000188\\\@


 IF YOU GIVE EVERYONE A PIECE OF YOUR MIND,
 PRETTY SOON IT WILL BE ALL GONE.
 Job cpu time:       0 days  4 hours 20 minutes 40.6 seconds.
 File lengths (MBytes):  RWF=    581 Int=      0 D2E=      0 Chk=     15 Scr=      1
 Normal termination of Gaussian 09 at Thu Nov 14 10:36:19 2019.
pbs_rusage has been removed.
Please contact help@nci.org.au if you require this functionality.
