 Entering Gaussian System, Link 0=/apps/gaussian/g09e01/g09/g09
 Initial command:
 /apps/gaussian/g09e01/g09/l1.exe "/jobfs/local/3578991.r-man2/Gau-37033.inp" -scrdir="/jobfs/local/3578991.r-man2/"
 Entering Link 1 = /apps/gaussian/g09e01/g09/l1.exe PID=     37036.
  
 Copyright (c) 1988,1990,1992,1993,1995,1998,2003,2009,2015,
            Gaussian, Inc.  All Rights Reserved.
  
 This is part of the Gaussian(R) 09 program.  It is based on
 the Gaussian(R) 03 system (copyright 2003, Gaussian, Inc.),
 the Gaussian(R) 98 system (copyright 1998, Gaussian, Inc.),
 the Gaussian(R) 94 system (copyright 1995, Gaussian, Inc.),
 the Gaussian 92(TM) system (copyright 1992, Gaussian, Inc.),
 the Gaussian 90(TM) system (copyright 1990, Gaussian, Inc.),
 the Gaussian 88(TM) system (copyright 1988, Gaussian, Inc.),
 the Gaussian 86(TM) system (copyright 1986, Carnegie Mellon
 University), and the Gaussian 82(TM) system (copyright 1983,
 Carnegie Mellon University). Gaussian is a federally registered
 trademark of Gaussian, Inc.
  
 This software contains proprietary and confidential information,
 including trade secrets, belonging to Gaussian, Inc.
  
 This software is provided under written license and may be
 used, copied, transmitted, or stored only in accord with that
 written license.
  
 The following legend is applicable only to US Government
 contracts under FAR:
  
                    RESTRICTED RIGHTS LEGEND
  
 Use, reproduction and disclosure by the US Government is
 subject to restrictions as set forth in subparagraphs (a)
 and (c) of the Commercial Computer Software - Restricted
 Rights clause in FAR 52.227-19.
  
 Gaussian, Inc.
 340 Quinnipiac St., Bldg. 40, Wallingford CT 06492
  
  
 ---------------------------------------------------------------
 Warning -- This program may not be used in any manner that
 competes with the business of Gaussian, Inc. or will provide
 assistance to any competitor of Gaussian, Inc.  The licensee
 of this program is prohibited from giving any competitor of
 Gaussian, Inc. access to this program.  By using this program,
 the user acknowledges that Gaussian, Inc. is engaged in the
 business of creating and licensing software in the field of
 computational chemistry and represents and warrants to the
 licensee that it is not a competitor of Gaussian, Inc. and that
 it will not use this program in any manner prohibited above.
 ---------------------------------------------------------------
  

 Cite this work as:
 Gaussian 09, Revision E.01,
 M. J. Frisch, G. W. Trucks, H. B. Schlegel, G. E. Scuseria, 
 M. A. Robb, J. R. Cheeseman, G. Scalmani, V. Barone, B. Mennucci, 
 G. A. Petersson, H. Nakatsuji, M. Caricato, X. Li, H. P. Hratchian, 
 A. F. Izmaylov, J. Bloino, G. Zheng, J. L. Sonnenberg, M. Hada, 
 M. Ehara, K. Toyota, R. Fukuda, J. Hasegawa, M. Ishida, T. Nakajima, 
 Y. Honda, O. Kitao, H. Nakai, T. Vreven, J. A. Montgomery, Jr., 
 J. E. Peralta, F. Ogliaro, M. Bearpark, J. J. Heyd, E. Brothers, 
 K. N. Kudin, V. N. Staroverov, T. Keith, R. Kobayashi, J. Normand, 
 K. Raghavachari, A. Rendell, J. C. Burant, S. S. Iyengar, J. Tomasi, 
 M. Cossi, N. Rega, J. M. Millam, M. Klene, J. E. Knox, J. B. Cross, 
 V. Bakken, C. Adamo, J. Jaramillo, R. Gomperts, R. E. Stratmann, 
 O. Yazyev, A. J. Austin, R. Cammi, C. Pomelli, J. W. Ochterski, 
 R. L. Martin, K. Morokuma, V. G. Zakrzewski, G. A. Voth, 
 P. Salvador, J. J. Dannenberg, S. Dapprich, A. D. Daniels, 
 O. Farkas, J. B. Foresman, J. V. Ortiz, J. Cioslowski, 
 and D. J. Fox, Gaussian, Inc., Wallingford CT, 2013.
 
 ******************************************
 Gaussian 09:  ES64L-G09RevE.01 30-Nov-2015
                14-Nov-2019 
 ******************************************
 %chk=CP19_c2.M062X_6-311pGd_opt_Pentadecane_GD3.chk
 %mem=196608000
 %nproc=4
 Will use up to    4 processors via shared memory.
 ----------------------------------------------------------------------
 # M062X/6-311+G* SCF=Tight INT(grid=ultrafine) OPT IOP(2/17=4) Empiric
 alDispersion=GD3 SCRF=(SMD,Solvent=n-Pentadecane) maxdisk=2147483648
 ----------------------------------------------------------------------
 1/14=-1,18=20,19=15,26=4,38=1/1,3;
 2/9=110,12=2,17=4,18=5,40=1/2;
 3/5=4,6=6,7=11,11=2,16=1,25=1,30=1,70=32201,71=1,72=151,74=-55,75=-5,124=31/1,2,3;
 4//1;
 5/5=2,32=2,38=5,53=151/2;
 6/7=2,8=2,9=2,10=2,28=1/1;
 7//1,2,3,16;
 1/14=-1,18=20,19=15,26=4/3(2);
 2/9=110,17=4/2;
 99//99;
 2/9=110,17=4/2;
 3/5=4,6=6,7=11,11=2,16=1,25=1,30=1,70=32205,71=1,72=151,74=-55,75=-5,124=31/1,2,3;
 4/5=5,16=3,69=1/1;
 5/5=2,32=2,38=5,53=151/2;
 7//1,2,3,16;
 1/14=-1,18=20,19=15,26=4/3(-5);
 2/9=110,17=4/2;
 6/7=2,8=2,9=2,10=2,19=2,28=1/1;
 99/9=1/99;
 ------------------------------------------
 CP19_c2.M062X_6-311pGd_opt_Pentadecane_GD3
 ------------------------------------------
 Symbolic Z-matrix:
 Charge =  0 Multiplicity = 1
 C                    -6.26527   1.4321   -0.01645 
 N                    -5.01379   0.82491   0.05109 
 C                    -3.76666   1.4242   -0.10171 
 O                    -3.61245   2.59593  -0.38358 
 N                    -2.72843   0.55645   0.07171 
 C                    -1.35573   1.0431    0.04076 
 C                    -0.38266  -0.12616   0.01773 
 C                     1.06456   0.35115  -0.01498 
 C                    -7.37913   0.60203   0.1763 
 C                    -8.65751   1.12236   0.13138 
 C                    -8.87233   2.48157  -0.10338 
 C                    -7.76027   3.29563  -0.29146 
 C                    -6.46716   2.7961   -0.25361 
 H                    -5.02461  -0.17793   0.16903 
 H                    -2.89431  -0.32057   0.54474 
 H                    -1.15783   1.68918   0.90384 
 H                    -1.23606   1.65684  -0.8538 
 H                    -0.59522  -0.74983  -0.85598 
 H                    -0.54298  -0.75225   0.90325 
 H                     1.25802   0.96087  -0.90113 
 H                     1.75763  -0.49184  -0.03431 
 H                     1.30218   0.95644   0.86352 
 H                    -7.24693  -0.45718   0.36741 
 Cl                   -9.99021   0.0284    0.37981 
 C                    -10.25381   3.06446  -0.15482 
 H                    -7.90588   4.35264  -0.47596 
 H                    -5.62551   3.45169  -0.40864 
 F                    -10.2246   4.38427  -0.39026 
 F                    -11.00585   2.51781  -1.12405 
 F                    -10.92569   2.8944    0.9957 
 

 GradGradGradGradGradGradGradGradGradGradGradGradGradGradGradGradGradGrad
 Berny optimization.
 Initialization pass.
                           ----------------------------
                           !    Initial Parameters    !
                           ! (Angstroms and Degrees)  !
 --------------------------                            --------------------------
 ! Name  Definition              Value          Derivative Info.                !
 --------------------------------------------------------------------------------
 ! R1    R(1,2)                  1.3926         estimate D2E/DX2                !
 ! R2    R(1,9)                  1.4025         estimate D2E/DX2                !
 ! R3    R(1,13)                 1.3991         estimate D2E/DX2                !
 ! R4    R(2,3)                  1.3921         estimate D2E/DX2                !
 ! R5    R(2,14)                 1.0098         estimate D2E/DX2                !
 ! R6    R(3,4)                  1.215          estimate D2E/DX2                !
 ! R7    R(3,5)                  1.3642         estimate D2E/DX2                !
 ! R8    R(5,6)                  1.4567         estimate D2E/DX2                !
 ! R9    R(5,15)                 1.0102         estimate D2E/DX2                !
 ! R10   R(6,7)                  1.5214         estimate D2E/DX2                !
 ! R11   R(6,16)                 1.0961         estimate D2E/DX2                !
 ! R12   R(6,17)                 1.0914         estimate D2E/DX2                !
 ! R13   R(7,8)                  1.5243         estimate D2E/DX2                !
 ! R14   R(7,18)                 1.0943         estimate D2E/DX2                !
 ! R15   R(7,19)                 1.0963         estimate D2E/DX2                !
 ! R16   R(8,20)                 1.0929         estimate D2E/DX2                !
 ! R17   R(8,21)                 1.0915         estimate D2E/DX2                !
 ! R18   R(8,22)                 1.093          estimate D2E/DX2                !
 ! R19   R(9,10)                 1.3809         estimate D2E/DX2                !
 ! R20   R(9,23)                 1.0844         estimate D2E/DX2                !
 ! R21   R(10,11)                1.396          estimate D2E/DX2                !
 ! R22   R(10,24)                1.742          estimate D2E/DX2                !
 ! R23   R(11,12)                1.391          estimate D2E/DX2                !
 ! R24   R(11,25)                1.5003         estimate D2E/DX2                !
 ! R25   R(12,13)                1.3868         estimate D2E/DX2                !
 ! R26   R(12,26)                1.0828         estimate D2E/DX2                !
 ! R27   R(13,27)                1.0781         estimate D2E/DX2                !
 ! R28   R(25,28)                1.341          estimate D2E/DX2                !
 ! R29   R(25,29)                1.343          estimate D2E/DX2                !
 ! R30   R(25,30)                1.3431         estimate D2E/DX2                !
 ! A1    A(2,1,9)              116.6795         estimate D2E/DX2                !
 ! A2    A(2,1,13)             124.2605         estimate D2E/DX2                !
 ! A3    A(9,1,13)             119.0591         estimate D2E/DX2                !
 ! A4    A(1,2,3)              127.7379         estimate D2E/DX2                !
 ! A5    A(1,2,14)             115.4061         estimate D2E/DX2                !
 ! A6    A(3,2,14)             116.7408         estimate D2E/DX2                !
 ! A7    A(2,3,4)              123.6668         estimate D2E/DX2                !
 ! A8    A(2,3,5)              113.2057         estimate D2E/DX2                !
 ! A9    A(4,3,5)              123.1161         estimate D2E/DX2                !
 ! A10   A(3,5,6)              120.1298         estimate D2E/DX2                !
 ! A11   A(3,5,15)             119.1304         estimate D2E/DX2                !
 ! A12   A(6,5,15)             117.0473         estimate D2E/DX2                !
 ! A13   A(5,6,7)              110.2596         estimate D2E/DX2                !
 ! A14   A(5,6,16)             110.5067         estimate D2E/DX2                !
 ! A15   A(5,6,17)             107.974          estimate D2E/DX2                !
 ! A16   A(7,6,16)             110.4533         estimate D2E/DX2                !
 ! A17   A(7,6,17)             110.4651         estimate D2E/DX2                !
 ! A18   A(16,6,17)            107.1046         estimate D2E/DX2                !
 ! A19   A(6,7,8)              111.5268         estimate D2E/DX2                !
 ! A20   A(6,7,18)             109.0182         estimate D2E/DX2                !
 ! A21   A(6,7,19)             109.4604         estimate D2E/DX2                !
 ! A22   A(8,7,18)             110.2281         estimate D2E/DX2                !
 ! A23   A(8,7,19)             109.5743         estimate D2E/DX2                !
 ! A24   A(18,7,19)            106.919          estimate D2E/DX2                !
 ! A25   A(7,8,20)             111.1105         estimate D2E/DX2                !
 ! A26   A(7,8,21)             111.1867         estimate D2E/DX2                !
 ! A27   A(7,8,22)             111.2593         estimate D2E/DX2                !
 ! A28   A(20,8,21)            107.705          estimate D2E/DX2                !
 ! A29   A(20,8,22)            107.7145         estimate D2E/DX2                !
 ! A30   A(21,8,22)            107.6922         estimate D2E/DX2                !
 ! A31   A(1,9,10)             120.5143         estimate D2E/DX2                !
 ! A32   A(1,9,23)             120.3656         estimate D2E/DX2                !
 ! A33   A(10,9,23)            119.1194         estimate D2E/DX2                !
 ! A34   A(9,10,11)            120.9843         estimate D2E/DX2                !
 ! A35   A(9,10,24)            117.837          estimate D2E/DX2                !
 ! A36   A(11,10,24)           121.1786         estimate D2E/DX2                !
 ! A37   A(10,11,12)           118.0053         estimate D2E/DX2                !
 ! A38   A(10,11,25)           121.7193         estimate D2E/DX2                !
 ! A39   A(12,11,25)           120.2755         estimate D2E/DX2                !
 ! A40   A(11,12,13)           122.073          estimate D2E/DX2                !
 ! A41   A(11,12,26)           119.133          estimate D2E/DX2                !
 ! A42   A(13,12,26)           118.7938         estimate D2E/DX2                !
 ! A43   A(1,13,12)            119.3639         estimate D2E/DX2                !
 ! A44   A(1,13,27)            120.3034         estimate D2E/DX2                !
 ! A45   A(12,13,27)           120.3324         estimate D2E/DX2                !
 ! A46   A(11,25,28)           111.6141         estimate D2E/DX2                !
 ! A47   A(11,25,29)           112.4707         estimate D2E/DX2                !
 ! A48   A(11,25,30)           112.4612         estimate D2E/DX2                !
 ! A49   A(28,25,29)           106.6237         estimate D2E/DX2                !
 ! A50   A(28,25,30)           106.6131         estimate D2E/DX2                !
 ! A51   A(29,25,30)           106.65           estimate D2E/DX2                !
 ! D1    D(9,1,2,3)           -179.8924         estimate D2E/DX2                !
 ! D2    D(9,1,2,14)             4.1693         estimate D2E/DX2                !
 ! D3    D(13,1,2,3)            -0.2493         estimate D2E/DX2                !
 ! D4    D(13,1,2,14)         -176.1876         estimate D2E/DX2                !
 ! D5    D(2,1,9,10)           179.733          estimate D2E/DX2                !
 ! D6    D(2,1,9,23)             0.023          estimate D2E/DX2                !
 ! D7    D(13,1,9,10)            0.0705         estimate D2E/DX2                !
 ! D8    D(13,1,9,23)         -179.6396         estimate D2E/DX2                !
 ! D9    D(2,1,13,12)         -179.5762         estimate D2E/DX2                !
 ! D10   D(2,1,13,27)            0.6246         estimate D2E/DX2                !
 ! D11   D(9,1,13,12)            0.059          estimate D2E/DX2                !
 ! D12   D(9,1,13,27)         -179.7403         estimate D2E/DX2                !
 ! D13   D(1,2,3,4)             -3.4769         estimate D2E/DX2                !
 ! D14   D(1,2,3,5)            177.7148         estimate D2E/DX2                !
 ! D15   D(14,2,3,4)           172.4148         estimate D2E/DX2                !
 ! D16   D(14,2,3,5)            -6.3935         estimate D2E/DX2                !
 ! D17   D(2,3,5,6)           -175.5907         estimate D2E/DX2                !
 ! D18   D(2,3,5,15)           -17.8729         estimate D2E/DX2                !
 ! D19   D(4,3,5,6)              5.5934         estimate D2E/DX2                !
 ! D20   D(4,3,5,15)           163.3113         estimate D2E/DX2                !
 ! D21   D(3,5,6,7)           -170.3557         estimate D2E/DX2                !
 ! D22   D(3,5,6,16)            67.2499         estimate D2E/DX2                !
 ! D23   D(3,5,6,17)           -49.5878         estimate D2E/DX2                !
 ! D24   D(15,5,6,7)            31.476          estimate D2E/DX2                !
 ! D25   D(15,5,6,16)          -90.9184         estimate D2E/DX2                !
 ! D26   D(15,5,6,17)          152.2439         estimate D2E/DX2                !
 ! D27   D(5,6,7,8)            179.9975         estimate D2E/DX2                !
 ! D28   D(5,6,7,18)            58.0525         estimate D2E/DX2                !
 ! D29   D(5,6,7,19)           -58.5798         estimate D2E/DX2                !
 ! D30   D(16,6,7,8)           -57.5767         estimate D2E/DX2                !
 ! D31   D(16,6,7,18)         -179.5217         estimate D2E/DX2                !
 ! D32   D(16,6,7,19)           63.846          estimate D2E/DX2                !
 ! D33   D(17,6,7,8)            60.733          estimate D2E/DX2                !
 ! D34   D(17,6,7,18)          -61.212          estimate D2E/DX2                !
 ! D35   D(17,6,7,19)         -177.8444         estimate D2E/DX2                !
 ! D36   D(6,7,8,20)           -59.8839         estimate D2E/DX2                !
 ! D37   D(6,7,8,21)          -179.8358         estimate D2E/DX2                !
 ! D38   D(6,7,8,22)            60.1286         estimate D2E/DX2                !
 ! D39   D(18,7,8,20)           61.3597         estimate D2E/DX2                !
 ! D40   D(18,7,8,21)          -58.5922         estimate D2E/DX2                !
 ! D41   D(18,7,8,22)         -178.6278         estimate D2E/DX2                !
 ! D42   D(19,7,8,20)          178.7596         estimate D2E/DX2                !
 ! D43   D(19,7,8,21)           58.8077         estimate D2E/DX2                !
 ! D44   D(19,7,8,22)          -61.2279         estimate D2E/DX2                !
 ! D45   D(1,9,10,11)           -0.1207         estimate D2E/DX2                !
 ! D46   D(1,9,10,24)          179.9855         estimate D2E/DX2                !
 ! D47   D(23,9,10,11)         179.5929         estimate D2E/DX2                !
 ! D48   D(23,9,10,24)          -0.3009         estimate D2E/DX2                !
 ! D49   D(9,10,11,12)           0.0389         estimate D2E/DX2                !
 ! D50   D(9,10,11,25)        -179.9653         estimate D2E/DX2                !
 ! D51   D(24,10,11,12)        179.9291         estimate D2E/DX2                !
 ! D52   D(24,10,11,25)         -0.0751         estimate D2E/DX2                !
 ! D53   D(10,11,12,13)          0.0943         estimate D2E/DX2                !
 ! D54   D(10,11,12,26)        179.934          estimate D2E/DX2                !
 ! D55   D(25,11,12,13)       -179.9016         estimate D2E/DX2                !
 ! D56   D(25,11,12,26)         -0.0619         estimate D2E/DX2                !
 ! D57   D(10,11,25,28)        179.9278         estimate D2E/DX2                !
 ! D58   D(10,11,25,29)        -60.2781         estimate D2E/DX2                !
 ! D59   D(10,11,25,30)         60.154          estimate D2E/DX2                !
 ! D60   D(12,11,25,28)         -0.0765         estimate D2E/DX2                !
 ! D61   D(12,11,25,29)        119.7177         estimate D2E/DX2                !
 ! D62   D(12,11,25,30)       -119.8503         estimate D2E/DX2                !
 ! D63   D(11,12,13,1)          -0.1434         estimate D2E/DX2                !
 ! D64   D(11,12,13,27)        179.6557         estimate D2E/DX2                !
 ! D65   D(26,12,13,1)        -179.9837         estimate D2E/DX2                !
 ! D66   D(26,12,13,27)         -0.1845         estimate D2E/DX2                !
 --------------------------------------------------------------------------------
 Trust Radius=3.00D-01 FncErr=1.00D-07 GrdErr=1.00D-06
 Number of steps in this run=    157 maximum allowed number of steps=    180.
 GradGradGradGradGradGradGradGradGradGradGradGradGradGradGradGradGradGrad

                          Input orientation:                          
 ---------------------------------------------------------------------
 Center     Atomic      Atomic             Coordinates (Angstroms)
 Number     Number       Type             X           Y           Z
 ---------------------------------------------------------------------
      1          6           0       -6.265270    1.432103   -0.016450
      2          7           0       -5.013789    0.824907    0.051095
      3          6           0       -3.766664    1.424198   -0.101706
      4          8           0       -3.612446    2.595934   -0.383581
      5          7           0       -2.728425    0.556447    0.071709
      6          6           0       -1.355735    1.043099    0.040765
      7          6           0       -0.382657   -0.126160    0.017730
      8          6           0        1.064562    0.351154   -0.014980
      9          6           0       -7.379135    0.602031    0.176299
     10          6           0       -8.657510    1.122361    0.131378
     11          6           0       -8.872335    2.481566   -0.103384
     12          6           0       -7.760274    3.295631   -0.291465
     13          6           0       -6.467161    2.796105   -0.253611
     14          1           0       -5.024606   -0.177927    0.169032
     15          1           0       -2.894309   -0.320570    0.544739
     16          1           0       -1.157830    1.689177    0.903841
     17          1           0       -1.236064    1.656838   -0.853796
     18          1           0       -0.595217   -0.749833   -0.855980
     19          1           0       -0.542984   -0.752251    0.903246
     20          1           0        1.258020    0.960868   -0.901126
     21          1           0        1.757627   -0.491841   -0.034311
     22          1           0        1.302182    0.956437    0.863519
     23          1           0       -7.246930   -0.457181    0.367412
     24         17           0       -9.990213    0.028400    0.379813
     25          6           0      -10.253808    3.064457   -0.154821
     26          1           0       -7.905877    4.352645   -0.475961
     27          1           0       -5.625512    3.451689   -0.408642
     28          9           0      -10.224599    4.384272   -0.390265
     29          9           0      -11.005848    2.517814   -1.124046
     30          9           0      -10.925695    2.894400    0.995699
 ---------------------------------------------------------------------
                    Distance matrix (angstroms):
                    1          2          3          4          5
     1  C    0.000000
     2  N    1.392643   0.000000
     3  C    2.500072   1.392055   0.000000
     4  O    2.920062   2.299835   1.214990   0.000000
     5  N    3.644697   2.301170   1.364187   2.268984   0.000000
     6  C    4.925254   3.664570   2.445018   2.772023   1.456731
     7  C    6.085596   4.727898   3.724162   4.242921   2.443664
     8  C    7.409109   6.097144   4.949717   5.200896   3.799528
     9  C    1.402450   2.379120   3.715264   4.298495   4.652109
    10  C    2.416735   3.656724   4.905691   5.281030   5.956330
    11  C    2.811711   4.201995   5.214010   5.268588   6.440836
    12  C    2.404871   3.710122   4.414429   4.207438   5.740603
    13  C    1.399109   2.467946   3.032802   2.864674   4.370360
    14  H    2.041041   1.009803   2.054878   3.161311   2.412722
    15  H    3.840595   2.459267   2.055021   3.143803   1.010166
    16  H    5.196052   4.042593   2.808444   2.916299   2.107674
    17  H    5.103388   3.972674   2.650226   2.598114   2.072332
    18  H    6.133119   4.777695   3.918344   4.530010   2.667874
    19  H    6.193690   4.816813   4.017335   4.721003   2.679608
    20  H    7.589769   6.345139   5.108933   5.163597   4.123312
    21  H    8.250379   6.898782   5.847525   6.204356   4.608125
    22  H    7.633278   6.369366   5.181087   5.328863   4.127075
    23  H    2.163423   2.594364   3.983956   4.805723   4.640234
    24  Cl   4.000326   5.050473   6.396302   6.917436   7.287478
    25  C    4.311863   5.702262   6.691510   6.661796   7.935541
    26  H    3.381169   4.592047   5.084186   4.639840   6.443373
    27  H    2.154491   2.735973   2.767714   2.187551   4.123866
    28  F    4.952911   6.325853   7.109868   6.849727   8.429607
    29  F    4.987847   6.336534   7.392358   7.430800   8.590257
    30  F    4.988218   6.334486   7.390366   7.448161   8.574090
                    6          7          8          9         10
     6  C    0.000000
     7  C    1.521373   0.000000
     8  C    2.517883   1.524252   0.000000
     9  C    6.041047   7.036057   8.449589   0.000000
    10  C    7.302767   8.369284   9.753711   1.380943   0.000000
    11  C    7.654361   8.881977  10.163090   2.416717   1.395959
    12  C    6.797234   8.138395   9.307208   2.760353   2.388919
    13  C    5.411688   6.755327   7.922221   2.414639   2.783391
    14  H    3.868846   4.644702   6.114880   2.480361   3.858777
    15  H    2.116788   2.573699   4.054277   4.593539   5.955451
    16  H    1.096123   2.163686   2.752012   6.357345   7.560633
    17  H    1.091438   2.160311   2.775123   6.317518   7.505604
    18  H    2.144095   1.094312   2.162017   6.993903   8.335500
    19  H    2.151213   1.096282   2.155191   7.006817   8.363939
    20  H    2.779502   2.172038   1.092901   8.711489   9.970450
    21  H    3.471988   2.171923   1.091491   9.204419  10.540787
    22  H    2.783695   2.173950   1.092974   8.715683   9.987944
    23  H    6.087998   6.881140   8.359458   1.084404   2.130821
    24  Cl   8.700505   9.615619  11.066530   2.681082   1.742001
    25  C    9.126875  10.375424  11.639892   3.799596   2.530181
    26  H    7.356932   8.769393   9.833271   3.843176   3.371728
    27  H    4.922831   6.361629   7.384131   3.396749   3.861400
    28  F    9.487148  10.833941  11.993834   4.766866   3.656220
    29  F    9.831391  11.006654  12.313377   4.302809   3.006338
    30  F    9.794046  11.010715  12.298611   4.301681   3.005301
                   11         12         13         14         15
    11  C    0.000000
    12  C    1.390955   0.000000
    13  C    2.430301   1.386759   0.000000
    14  H    4.685310   4.445395   3.332335   0.000000
    15  H    6.633914   6.119947   4.807941   2.167872   0.000000
    16  H    7.820228   6.899399   5.545627   4.356372   2.680186
    17  H    7.717248   6.750346   5.387256   4.331927   2.935272
    18  H    8.917344   8.247575   6.885946   4.582272   2.726189
    19  H    8.991605   8.360739   7.001787   4.577538   2.417355
    20  H   10.274872   9.335546   7.966542   6.474062   4.579786
    21  H   11.038207  10.247024   8.860351   6.792538   4.690964
    22  H   10.333524   9.430478   8.061951   6.465087   4.398057
    23  H    3.391138   3.844637   3.402584   2.248569   4.358373
    24  Cl   2.738824   4.012237   4.524745   4.974360   7.106394
    25  C    1.500292   2.507952   3.797429   6.161371   8.130806
    26  H    2.138642   1.082828   2.131234   5.407755   6.927956
    27  H    3.402379   2.143664   1.078053   3.724099   4.753771
    28  F    2.351852   2.695886   4.081579   6.940202   8.760303
    29  F    2.365363   3.439759   4.629771   6.686877   8.754332
    30  F    2.365312   3.440591   4.631302   6.704135   8.662710
                   16         17         18         19         20
    16  H    0.000000
    17  H    1.759675   0.000000
    18  H    3.059784   2.490533   0.000000
    19  H    2.517660   3.061253   1.760003   0.000000
    20  H    3.102365   2.589801   2.522503   3.071506   0.000000
    21  H    3.759902   3.774992   2.505509   2.497927   1.763899
    22  H    2.567137   3.143633   3.077037   2.515121   1.765203
    23  H    6.478561   6.487753   6.769610   6.731796   8.715172
    24  Cl   9.002432   8.989368   9.507828   9.493868  11.359271
    25  C    9.260074   9.153669  10.408113  10.487462  11.726220
    26  H    7.384717   7.203925   8.923309   9.065008   9.780691
    27  H    4.978879   4.763077   6.569381   6.725047   7.336875
    28  F    9.546965   9.404654  10.922496  11.035883  11.992965
    29  F   10.088727   9.811370  10.914697  11.147859  12.364312
    30  F    9.842366   9.941888  11.109812  11.004876  12.481161
                   21         22         23         24         25
    21  H    0.000000
    22  H    1.763814   0.000000
    23  H    9.013581   8.679387   0.000000
    24  Cl  11.766644  11.340786   2.785955   0.000000
    25  C   12.527424  11.790745   4.660040   3.094020   0.000000
    26  H   10.818845   9.905391   4.927465   4.876054   2.697283
    27  H    8.378681   7.472457   4.302385   5.602784   4.651397
    28  F   12.941287  12.090852   5.734130   4.429625   1.340969
    29  F   13.158717  12.564868   5.020408   3.080631   1.343050
    30  F   13.167923  12.381201   5.016089   3.077076   1.343148
                   26         27         28         29         30
    26  H    0.000000
    27  H    2.452818   0.000000
    28  F    2.320521   4.692723   0.000000
    29  F    3.660115   5.507444   2.152313   0.000000
    30  F    3.662180   5.511323   2.152242   2.154428   0.000000
 Stoichiometry    C11H12ClF3N2O
 Framework group  C1[X(C11H12ClF3N2O)]
 Deg. of freedom    84
 Full point group                 C1      NOp   1
 Largest Abelian subgroup         C1      NOp   1
 Largest concise Abelian subgroup C1      NOp   1
                         Standard orientation:                         
 ---------------------------------------------------------------------
 Center     Atomic      Atomic             Coordinates (Angstroms)
 Number     Number       Type             X           Y           Z
 ---------------------------------------------------------------------
      1          6           0       -0.230404    0.153763   -0.020020
      2          7           0       -1.570809    0.531600   -0.023189
      3          6           0       -2.689531   -0.296815   -0.026134
      4          8           0       -2.630012   -1.508787   -0.087631
      5          7           0       -3.867196    0.390114    0.021168
      6          6           0       -5.129856   -0.329358    0.121748
      7          6           0       -6.297441    0.624823   -0.080389
      8          6           0       -7.635092   -0.099146    0.019135
      9          6           0        0.715652    1.189050   -0.015088
     10          6           0        2.066851    0.904118   -0.006150
     11          6           0        2.523067   -0.415170    0.000704
     12          6           0        1.575898   -1.433805   -0.002575
     13          6           0        0.213955   -1.172894   -0.014252
     14          1           0       -1.740788    1.524885   -0.087951
     15          1           0       -3.862438    1.354044    0.323246
     16          1           0       -5.209326   -0.831615    1.092783
     17          1           0       -5.136015   -1.107471   -0.643589
     18          1           0       -6.199510    1.106065   -1.058312
     19          1           0       -6.253502    1.420430    0.672546
     20          1           0       -7.714567   -0.884900   -0.736315
     21          1           0       -8.468525    0.589792   -0.129546
     22          1           0       -7.760989   -0.566169    0.999253
     23          1           0        0.394750    2.224884   -0.013515
     24         17           0        3.180614    2.243548   -0.000863
     25          6           0        3.986947   -0.743531    0.011222
     26          1           0        1.909576   -2.463931    0.001539
     27          1           0       -0.495778   -1.984321   -0.022105
     28          9           0        4.196025   -2.068082    0.018049
     29          9           0        4.629531   -0.258652   -1.063840
     30          9           0        4.615836   -0.249924    1.090526
 ---------------------------------------------------------------------
 Rotational constants (GHZ):      1.0947184      0.1212188      0.1115137
 Standard basis: 6-311+G(d) (5D, 7F)
 There are   458 symmetry adapted cartesian basis functions of A   symmetry.
 There are   440 symmetry adapted basis functions of A   symmetry.
   440 basis functions,   725 primitive gaussians,   458 cartesian basis functions
    72 alpha electrons       72 beta electrons
       nuclear repulsion energy      1424.8016878972 Hartrees.
 NAtoms=   30 NActive=   30 NUniq=   30 SFac= 1.00D+00 NAtFMM=   60 NAOKFM=F Big=F
 Integral buffers will be    131072 words long.
 Raffenetti 2 integral format.
 Two-electron integral symmetry is turned on.
 Nuclear repulsion after empirical dispersion term =     1424.8004136301 Hartrees.
 ------------------------------------------------------------------------------
 Polarizable Continuum Model (PCM)
 =================================
 Model                : PCM (using non-symmetric T matrix).
 Atomic radii         : SMD-Coulomb.
 Polarization charges : Total charges.
 Charge compensation  : None.
 Solution method      : On-the-fly selection.
 Cavity type          : VdW (van der Waals Surface) (Alpha=1.000).
 Cavity algorithm     : GePol (No added spheres)
                        Default sphere list used, NSphG=   30.
                        Lebedev-Laikov grids with approx.  5.0 points / Ang**2.
                        Smoothing algorithm: York/Karplus (Gamma=1.0000).
                        Polarization charges: spherical gaussians, with
                                              point-specific exponents (IZeta= 3).
                        Self-potential: point-specific (ISelfS= 7).
                        Self-field    : sphere-specific E.n sum rule (ISelfD= 2).
 1st derivatives      : Analytical E(r).r(x)/FMM algorithm (CHGder, D1EAlg=3).
                        Cavity 1st derivative terms included.
 Solvent              : n-Pentadecane, Eps=   2.033300 Eps(inf)=   2.049192
 ------------------------------------------------------------------------------
 ------------------------------------------------------------------------------
 Atomic radii for non-electrostatic terms: SMD-CDS.
 ------------------------------------------------------------------------------
 Nuclear repulsion after PCM non-electrostatic terms =     1424.7930406900 Hartrees.
 One-electron integrals computed using PRISM.
 NBasis=   440 RedAO= T EigKep=  1.46D-06  NBF=   440
 NBsUse=   438 1.00D-06 EigRej=  6.99D-07 NBFU=   438
 ExpMin= 4.38D-02 ExpMax= 1.06D+05 ExpMxC= 3.62D+03 IAcc=3 IRadAn=         5 AccDes= 0.00D+00
 Harris functional with IExCor= 1009 and IRadAn=       5 diagonalized for initial guess.
 HarFok:  IExCor= 1009 AccDes= 0.00D+00 IRadAn=         5 IDoV= 1 UseB2=F ITyADJ=14
 ICtDFT=  3500011 ScaDFX=  1.000000  1.000000  1.000000  1.000000
 FoFCou: FMM=F IPFlag=           0 FMFlag=      100000 FMFlg1=           0
         NFxFlg=           0 DoJE=T BraDBF=F KetDBF=T FulRan=T
         wScrn=  0.000000 ICntrl=     500 IOpCl=  0 I1Cent=   200000004 NGrid=           0
         NMat0=    1 NMatS0=      1 NMatT0=    0 NMatD0=    1 NMtDS0=    0 NMtDT0=    0
 Petite list used in FoFCou.
 Requested convergence on RMS density matrix=1.00D-08 within 128 cycles.
 Requested convergence on MAX density matrix=1.00D-06.
 Requested convergence on             energy=1.00D-06.
 No special actions if energy rises.
 Inv3:  Mode=1 IEnd=    18081075.
 Iteration    1 A*A^-1 deviation from unit magnitude is 5.66D-15 for   2448.
 Iteration    1 A*A^-1 deviation from orthogonality  is 2.23D-15 for   1858    323.
 Iteration    1 A^-1*A deviation from unit magnitude is 6.00D-15 for   2448.
 Iteration    1 A^-1*A deviation from orthogonality  is 3.47D-15 for    844    838.
 Error on total polarization charges =  0.01975
 SCF Done:  E(RM062X) =  -1370.81294479     A.U. after   15 cycles
            NFock= 15  Conv=0.94D-08     -V/T= 2.0029
 SMD-CDS (non-electrostatic) energy       (kcal/mol) =      -4.63
 (included in total energy above)

 **********************************************************************

            Population analysis using the SCF density.

 **********************************************************************

 Orbital symmetries:
       Occupied  (A) (A) (A) (A) (A) (A) (A) (A) (A) (A) (A) (A)
                 (A) (A) (A) (A) (A) (A) (A) (A) (A) (A) (A) (A)
                 (A) (A) (A) (A) (A) (A) (A) (A) (A) (A) (A) (A)
                 (A) (A) (A) (A) (A) (A) (A) (A) (A) (A) (A) (A)
                 (A) (A) (A) (A) (A) (A) (A) (A) (A) (A) (A) (A)
                 (A) (A) (A) (A) (A) (A) (A) (A) (A) (A) (A) (A)
       Virtual   (A) (A) (A) (A) (A) (A) (A) (A) (A) (A) (A) (A)
                 (A) (A) (A) (A) (A) (A) (A) (A) (A) (A) (A) (A)
                 (A) (A) (A) (A) (A) (A) (A) (A) (A) (A) (A) (A)
                 (A) (A) (A) (A) (A) (A) (A) (A) (A) (A) (A) (A)
                 (A) (A) (A) (A) (A) (A) (A) (A) (A) (A) (A) (A)
                 (A) (A) (A) (A) (A) (A) (A) (A) (A) (A) (A) (A)
                 (A) (A) (A) (A) (A) (A) (A) (A) (A) (A) (A) (A)
                 (A) (A) (A) (A) (A) (A) (A) (A) (A) (A) (A) (A)
                 (A) (A) (A) (A) (A) (A) (A) (A) (A) (A) (A) (A)
                 (A) (A) (A) (A) (A) (A) (A) (A) (A) (A) (A) (A)
                 (A) (A) (A) (A) (A) (A) (A) (A) (A) (A) (A) (A)
                 (A) (A) (A) (A) (A) (A) (A) (A) (A) (A) (A) (A)
                 (A) (A) (A) (A) (A) (A) (A) (A) (A) (A) (A) (A)
                 (A) (A) (A) (A) (A) (A) (A) (A) (A) (A) (A) (A)
                 (A) (A) (A) (A) (A) (A) (A) (A) (A) (A) (A) (A)
                 (A) (A) (A) (A) (A) (A) (A) (A) (A) (A) (A) (A)
                 (A) (A) (A) (A) (A) (A) (A) (A) (A) (A) (A) (A)
                 (A) (A) (A) (A) (A) (A) (A) (A) (A) (A) (A) (A)
                 (A) (A) (A) (A) (A) (A) (A) (A) (A) (A) (A) (A)
                 (A) (A) (A) (A) (A) (A) (A) (A) (A) (A) (A) (A)
                 (A) (A) (A) (A) (A) (A) (A) (A) (A) (A) (A) (A)
                 (A) (A) (A) (A) (A) (A) (A) (A) (A) (A) (A) (A)
                 (A) (A) (A) (A) (A) (A) (A) (A) (A) (A) (A) (A)
                 (A) (A) (A) (A) (A) (A) (A) (A) (A) (A) (A) (A)
                 (A) (A) (A) (A) (A) (A) (A) (A) (A) (A) (A) (A)
                 (A) (A) (A) (A) (A) (A) (A) (A) (A) (A) (A) (A)
                 (A) (A) (A) (A) (A) (A) (A) (A) (A) (A) (A) (A)
                 (A) (A) (A) (A) (A) (A) (A) (A) (A) (A) (A) (A)
                 (A) (A) (A) (A) (A) (A) (A) (A) (A) (A) (A) (A)
                 (A) (A) (A) (A) (A) (A) (A) (A) (A) (A) (A) (A)
                 (A) (A) (A) (A) (A) (A)
 The electronic state is 1-A.
 Alpha  occ. eigenvalues -- -102.68858 -25.27987 -25.27459 -25.27458 -19.59998
 Alpha  occ. eigenvalues --  -14.80073 -14.77822 -10.80617 -10.68787 -10.63163
 Alpha  occ. eigenvalues --  -10.62151 -10.58080 -10.57537 -10.57121 -10.57038
 Alpha  occ. eigenvalues --  -10.55489 -10.54407 -10.52963  -9.83140  -7.55659
 Alpha  occ. eigenvalues --   -7.54971  -7.54957  -1.47129  -1.37769  -1.37352
 Alpha  occ. eigenvalues --   -1.19382  -1.07786  -1.04327  -1.01530  -0.95201
 Alpha  occ. eigenvalues --   -0.90389  -0.88473  -0.85368  -0.81668  -0.78568
 Alpha  occ. eigenvalues --   -0.73949  -0.73345  -0.69669  -0.69590  -0.69422
 Alpha  occ. eigenvalues --   -0.68421  -0.66248  -0.64615  -0.62037  -0.57697
 Alpha  occ. eigenvalues --   -0.57671  -0.56937  -0.55675  -0.55440  -0.54602
 Alpha  occ. eigenvalues --   -0.53605  -0.53263  -0.52940  -0.52013  -0.51312
 Alpha  occ. eigenvalues --   -0.51221  -0.50173  -0.49207  -0.47837  -0.46525
 Alpha  occ. eigenvalues --   -0.45708  -0.43960  -0.43313  -0.42840  -0.41189
 Alpha  occ. eigenvalues --   -0.40491  -0.39105  -0.38868  -0.36071  -0.33402
 Alpha  occ. eigenvalues --   -0.32023  -0.29099
 Alpha virt. eigenvalues --   -0.00738  -0.00384  -0.00333   0.01801   0.02123
 Alpha virt. eigenvalues --    0.02746   0.03160   0.03443   0.03755   0.05052
 Alpha virt. eigenvalues --    0.05189   0.05418   0.05978   0.06345   0.06832
 Alpha virt. eigenvalues --    0.07038   0.07394   0.07682   0.07980   0.08808
 Alpha virt. eigenvalues --    0.09193   0.09499   0.09556   0.10334   0.11147
 Alpha virt. eigenvalues --    0.11509   0.12188   0.12437   0.12600   0.13175
 Alpha virt. eigenvalues --    0.13221   0.14378   0.14923   0.15091   0.15434
 Alpha virt. eigenvalues --    0.16096   0.17205   0.17701   0.17964   0.18172
 Alpha virt. eigenvalues --    0.19012   0.19251   0.19431   0.19680   0.20489
 Alpha virt. eigenvalues --    0.20687   0.20699   0.21142   0.21404   0.21531
 Alpha virt. eigenvalues --    0.22625   0.23017   0.23515   0.23662   0.23819
 Alpha virt. eigenvalues --    0.24179   0.24650   0.24844   0.24874   0.25736
 Alpha virt. eigenvalues --    0.25976   0.26504   0.26931   0.27269   0.27828
 Alpha virt. eigenvalues --    0.28128   0.28345   0.28887   0.29427   0.29818
 Alpha virt. eigenvalues --    0.30187   0.30533   0.30798   0.31323   0.31737
 Alpha virt. eigenvalues --    0.32306   0.32761   0.32998   0.33776   0.34440
 Alpha virt. eigenvalues --    0.34911   0.35338   0.35894   0.36542   0.37008
 Alpha virt. eigenvalues --    0.37711   0.37885   0.39705   0.39946   0.40228
 Alpha virt. eigenvalues --    0.40690   0.41936   0.43128   0.43484   0.43670
 Alpha virt. eigenvalues --    0.44592   0.45609   0.46266   0.46727   0.47444
 Alpha virt. eigenvalues --    0.48351   0.48974   0.50211   0.50453   0.51047
 Alpha virt. eigenvalues --    0.51845   0.52487   0.54374   0.55807   0.56778
 Alpha virt. eigenvalues --    0.57201   0.58262   0.59941   0.60111   0.60880
 Alpha virt. eigenvalues --    0.61444   0.61624   0.62999   0.63352   0.64320
 Alpha virt. eigenvalues --    0.65084   0.65622   0.66239   0.67579   0.68046
 Alpha virt. eigenvalues --    0.69728   0.70514   0.70967   0.71542   0.72070
 Alpha virt. eigenvalues --    0.72307   0.72652   0.73244   0.73447   0.74221
 Alpha virt. eigenvalues --    0.74529   0.75836   0.76500   0.77090   0.77869
 Alpha virt. eigenvalues --    0.78220   0.79867   0.80787   0.82510   0.83356
 Alpha virt. eigenvalues --    0.84555   0.86809   0.87063   0.88997   0.90902
 Alpha virt. eigenvalues --    0.91833   0.91933   0.93105   0.94332   0.94736
 Alpha virt. eigenvalues --    0.95101   0.95644   0.96387   0.96835   0.98315
 Alpha virt. eigenvalues --    0.99249   1.01379   1.02801   1.04833   1.05014
 Alpha virt. eigenvalues --    1.05917   1.06798   1.08375   1.09841   1.10625
 Alpha virt. eigenvalues --    1.11992   1.13872   1.16440   1.18587   1.20292
 Alpha virt. eigenvalues --    1.21088   1.23293   1.23878   1.24654   1.26098
 Alpha virt. eigenvalues --    1.28395   1.29048   1.30946   1.33630   1.34749
 Alpha virt. eigenvalues --    1.35808   1.38655   1.39265   1.43188   1.44183
 Alpha virt. eigenvalues --    1.45069   1.45820   1.47428   1.48585   1.48856
 Alpha virt. eigenvalues --    1.50295   1.52959   1.53257   1.53607   1.53968
 Alpha virt. eigenvalues --    1.55183   1.56597   1.57577   1.58511   1.59348
 Alpha virt. eigenvalues --    1.59629   1.61344   1.62018   1.62503   1.63673
 Alpha virt. eigenvalues --    1.65366   1.67809   1.72145   1.74674   1.75184
 Alpha virt. eigenvalues --    1.76528   1.78176   1.78928   1.79611   1.82088
 Alpha virt. eigenvalues --    1.82552   1.84393   1.84735   1.85478   1.86199
 Alpha virt. eigenvalues --    1.88962   1.91825   1.92572   1.94654   1.95586
 Alpha virt. eigenvalues --    1.97737   1.99188   1.99397   2.05156   2.07026
 Alpha virt. eigenvalues --    2.08974   2.09466   2.10301   2.12415   2.14546
 Alpha virt. eigenvalues --    2.20774   2.21306   2.23255   2.26552   2.28262
 Alpha virt. eigenvalues --    2.31154   2.32912   2.34215   2.35739   2.38078
 Alpha virt. eigenvalues --    2.41480   2.42006   2.45657   2.47590   2.52025
 Alpha virt. eigenvalues --    2.54532   2.54953   2.55809   2.57467   2.58416
 Alpha virt. eigenvalues --    2.59646   2.62146   2.62420   2.64720   2.67005
 Alpha virt. eigenvalues --    2.70603   2.71322   2.75633   2.80898   2.81390
 Alpha virt. eigenvalues --    2.83499   2.84186   2.87912   2.90691   2.92468
 Alpha virt. eigenvalues --    2.94859   2.97698   2.99917   3.01834   3.02479
 Alpha virt. eigenvalues --    3.04491   3.05892   3.10200   3.11660   3.12081
 Alpha virt. eigenvalues --    3.16952   3.19941   3.24376   3.25094   3.27533
 Alpha virt. eigenvalues --    3.28752   3.30939   3.35133   3.39155   3.40885
 Alpha virt. eigenvalues --    3.42258   3.43572   3.44396   3.50998   3.57225
 Alpha virt. eigenvalues --    3.66549   3.66849   3.70410   3.77488   3.78541
 Alpha virt. eigenvalues --    3.80567   3.82545   3.84315   3.84686   3.86884
 Alpha virt. eigenvalues --    3.87354   3.88718   3.97081   3.98046   3.99907
 Alpha virt. eigenvalues --    4.01237   4.01550   4.02398   4.05618   4.06087
 Alpha virt. eigenvalues --    4.13117   4.23194   4.27628   4.32168   4.53923
 Alpha virt. eigenvalues --    4.58307   4.77073   4.81368   4.89156   4.98433
 Alpha virt. eigenvalues --    5.02129   5.17756   5.20755   5.42122   5.90413
 Alpha virt. eigenvalues --    6.44594   6.48649   6.49962   6.52720   6.55558
 Alpha virt. eigenvalues --    6.57832   6.63522   6.87310   6.91074   9.99644
 Alpha virt. eigenvalues --   23.44169  23.58304  23.65967  23.73492  23.80666
 Alpha virt. eigenvalues --   23.90602  23.93250  23.97478  24.08380  24.11808
 Alpha virt. eigenvalues --   24.19935  25.95477  26.31482  26.82864  35.58644
 Alpha virt. eigenvalues --   35.68987  50.14162  66.88985  66.91672  66.97436
 Alpha virt. eigenvalues --  216.10485
          Condensed to atoms (all electrons):
               1          2          3          4          5          6
     1  C   19.278554   0.016727  -1.098699  -0.408820  -0.334269  -0.539583
     2  N    0.016727   7.973154   0.362399  -0.060667  -0.706376  -0.448906
     3  C   -1.098699   0.362399   8.119645   0.600797   0.009511  -1.076369
     4  O   -0.408820  -0.060667   0.600797   8.065011  -0.187525  -0.119138
     5  N   -0.334269  -0.706376   0.009511  -0.187525   7.863911   0.632164
     6  C   -0.539583  -0.448906  -1.076369  -0.119138   0.632164   8.252044
     7  C   -0.009198   0.034342   0.233368   0.014298  -0.162261  -0.864698
     8  C   -0.010160  -0.009650  -0.205507  -0.001654   0.004836   0.355689
     9  C    2.312030  -0.133184  -0.326093  -0.086213  -0.100750  -0.094319
    10  C   -1.673010   0.013633  -1.405488  -0.010178   0.012391  -0.087702
    11  C   -4.803196   0.003502   0.085278   0.032355   0.071901   0.020085
    12  C   -4.564675   0.185435   0.293587   0.155445   0.003403   0.015248
    13  C   -0.331061  -0.141476   0.101525   0.370936   0.014972  -0.031326
    14  H   -0.047857   0.225262  -0.040314  -0.001472   0.073804   0.018589
    15  H   -0.027246   0.094998   0.044298  -0.002244   0.224510  -0.086359
    16  H    0.009012   0.007465   0.069744  -0.003662  -0.088648   0.372743
    17  H    0.007235   0.010748   0.045304   0.000189  -0.045888   0.350020
    18  H    0.004589  -0.000881   0.028858  -0.000073   0.003092  -0.087275
    19  H   -0.004048  -0.000569  -0.018619  -0.000252   0.003868  -0.059573
    20  H   -0.000298  -0.000070  -0.009346  -0.000086   0.000184  -0.049751
    21  H    0.000038  -0.000006   0.003610   0.000024  -0.001397   0.074958
    22  H    0.000209   0.000020   0.009215  -0.000028   0.000083  -0.040328
    23  H    0.008729  -0.019412  -0.015450   0.000022   0.000019  -0.000920
    24  Cl  -0.174832  -0.012421  -0.041323   0.000015  -0.000098  -0.001402
    25  C   -1.110510   0.017020  -0.002053   0.001825   0.011357   0.003097
    26  H    0.032875  -0.001722   0.005272  -0.000079   0.000031   0.000064
    27  H    0.028420  -0.025755   0.059456   0.004368   0.003715   0.006672
    28  F    0.031937  -0.000015   0.000159   0.000002   0.000006   0.000004
    29  F    0.019193  -0.000119  -0.000041  -0.000000   0.000001   0.000000
    30  F    0.018721  -0.000116  -0.000121   0.000000   0.000001  -0.000001
               7          8          9         10         11         12
     1  C   -0.009198  -0.010160   2.312030  -1.673010  -4.803196  -4.564675
     2  N    0.034342  -0.009650  -0.133184   0.013633   0.003502   0.185435
     3  C    0.233368  -0.205507  -0.326093  -1.405488   0.085278   0.293587
     4  O    0.014298  -0.001654  -0.086213  -0.010178   0.032355   0.155445
     5  N   -0.162261   0.004836  -0.100750   0.012391   0.071901   0.003403
     6  C   -0.864698   0.355689  -0.094319  -0.087702   0.020085   0.015248
     7  C    6.309227  -0.190409   0.007324   0.000517  -0.002048  -0.001238
     8  C   -0.190409   6.067780  -0.001119  -0.000502  -0.000082  -0.000299
     9  C    0.007324  -0.001119  11.489710   1.632052  -3.227416  -2.285990
    10  C    0.000517  -0.000502   1.632052  32.431509 -12.663781  -5.221376
    11  C   -0.002048  -0.000082  -3.227416 -12.663781  32.139773   2.378980
    12  C   -0.001238  -0.000299  -2.285990  -5.221376   2.378980  15.545021
    13  C    0.000317  -0.004211  -1.454743  -6.424479  -3.528299   0.156949
    14  H   -0.002555   0.000064  -0.028273  -0.020752   0.023634   0.014384
    15  H    0.006804   0.004747  -0.000364  -0.002598  -0.001739   0.002815
    16  H   -0.053197  -0.006889   0.000646   0.000188  -0.000065  -0.000061
    17  H   -0.001088  -0.023194   0.003120   0.000325  -0.000257  -0.001494
    18  H    0.447414  -0.053184  -0.000339   0.000039   0.000019   0.000021
    19  H    0.455545  -0.035239   0.000438  -0.000008  -0.000008  -0.000002
    20  H    0.012213   0.392367   0.000027  -0.000000  -0.000001  -0.000005
    21  H   -0.116316   0.389601  -0.000014  -0.000000   0.000000   0.000002
    22  H    0.012041   0.365094  -0.000019   0.000000   0.000001   0.000003
    23  H    0.000019  -0.000000   0.298655   0.014837   0.061379  -0.026374
    24  Cl  -0.000010  -0.000000   0.431637  -1.222467  -0.665154   0.398876
    25  C   -0.000241   0.000008  -1.921720   0.341734  -3.106537  -1.386104
    26  H    0.000002   0.000000  -0.007004  -0.054792   0.025671   0.349032
    27  H   -0.000343   0.000051  -0.012735  -0.007719   0.028069  -0.094028
    28  F   -0.000000   0.000000  -0.016945  -0.187036  -0.207986   0.180305
    29  F    0.000000   0.000000   0.022502  -0.228506   0.279678   0.039749
    30  F   -0.000000  -0.000000   0.017597  -0.247867   0.297197   0.050185
              13         14         15         16         17         18
     1  C   -0.331061  -0.047857  -0.027246   0.009012   0.007235   0.004589
     2  N   -0.141476   0.225262   0.094998   0.007465   0.010748  -0.000881
     3  C    0.101525  -0.040314   0.044298   0.069744   0.045304   0.028858
     4  O    0.370936  -0.001472  -0.002244  -0.003662   0.000189  -0.000073
     5  N    0.014972   0.073804   0.224510  -0.088648  -0.045888   0.003092
     6  C   -0.031326   0.018589  -0.086359   0.372743   0.350020  -0.087275
     7  C    0.000317  -0.002555   0.006804  -0.053197  -0.001088   0.447414
     8  C   -0.004211   0.000064   0.004747  -0.006889  -0.023194  -0.053184
     9  C   -1.454743  -0.028273  -0.000364   0.000646   0.003120  -0.000339
    10  C   -6.424479  -0.020752  -0.002598   0.000188   0.000325   0.000039
    11  C   -3.528299   0.023634  -0.001739  -0.000065  -0.000257   0.000019
    12  C    0.156949   0.014384   0.002815  -0.000061  -0.001494   0.000021
    13  C   16.813727   0.055885   0.013988  -0.000049  -0.007933   0.000276
    14  H    0.055885   0.340976   0.001302   0.000203  -0.000006   0.000011
    15  H    0.013988   0.001302   0.365765   0.002053   0.002197  -0.001062
    16  H   -0.000049   0.000203   0.002053   0.459999  -0.038536   0.006047
    17  H   -0.007933  -0.000006   0.002197  -0.038536   0.427265  -0.007958
    18  H    0.000276   0.000011  -0.001062   0.006047  -0.007958   0.444702
    19  H   -0.000213   0.000041   0.003246  -0.009238   0.005160  -0.044295
    20  H   -0.000086   0.000000  -0.000025  -0.000787   0.003430  -0.008492
    21  H    0.000040   0.000000  -0.000022  -0.000089  -0.000206  -0.003351
    22  H    0.000067  -0.000000   0.000036   0.003231  -0.000203   0.005960
    23  H   -0.020610   0.007347  -0.000011   0.000000  -0.000000   0.000000
    24  Cl   0.351415   0.001162   0.000026   0.000001   0.000001   0.000000
    25  C   -0.354660   0.002689  -0.000091  -0.000003  -0.000008   0.000001
    26  H   -0.054100  -0.000002   0.000000  -0.000000  -0.000000  -0.000000
    27  H    0.325857   0.000074  -0.000026  -0.000003  -0.000016   0.000000
    28  F    0.192660   0.000002  -0.000000  -0.000000  -0.000000  -0.000000
    29  F   -0.000070  -0.000000   0.000000   0.000000  -0.000000   0.000000
    30  F    0.006383  -0.000000  -0.000000  -0.000000   0.000000  -0.000000
              19         20         21         22         23         24
     1  C   -0.004048  -0.000298   0.000038   0.000209   0.008729  -0.174832
     2  N   -0.000569  -0.000070  -0.000006   0.000020  -0.019412  -0.012421
     3  C   -0.018619  -0.009346   0.003610   0.009215  -0.015450  -0.041323
     4  O   -0.000252  -0.000086   0.000024  -0.000028   0.000022   0.000015
     5  N    0.003868   0.000184  -0.001397   0.000083   0.000019  -0.000098
     6  C   -0.059573  -0.049751   0.074958  -0.040328  -0.000920  -0.001402
     7  C    0.455545   0.012213  -0.116316   0.012041   0.000019  -0.000010
     8  C   -0.035239   0.392367   0.389601   0.365094  -0.000000  -0.000000
     9  C    0.000438   0.000027  -0.000014  -0.000019   0.298655   0.431637
    10  C   -0.000008  -0.000000  -0.000000   0.000000   0.014837  -1.222467
    11  C   -0.000008  -0.000001   0.000000   0.000001   0.061379  -0.665154
    12  C   -0.000002  -0.000005   0.000002   0.000003  -0.026374   0.398876
    13  C   -0.000213  -0.000086   0.000040   0.000067  -0.020610   0.351415
    14  H    0.000041   0.000000   0.000000  -0.000000   0.007347   0.001162
    15  H    0.003246  -0.000025  -0.000022   0.000036  -0.000011   0.000026
    16  H   -0.009238  -0.000787  -0.000089   0.003231   0.000000   0.000001
    17  H    0.005160   0.003430  -0.000206  -0.000203  -0.000000   0.000001
    18  H   -0.044295  -0.008492  -0.003351   0.005960   0.000000   0.000000
    19  H    0.466243   0.006421  -0.003342  -0.008389  -0.000000   0.000000
    20  H    0.006421   0.447710  -0.023896  -0.035742  -0.000000   0.000000
    21  H   -0.003342  -0.023896   0.432101  -0.025430   0.000000  -0.000000
    22  H   -0.008389  -0.035742  -0.025430   0.449791   0.000000  -0.000000
    23  H   -0.000000  -0.000000   0.000000   0.000000   0.399706  -0.012542
    24  Cl   0.000000   0.000000  -0.000000  -0.000000  -0.012542  17.656595
    25  C   -0.000000  -0.000000   0.000000   0.000000   0.030564  -0.140478
    26  H    0.000000   0.000000  -0.000000   0.000000   0.000038  -0.000260
    27  H   -0.000000  -0.000000   0.000000  -0.000000  -0.000036   0.000168
    28  F    0.000000  -0.000000   0.000000  -0.000000   0.000030   0.011726
    29  F   -0.000000  -0.000000   0.000000   0.000000   0.000007  -0.007410
    30  F    0.000000  -0.000000   0.000000  -0.000000   0.000005  -0.006641
              25         26         27         28         29         30
     1  C   -1.110510   0.032875   0.028420   0.031937   0.019193   0.018721
     2  N    0.017020  -0.001722  -0.025755  -0.000015  -0.000119  -0.000116
     3  C   -0.002053   0.005272   0.059456   0.000159  -0.000041  -0.000121
     4  O    0.001825  -0.000079   0.004368   0.000002  -0.000000   0.000000
     5  N    0.011357   0.000031   0.003715   0.000006   0.000001   0.000001
     6  C    0.003097   0.000064   0.006672   0.000004   0.000000  -0.000001
     7  C   -0.000241   0.000002  -0.000343  -0.000000   0.000000  -0.000000
     8  C    0.000008   0.000000   0.000051   0.000000   0.000000  -0.000000
     9  C   -1.921720  -0.007004  -0.012735  -0.016945   0.022502   0.017597
    10  C    0.341734  -0.054792  -0.007719  -0.187036  -0.228506  -0.247867
    11  C   -3.106537   0.025671   0.028069  -0.207986   0.279678   0.297197
    12  C   -1.386104   0.349032  -0.094028   0.180305   0.039749   0.050185
    13  C   -0.354660  -0.054100   0.325857   0.192660  -0.000070   0.006383
    14  H    0.002689  -0.000002   0.000074   0.000002  -0.000000  -0.000000
    15  H   -0.000091   0.000000  -0.000026  -0.000000   0.000000  -0.000000
    16  H   -0.000003  -0.000000  -0.000003  -0.000000   0.000000  -0.000000
    17  H   -0.000008  -0.000000  -0.000016  -0.000000  -0.000000   0.000000
    18  H    0.000001  -0.000000   0.000000  -0.000000   0.000000  -0.000000
    19  H   -0.000000   0.000000  -0.000000   0.000000  -0.000000   0.000000
    20  H   -0.000000   0.000000  -0.000000  -0.000000  -0.000000  -0.000000
    21  H    0.000000  -0.000000   0.000000   0.000000   0.000000   0.000000
    22  H    0.000000   0.000000  -0.000000  -0.000000   0.000000  -0.000000
    23  H    0.030564   0.000038  -0.000036   0.000030   0.000007   0.000005
    24  Cl  -0.140478  -0.000260   0.000168   0.011726  -0.007410  -0.006641
    25  C   12.881529   0.022355   0.012210   0.137807   0.020669   0.010839
    26  H    0.022355   0.377657  -0.001883   0.011716   0.000235   0.000231
    27  H    0.012210  -0.001883   0.358300  -0.000000   0.000028   0.000028
    28  F    0.137807   0.011716  -0.000000   9.062422  -0.036296  -0.036069
    29  F    0.020669   0.000235   0.000028  -0.036296   8.992532  -0.051762
    30  F    0.010839   0.000231   0.000028  -0.036069  -0.051762   8.991917
 Mulliken charges:
               1
     1  C   -0.630807
     2  N   -0.383359
     3  C    0.167398
     4  O   -0.363196
     5  N   -0.306547
     6  C   -0.513725
     7  C   -0.129828
     8  C   -1.038139
     9  C   -0.518497
    10  C    1.011035
    11  C   -1.240953
    12  C   -0.187793
    13  C   -0.051681
    14  H    0.375802
    15  H    0.355002
    16  H    0.269894
    17  H    0.271794
    18  H    0.265883
    19  H    0.242830
    20  H    0.266233
    21  H    0.273693
    22  H    0.264387
    23  H    0.274001
    24  Cl   0.433415
    25  C    0.528705
    26  H    0.294665
    27  H    0.315129
    28  F   -0.144427
    29  F   -0.050389
    30  F   -0.050525
 Sum of Mulliken charges =  -0.00000
 Mulliken charges with hydrogens summed into heavy atoms:
               1
     1  C   -0.630807
     2  N   -0.007557
     3  C    0.167398
     4  O   -0.363196
     5  N    0.048455
     6  C    0.027963
     7  C    0.378885
     8  C   -0.233825
     9  C   -0.244495
    10  C    1.011035
    11  C   -1.240953
    12  C    0.106871
    13  C    0.263448
    24  Cl   0.433415
    25  C    0.528705
    28  F   -0.144427
    29  F   -0.050389
    30  F   -0.050525
 Electronic spatial extent (au):  <R**2>=           8976.1128
 Charge=             -0.0000 electrons
 Dipole moment (field-independent basis, Debye):
    X=             -7.3078    Y=              3.7439    Z=              0.5391  Tot=              8.2287
 Quadrupole moment (field-independent basis, Debye-Ang):
   XX=           -110.6242   YY=           -108.6342   ZZ=           -115.4599
   XY=            -12.2549   XZ=             -2.2760   YZ=              0.4647
 Traceless Quadrupole moment (field-independent basis, Debye-Ang):
   XX=              0.9485   YY=              2.9386   ZZ=             -3.8871
   XY=            -12.2549   XZ=             -2.2760   YZ=              0.4647
 Octapole moment (field-independent basis, Debye-Ang**2):
  XXX=           -151.0748  YYY=              4.3705  ZZZ=              0.7199  XYY=             20.8006
  XXY=             35.0159  XXZ=              7.6430  XZZ=             15.1026  YZZ=             -4.5481
  YYZ=              1.0081  XYZ=             -2.7364
 Hexadecapole moment (field-independent basis, Debye-Ang**3):
 XXXX=          -9716.6975 YYYY=          -1013.8282 ZZZZ=           -209.8563 XXXY=            -99.5893
 XXXZ=            -21.8276 YYYX=            -76.5391 YYYZ=              2.6741 ZZZX=             -1.7935
 ZZZY=             -0.2075 XXYY=          -1869.2471 XXZZ=          -1743.8355 YYZZ=           -214.4436
 XXYZ=             13.3244 YYXZ=             -2.8927 ZZXY=             -9.6071
 N-N= 1.424793040690D+03 E-N=-6.080171899945D+03  KE= 1.366889506502D+03
 D1PCM: PCM CHGder 1st derivatives, ID1Alg=3 FixD1E=F DoIter=F DoCFld=F I1PDM=0.
 Calling FoFJK, ICntrl=      2127 FMM=F ISym2X=0 I1Cent= 0 IOpClX= 0 NMat=1 NMatS=1 NMatT=0.
 ***** Axes restored to original set *****
 -------------------------------------------------------------------
 Center     Atomic                   Forces (Hartrees/Bohr)
 Number     Number              X              Y              Z
 -------------------------------------------------------------------
      1        6          -0.000007116   -0.000000881    0.000000145
      2        7           0.000002124   -0.000007969    0.000001113
      3        6          -0.000004687    0.000005800   -0.000002583
      4        8           0.000001038    0.000005469    0.000000180
      5        7           0.000005924   -0.000005088    0.000000094
      6        6          -0.000002687    0.000008380   -0.000002058
      7        6          -0.000000027    0.000001837   -0.000002015
      8        6           0.000004282    0.000006913   -0.000003941
      9        6           0.000003191   -0.000001760   -0.000000094
     10        6          -0.000000054   -0.000001116    0.000002489
     11        6           0.000000012   -0.000007529    0.000002932
     12        6          -0.000001524   -0.000001024    0.000001853
     13        6           0.000000155   -0.000003708    0.000002313
     14        1           0.000001099    0.000001854    0.000000252
     15        1           0.000001698    0.000001170   -0.000002154
     16        1           0.000000492    0.000003164   -0.000001520
     17        1           0.000000571    0.000003096   -0.000000796
     18        1           0.000002528    0.000005493   -0.000002893
     19        1           0.000002474    0.000004541   -0.000003570
     20        1          -0.000000278    0.000005962   -0.000002087
     21        1           0.000001968    0.000007433   -0.000003239
     22        1           0.000000810    0.000005456   -0.000003199
     23        1           0.000000866   -0.000003123   -0.000000398
     24       17           0.000001772   -0.000004598    0.000000541
     25        6          -0.000008640   -0.000009068    0.000004771
     26        1          -0.000003675   -0.000003752    0.000002971
     27        1          -0.000001798   -0.000000293    0.000001725
     28        9          -0.000001814   -0.000002076    0.000004730
     29        9          -0.000000700   -0.000007410    0.000004171
     30        9           0.000001995   -0.000007173    0.000000268
 -------------------------------------------------------------------
 Cartesian Forces:  Max     0.000009068 RMS     0.000003719

 GradGradGradGradGradGradGradGradGradGradGradGradGradGradGradGradGradGrad
 Berny optimization.
 FormGI is forming the generalized inverse of G from B-inverse, IUseBI=4.
 GSVD:  received Info=                   1 from GESDD.
 Internal  Forces:  Max     0.000006868 RMS     0.000001470
 Search for a local minimum.
 Step number   1 out of a maximum of  157
 All quantities printed in internal units (Hartrees-Bohrs-Radians)
 Mixed Optimization -- En-DIIS/RFO-DIIS
 Second derivative matrix not updated -- first step.
 ITU=  0
     Eigenvalues ---    0.00445   0.00483   0.00762   0.00941   0.01595
     Eigenvalues ---    0.01695   0.01789   0.01797   0.01802   0.01981
     Eigenvalues ---    0.02000   0.02103   0.02166   0.02171   0.02183
     Eigenvalues ---    0.02213   0.02223   0.02239   0.02260   0.03723
     Eigenvalues ---    0.04466   0.04936   0.05525   0.05535   0.05550
     Eigenvalues ---    0.08194   0.09193   0.10598   0.10772   0.12086
     Eigenvalues ---    0.12648   0.15236   0.15983   0.16000   0.16000
     Eigenvalues ---    0.16000   0.16000   0.16000   0.16000   0.21894
     Eigenvalues ---    0.21902   0.22007   0.22172   0.22375   0.23483
     Eigenvalues ---    0.24609   0.24996   0.24999   0.25000   0.25000
     Eigenvalues ---    0.25000   0.25000   0.25000   0.25000   0.29961
     Eigenvalues ---    0.30235   0.31275   0.32347   0.34097   0.34115
     Eigenvalues ---    0.34319   0.34471   0.34480   0.34641   0.34647
     Eigenvalues ---    0.35467   0.35655   0.36231   0.37377   0.42173
     Eigenvalues ---    0.42818   0.45945   0.46000   0.46006   0.46152
     Eigenvalues ---    0.46862   0.46963   0.47266   0.48537   0.52110
     Eigenvalues ---    0.56505   0.56527   0.56988   0.97638
 RFO step:  Lambda= 0.00000000D+00 EMin= 4.45142707D-03
 Linear search not attempted -- first point.
 Iteration  1 RMS(Cart)=  0.00006960 RMS(Int)=  0.00000000
 Iteration  2 RMS(Cart)=  0.00000000 RMS(Int)=  0.00000000
 Variable       Old X    -DE/DX   Delta X   Delta X   Delta X     New X
                                 (Linear)    (Quad)   (Total)
    R1        2.63171   0.00000   0.00000   0.00001   0.00001   2.63172
    R2        2.65025  -0.00000   0.00000  -0.00000  -0.00000   2.65024
    R3        2.64393  -0.00000   0.00000  -0.00000  -0.00000   2.64393
    R4        2.63060   0.00000   0.00000   0.00001   0.00001   2.63061
    R5        1.90825  -0.00000   0.00000  -0.00000  -0.00000   1.90825
    R6        2.29600   0.00000   0.00000   0.00000   0.00000   2.29600
    R7        2.57794   0.00001   0.00000   0.00001   0.00001   2.57795
    R8        2.75282   0.00000   0.00000   0.00000   0.00000   2.75283
    R9        1.90894   0.00000   0.00000   0.00000   0.00000   1.90894
   R10        2.87498   0.00000   0.00000   0.00001   0.00001   2.87499
   R11        2.07137  -0.00000   0.00000  -0.00000  -0.00000   2.07137
   R12        2.06252  -0.00000   0.00000  -0.00000  -0.00000   2.06252
   R13        2.88042   0.00000   0.00000   0.00001   0.00001   2.88043
   R14        2.06795  -0.00000   0.00000  -0.00000  -0.00000   2.06795
   R15        2.07167  -0.00000   0.00000  -0.00000  -0.00000   2.07167
   R16        2.06528  -0.00000   0.00000  -0.00000  -0.00000   2.06528
   R17        2.06262  -0.00000   0.00000  -0.00000  -0.00000   2.06262
   R18        2.06542  -0.00000   0.00000  -0.00000  -0.00000   2.06542
   R19        2.60960  -0.00000   0.00000  -0.00000  -0.00000   2.60960
   R20        2.04923   0.00000   0.00000   0.00000   0.00000   2.04923
   R21        2.63798  -0.00000   0.00000  -0.00001  -0.00001   2.63797
   R22        3.29191  -0.00000   0.00000  -0.00000  -0.00000   3.29190
   R23        2.62852   0.00000   0.00000   0.00000   0.00000   2.62853
   R24        2.83514   0.00000   0.00000   0.00000   0.00000   2.83514
   R25        2.62059   0.00000   0.00000   0.00000   0.00000   2.62060
   R26        2.04625  -0.00000   0.00000  -0.00000  -0.00000   2.04625
   R27        2.03723   0.00000   0.00000   0.00000   0.00000   2.03723
   R28        2.53406   0.00000   0.00000   0.00001   0.00001   2.53407
   R29        2.53800  -0.00000   0.00000  -0.00000  -0.00000   2.53799
   R30        2.53818  -0.00000   0.00000  -0.00001  -0.00001   2.53817
    A1        2.03644   0.00000   0.00000   0.00001   0.00001   2.03645
    A2        2.16876  -0.00000   0.00000  -0.00001  -0.00001   2.16874
    A3        2.07797   0.00000   0.00000   0.00000   0.00000   2.07798
    A4        2.22945  -0.00000   0.00000  -0.00002  -0.00002   2.22943
    A5        2.01422   0.00000   0.00000   0.00001   0.00001   2.01422
    A6        2.03751   0.00000   0.00000   0.00001   0.00001   2.03752
    A7        2.15839   0.00000   0.00000   0.00001   0.00001   2.15840
    A8        1.97581   0.00000   0.00000   0.00000   0.00000   1.97582
    A9        2.14878  -0.00000   0.00000  -0.00001  -0.00001   2.14877
   A10        2.09666  -0.00000   0.00000  -0.00002  -0.00002   2.09664
   A11        2.07922   0.00000   0.00000   0.00000   0.00000   2.07922
   A12        2.04286   0.00000   0.00000   0.00001   0.00001   2.04287
   A13        1.92439  -0.00000   0.00000  -0.00000  -0.00000   1.92439
   A14        1.92871   0.00000   0.00000   0.00000   0.00000   1.92871
   A15        1.88450   0.00000   0.00000   0.00001   0.00001   1.88451
   A16        1.92777  -0.00000   0.00000  -0.00001  -0.00001   1.92777
   A17        1.92798  -0.00000   0.00000  -0.00001  -0.00001   1.92797
   A18        1.86933   0.00000   0.00000   0.00000   0.00000   1.86933
   A19        1.94651   0.00000   0.00000   0.00000   0.00000   1.94651
   A20        1.90273   0.00000   0.00000   0.00000   0.00000   1.90273
   A21        1.91044  -0.00000   0.00000  -0.00000  -0.00000   1.91044
   A22        1.92384  -0.00000   0.00000  -0.00001  -0.00001   1.92384
   A23        1.91243   0.00000   0.00000   0.00000   0.00000   1.91243
   A24        1.86609   0.00000   0.00000   0.00000   0.00000   1.86609
   A25        1.93924  -0.00000   0.00000  -0.00000  -0.00000   1.93924
   A26        1.94057   0.00000   0.00000   0.00000   0.00000   1.94058
   A27        1.94184   0.00000   0.00000   0.00000   0.00000   1.94184
   A28        1.87981   0.00000   0.00000   0.00000   0.00000   1.87981
   A29        1.87997   0.00000   0.00000   0.00000   0.00000   1.87997
   A30        1.87958  -0.00000   0.00000  -0.00000  -0.00000   1.87958
   A31        2.10337  -0.00000   0.00000  -0.00000  -0.00000   2.10337
   A32        2.10078   0.00000   0.00000   0.00001   0.00001   2.10079
   A33        2.07903  -0.00000   0.00000  -0.00001  -0.00001   2.07902
   A34        2.11157   0.00000   0.00000   0.00000   0.00000   2.11158
   A35        2.05664   0.00000   0.00000   0.00000   0.00000   2.05665
   A36        2.11497  -0.00000   0.00000  -0.00001  -0.00001   2.11496
   A37        2.05958   0.00000   0.00000   0.00000   0.00000   2.05958
   A38        2.12440  -0.00000   0.00000  -0.00001  -0.00001   2.12439
   A39        2.09920   0.00000   0.00000   0.00001   0.00001   2.09921
   A40        2.13058  -0.00000   0.00000  -0.00001  -0.00001   2.13057
   A41        2.07926   0.00000   0.00000  -0.00000  -0.00000   2.07926
   A42        2.07334   0.00000   0.00000   0.00001   0.00001   2.07335
   A43        2.08329  -0.00000   0.00000   0.00000   0.00000   2.08329
   A44        2.09969   0.00000   0.00000  -0.00000  -0.00000   2.09969
   A45        2.10020   0.00000   0.00000  -0.00000  -0.00000   2.10020
   A46        1.94803  -0.00000   0.00000  -0.00000  -0.00000   1.94803
   A47        1.96298  -0.00000   0.00000  -0.00000  -0.00000   1.96298
   A48        1.96282  -0.00000   0.00000  -0.00001  -0.00001   1.96281
   A49        1.86094   0.00000   0.00000   0.00002   0.00002   1.86095
   A50        1.86075   0.00000   0.00000   0.00000   0.00000   1.86075
   A51        1.86139   0.00000   0.00000   0.00000   0.00000   1.86140
    D1       -3.13971  -0.00000   0.00000  -0.00003  -0.00003  -3.13974
    D2        0.07277  -0.00000   0.00000  -0.00004  -0.00004   0.07272
    D3       -0.00435  -0.00000   0.00000  -0.00003  -0.00003  -0.00438
    D4       -3.07505  -0.00000   0.00000  -0.00005  -0.00005  -3.07510
    D5        3.13693  -0.00000   0.00000  -0.00001  -0.00001   3.13692
    D6        0.00040  -0.00000   0.00000  -0.00002  -0.00002   0.00038
    D7        0.00123  -0.00000   0.00000  -0.00001  -0.00001   0.00122
    D8       -3.13530  -0.00000   0.00000  -0.00001  -0.00001  -3.13532
    D9       -3.13420   0.00000   0.00000   0.00000   0.00000  -3.13419
   D10        0.01090   0.00000   0.00000   0.00000   0.00000   0.01090
   D11        0.00103  -0.00000   0.00000  -0.00000  -0.00000   0.00103
   D12       -3.13706  -0.00000   0.00000  -0.00000  -0.00000  -3.13706
   D13       -0.06068   0.00000   0.00000   0.00002   0.00002  -0.06066
   D14        3.10171  -0.00000   0.00000  -0.00002  -0.00002   3.10169
   D15        3.00921   0.00000   0.00000   0.00003   0.00003   3.00924
   D16       -0.11159  -0.00000   0.00000  -0.00000  -0.00000  -0.11159
   D17       -3.06464   0.00000   0.00000   0.00003   0.00003  -3.06461
   D18       -0.31194   0.00000   0.00000   0.00001   0.00001  -0.31193
   D19        0.09762  -0.00000   0.00000  -0.00001  -0.00001   0.09761
   D20        2.85032  -0.00000   0.00000  -0.00003  -0.00003   2.85029
   D21       -2.97327  -0.00000   0.00000  -0.00006  -0.00006  -2.97333
   D22        1.17373  -0.00000   0.00000  -0.00005  -0.00005   1.17368
   D23       -0.86547  -0.00000   0.00000  -0.00006  -0.00006  -0.86553
   D24        0.54936  -0.00000   0.00000  -0.00004  -0.00004   0.54932
   D25       -1.58683   0.00000   0.00000  -0.00003  -0.00003  -1.58686
   D26        2.65716  -0.00000   0.00000  -0.00004  -0.00004   2.65711
   D27        3.14155  -0.00000   0.00000  -0.00001  -0.00001   3.14154
   D28        1.01321   0.00000   0.00000  -0.00000  -0.00000   1.01321
   D29       -1.02241   0.00000   0.00000  -0.00000  -0.00000  -1.02241
   D30       -1.00490  -0.00000   0.00000  -0.00001  -0.00001  -1.00491
   D31       -3.13324   0.00000   0.00000  -0.00000  -0.00000  -3.13325
   D32        1.11432   0.00000   0.00000  -0.00000  -0.00000   1.11432
   D33        1.05999  -0.00000   0.00000  -0.00001  -0.00001   1.05998
   D34       -1.06835  -0.00000   0.00000  -0.00001  -0.00001  -1.06836
   D35       -3.10397  -0.00000   0.00000  -0.00001  -0.00001  -3.10398
   D36       -1.04517  -0.00000   0.00000  -0.00004  -0.00004  -1.04521
   D37       -3.13873  -0.00000   0.00000  -0.00004  -0.00004  -3.13877
   D38        1.04944  -0.00000   0.00000  -0.00004  -0.00004   1.04941
   D39        1.07093  -0.00000   0.00000  -0.00004  -0.00004   1.07089
   D40       -1.02263  -0.00000   0.00000  -0.00004  -0.00004  -1.02266
   D41       -3.11764  -0.00000   0.00000  -0.00004  -0.00004  -3.11768
   D42        3.11994  -0.00000   0.00000  -0.00004  -0.00004   3.11991
   D43        1.02639  -0.00000   0.00000  -0.00004  -0.00004   1.02635
   D44       -1.06863  -0.00000   0.00000  -0.00004  -0.00004  -1.06866
   D45       -0.00211   0.00000   0.00000   0.00001   0.00001  -0.00210
   D46        3.14134  -0.00000   0.00000  -0.00002  -0.00002   3.14132
   D47        3.13449   0.00000   0.00000   0.00002   0.00002   3.13450
   D48       -0.00525  -0.00000   0.00000  -0.00001  -0.00001  -0.00526
   D49        0.00068  -0.00000   0.00000  -0.00000  -0.00000   0.00067
   D50       -3.14099  -0.00000   0.00000  -0.00000  -0.00000  -3.14099
   D51        3.14035   0.00000   0.00000   0.00002   0.00002   3.14038
   D52       -0.00131   0.00000   0.00000   0.00003   0.00003  -0.00129
   D53        0.00165  -0.00000   0.00000  -0.00000  -0.00000   0.00164
   D54        3.14044  -0.00000   0.00000  -0.00000  -0.00000   3.14044
   D55       -3.13987  -0.00000   0.00000  -0.00001  -0.00001  -3.13988
   D56       -0.00108  -0.00000   0.00000  -0.00000  -0.00000  -0.00108
   D57        3.14033  -0.00000   0.00000  -0.00001  -0.00001   3.14032
   D58       -1.05205   0.00000   0.00000   0.00001   0.00001  -1.05205
   D59        1.04988  -0.00000   0.00000  -0.00000  -0.00000   1.04988
   D60       -0.00133  -0.00000   0.00000  -0.00001  -0.00001  -0.00134
   D61        2.08947   0.00000   0.00000   0.00001   0.00001   2.08948
   D62       -2.09178   0.00000   0.00000   0.00000   0.00000  -2.09178
   D63       -0.00250   0.00000   0.00000   0.00001   0.00001  -0.00250
   D64        3.13558   0.00000   0.00000   0.00001   0.00001   3.13559
   D65       -3.14131   0.00000   0.00000   0.00000   0.00000  -3.14130
   D66       -0.00322   0.00000   0.00000   0.00001   0.00001  -0.00321
         Item               Value     Threshold  Converged?
 Maximum Force            0.000007     0.000450     YES
 RMS     Force            0.000001     0.000300     YES
 Maximum Displacement     0.000285     0.001800     YES
 RMS     Displacement     0.000070     0.001200     YES
 Predicted change in Energy=-7.028762D-10
 Optimization completed.
    -- Stationary point found.
                           ----------------------------
                           !   Optimized Parameters   !
                           ! (Angstroms and Degrees)  !
 --------------------------                            --------------------------
 ! Name  Definition              Value          Derivative Info.                !
 --------------------------------------------------------------------------------
 ! R1    R(1,2)                  1.3926         -DE/DX =    0.0                 !
 ! R2    R(1,9)                  1.4025         -DE/DX =    0.0                 !
 ! R3    R(1,13)                 1.3991         -DE/DX =    0.0                 !
 ! R4    R(2,3)                  1.3921         -DE/DX =    0.0                 !
 ! R5    R(2,14)                 1.0098         -DE/DX =    0.0                 !
 ! R6    R(3,4)                  1.215          -DE/DX =    0.0                 !
 ! R7    R(3,5)                  1.3642         -DE/DX =    0.0                 !
 ! R8    R(5,6)                  1.4567         -DE/DX =    0.0                 !
 ! R9    R(5,15)                 1.0102         -DE/DX =    0.0                 !
 ! R10   R(6,7)                  1.5214         -DE/DX =    0.0                 !
 ! R11   R(6,16)                 1.0961         -DE/DX =    0.0                 !
 ! R12   R(6,17)                 1.0914         -DE/DX =    0.0                 !
 ! R13   R(7,8)                  1.5243         -DE/DX =    0.0                 !
 ! R14   R(7,18)                 1.0943         -DE/DX =    0.0                 !
 ! R15   R(7,19)                 1.0963         -DE/DX =    0.0                 !
 ! R16   R(8,20)                 1.0929         -DE/DX =    0.0                 !
 ! R17   R(8,21)                 1.0915         -DE/DX =    0.0                 !
 ! R18   R(8,22)                 1.093          -DE/DX =    0.0                 !
 ! R19   R(9,10)                 1.3809         -DE/DX =    0.0                 !
 ! R20   R(9,23)                 1.0844         -DE/DX =    0.0                 !
 ! R21   R(10,11)                1.396          -DE/DX =    0.0                 !
 ! R22   R(10,24)                1.742          -DE/DX =    0.0                 !
 ! R23   R(11,12)                1.391          -DE/DX =    0.0                 !
 ! R24   R(11,25)                1.5003         -DE/DX =    0.0                 !
 ! R25   R(12,13)                1.3868         -DE/DX =    0.0                 !
 ! R26   R(12,26)                1.0828         -DE/DX =    0.0                 !
 ! R27   R(13,27)                1.0781         -DE/DX =    0.0                 !
 ! R28   R(25,28)                1.341          -DE/DX =    0.0                 !
 ! R29   R(25,29)                1.343          -DE/DX =    0.0                 !
 ! R30   R(25,30)                1.3431         -DE/DX =    0.0                 !
 ! A1    A(2,1,9)              116.6795         -DE/DX =    0.0                 !
 ! A2    A(2,1,13)             124.2605         -DE/DX =    0.0                 !
 ! A3    A(9,1,13)             119.0591         -DE/DX =    0.0                 !
 ! A4    A(1,2,3)              127.7379         -DE/DX =    0.0                 !
 ! A5    A(1,2,14)             115.4061         -DE/DX =    0.0                 !
 ! A6    A(3,2,14)             116.7408         -DE/DX =    0.0                 !
 ! A7    A(2,3,4)              123.6668         -DE/DX =    0.0                 !
 ! A8    A(2,3,5)              113.2057         -DE/DX =    0.0                 !
 ! A9    A(4,3,5)              123.1161         -DE/DX =    0.0                 !
 ! A10   A(3,5,6)              120.1298         -DE/DX =    0.0                 !
 ! A11   A(3,5,15)             119.1304         -DE/DX =    0.0                 !
 ! A12   A(6,5,15)             117.0473         -DE/DX =    0.0                 !
 ! A13   A(5,6,7)              110.2596         -DE/DX =    0.0                 !
 ! A14   A(5,6,16)             110.5067         -DE/DX =    0.0                 !
 ! A15   A(5,6,17)             107.974          -DE/DX =    0.0                 !
 ! A16   A(7,6,16)             110.4533         -DE/DX =    0.0                 !
 ! A17   A(7,6,17)             110.4651         -DE/DX =    0.0                 !
 ! A18   A(16,6,17)            107.1046         -DE/DX =    0.0                 !
 ! A19   A(6,7,8)              111.5268         -DE/DX =    0.0                 !
 ! A20   A(6,7,18)             109.0182         -DE/DX =    0.0                 !
[...]
 0888,-0.00001204,-0.00000728,0.00000364,0.00000392,0.00000601,-0.00000
 041,0.00000994,-0.00000808,0.00000426,-0.00000614,-0.00000143,-0.00002
 752,0.00000648,0.00000127,0.00000218,-0.00000678,0.00000131,0.00078653
 ,0.00109961,-0.00069852,0.09751229,0.12128423,-0.00035090,0.00055854,0
 .00582800,0.00039808,0.00009381,-0.00001217,-0.00036843,-0.00004995,-0
 .00020760,0.00014416,0.00000545,0.00005005,0.00018481,-0.00008661,-0.0
 0001944,-0.00005234,-0.00002203,0.00001987,0.00000547,0.00001356,0.000
 00030,0.00000246,-0.00000850,0.00000112,0.00276329,0.00184436,0.003801
 95,0.01530041,0.01509862,-0.02606529,0.00604991,0.00452560,0.00224391,
 -0.00078375,0.00158569,0.00387587,0.00021722,0.00002240,-0.00103272,0.
 00000024,0.00002071,0.00003463,0.00000028,0.00001704,-0.00000052,0.000
 01453,0.00000503,0.00000091,0.00000065,0.00000306,0.00000207,-0.000000
 80,-0.00000057,-0.00000018,0.00000013,-0.00000283,0.00000189,-0.000001
 13,0.00000114,0.00000043,0.00000599,-0.00000175,-0.00000049,-0.0000004
 2,0.00000209,0.00000008,-0.00019705,-0.00064794,-0.00275146,-0.0235803
 7,-0.02329843,0.01770385,-0.01149836,0.00297616,-0.00025983,0.01498891
 ,-0.00242920,0.00019148,-0.01029755,-0.00376449,0.00086396,0.00224391,
 0.00232438,-0.00044857,0.00412779,-0.00170640,-0.00033421,-0.00119738,
 -0.00050801,0.00022273,0.00012948,0.00031067,0.00000945,0.00003331,-0.
 00018900,0.00001557,0.00961343,-0.00244549,0.00033950,0.00619916,0.023
 51359,-0.00457282,-0.19424057,0.04005120,-0.00218276,-0.03048369,0.002
 78374,0.00073706,0.00350105,-0.00743762,0.00135820,0.00019040,0.000609
 62,-0.00012214,-0.00008474,0.00051038,0.00009742,0.00032657,0.00011478
 ,0.00005523,0.00010843,0.00005354,0.00001103,-0.00003102,-0.00001163,-
 0.00000045,-0.00001174,-0.00003066,0.00000307,-0.00000916,0.00003548,-
 0.00001333,0.00013287,-0.00003022,-0.00000434,-0.00000401,0.00003509,0
 .00001095,0.00130088,-0.00085901,0.00012844,-0.00706905,-0.00473172,0.
 00100926,0.59128256,0.00335837,-0.00466416,0.00061620,-0.00594964,0.00
 076779,-0.00022276,0.00417490,0.00191595,-0.00041043,-0.00105355,-0.00
 118264,0.00018804,-0.00165068,0.00056326,0.00011500,0.00051567,0.00024
 253,-0.00005910,-0.00006233,-0.00010945,-0.00000884,-0.00000696,0.0000
 7246,-0.00000641,-0.00163652,-0.00572099,0.00199056,0.03152723,-0.0108
 9619,0.00024967,0.04843809,-0.11360920,0.00693982,-0.00679324,0.019724
 70,-0.00316912,-0.00768342,-0.00160994,0.00179580,-0.00006815,-0.00020
 071,0.00007719,0.00004747,-0.00016736,-0.00000777,-0.00013948,-0.00005
 184,-0.00004529,-0.00004825,-0.00001563,0.00000804,0.00001566,-0.00000
 200,-0.00001529,0.00000649,0.00000703,0.00001467,-0.00000126,-0.000012
 25,0.00001569,-0.00004717,0.00000586,0.00000178,-0.00000526,-0.0000135
 3,-0.00001551,0.00104767,-0.00004196,0.00018041,0.00004186,-0.00151555
 ,-0.00028091,-0.03358857,0.55154955,-0.00013877,0.00057417,-0.00081428
 ,0.00044172,-0.00016778,-0.00098863,-0.00034530,-0.00022012,0.00016330
 ,0.00007136,0.00010841,-0.00027050,0.00010779,-0.00006788,-0.00005997,
 -0.00003125,-0.00000429,0.00008886,0.00000363,0.00000974,0.00002454,0.
 00000103,-0.00000778,0.00000608,0.00005839,0.00204506,0.00479928,-0.00
 595165,0.00050797,-0.00264623,-0.00364786,0.00726338,-0.06569743,0.002
 38385,-0.00349891,0.00124517,0.00151344,0.00172185,0.00611847,0.000008
 61,0.00001621,0.00017338,-0.00000300,0.00005478,0.00010229,-0.00000297
 ,-0.00001360,-0.00001856,0.00000683,0.00001764,-0.00001042,0.00000150,
 -0.00001769,-0.00001218,-0.00000049,0.00001427,-0.00001150,0.00000620,
 0.00001111,-0.00000759,0.00000557,-0.00000096,0.00000419,-0.00000840,-
 0.00000796,-0.00000803,-0.00018889,0.00025842,0.00110197,0.00014476,-0
 .00009502,-0.00292604,0.00230534,-0.00836886,0.49734813,-0.00500627,0.
 00211415,0.00008840,0.00016543,0.00137978,-0.00020649,0.00047931,0.000
 41534,-0.00009428,-0.00005226,-0.00031571,0.00006030,-0.00014995,-0.00
 005886,0.00000977,0.00003869,0.00003392,0.00000027,-0.00001083,-0.0000
 1084,-0.00000168,-0.00000046,0.00000673,-0.00000071,-0.00119432,-0.000
 17897,0.00005076,-0.00315301,-0.00184741,0.00066947,0.00765932,-0.0237
 3695,0.00414839,-0.06339465,0.03746405,-0.00582482,0.00027135,0.028441
 82,-0.00494579,-0.00038880,0.00014341,-0.00005953,0.00002272,-0.000018
 57,0.00001780,-0.00001226,-0.00000429,-0.00000600,-0.00000657,-0.00000
 183,0.00000327,0.00000178,-0.00000069,-0.00000163,0.00000117,-0.000000
 77,0.00000186,-0.00000117,-0.00000025,0.00000206,-0.00000276,-0.000001
 60,0.00000003,-0.00000112,-0.00000002,-0.00000167,0.00007407,0.0000327
 8,-0.00002110,-0.00059034,-0.00170682,0.00033810,-0.00020066,-0.002954
 06,0.00042154,0.06696226,0.00115730,0.00133167,0.00105216,0.00014972,-
 0.00035309,0.00003074,-0.00029254,-0.00016846,0.00005429,0.00005350,0.
 00010626,-0.00001987,0.00011570,-0.00001960,-0.00001577,-0.00002881,-0
 .00001607,0.00000835,0.00000458,0.00000848,0.00000118,0.00000071,-0.00
 000505,0.00000054,0.00004560,0.00055806,-0.00028422,-0.00256172,0.0003
 1781,0.00109147,0.00267604,-0.01316644,0.00308488,0.03621919,-0.337905
 26,0.05227022,-0.00012594,-0.00521265,0.00180586,0.00008948,0.00001366
 ,-0.00003652,-0.00000720,0.00001090,-0.00000293,0.00000856,0.00000364,
 0.00000085,0.00000405,0.00000210,0.00000031,-0.00000092,-0.00000110,0.
 ,-0.00000049,-0.00000056,-0.00000056,0.00000028,0.00000120,-0.00000056
 ,0.00000299,-0.00000044,0.00000003,-0.00000006,0.00000067,0.00000008,0
 .00002641,-0.00006988,-0.00004990,-0.00010536,-0.00063807,0.00016946,0
 .00071826,-0.00278055,-0.00007472,-0.04113129,0.35537674,0.00031121,0.
 00100396,0.00726007,-0.00006765,-0.00000728,-0.00010736,0.00005480,0.0
 0003344,0.00008655,0.00000590,-0.00001424,0.00000824,-0.00001510,0.000
 00063,-0.00004132,0.00000749,0.00001002,0.00002649,-0.00000189,-0.0000
 0149,0.00000129,0.00000002,0.00000062,0.00000158,0.00001376,-0.0002767
 7,-0.00097719,0.00077325,0.00110772,0.00559600,-0.00064368,0.00401672,
 0.00386078,-0.00554091,0.05228779,-0.04871790,0.00021572,0.00072105,0.
 00462583,-0.00001113,-0.00005003,-0.00023082,-0.00000212,-0.00000615,-
 0.00000297,-0.00000428,-0.00000143,-0.00000436,0.00000038,-0.00000025,
 -0.00000037,0.00000032,-0.00000323,-0.00000156,0.00000009,0.00000233,-
 0.00000149,0.00000100,0.00000129,-0.00000067,-0.00000024,-0.00000018,0
 .00000028,-0.00000120,-0.00000116,-0.00000171,-0.00001784,-0.00004889,
 -0.00032483,0.00004936,0.00022318,0.00024768,-0.00023046,0.00008563,-0
 .00302925,0.00586535,-0.05748855,0.03697421,0.01150532,0.00416401,-0.0
 0102947,-0.00277595,-0.00196574,0.00034451,0.00150459,0.00707217,-0.00
 159299,-0.00873186,-0.00217916,0.00094426,0.00037094,-0.00147902,0.000
 22353,-0.00033538,-0.00013112,0.00005815,0.00001045,0.00005063,0.00001
 137,0.00000749,-0.00003612,0.00000010,0.00008990,0.00203706,-0.0001091
 5,-0.00004752,0.00056995,-0.00012755,-0.00284752,0.00288768,-0.0000820
 2,-0.01616724,-0.01597181,0.00361597,-0.23933913,-0.14865649,0.0354600
 4,-0.00010858,-0.00015705,0.00001671,0.00019033,0.00001895,0.00005208,
 0.00003024,0.00004894,0.00000245,-0.00001807,0.00002203,0.00000191,-0.
 00000124,-0.00000452,-0.00000229,0.00000375,-0.00001203,0.00000325,-0.
 00000217,0.00000757,0.00000023,0.00002471,-0.00000515,-0.00000104,-0.0
 0000011,0.00000668,-0.00000018,0.00042701,0.00048970,-0.00012962,0.000
 26715,0.00010889,-0.00005869,0.00005810,-0.00106972,0.00022543,0.00099
 491,-0.00000379,-0.00026346,0.25544209,-0.02524812,-0.01302484,0.00419
 284,0.00094014,0.00191501,-0.00100179,0.00035876,-0.00563463,0.0011706
 6,-0.00186443,0.00307059,-0.00055931,-0.00047911,0.00115312,-0.0000976
 7,0.00027129,0.00012993,0.00000929,-0.00001006,-0.00004081,-0.00001979
 ,-0.00000223,0.00003304,-0.00000223,0.00190128,-0.00451412,0.00184275,
 0.00118351,-0.00108959,0.00001967,0.00354263,0.00029816,0.00108689,0.0
 1184856,0.01225128,-0.00225189,-0.14501038,-0.17438441,0.03122153,-0.0
 0005178,-0.00003066,-0.00004064,-0.00010374,0.00003401,-0.00004791,-0.
 00003069,-0.00004153,-0.00001453,0.00001067,0.00000058,-0.00001726,0.0
 0000086,0.00000221,-0.00000109,-0.00000896,0.00001387,-0.00000008,0.00
 000130,-0.00000530,0.00000400,-0.00002328,0.00000202,0.00000081,-0.000
 00158,-0.00000583,-0.00000485,-0.00112869,-0.00065022,0.00011924,-0.00
 009985,0.00013901,-0.00013715,0.00003003,0.00091453,-0.00004982,-0.000
 38295,0.00057638,-0.00093715,0.15384927,0.17921397,0.00417357,0.003035
 30,0.00371297,-0.00010645,-0.00087511,-0.00340299,-0.00028280,0.000540
 76,-0.00021545,0.00074449,-0.00040819,-0.00052563,0.00005168,-0.000079
 11,0.00034409,-0.00002652,0.00000684,0.00013859,-0.00000846,-0.0000017
 5,0.00000196,0.00000031,-0.00000500,0.00000421,-0.00015820,0.00178402,
 0.00574528,-0.00017311,-0.00003026,-0.00072303,-0.00024546,0.00118016,
 0.00676094,-0.00152487,-0.00112335,0.00303940,0.03506141,0.03148734,-0
 .04438695,0.00004129,-0.00002859,-0.00026714,0.00005297,0.00003258,0.0
 0014369,0.00001015,-0.00001386,-0.00004068,-0.00002087,0.00002961,-0.0
 0001764,0.00000487,-0.00001436,-0.00000718,0.00000260,0.00000611,-0.00
 000412,0.00000389,0.00000492,-0.00000282,0.00000369,-0.00000166,-0.000
 00133,-0.00000579,-0.00000195,-0.00000472,0.00017537,0.00005704,-0.000
 15209,-0.00002332,-0.00014206,-0.00061502,0.00002409,-0.00002155,0.000
 56086,-0.00015759,-0.00093047,-0.00443231,-0.03753720,-0.03455773,0.03
 419090,0.00124417,-0.00017214,0.00000722,-0.00186877,0.00033023,-0.000
 02223,0.00154350,0.00037609,-0.00008394,-0.00044307,-0.00024644,0.0000
 5513,-0.00066982,0.00028833,0.00004097,0.00020758,0.00009427,-0.000033
 19,-0.00002157,-0.00005012,-0.00000177,-0.00000514,0.00003136,-0.00000
 383,-0.00054049,0.00206291,-0.00037613,-0.00676537,-0.00233296,0.00075
 518,0.00154976,0.03647408,-0.00621705,-0.00375558,0.00047290,0.0000905
 3,0.00052107,0.00154625,-0.00031366,-0.00002230,-0.00007085,-0.0000042
 3,0.00001714,-0.00007664,-0.00001269,-0.00005052,-0.00002071,-0.000009
 50,-0.00001492,-0.00001067,-0.00000184,0.00000513,0.00000209,-0.000000
 48,0.00000167,0.00000492,0.00000035,0.00000160,-0.00000653,0.00000260,
 -0.00002299,0.00000581,0.00000079,0.00000084,-0.00000642,-0.00000215,-
 0.00052348,0.00020935,-0.00002307,0.00101528,0.00034049,-0.00008886,-0
 .08218931,0.01614620,-0.00245374,-0.00327067,0.00326520,-0.00048180,0.
 00005186,-0.00001534,-0.00000356,0.08881801,-0.00262760,0.00079723,-0.
 00007089,0.00329015,-0.00008378,-0.00004012,-0.00229430,-0.00122135,0.
 00027347,0.00051764,0.00079721,-0.00015271,0.00088750,-0.00024664,-0.0
 0006797,-0.00027788,-0.00013593,0.00004130,0.00003630,0.00005900,0.000
 00384,0.00000300,-0.00003968,0.00000399,0.00076874,-0.00172698,0.00023
 671,0.00658849,0.00298093,-0.00046167,0.00416217,-0.04004894,0.0084556
 8,-0.00534961,-0.00328387,0.00086381,0.00133727,0.00023794,-0.00008450
 ,-0.00009001,0.00010958,-0.00001362,-0.00003658,0.00009140,0.00000658,
 0.00007507,0.00002651,0.00002420,0.00002760,0.00001009,-0.00000614,-0.
 00000879,0.00000026,0.00000839,-0.00000421,-0.00000200,-0.00000929,0.0
 0000167,0.00000739,-0.00000965,0.00002568,-0.00000293,-0.00000073,0.00
 000249,0.00000656,0.00000838,0.00069193,-0.00024607,-0.00004779,0.0001
 6661,0.00031783,-0.00002286,0.02678076,-0.26505356,0.03338685,0.001482
 13,0.00160738,-0.00040081,0.00016177,-0.00013413,0.00001786,0.01403914
 ,0.39780327,0.00043078,-0.00013172,0.00004786,-0.00053895,0.00000289,0
 .00003659,0.00037038,0.00021308,-0.00000686,-0.00007940,-0.00013218,0.
 00005653,-0.00013685,0.00004501,0.00002598,0.00004160,0.00001769,-0.00
 002338,-0.00000511,-0.00000875,-0.00000622,-0.00000038,0.00000567,-0.0
 0000184,-0.00013212,0.00016383,-0.00041703,-0.00084439,-0.00011744,0.0
 0196104,-0.00049198,0.00723406,0.00714663,0.00112152,0.00064494,0.0002
 1543,-0.00025035,-0.00008910,0.00004546,0.00001543,-0.00002357,-0.0000
 5545,0.00000627,-0.00002023,-0.00001648,-0.00000818,-0.00000115,-0.000
 00025,-0.00000625,-0.00000415,0.00000200,0.00000142,0.00000330,0.00000
 087,0.00000037,-0.00000232,0.00000352,-0.00000133,-0.00000292,0.000002
 47,-0.00000434,0.00000075,-0.00000060,0.00000108,0.00000047,0.00000037
 ,-0.00011630,-0.00002013,-0.00029148,-0.00005164,-0.00001965,0.0002628
 6,-0.00436091,0.03377798,-0.07709859,-0.00014522,-0.00045288,-0.000049
 93,-0.00002954,0.00002581,0.00000243,-0.00278626,-0.05680762,0.0911086
 9,0.00350372,-0.00222054,0.00005517,-0.00505018,0.00097927,-0.00026474
 ,0.00350040,0.00112593,-0.00030046,-0.00084621,-0.00067770,0.00013752,
 -0.00142880,0.00063853,0.00015924,0.00041347,0.00016937,-0.00008098,-0
 .00004410,-0.00010916,-0.00000636,-0.00001289,0.00006616,-0.00000624,-
 0.00205074,0.00019387,0.00118460,-0.00194992,-0.00661870,0.00131694,-0
 .03242884,-0.01498439,-0.03426454,0.00077199,0.00498727,-0.00310028,-0
 .00241553,0.00195934,0.00186067,-0.00010651,-0.00021148,0.00000683,0.0
 0002762,-0.00018061,-0.00004311,-0.00010794,-0.00003864,-0.00001691,-0
 .00004068,-0.00001780,-0.00000597,0.00000981,0.00000715,0.00000320,0.0
 0000464,0.00000880,-0.00000054,0.00000296,-0.00001383,0.00000466,-0.00
 004678,0.00001101,0.00000072,0.00000279,-0.00001100,-0.00000181,-0.000
 21697,0.00022125,0.00004995,0.00208976,0.00215751,-0.00114109,-0.15524
 012,-0.03822867,-0.08635069,0.00035707,-0.00031581,-0.00099962,-0.0002
 9225,0.00031889,0.00020614,0.00152252,-0.02896465,-0.00922456,0.170321
 60,0.00024277,0.00044501,-0.00004450,-0.00004489,0.00011790,-0.0000033
 0,-0.00004190,-0.00010996,-0.00001967,0.00002726,0.00007916,0.00001534
 ,0.00001704,0.00003127,0.00001089,-0.00001869,-0.00001536,-0.00000779,
 0.00000366,-0.00000228,-0.00000137,-0.00000166,-0.00000033,-0.00000043
 ,-0.00047062,0.00080843,0.00012648,-0.00293684,-0.00222356,-0.00018963
 ,0.00196441,0.01123961,0.00028300,0.00018525,-0.00097898,0.00088749,0.
 00060147,0.00039391,-0.00024167,-0.00003037,-0.00001833,-0.00000997,-0
 .00000638,-0.00000980,-0.00001444,0.00000477,0.00000351,0.00000684,0.0
 0000072,-0.00000153,-0.00000271,-0.00000106,0.00000285,0.00000497,-0.0
 0000105,0.00000034,-0.00000301,0.00000062,-0.00000065,-0.00000217,-0.0
 0000048,0.00000071,-0.00000051,0.00000207,0.00000109,0.00000339,-0.000
 16981,0.00006924,0.00001361,0.00259036,-0.00178827,0.00190591,-0.03882
 535,-0.09464448,-0.04647339,0.00048155,0.00022124,-0.00015771,0.000047
 62,-0.00008445,-0.00009032,-0.04074882,-0.06154471,-0.03973246,0.07677
 945,0.13830909,0.00137752,-0.00079944,-0.00014111,-0.00185106,0.000389
 23,0.00003122,0.00133662,0.00033767,-0.00012987,-0.00038161,-0.0001882
 5,0.00010239,-0.00056602,0.00028004,0.00009000,0.00016017,0.00006262,-
 0.00005541,-0.00001682,-0.00004349,-0.00001214,-0.00000578,0.00002713,
 -0.00000281,-0.00090423,0.00028001,0.00031076,-0.00014885,-0.00268267,
 0.00117699,-0.01572163,-0.00874331,-0.00492277,-0.00131068,0.00292633,
 -0.00156750,-0.00113764,0.00005049,0.00066212,-0.00003917,-0.00007811,
 -0.00006310,0.00001122,-0.00007902,-0.00004328,-0.00003691,-0.00001125
 ,-0.00000039,-0.00001747,-0.00001180,-0.00000186,0.00000305,0.00000859
 ,0.00000575,0.00000124,-0.00000032,0.00000274,-0.00000031,-0.00000860,
 0.00000286,-0.00001935,0.00000481,-0.00000108,0.00000350,-0.00000181,0
 .00000237,-0.00009815,0.00008584,-0.00008033,0.00026489,0.00218378,-0.
 00085720,-0.08732356,-0.04314602,-0.16189079,0.00025611,-0.00001555,-0
 .00037385,-0.00019109,0.00021059,0.00005707,-0.00811542,-0.02785341,0.
 00481596,0.12706377,0.09801255,0.24933843,0.00339054,-0.00207863,0.000
 51182,-0.00489019,0.00098585,0.00003788,0.00341372,0.00111626,-0.00020
 420,-0.00080044,-0.00067072,0.00012360,-0.00139231,0.00059868,0.000060
 21,0.00040518,0.00017175,-0.00007300,-0.00004165,-0.00010357,-0.000000
 68,-0.00001106,0.00006268,-0.00000428,-0.00201893,-0.00023523,-0.00103
 927,-0.00190411,-0.00637245,0.00120201,-0.02844681,-0.00153733,0.03892
 860,0.00101550,0.00549797,0.00103755,-0.00250102,0.00125214,-0.0021117
 1,-0.00010124,-0.00018677,0.00008571,0.00001953,-0.00016729,-0.0000279
 0,-0.00011293,-0.00004073,-0.00001888,-0.00003126,-0.00001869,-0.00000
 385,0.00001114,0.00000144,-0.00000129,0.00000306,0.00001360,-0.0000031
 3,0.00000417,-0.00001044,0.00000314,-0.00004471,0.00001025,0.00000224,
 0.00000049,-0.00001331,-0.00000456,-0.00021541,0.00018403,-0.00009572,
 0.00209156,0.00224040,0.00018886,-0.14167949,-0.00433267,0.09141602,0.
 00040802,0.00003635,0.00098274,-0.00031185,0.00020401,-0.00028231,0.00
 366387,-0.02139248,0.01722524,0.01975011,0.00034892,-0.01259234,0.1503
 2654,-0.00030129,0.00067577,-0.00023267,0.00065679,-0.00003242,-0.0000
 1374,-0.00054400,-0.00023092,0.00007292,0.00016198,0.00014744,-0.00003
 827,0.00023062,-0.00007239,-0.00000381,-0.00007732,-0.00004022,0.00000
 964,0.00000931,0.00001447,0.00000178,0.00000021,-0.00001069,0.00000069
 ,-0.00010966,0.00062260,-0.00021891,-0.00263527,-0.00076622,0.00114593
 ,0.00730403,0.01198188,-0.00754988,0.00053901,-0.00236021,-0.00066490,
 0.00101700,0.00045516,0.00024652,-0.00001382,0.00001143,-0.00000521,-0
 .00000897,0.00002056,0.00000294,0.00001907,0.00000760,0.00000694,0.000
 00543,0.00000393,-0.00000224,-0.00000271,0.00000030,0.00000310,-0.0000
 0036,-0.00000070,-0.00000322,0.00000063,0.00000220,-0.00000304,0.00000
 689,-0.00000100,-0.00000028,0.00000093,0.00000190,0.00000263,-0.000126
 71,0.00001657,-0.00004604,0.00220039,-0.00306891,-0.00131294,-0.004290
 30,-0.07347168,0.01307892,0.00035622,0.00020104,-0.00009905,0.00012879
 ,-0.00010720,0.00014280,-0.03193200,-0.03108200,0.05543081,0.00296915,
 0.00969933,-0.02119666,0.02443597,0.08738241,-0.00165730,0.00068222,-0
 .00030869,0.00213318,-0.00046063,0.00011596,-0.00151975,-0.00036798,0.
 00001520,0.00041352,0.00021526,0.00002380,0.00064941,-0.00029133,0.000
 00771,-0.00018592,-0.00008354,0.00001235,0.00001913,0.00004867,-0.0000
 0785,0.00000571,-0.00002939,-0.00000101,0.00117973,-0.00038566,0.00051
 403,0.00134178,0.00391478,-0.00033593,0.01579552,0.00246597,-0.0096493
 3,0.00103610,-0.00309289,-0.00040336,0.00109521,-0.00010065,0.00063386
 ,0.00004734,0.00006976,-0.00009317,-0.00000470,0.00006665,-0.00001558,
 0.00005713,0.00002501,0.00001268,0.00001077,0.00000517,0.00000553,-0.0
 0000496,0.00000482,0.00000386,-0.00000113,-0.00001250,0.00000635,-0.00
 000418,0.00000156,0.00000135,0.00002036,-0.00000469,-0.00000257,0.0000
 0225,0.00000926,0.00000426,0.00016435,-0.00014000,-0.00003928,-0.00129
 006,-0.00158874,0.00041268,0.09247059,0.00972139,-0.19624653,-0.000466
 96,-0.00019792,-0.00039110,0.00019431,-0.00016319,0.00009669,0.0200826
 3,0.04271874,-0.02776657,0.00375848,-0.01427541,-0.08645517,-0.1353425
 2,-0.03875475,0.31984983\\0.00000714,0.00000092,-0.00000015,-0.0000021
 3,0.00000797,-0.00000111,0.00000470,-0.00000581,0.00000258,-0.00000104
 ,-0.00000547,-0.00000018,-0.00000593,0.00000510,-0.00000009,0.00000269
 ,-0.00000838,0.00000206,0.00000002,-0.00000184,0.00000201,-0.00000428,
 -0.00000691,0.00000394,-0.00000321,0.00000177,0.00000009,0.00000005,0.
 00000108,-0.00000248,0.00000002,0.00000757,-0.00000294,0.00000149,0.00
 000102,-0.00000185,-0.00000015,0.00000368,-0.00000231,-0.00000110,-0.0
 0000185,-0.00000025,-0.00000170,-0.00000117,0.00000215,-0.00000049,-0.
 00000316,0.00000152,-0.00000057,-0.00000310,0.00000080,-0.00000253,-0.
 00000549,0.00000289,-0.00000247,-0.00000454,0.00000357,0.00000028,-0.0
 0000596,0.00000209,-0.00000197,-0.00000743,0.00000324,-0.00000081,-0.0
 0000546,0.00000320,-0.00000087,0.00000312,0.00000040,-0.00000178,0.000
 00459,-0.00000054,0.00000865,0.00000908,-0.00000477,0.00000368,0.00000
 375,-0.00000297,0.00000180,0.00000029,-0.00000173,0.00000181,0.0000020
 7,-0.00000473,0.00000070,0.00000741,-0.00000417,-0.00000200,0.00000717
 ,-0.00000027\\\@


 A HARD FALL SHOULD MEAN A HIGH BOUNCE 
 IF ONE IS MADE OF THE RIGHT MATERIAL.

                -- THE CHEMIST ANALYST, MARCH 1950
 Job cpu time:       0 days  4 hours 16 minutes  5.7 seconds.
 File lengths (MBytes):  RWF=    690 Int=      0 D2E=      0 Chk=     23 Scr=      1
 Normal termination of Gaussian 09 at Thu Nov 14 10:34:17 2019.
pbs_rusage has been removed.
Please contact help@nci.org.au if you require this functionality.
