Process 0 of 1 is on r3750 - thread support 0
initial socket setup ...start
initial socket setup ...done 
now start server 0 ... 
r3750 10.9.65
Q-Chem Developer Version! Running on 10.9.65.*
                  Welcome to Q-Chem
     A Quantum Leap Into The Future Of Chemistry


 Q-Chem 5.0, Q-Chem, Inc., Pleasanton, CA (2017)

 Yihan Shao,  Zhengting Gan,  E. Epifanovsky,  A. T. B. Gilbert,  M. Wormit,  
 J. Kussmann,  A. W. Lange,  A. Behn,  Jia Deng,  Xintian Feng,  D. Ghosh,  
 M. Goldey,  P. R. Horn,  L. D. Jacobson,  I. Kaliman,  T. Kus,  A. Landau,  
 Jie Liu,  E. I. Proynov,  R. M. Richard,  R. P. Steele,  E. J. Sundstrom,  
 H. L. Woodcock III,  P. M. Zimmerman,  D. Zuev,  B. Albrecht,  E. Alguire,  
 S. A. Baeppler,  Z. Benda,  Y. A. Bernard,  E. J. Berquist,  K. B. Bravaya,  
 D. Casanova,  Chun-Min Chang,  Yunqing Chen,  A. Chien,  K. D. Closser,  
 M. P. Coons,  S. Dasgupta,  M. Diedenhofen,  Hainam Do,  R. G. Edgar,  
 Po-Tung Fang,  S. Fatehi,  Qingguo Feng,  Qinghui Ge,  A. Ghysels,  
 J. Gomes,  J. Gonthier,  A. Gunina,  M. W. D. Hanson-Heine,  
 P. H. P. Harbach,  A. W. Hauser,  J. E. Herr,  E. G. Hohenstein,  
 Z. C. Holden,  Kerwin Hui,  T.-C. Jagau,  Hyunjun Ji,  B. Kaduk,  
 K. Khistyaev,  Jaehoon Kim,  P. Klunzinger,  K. Koh,  D. Kosenkov,  
 T. Kowalczyk,  C. M. Krauter,  A. Kunitsa,  Ka Un Lao,  A. Laurent,  
 K. V. Lawler,  Joonho Lee,  D. Lefrancois,  S. Lehtola,  D. S. Levine,  
 Yi-Pei Li,  You-Sheng Lin,  Fenglai Liu,  E. Livshits,  A. Luenser,  
 P. Manohar,  E. Mansoor,  S. F. Manzer,  Shan-Ping Mao,  Yuezhi Mao,  
 N. Mardirossian,  A. V. Marenich,  L. A. Martinez-Martinez,  S. A. Maurer,  
 N. J. Mayhall,  S. C. McKenzie,  J.-M. Mewes,  A. F. Morrison,  K. Nanda,  
 T. S. Nguyen-Beck,  R. Olivares-Amaya,  J. A. Parkhill,  T. M. Perrine,  
 F. Plasser,  S. Prager,  A. Prociuk,  D. R. Rehn,  F. Rob,  M. Schneider,  
 N. Sergueev,  S. M. Sharada,  S. Sharma,  D. W. Small,  T. Stauch,  
 T. Stein,  Yu-Chuan Su,  A. J. W. Thom,  T. Tsuchimochi,  L. Vogt,  
 O. Vydrov,  M. A. Watson,  J. Wenzel,  M. de Wergifosse,  T. A. Wesolowski,  
 A. White,  J. Witte,  A. Yamada,  Jun Yang,  K. Yao,  S. Yeganeh,  
 S. R. Yost,  Zhi-Qiang You,  A. Zech,  Igor Ying Zhang,  Xing Zhang,  
 Yan Zhao,  Ying Zhu,  B. R. Brooks,  G. K. L. Chan,  C. J. Cramer,  
 M. S. Gordon,  W. J. Hehre,  A. Klamt,  M. W. Schmidt,  C. D. Sherrill,  
 D. G. Truhlar,  A. Aspuru-Guzik,  R. Baer,  A. T. Bell,  N. A. Besley,  
 Jeng-Da Chai,  A. Dreuw,  B. D. Dunietz,  T. R. Furlani,  Chao-Ping Hsu,  
 Yousung Jung,  Jing Kong,  D. S. Lambrecht,  WanZhen Liang,  C. Ochsenfeld,  
 V. A. Rassolov,  L. V. Slipchenko,  J. E. Subotnik,  T. Van Voorhis,  
 J. M. Herbert,  A. I. Krylov,  P. M. W. Gill,  M. Head-Gordon

 Contributors to earlier versions of Q-Chem not listed above: 
 R. D. Adamson,  B. Austin,  J. Baker,  G. J. O. Beran,  K. Brandhorst,  
 S. T. Brown,  E. F. C. Byrd,  A. K. Chakraborty,  C.-L. Cheng,  
 Siu Hung Chien,  D. M. Chipman,  D. L. Crittenden,  H. Dachsel,  
 R. A. DiStasio Jr.,  R. J. Doerksen,  A. D. Dutoi,  L. Fusti-Molnar,  
 W. A. Goddard III,  A. Golubeva-Zadorozhnaya,  S. R. Gwaltney,  G. Hawkins,  
 A. Heyden,  S. Hirata,  G. Kedziora,  F. J. Keil,  C. Kelley,  Jihan Kim,  
 R. A. King,  R. Z. Khaliullin,  P. P. Korambath,  W. Kurlancheek,  
 A. M. Lee,  M. S. Lee,  S. V. Levchenko,  Ching Yeh Lin,  D. Liotard,  
 R. C. Lochan,  I. Lotan,  P. E. Maslen,  N. Nair,  D. P. O'Neill,  
 D. Neuhauser,  E. Neuscamman,  C. M. Oana,  R. Olson,  B. Peters,  
 R. Peverati,  P. A. Pieniazek,  Y. M. Rhee,  J. Ritchie,  M. A. Rohrdanz,  
 E. Rosta,  N. J. Russ,  H. F. Schaefer III,  N. E. Schultz,  N. Shenvi,  
 A. C. Simmonett,  A. Sodt,  D. Stuck,  K. S. Thanthiriwatte,  V. Vanovschi,  
 Tao Wang,  A. Warshel,  C. F. Williams,  Q. Wu,  X. Xu,  W. Zhang

 Please cite Q-Chem as follows:
 Y. Shao et al., Mol. Phys. 113, 184-215 (2015)
 DOI: 10.1080/00268976.2014.952696

 Q-Chem 5.0.0 for Intel X86 EM64T Linux

 Parts of Q-Chem use Armadillo 5.200.1 (Boston Tea Smuggler).
 http://arma.sourceforge.net/

 Q-Chem begins on Mon Dec  9 10:10:58 2019  

Host: r3750
0

     Scratch files written to /jobfs/local/4046340.r-man2/CP19.CCSD-T_6-31pGd.mo//
 Parallel job on  1  processors
Core orbitals will be frozen

Checking the input file for inconsistencies... 	...done.

--------------------------------------------------------------
User input:
--------------------------------------------------------------
$molecule
  0 1
    C     -6.3330693079    1.2172209296   -0.0297743341
    N     -5.0559207952    0.6543032575    0.0113379765
    C     -3.8339772072    1.3190363472   -0.0600817055
    O     -3.7244688526    2.5151564473   -0.2125443484
    N     -2.7561925247    0.4740653666    0.0290542430
    C     -1.4163577481    1.0457949276    0.0845918885
    C     -0.3660391645   -0.0476636544   -0.0423451047
    C      1.0466459308    0.5259266287    0.0053945548
    C     -6.5672908250    2.5955289002   -0.0025492504
    C     -7.8734078117    3.0617026490   -0.0240442857
    C     -8.9656654608    2.1956141580   -0.0741504389
    C     -8.7160692052    0.8265330952   -0.1023504397
    C     -7.4226979591    0.3396537315   -0.0809325327
    H     -5.0292539606   -0.3522090217   -0.0527039582
    H     -2.8830062570   -0.4144880293    0.4918430712
    H     -1.2754276262    1.6104162594    1.0138572390
    H     -1.3285652911    1.7594203219   -0.7360657637
    H     -0.5253641616   -0.5873365106   -0.9805353888
    H     -0.4930496361   -0.7756340091    0.7678658223
    H      1.2080013083    1.2377257198   -0.8075074831
    H      1.7964855078   -0.2609479653   -0.0876212263
    H      1.2286212290    1.0500458195    0.9466303840
    H     -5.7459671957    3.2940543512    0.0270650490
    Cl    -8.1069986059    4.7833091285    0.0128980000
    C    -10.3810141806    2.7007688394   -0.0985018428
    H     -9.5484446251    0.1357290585   -0.1420335305
    H     -7.2542469943   -0.7320660790   -0.1022631828
    F    -11.2585898342    1.6852318988   -0.1471586998
    F    -10.6842407062    3.4203085286    0.9906365458
    F    -10.6279780395    3.4751489053   -1.1637612580

$end

$rem

    JOBTYPE               sp
    METHOD                CCSD(T)
    BASIS                 6-31+G*
    CC_BACKEND            XM

    MEM_TOTAL             60000
$end
--------------------------------------------------------------
 ----------------------------------------------------------------
             Standard Nuclear Orientation (Angstroms)
    I     Atom           X                Y                Z
 ----------------------------------------------------------------
    1      C      -0.1855213342    -0.7547166565    -0.0218460322
    2      N      -1.5638901504    -0.9754659542    -0.0541571019
    3      C      -2.5770261493    -0.0240324774     0.0377492115
    4      O      -2.3787809189     1.1588393764     0.2034393963
    5      N      -3.8343658892    -0.5674862113    -0.0476663300
    6      C      -4.9861644921     0.3254172791    -0.0823027946
    7      C      -6.2780446928    -0.4680809297     0.0455249707
    8      C      -7.4997796732     0.4449644579     0.0195283494
    9      C       0.3898639033     0.5196492431    -0.0378825064
   10      C       1.7715921602     0.6397271755    -0.0264852372
   11      C       2.6093049329    -0.4751898595     0.0025662389
   12      C       2.0213914246    -1.7367506671     0.0198440519
   13      C       0.6467502605    -1.8800854241     0.0081718886
   14      H      -1.8440326316    -1.9431737630     0.0000761410
   15      H      -3.9405911632    -1.4533106752    -0.5207557189
   16      H      -4.9873215909     0.9189629284    -1.0042002198
   17      H      -4.8834823780     1.0276474534     0.7464172226
   18      H      -6.2527001668    -1.0422609675     0.9763886529
   19      H      -6.3463334113    -1.1942460267    -0.7733371338
   20      H      -7.4687876462     1.1641458312     0.8413074400
   21      H      -8.4236332630    -0.1275900169     0.1131171921
   22      H      -7.5509997009     1.0098701883    -0.9142804350
   23      H      -0.2280164858     1.4036368111    -0.0511911761
   24      Cl      2.4332207302     2.2464656822    -0.0487847569
   25      C       4.1065958394    -0.3450884278     0.0159752142
   26      H       2.6520028929    -2.6161929606     0.0431728501
   27      H       0.2125786307    -2.8744462328     0.0206480416
   28      F       4.6987743206    -1.5502159902     0.0445058987
   29      F       4.5729893247     0.2879026923    -1.0692461818
   30      F       4.5505509161     0.3281031536     1.0860921425
 ----------------------------------------------------------------
 Molecular Point Group                 C1    NOp =  1
 Largest Abelian Subgroup              C1    NOp =  1
 Nuclear Repulsion Energy =  1432.9305507740 hartrees
 There are       72 alpha and       72 beta electrons
 Requested basis set is 6-31+G(d)
 There are 115 shells and 370 basis functions
 Total memory of 101219MB is distributed as follows: 
   QALLOC including MEM_STATIC uses 30062MB
   MEM_STATIC is set to 62MB
   CCMAN JOB total memory use is  101157MB
 Warning: actual memory use might exceed 101219MB

 Total QAlloc Memory Limit  30062 MB
 Mega-Array Size        61 MB
 MEM_STATIC part        62 MB
 A cutoff of  1.0D-14 yielded   4887 shell pairs
 There are     54296 function pairs
 
 -------------------------------------------------------
 OpenMP Integral Computing Module                       
 Release: version 1.0, May 2013, Q-Chem Inc. Pittsburgh 
 -------------------------------------------------------
 Integral Job Info:
 Integral job number is                      11
 Integral operator is                         1
 short-range coefficients                     0
 long-range coefficients              100000000
 Omega coefficients                           0
 if combine SR and LR in K                    0
 Integral screening is                        0
 Integral computing path is                   2
 max size of driver memory is            800000
 size of driver memory is                593474
 size of scratch memory is             15166112
 max col of scratch BK array               1296
 max len of scratch array in speh3          155
 max len of scratch index in speh4           18
 max int batch size is                      520
 min int batch size is                       52
 fixed nKL is                                52
 max L of basis functions is                  2
 order of int derivative is                   0
 number of shells is                        115
 number of basis is                         370
 number of cartesian basis is               370
 number of contracted shell pairs          4887
 number of primitive shell pairs          15861
 maxK2 (contraction) of shell pair           36
 max number of K2 of shell pair               1
 max number of CS2 of shell pair            669
 max number of PS2 of shell pair           3804
 mem total for path MDJ                  135738
 -------------------------------------------------------
 Smallest overlap matrix eigenvalue = 4.91E-07
 Linear dependence detected in AO basis
 Number of orthogonalized atomic orbitals = 369
 Maximum deviation from orthogonality = 3.599E-10

 Scale SEOQF with 1.000000e-02/1.000000e-01/1.000000e-01

 Standard Electronic Orientation quadrupole field applied
 Nucleus-field energy     =     0.0000000198 hartrees
 Guess from superposition of atomic densities
 Warning:  Energy on first SCF cycle will be non-variational
 A restricted Hartree-Fock SCF calculation will be
 performed using Pulay DIIS extrapolation
 SCF converges when DIIS error is below 1.0E-08
 -------------------------------------------------------
 OpenMP Integral computing Module                
 Release: version 1.0, May 2013, Q-Chem Inc. Pittsburgh 
 -------------------------------------------------------
 ---------------------------------------
  Cycle       Energy         DIIS Error
 ---------------------------------------
    1   -1371.4033151460      3.92E-02
    2   -1364.8023787238      4.55E-03
    3   -1365.0596726911      2.81E-03
    4   -1365.1575862418      5.33E-04
    5   -1365.1631869997      1.80E-04
    6   -1365.1637965605      4.36E-05
    7   -1365.1638536260      1.88E-05
    8   -1365.1638663381      5.73E-06
    9   -1365.1638678302      2.35E-06
   10   -1365.1638680206      8.69E-07
   11   -1365.1638680509      3.44E-07
   12   -1365.1638680559      1.22E-07
   13   -1365.1638680566      3.81E-08
   14   -1365.1638680567      1.76E-08
   15   -1365.1638680567      7.59E-09 Convergence criterion met
 ---------------------------------------
 SCF time:  CPU 221.55 s  wall 56.80 s
 SCF   energy in the final basis set = -1365.1638680567
 Total energy in the final basis set = -1365.1638680567


 ------------------------------------------------------------------------------

   CCMAN2: suite of methods based on coupled cluster
           and equation of motion theories.

   Components:
   * libvmm-1.3-trunk
     by Evgeny Epifanovsky, Ilya Kaliman.
   * libtensor-2.5-release
     by Evgeny Epifanovsky, Michael Wormit, Dmitry Zuev, Sam Manzer, 
        Ilya Kaliman.
   * libcc-2.5-trunk
     by Evgeny Epifanovsky, Arik Landau, Tomasz Kus, Kirill Khistyaev, 
        Dmitry Zuev, Prashant Manohar, Xintian Feng, Anna Krylov, 
        Matthew Goldey, Alec White, Thomas Jagau, Kaushik Nanda, 
        Anastasia Gunina, Alexander Kunitsa, Joonho Lee.

   CCMAN original authors:
   Anna I. Krylov, C. David Sherrill, Steven R. Gwaltney,
   Edward F. C. Byrd (2000)
   Sergey V. Levchenko, Lyudmila V. Slipchenko, Tao Wang,
   Ana-Maria C. Cristian (2003)
   Piotr A. Pieniazek, C. Melania Oana, Evgeny Epifanovsky (2007)
   Prashant Manohar (2009)

 ------------------------------------------------------------------------------


================================================================================
This program uses libxm tensor contraction code.
See https://github.com/ilyak/libxm for more info.
libxm is (c) Ilya Kaliman 2014-2016.
================================================================================

 Calculation will run on 4 cores using libxm for tensor contractions

 
 Alpha MOs, Restricted
 -- Occupied --                  
-104.84  -26.35  -26.34  -26.34  -20.55  -15.63  -15.61  -11.52
  1 A     2 A     3 A     4 A     5 A     6 A     7 A     8 A                  
-11.409 -11.331 -11.326 -11.278 -11.276 -11.275 -11.264 -11.256
  9 A    10 A    11 A    12 A    13 A    14 A    15 A    16 A                  
-11.245 -11.232 -10.568  -8.038  -8.034  -8.034  -1.731  -1.634
 17 A    18 A    19 A    20 A    21 A    22 A    23 A    24 A                  
 -1.630  -1.427  -1.290  -1.248  -1.207  -1.133  -1.083  -1.064
 25 A    26 A    27 A    28 A    29 A    30 A    31 A    32 A                  
 -1.024  -0.973  -0.942  -0.886  -0.864  -0.836  -0.827  -0.818
 33 A    34 A    35 A    36 A    37 A    38 A    39 A    40 A                  
 -0.814  -0.798  -0.767  -0.733  -0.706  -0.706  -0.679  -0.673
 41 A    42 A    43 A    44 A    45 A    46 A    47 A    48 A                  
 -0.663  -0.657  -0.657  -0.646  -0.641  -0.633  -0.630  -0.612
 49 A    50 A    51 A    52 A    53 A    54 A    55 A    56 A                  
 -0.602  -0.585  -0.570  -0.557  -0.553  -0.531  -0.525  -0.508
 57 A    58 A    59 A    60 A    61 A    62 A    63 A    64 A                  
 -0.501  -0.494  -0.462  -0.459  -0.456  -0.417  -0.356  -0.335
 65 A    66 A    67 A    68 A    69 A    70 A    71 A    72 A                  
 -- Virtual --                   
  0.042   0.070   0.078   0.081   0.085   0.089   0.090   0.095
 73 A    74 A    75 A    76 A    77 A    78 A    79 A    80 A                  
  0.100   0.109   0.111   0.115   0.123   0.124   0.128   0.134
 81 A    82 A    83 A    84 A    85 A    86 A    87 A    88 A                  
  0.136   0.145   0.149   0.150   0.158   0.159   0.171   0.175
 89 A    90 A    91 A    92 A    93 A    94 A    95 A    96 A                  
  0.177   0.186   0.192   0.199   0.201   0.207   0.212   0.217
 97 A    98 A    99 A   100 A   101 A   102 A   103 A   104 A                  
  0.221   0.230   0.236   0.241   0.247   0.255   0.261   0.265
105 A   106 A   107 A   108 A   109 A   110 A   111 A   112 A                  
  0.272   0.283   0.284   0.290   0.298   0.305   0.308   0.312
113 A   114 A   115 A   116 A   117 A   118 A   119 A   120 A                  
  0.318   0.320   0.323   0.327   0.330   0.335   0.338   0.344
121 A   122 A   123 A   124 A   125 A   126 A   127 A   128 A                  
  0.347   0.355   0.363   0.374   0.377   0.382   0.386   0.399
129 A   130 A   131 A   132 A   133 A   134 A   135 A   136 A                  
  0.403   0.408   0.412   0.419   0.423   0.424   0.433   0.438
137 A   138 A   139 A   140 A   141 A   142 A   143 A   144 A                  
  0.440   0.443   0.447   0.452   0.455   0.463   0.469   0.474
145 A   146 A   147 A   148 A   149 A   150 A   151 A   152 A                  
  0.478   0.487   0.488   0.496   0.499   0.501   0.505   0.516
153 A   154 A   155 A   156 A   157 A   158 A   159 A   160 A                  
  0.525   0.541   0.558   0.562   0.571   0.578   0.582   0.588
161 A   162 A   163 A   164 A   165 A   166 A   167 A   168 A                  
  0.606   0.617   0.623   0.647   0.666   0.682   0.735   0.768
169 A   170 A   171 A   172 A   173 A   174 A   175 A   176 A                  
  0.784   0.837   0.842   0.849   0.870   0.873   0.892   0.899
177 A   178 A   179 A   180 A   181 A   182 A   183 A   184 A                  
  0.910   0.912   0.926   0.929   0.937   0.941   0.948   0.960
185 A   186 A   187 A   188 A   189 A   190 A   191 A   192 A                  
  0.973   0.985   0.994   1.013   1.020   1.027   1.036   1.045
193 A   194 A   195 A   196 A   197 A   198 A   199 A   200 A                  
  1.052   1.067   1.079   1.080   1.093   1.129   1.136   1.158
201 A   202 A   203 A   204 A   205 A   206 A   207 A   208 A                  
  1.170   1.178   1.188   1.193   1.207   1.216   1.225   1.236
209 A   210 A   211 A   212 A   213 A   214 A   215 A   216 A                  
  1.245   1.247   1.251   1.257   1.267   1.280   1.300   1.316
217 A   218 A   219 A   220 A   221 A   222 A   223 A   224 A                  
  1.322   1.343   1.348   1.362   1.369   1.387   1.391   1.398
225 A   226 A   227 A   228 A   229 A   230 A   231 A   232 A                  
  1.421   1.435   1.442   1.470   1.474   1.492   1.514   1.529
233 A   234 A   235 A   236 A   237 A   238 A   239 A   240 A                  
  1.538   1.572   1.585   1.599   1.604   1.620   1.633   1.666
241 A   242 A   243 A   244 A   245 A   246 A   247 A   248 A                  
  1.671   1.696   1.702   1.706   1.724   1.743   1.766   1.777
249 A   250 A   251 A   252 A   253 A   254 A   255 A   256 A                  
  1.797   1.826   1.852   1.878   1.884   1.915   1.931   1.943
257 A   258 A   259 A   260 A   261 A   262 A   263 A   264 A                  
  1.945   1.969   1.975   1.979   1.984   2.002   2.012   2.031
265 A   266 A   267 A   268 A   269 A   270 A   271 A   272 A                  
  2.041   2.053   2.087   2.104   2.113   2.122   2.128   2.132
273 A   274 A   275 A   276 A   277 A   278 A   279 A   280 A                  
  2.138   2.140   2.160   2.163   2.179   2.190   2.204   2.210
281 A   282 A   283 A   284 A   285 A   286 A   287 A   288 A                  
  2.237   2.252   2.263   2.290   2.305   2.321   2.332   2.351
289 A   290 A   291 A   292 A   293 A   294 A   295 A   296 A                  
  2.357   2.369   2.386   2.395   2.397   2.420   2.429   2.438
297 A   298 A   299 A   300 A   301 A   302 A   303 A   304 A                  
  2.440   2.443   2.453   2.500   2.511   2.526   2.559   2.569
305 A   306 A   307 A   308 A   309 A   310 A   311 A   312 A                  
  2.585   2.592   2.614   2.633   2.661   2.678   2.682   2.717
313 A   314 A   315 A   316 A   317 A   318 A   319 A   320 A                  
  2.742   2.746   2.791   2.808   2.836   2.877   2.916   2.949
321 A   322 A   323 A   324 A   325 A   326 A   327 A   328 A                  
  2.968   2.980   2.993   3.014   3.053   3.089   3.104   3.111
329 A   330 A   331 A   332 A   333 A   334 A   335 A   336 A                  
  3.138   3.154   3.157   3.198   3.245   3.307   3.332   3.467
337 A   338 A   339 A   340 A   341 A   342 A   343 A   344 A                  
  3.485   3.525   3.602   3.619   3.687   3.706   3.798   4.546
345 A   346 A   347 A   348 A   349 A   350 A   351 A   352 A                  
  4.648   4.659   4.686   4.716   4.783   4.803   4.813   4.843
353 A   354 A   355 A   356 A   357 A   358 A   359 A   360 A                  
  4.870   4.880   4.970   5.004   5.072   5.194   5.993   6.489
361 A   362 A   363 A   364 A   365 A   366 A   367 A   368 A                  
  7.440
369 A                                                                          
 
 Beta MOs, Restricted
 -- Occupied --                  
-104.84  -26.35  -26.34  -26.34  -20.55  -15.63  -15.61  -11.52
  1 A     2 A     3 A     4 A     5 A     6 A     7 A     8 A                  
-11.409 -11.331 -11.326 -11.278 -11.276 -11.275 -11.264 -11.256
  9 A    10 A    11 A    12 A    13 A    14 A    15 A    16 A                  
-11.245 -11.232 -10.568  -8.038  -8.034  -8.034  -1.731  -1.634
 17 A    18 A    19 A    20 A    21 A    22 A    23 A    24 A                  
 -1.630  -1.427  -1.290  -1.248  -1.207  -1.133  -1.083  -1.064
 25 A    26 A    27 A    28 A    29 A    30 A    31 A    32 A                  
 -1.024  -0.973  -0.942  -0.886  -0.864  -0.836  -0.827  -0.818
 33 A    34 A    35 A    36 A    37 A    38 A    39 A    40 A                  
 -0.814  -0.798  -0.767  -0.733  -0.706  -0.706  -0.679  -0.673
 41 A    42 A    43 A    44 A    45 A    46 A    47 A    48 A                  
 -0.663  -0.657  -0.657  -0.646  -0.641  -0.633  -0.630  -0.612
 49 A    50 A    51 A    52 A    53 A    54 A    55 A    56 A                  
 -0.602  -0.585  -0.570  -0.557  -0.553  -0.531  -0.525  -0.508
 57 A    58 A    59 A    60 A    61 A    62 A    63 A    64 A                  
 -0.501  -0.494  -0.462  -0.459  -0.456  -0.417  -0.356  -0.335
 65 A    66 A    67 A    68 A    69 A    70 A    71 A    72 A                  
 -- Virtual --                   
  0.042   0.070   0.078   0.081   0.085   0.089   0.090   0.095
 73 A    74 A    75 A    76 A    77 A    78 A    79 A    80 A                  
  0.100   0.109   0.111   0.115   0.123   0.124   0.128   0.134
 81 A    82 A    83 A    84 A    85 A    86 A    87 A    88 A                  
  0.136   0.145   0.149   0.150   0.158   0.159   0.171   0.175
 89 A    90 A    91 A    92 A    93 A    94 A    95 A    96 A                  
  0.177   0.186   0.192   0.199   0.201   0.207   0.212   0.217
 97 A    98 A    99 A   100 A   101 A   102 A   103 A   104 A                  
  0.221   0.230   0.236   0.241   0.247   0.255   0.261   0.265
105 A   106 A   107 A   108 A   109 A   110 A   111 A   112 A                  
  0.272   0.283   0.284   0.290   0.298   0.305   0.308   0.312
113 A   114 A   115 A   116 A   117 A   118 A   119 A   120 A                  
  0.318   0.320   0.323   0.327   0.330   0.335   0.338   0.344
121 A   122 A   123 A   124 A   125 A   126 A   127 A   128 A                  
  0.347   0.355   0.363   0.374   0.377   0.382   0.386   0.399
129 A   130 A   131 A   132 A   133 A   134 A   135 A   136 A                  
  0.403   0.408   0.412   0.419   0.423   0.424   0.433   0.438
137 A   138 A   139 A   140 A   141 A   142 A   143 A   144 A                  
  0.440   0.443   0.447   0.452   0.455   0.463   0.469   0.474
145 A   146 A   147 A   148 A   149 A   150 A   151 A   152 A                  
  0.478   0.487   0.488   0.496   0.499   0.501   0.505   0.516
153 A   154 A   155 A   156 A   157 A   158 A   159 A   160 A                  
  0.525   0.541   0.558   0.562   0.571   0.578   0.582   0.588
161 A   162 A   163 A   164 A   165 A   166 A   167 A   168 A                  
  0.606   0.617   0.623   0.647   0.666   0.682   0.735   0.768
169 A   170 A   171 A   172 A   173 A   174 A   175 A   176 A                  
  0.784   0.837   0.842   0.849   0.870   0.873   0.892   0.899
177 A   178 A   179 A   180 A   181 A   182 A   183 A   184 A                  
  0.910   0.912   0.926   0.929   0.937   0.941   0.948   0.960
185 A   186 A   187 A   188 A   189 A   190 A   191 A   192 A                  
  0.973   0.985   0.994   1.013   1.020   1.027   1.036   1.045
193 A   194 A   195 A   196 A   197 A   198 A   199 A   200 A                  
  1.052   1.067   1.079   1.080   1.093   1.129   1.136   1.158
201 A   202 A   203 A   204 A   205 A   206 A   207 A   208 A                  
  1.170   1.178   1.188   1.193   1.207   1.216   1.225   1.236
209 A   210 A   211 A   212 A   213 A   214 A   215 A   216 A                  
  1.245   1.247   1.251   1.257   1.267   1.280   1.300   1.316
217 A   218 A   219 A   220 A   221 A   222 A   223 A   224 A                  
  1.322   1.343   1.348   1.362   1.369   1.387   1.391   1.398
225 A   226 A   227 A   228 A   229 A   230 A   231 A   232 A                  
  1.421   1.435   1.442   1.470   1.474   1.492   1.514   1.529
233 A   234 A   235 A   236 A   237 A   238 A   239 A   240 A                  
  1.538   1.572   1.585   1.599   1.604   1.620   1.633   1.666
241 A   242 A   243 A   244 A   245 A   246 A   247 A   248 A                  
  1.671   1.696   1.702   1.706   1.724   1.743   1.766   1.777
249 A   250 A   251 A   252 A   253 A   254 A   255 A   256 A                  
  1.797   1.826   1.852   1.878   1.884   1.915   1.931   1.943
257 A   258 A   259 A   260 A   261 A   262 A   263 A   264 A                  
  1.945   1.969   1.975   1.979   1.984   2.002   2.012   2.031
265 A   266 A   267 A   268 A   269 A   270 A   271 A   272 A                  
  2.041   2.053   2.087   2.104   2.113   2.122   2.128   2.132
273 A   274 A   275 A   276 A   277 A   278 A   279 A   280 A                  
  2.138   2.140   2.160   2.163   2.179   2.190   2.204   2.210
281 A   282 A   283 A   284 A   285 A   286 A   287 A   288 A                  
  2.237   2.252   2.263   2.290   2.305   2.321   2.332   2.351
289 A   290 A   291 A   292 A   293 A   294 A   295 A   296 A                  
  2.357   2.369   2.386   2.395   2.397   2.420   2.429   2.438
297 A   298 A   299 A   300 A   301 A   302 A   303 A   304 A                  
  2.440   2.443   2.453   2.500   2.511   2.526   2.559   2.569
305 A   306 A   307 A   308 A   309 A   310 A   311 A   312 A                  
  2.585   2.592   2.614   2.633   2.661   2.678   2.682   2.717
313 A   314 A   315 A   316 A   317 A   318 A   319 A   320 A                  
  2.742   2.746   2.791   2.808   2.836   2.877   2.916   2.949
321 A   322 A   323 A   324 A   325 A   326 A   327 A   328 A                  
  2.968   2.980   2.993   3.014   3.053   3.089   3.104   3.111
329 A   330 A   331 A   332 A   333 A   334 A   335 A   336 A                  
  3.138   3.154   3.157   3.198   3.245   3.307   3.332   3.467
337 A   338 A   339 A   340 A   341 A   342 A   343 A   344 A                  
  3.485   3.525   3.602   3.619   3.687   3.706   3.798   4.546
345 A   346 A   347 A   348 A   349 A   350 A   351 A   352 A                  
  4.648   4.659   4.686   4.716   4.783   4.803   4.813   4.843
353 A   354 A   355 A   356 A   357 A   358 A   359 A   360 A                  
  4.870   4.880   4.970   5.004   5.072   5.194   5.993   6.489
361 A   362 A   363 A   364 A   365 A   366 A   367 A   368 A                  
  7.440
369 A                                                                          

 Occupation and symmetry of molecular orbitals

 Point group: C1 (1 irreducible representation).

                           A     All 
 -------------------------------------
 All molecular orbitals:
  - Alpha                  369   369 
  - Beta                   369   369 
 -------------------------------------
 Alpha orbitals:
  - Frozen occupied        22    22  
  - Active occupied        50    50  
  - Active virtual         297   297 
  - Frozen virtual         0     0   
 -------------------------------------
 Beta orbitals:
  - Frozen occupied        22    22  
  - Active occupied        50    50  
  - Active virtual         297   297 
  - Frozen virtual         0     0   
 -------------------------------------

 Import integrals:   CPU 0.00 s  wall 0.00 s

 Import integrals:   CPU 1530.23 s  wall 607.84 s

 MP2 amplitudes:   CPU 26.48 s  wall 72.98 s

           CCSD T amplitudes will be solved using DIIS.

           Start     Size      MaxIter   EConv     TConv     
           3         7         100       1.00e-06  1.00e-04  
 ------------------------------------------------------------------------------
           Energy (a.u.)   Ediff      Tdiff       Comment
 ------------------------------------------------------------------------------
         -1367.74406560                           
     1   -1367.73820380   5.86e-03   1.48e+00     Step took 47.15.
     2   -1367.81602947   7.78e-02   2.00e-01     
     3   -1367.81548002   5.49e-04   7.35e-02     
     4   -1367.82313847   7.66e-03   2.43e-02     Switched to DIIS steps.
     5   -1367.82579194   2.65e-03   1.65e-02     
     6   -1367.82595669   1.65e-04   3.46e-03     
     7   -1367.82594279   1.39e-05   1.78e-03     
     8   -1367.82593349   9.29e-06   4.59e-04     
     9   -1367.82593467   1.17e-06   1.96e-04     
    10   -1367.82593485   1.80e-07   5.63e-05     
 ------------------------------------------------------------------------------
         -1367.82593485                           CCSD T converged.


 ------------------------------------------------------------------------------
 == (T) code is based on LIBPT ==
 == Author: Ilya Kaliman, 2016 ==

 Starting (T) calculation...
 (T) calculation completed in 63135 sec
 ------------------------------------------------------------------------------

 SCF energy                 = -1365.16386806
 MP2 energy                 = -1367.74406560
 CCSD correlation energy     =    -2.66206679
 CCSD total energy           = -1367.82593485
 CCSD(T) correlation energy =    -0.09978155
 CCSD(T) total energy       = -1367.92571640

 CCSD  T1^2 = 0.0367  T2^2 = 0.8930  Leading amplitudes:

 Amplitude    Orbitals with energies
  0.0170       54 (A) A                  ->    103 (A) A                  
              -0.6335                          0.2119                     
  0.0170       54 (A) B                  ->    103 (A) B                  
              -0.6335                          0.2119                     
  0.0169       69 (A) A                  ->    80 (A) A                   
              -0.4559                          0.0951                     
  0.0169       69 (A) B                  ->    80 (A) B                   
              -0.4559                          0.0951                     

 Amplitude    Orbitals with energies
 -0.0312       71 (A) A      71 (A) B    ->    79 (A) A      79 (A) B     
              -0.3562       -0.3562            0.0901        0.0901       
  0.0312       71 (A) A      71 (A) B    ->    79 (A) B      79 (A) A     
              -0.3562       -0.3562            0.0901        0.0901       
  0.0312       71 (A) B      71 (A) A    ->    79 (A) A      79 (A) B     
              -0.3562       -0.3562            0.0901        0.0901       
 -0.0312       71 (A) B      71 (A) A    ->    79 (A) B      79 (A) A     
              -0.3562       -0.3562            0.0901        0.0901       

 CCSD calculation:   CPU 319901.19 s  wall 97409.73 s

 Total ccman2 time:   CPU 321478.59 s  wall 98108.68 s

 
 --------------------------------------------------------------
 
                    Orbital Energies (a.u.)
 --------------------------------------------------------------
 
 Alpha MOs
 -- Occupied --
******* -26.351 -26.344 -26.344 -20.550 -15.633 -15.609 -11.518
-11.409 -11.331 -11.326 -11.278 -11.276 -11.275 -11.264 -11.256
-11.245 -11.232 -10.568  -8.038  -8.034  -8.034  -1.731  -1.634
 -1.630  -1.427  -1.290  -1.248  -1.207  -1.133  -1.083  -1.064
 -1.024  -0.973  -0.942  -0.886  -0.864  -0.836  -0.827  -0.818
 -0.814  -0.798  -0.767  -0.733  -0.706  -0.706  -0.679  -0.673
 -0.663  -0.657  -0.657  -0.646  -0.641  -0.633  -0.630  -0.612
 -0.602  -0.585  -0.570  -0.557  -0.553  -0.531  -0.525  -0.508
 -0.501  -0.494  -0.462  -0.459  -0.456  -0.417  -0.356  -0.335
 -- Virtual --
  0.042   0.070   0.078   0.081   0.085   0.089   0.090   0.095
  0.100   0.109   0.111   0.115   0.123   0.124   0.128   0.134
  0.136   0.145   0.149   0.150   0.158   0.159   0.171   0.175
  0.177   0.186   0.192   0.199   0.201   0.207   0.212   0.217
  0.221   0.230   0.236   0.241   0.247   0.255   0.261   0.265
  0.272   0.283   0.284   0.290   0.298   0.305   0.308   0.312
  0.318   0.320   0.323   0.327   0.330   0.335   0.338   0.344
  0.347   0.355   0.363   0.374   0.377   0.382   0.386   0.399
  0.403   0.408   0.412   0.419   0.423   0.424   0.433   0.438
  0.440   0.443   0.447   0.452   0.455   0.463   0.469   0.474
  0.478   0.487   0.488   0.496   0.499   0.501   0.505   0.516
  0.525   0.541   0.558   0.562   0.571   0.578   0.582   0.588
  0.606   0.617   0.623   0.647   0.666   0.682   0.735   0.768
  0.784   0.837   0.842   0.849   0.870   0.873   0.892   0.899
  0.910   0.912   0.926   0.929   0.937   0.941   0.948   0.960
  0.973   0.985   0.994   1.013   1.020   1.027   1.036   1.045
  1.052   1.067   1.079   1.080   1.093   1.129   1.136   1.158
  1.170   1.178   1.188   1.193   1.207   1.216   1.225   1.236
  1.245   1.247   1.251   1.257   1.267   1.280   1.300   1.316
  1.322   1.343   1.348   1.362   1.369   1.387   1.391   1.398
  1.421   1.435   1.442   1.470   1.474   1.492   1.514   1.529
  1.538   1.572   1.585   1.599   1.604   1.620   1.633   1.666
  1.671   1.696   1.702   1.706   1.724   1.743   1.766   1.777
  1.797   1.826   1.852   1.878   1.884   1.915   1.931   1.943
  1.945   1.969   1.975   1.979   1.984   2.002   2.012   2.031
  2.041   2.053   2.087   2.104   2.113   2.122   2.128   2.132
  2.138   2.140   2.160   2.163   2.179   2.190   2.204   2.210
  2.237   2.252   2.263   2.290   2.305   2.321   2.332   2.351
  2.357   2.369   2.386   2.395   2.397   2.420   2.429   2.438
  2.440   2.443   2.453   2.500   2.511   2.526   2.559   2.569
  2.585   2.592   2.614   2.633   2.661   2.678   2.682   2.717
  2.742   2.746   2.791   2.808   2.836   2.877   2.916   2.949
  2.968   2.980   2.993   3.014   3.053   3.089   3.104   3.111
  3.138   3.154   3.157   3.198   3.245   3.307   3.332   3.467
  3.485   3.525   3.602   3.619   3.687   3.706   3.798   4.546
  4.648   4.659   4.686   4.716   4.783   4.803   4.813   4.843
  4.870   4.880   4.970   5.004   5.072   5.194   5.993   6.489
  7.440
 --------------------------------------------------------------
 
          Ground-State Mulliken Net Atomic Charges

     Atom                 Charge (a.u.)
  ----------------------------------------
      1 C                    -0.101251
      2 N                    -0.820356
      3 C                     0.777009
      4 O                    -0.634057
      5 N                    -0.673501
      6 C                    -0.061871
      7 C                    -0.274753
      8 C                    -0.676411
      9 C                     0.267129
     10 C                     0.868651
     11 C                    -1.850688
     12 C                    -0.202025
     13 C                    -0.797463
     14 H                     0.461662
     15 H                     0.417596
     16 H                     0.203266
     17 H                     0.226365
     18 H                     0.207392
     19 H                     0.180589
     20 H                     0.199025
     21 H                     0.200002
     22 H                     0.197140
     23 H                     0.336893
     24 Cl                    0.292776
     25 C                     1.903123
     26 H                     0.277947
     27 H                     0.231706
     28 F                    -0.441103
     29 F                    -0.359074
     30 F                    -0.355720
  ----------------------------------------
  Sum of atomic charges =     0.000000

 -----------------------------------------------------------------
                    Cartesian Multipole Moments
 -----------------------------------------------------------------
    Charge (ESU x 10^10)
                 0.0000
    Dipole Moment (Debye)
         X      -6.4595      Y      -5.2548      Z      -0.8892
       Tot       8.3743
    Quadrupole Moments (Debye-Ang)
        XX    -109.6756     XY       6.3630     YY    -106.7036
        XZ       3.2888     YZ       0.4868     ZZ    -115.5762
    Octopole Moments (Debye-Ang^2)
       XXX    -123.3968    XXY     -23.2578    XYY      21.8033
       YYY     -21.6850    XXZ     -10.4446    XYZ      -4.0817
       YYZ      -2.0182    XZZ      16.0435    YZZ       3.9750
       ZZZ       0.5249
    Hexadecapole Moments (Debye-Ang^3)
      XXXX   -9501.6289   XXXY      70.6489   XXYY   -1783.9149
      XYYY      32.6166   YYYY    -974.0556   XXXZ      33.0121
      XXYZ      19.1736   XYYZ       9.2327   YYYZ       2.6101
      XXZZ   -1679.6770   XYZZ      -8.2239   YYZZ    -218.6310
      XZZZ       2.3813   YZZZ       0.7889   ZZZZ    -209.3030
 -----------------------------------------------------------------
Archival summary:
1\1\r3750\SP\ProcedureUnspecified\6-31+G*\l13121112\hio507\TueDec1013:29:112019TueDec1013:29:112019\0\\#,ProcedureUnspecified,6-31+G*,\\0,1\Cl\C,1,1.73777\C,2,1.38698,1,117.338\H,3,1.0786,2,119.989,1,-0.526608,0\C,2,1.39486,1,120.707,3,-179.959,0\C,5,1.39193,2,118.101,1,179.977,0\H,6,1.08242,5,119.378,2,-179.956,0\C,6,1.38214,5,120.928,2,0.017163,0\H,8,1.08509,6,119.531,5,179.912,0\C,3,1.39833,2,119.257,1,179.946,0\N,10,1.39631,3,123.368,2,-178.887,0\H,11,1.0089,10,115.119,3,-177.633,0\C,11,1.39288,10,127.482,3,-7.45279,0\O,13,1.21076,11,123.867,10,-2.35311,0\N,13,1.37242,11,113.066,10,179.079,0\H,15,1.00984,13,118.221,11,-24.3026,0\C,15,1.45778,13,118.868,11,-174.765,0\H,17,1.09108,15,107.567,13,-50.2325,0\H,17,1.09645,15,110.633,13,66.1649,0\C,5,1.50299,2,121.957,1,0.00443542,0\F,20,1.33994,5,112.376,2,60.4067,0\F,20,1.34011,5,112.356,2,-60.4723,0\F,20,1.34306,5,111.208,2,179.98,0\C,17,1.52149,15,110.453,13,-171.02,0\H,24,1.094,17,108.998,15,57.6731,0\H,24,1.09659,17,109.603,15,-58.9022,0\C,24,1.52544,17,111.497,15,179.696,0\H,27,1.09091,24,111.263,17,-179.903,0\H,27,1.09248,24,111.007,17,-59.9022,0\H,27,1.09258,24,111.197,17,59.9688,0\\HF=-1365.16387\\@

 Total job time:  98292.45s(wall), 321701.28s(cpu) 
 Tue Dec 10 13:29:11 2019

        *************************************************************
        *                                                           *
        *  Thank you very much for using Q-Chem.  Have a nice day.  *
        *                                                           *
        *************************************************************


0 sent ACK to 0 
now end server 0 ... 
