 Entering Gaussian System, Link 0=/apps/gaussian/g09e01/g09/g09
 AtFile(1): /home/507/hio507/Basis/GTMP2LARGE.gbs
 Initial command:
 /apps/gaussian/g09e01/g09/l1.exe "/jobfs/local/3890849.r-man2/Gau-9435.inp" -scrdir="/jobfs/local/3890849.r-man2/"
 Entering Link 1 = /apps/gaussian/g09e01/g09/l1.exe PID=      9445.
  
 Copyright (c) 1988,1990,1992,1993,1995,1998,2003,2009,2015,
            Gaussian, Inc.  All Rights Reserved.
  
 This is part of the Gaussian(R) 09 program.  It is based on
 the Gaussian(R) 03 system (copyright 2003, Gaussian, Inc.),
 the Gaussian(R) 98 system (copyright 1998, Gaussian, Inc.),
 the Gaussian(R) 94 system (copyright 1995, Gaussian, Inc.),
 the Gaussian 92(TM) system (copyright 1992, Gaussian, Inc.),
 the Gaussian 90(TM) system (copyright 1990, Gaussian, Inc.),
 the Gaussian 88(TM) system (copyright 1988, Gaussian, Inc.),
 the Gaussian 86(TM) system (copyright 1986, Carnegie Mellon
 University), and the Gaussian 82(TM) system (copyright 1983,
 Carnegie Mellon University). Gaussian is a federally registered
 trademark of Gaussian, Inc.
  
 This software contains proprietary and confidential information,
 including trade secrets, belonging to Gaussian, Inc.
  
 This software is provided under written license and may be
 used, copied, transmitted, or stored only in accord with that
 written license.
  
 The following legend is applicable only to US Government
 contracts under FAR:
  
                    RESTRICTED RIGHTS LEGEND
  
 Use, reproduction and disclosure by the US Government is
 subject to restrictions as set forth in subparagraphs (a)
 and (c) of the Commercial Computer Software - Restricted
 Rights clause in FAR 52.227-19.
  
 Gaussian, Inc.
 340 Quinnipiac St., Bldg. 40, Wallingford CT 06492
  
  
 ---------------------------------------------------------------
 Warning -- This program may not be used in any manner that
 competes with the business of Gaussian, Inc. or will provide
 assistance to any competitor of Gaussian, Inc.  The licensee
 of this program is prohibited from giving any competitor of
 Gaussian, Inc. access to this program.  By using this program,
 the user acknowledges that Gaussian, Inc. is engaged in the
 business of creating and licensing software in the field of
 computational chemistry and represents and warrants to the
 licensee that it is not a competitor of Gaussian, Inc. and that
 it will not use this program in any manner prohibited above.
 ---------------------------------------------------------------
  

 Cite this work as:
 Gaussian 09, Revision E.01,
 M. J. Frisch, G. W. Trucks, H. B. Schlegel, G. E. Scuseria, 
 M. A. Robb, J. R. Cheeseman, G. Scalmani, V. Barone, B. Mennucci, 
 G. A. Petersson, H. Nakatsuji, M. Caricato, X. Li, H. P. Hratchian, 
 A. F. Izmaylov, J. Bloino, G. Zheng, J. L. Sonnenberg, M. Hada, 
 M. Ehara, K. Toyota, R. Fukuda, J. Hasegawa, M. Ishida, T. Nakajima, 
 Y. Honda, O. Kitao, H. Nakai, T. Vreven, J. A. Montgomery, Jr., 
 J. E. Peralta, F. Ogliaro, M. Bearpark, J. J. Heyd, E. Brothers, 
 K. N. Kudin, V. N. Staroverov, T. Keith, R. Kobayashi, J. Normand, 
 K. Raghavachari, A. Rendell, J. C. Burant, S. S. Iyengar, J. Tomasi, 
 M. Cossi, N. Rega, J. M. Millam, M. Klene, J. E. Knox, J. B. Cross, 
 V. Bakken, C. Adamo, J. Jaramillo, R. Gomperts, R. E. Stratmann, 
 O. Yazyev, A. J. Austin, R. Cammi, C. Pomelli, J. W. Ochterski, 
 R. L. Martin, K. Morokuma, V. G. Zakrzewski, G. A. Voth, 
 P. Salvador, J. J. Dannenberg, S. Dapprich, A. D. Daniels, 
 O. Farkas, J. B. Foresman, J. V. Ortiz, J. Cioslowski, 
 and D. J. Fox, Gaussian, Inc., Wallingford CT, 2013.
 
 ******************************************
 Gaussian 09:  ES64L-G09RevE.01 30-Nov-2015
                30-Nov-2019 
 ******************************************
 %chk=CP19.MP2_GTMP2LARGE.chk
 %mem=1114112000
 %nproc=4
 Will use up to    4 processors via shared memory.
 -------------------------------------------------------------
 # MP2/Gen 5D SCF=Tight INT(grid=ultrafine) maxdisk=3489660928
 -------------------------------------------------------------
 1/38=1/1;
 2/12=2,17=6,18=5,40=1/2;
 3/5=7,8=1,11=9,16=1,25=1,30=1,75=-5/1,2,3;
 4//1;
 5/5=2,32=2,38=5/2;
 8/10=1/1;
 9/16=-3/6;
 6/7=2,8=2,9=2,10=2/1;
 99/5=1,9=1/99;
 -------------------
 CP19.MP2_GTMP2LARGE
 -------------------
 Symbolic Z-matrix:
 Charge =  0 Multiplicity = 1
 C                    -6.33307   1.21722  -0.02977 
 N                    -5.05592   0.6543    0.01134 
 C                    -3.83398   1.31904  -0.06008 
 O                    -3.72447   2.51516  -0.21254 
 N                    -2.75619   0.47407   0.02905 
 C                    -1.41636   1.04579   0.08459 
 C                    -0.36604  -0.04766  -0.04235 
 C                     1.04665   0.52593   0.00539 
 C                    -6.56729   2.59553  -0.00255 
 C                    -7.87341   3.0617   -0.02404 
 C                    -8.96567   2.19561  -0.07415 
 C                    -8.71607   0.82653  -0.10235 
 C                    -7.4227    0.33965  -0.08093 
 H                    -5.02925  -0.35221  -0.0527 
 H                    -2.88301  -0.41449   0.49184 
 H                    -1.27543   1.61042   1.01386 
 H                    -1.32857   1.75942  -0.73607 
 H                    -0.52536  -0.58734  -0.98054 
 H                    -0.49305  -0.77563   0.76787 
 H                     1.208     1.23773  -0.80751 
 H                     1.79649  -0.26095  -0.08762 
 H                     1.22862   1.05005   0.94663 
 H                    -5.74597   3.29405   0.02707 
 Cl                   -8.107     4.78331   0.0129 
 C                    -10.38101   2.70077  -0.0985 
 H                    -9.54844   0.13573  -0.14203 
 H                    -7.25425  -0.73207  -0.10226 
 F                    -11.25859   1.68523  -0.14716 
 F                    -10.68424   3.42031   0.99064 
 F                    -10.62798   3.47515  -1.16376 
 
                          Input orientation:                          
 ---------------------------------------------------------------------
 Center     Atomic      Atomic             Coordinates (Angstroms)
 Number     Number       Type             X           Y           Z
 ---------------------------------------------------------------------
      1          6           0       -6.333069    1.217221   -0.029774
      2          7           0       -5.055921    0.654303    0.011338
      3          6           0       -3.833977    1.319036   -0.060082
      4          8           0       -3.724469    2.515156   -0.212544
      5          7           0       -2.756193    0.474065    0.029054
      6          6           0       -1.416358    1.045795    0.084592
      7          6           0       -0.366039   -0.047664   -0.042345
      8          6           0        1.046646    0.525927    0.005395
      9          6           0       -6.567291    2.595529   -0.002549
     10          6           0       -7.873408    3.061703   -0.024044
     11          6           0       -8.965665    2.195614   -0.074150
     12          6           0       -8.716069    0.826533   -0.102350
     13          6           0       -7.422698    0.339654   -0.080933
     14          1           0       -5.029254   -0.352209   -0.052704
     15          1           0       -2.883006   -0.414488    0.491843
     16          1           0       -1.275428    1.610416    1.013857
     17          1           0       -1.328565    1.759420   -0.736066
     18          1           0       -0.525364   -0.587337   -0.980535
     19          1           0       -0.493050   -0.775634    0.767866
     20          1           0        1.208001    1.237726   -0.807507
     21          1           0        1.796486   -0.260948   -0.087621
     22          1           0        1.228621    1.050046    0.946630
     23          1           0       -5.745967    3.294054    0.027065
     24         17           0       -8.106999    4.783309    0.012898
     25          6           0      -10.381014    2.700769   -0.098502
     26          1           0       -9.548445    0.135729   -0.142034
     27          1           0       -7.254247   -0.732066   -0.102263
     28          9           0      -11.258590    1.685232   -0.147159
     29          9           0      -10.684241    3.420309    0.990637
     30          9           0      -10.627978    3.475149   -1.163761
 ---------------------------------------------------------------------
                    Distance matrix (angstroms):
                    1          2          3          4          5
     1  C    0.000000
     2  N    1.396308   0.000000
     3  C    2.501349   1.392881   0.000000
     4  O    2.919390   2.299057   1.210760   0.000000
     5  N    3.653736   2.306848   1.372422   2.271999   0.000000
     6  C    4.921028   3.661291   2.437309   2.752215   1.457778
     7  C    6.099634   4.742429   3.727570   4.228010   2.447475
     8  C    7.412106   6.103920   4.945078   5.173787   3.803266
     9  C    1.398333   2.460242   3.017242   2.851700   4.361889
    10  C    2.403079   3.706084   4.399453   4.189026   5.734508
    11  C    2.808876   4.203457   5.206036   5.252752   6.444528
    12  C    2.415904   3.665962   4.907053   5.270642   5.971736
    13  C    1.400011   2.389383   3.720019   4.292672   4.669736
    14  H    2.040483   1.008900   2.054702   3.154330   2.419963
    15  H    3.851947   2.468756   2.052821   3.128424   1.009843
    16  H    5.179142   4.026329   2.790058   2.884514   2.110402
    17  H    5.083098   3.958923   2.632106   2.566236   2.067768
    18  H    6.155470   4.801190   3.927902   4.522117   2.668790
    19  H    6.222020   4.841162   4.029260   4.715143   2.688756
    20  H    7.581097   6.344100   5.097725   5.129822   4.122844
    21  H    8.263050   6.913968   5.848010   6.180882   4.613105
    22  H    7.626302   6.366070   5.168726   5.293707   4.129460
    23  H    2.158971   2.728497   2.750272   2.179576   4.109878
    24  Cl   3.983168   5.133982   5.501384   4.939829   6.870296
    25  C    4.311786   5.705848   6.691364   6.660109   7.944330
    26  H    3.394240   4.524954   5.836272   6.291688   6.802825
    27  H    2.157207   2.601454   3.988364   4.797494   4.658808
    28  F    4.949097   6.289757   7.434148   7.579976   8.590037
    29  F    4.982723   6.347267   7.241924   7.120770   8.512282
    30  F    4.983012   6.354986   7.212862   7.034546   8.508485
                    6          7          8          9         10
     6  C    0.000000
     7  C    1.521491   0.000000
     8  C    2.518516   1.525439   0.000000
     9  C    5.379719   6.741185   7.890206   0.000000
    10  C    6.765292   8.125828   9.273531   1.386983   0.000000
    11  C    7.638019   8.887456  10.150890   2.432542   1.394864
    12  C    7.305396   8.395881   9.767936   2.785059   2.390019
    13  C    6.049972   7.067385   8.471832   2.413884   2.759697
    14  H    3.876375   4.673160   6.139304   3.325242   4.443515
    15  H    2.109345   2.599046   4.069788   4.783156   6.103618
    16  H    1.096445   2.166052   2.754113   5.477896   6.834970
    17  H    1.091076   2.161772   2.777211   5.355499   6.711027
    18  H    2.143708   1.093998   2.163938   6.898693   8.259789
    19  H    2.153361   1.096592   2.155478   6.989613   8.355954
    20  H    2.778478   2.171475   1.092476   7.933899   9.295843
    21  H    3.472693   2.173489   1.090909   8.838521  10.225013
    22  H    2.781913   2.173932   1.092584   8.004105   9.372081
    23  H    4.878883   6.333682   7.335025   1.078604   2.140702
    24  Cl   7.664126   9.124900  10.095275   2.675317   1.737774
    25  C    9.117978  10.385411  11.633235   3.816382   2.534543
    26  H    8.185989   9.184778  10.603298   3.867473   3.373572
    27  H    6.105461   6.922384   8.396366   3.399226   3.844757
    28  F    9.865704  11.030031  12.360667   4.780987   3.656403
    29  F    9.610041  10.934311  12.122782   4.314621   3.009810
    30  F    9.608022  10.907574  12.098003   4.314085   3.009576
                   11         12         13         14         15
    11  C    0.000000
    12  C    1.391933   0.000000
    13  C    2.413583   1.382143   0.000000
    14  H    4.689051   3.870982   2.491595   0.000000
    15  H    6.643171   5.993148   4.637413   2.215127   0.000000
    16  H    7.788837   7.564624   6.371996   4.368142   2.637621
    17  H    7.678131   7.473091   6.291533   4.315212   2.941075
    18  H    8.933366   8.358103   7.017251   4.604474   2.785005
    19  H    9.017900   8.422723   7.069961   4.629230   2.432798
    20  H   10.244943   9.957585   8.707664   6.480816   4.599398
    21  H   11.038966  10.568663   9.238729   6.826439   4.717732
    22  H   10.309113  10.002359   8.741045   6.490454   4.388299
    23  H    3.403421   3.863537   3.398760   3.716891   4.708062
    24  Cl   2.727829   4.005038   4.497015   5.987517   7.384889
    25  C    1.502992   2.506954   3.785077   6.161502   8.140851
    26  H    2.141814   1.082420   2.136380   4.546333   6.718081
    27  H    3.391321   2.136856   1.085087   2.257729   4.422846
    28  F    2.350175   2.683986   4.065591   6.554747   8.658380
    29  F    2.363715   3.434529   4.612630   6.877450   8.707107
    30  F    2.363841   3.434699   4.612772   6.872323   8.823542
                   16         17         18         19         20
    16  H    0.000000
    17  H    1.757059   0.000000
    18  H    3.061097   2.492422   0.000000
    19  H    2.523066   3.063723   1.758808   0.000000
    20  H    3.102207   2.590645   2.522964   3.070667   0.000000
    21  H    3.761902   3.777342   2.508946   2.497745   1.763682
    22  H    2.566865   3.142273   3.077573   2.515793   1.764270
    23  H    4.877922   4.738239   6.582944   6.686127   7.299498
    24  Cl   7.598653   7.460027   9.344085   9.457486  10.000672
    25  C    9.237852   9.123566  10.427054  10.517025  11.702498
    26  H    8.482547   8.399742   9.090759   9.146512  10.833207
    27  H    6.517609   6.459328   6.787501   6.817097   8.717058
    28  F   10.050725   9.947749  11.002782  11.081064  12.492086
    29  F    9.581337   9.657573  11.097275  11.023427  12.223846
    30  F    9.782098   9.466030  10.890370  11.158724  12.050867
                   21         22         23         24         25
    21  H    0.000000
    22  H    1.763760   0.000000
    23  H    8.339052   7.384176   0.000000
    24  Cl  11.114568  10.097668   2.791514   0.000000
    25  C   12.532493  11.772885   4.674550   3.085536   0.000000
    26  H   11.351993  10.870433   4.945953   4.868446   2.697127
    27  H    9.062998   8.731274   4.301311   5.582097   4.643387
    28  F   13.199475  12.551107   5.745230   4.422242   1.343064
    29  F   13.056907  12.146455   5.032987   3.075048   1.340114
    30  F   13.018594  12.284699   5.028409   3.074272   1.339938
                   26         27         28         29         30
    26  H    0.000000
    27  H    2.453160   0.000000
    28  F    2.307722   4.677618   0.000000
    29  F    3.655330   5.495589   2.152892   0.000000
    30  F    3.655276   5.496317   2.152895   2.155830   0.000000
 Stoichiometry    C11H12ClF3N2O
 Framework group  C1[X(C11H12ClF3N2O)]
 Deg. of freedom    84
 Full point group                 C1      NOp   1
 Largest Abelian subgroup         C1      NOp   1
 Largest concise Abelian subgroup C1      NOp   1
                         Standard orientation:                         
 ---------------------------------------------------------------------
 Center     Atomic      Atomic             Coordinates (Angstroms)
 Number     Number       Type             X           Y           Z
 ---------------------------------------------------------------------
      1          6           0       -0.185521   -0.754717   -0.021846
      2          7           0       -1.563890   -0.975466   -0.054157
      3          6           0       -2.577026   -0.024032    0.037749
      4          8           0       -2.378781    1.158839    0.203439
      5          7           0       -3.834366   -0.567486   -0.047666
      6          6           0       -4.986164    0.325417   -0.082303
      7          6           0       -6.278045   -0.468081    0.045525
      8          6           0       -7.499780    0.444964    0.019528
      9          6           0        0.389864    0.519649   -0.037883
     10          6           0        1.771592    0.639727   -0.026485
     11          6           0        2.609305   -0.475190    0.002566
     12          6           0        2.021391   -1.736751    0.019844
     13          6           0        0.646750   -1.880085    0.008172
     14          1           0       -1.844033   -1.943174    0.000076
     15          1           0       -3.940591   -1.453311   -0.520756
     16          1           0       -4.987322    0.918963   -1.004200
     17          1           0       -4.883482    1.027647    0.746417
     18          1           0       -6.252700   -1.042261    0.976389
     19          1           0       -6.346333   -1.194246   -0.773337
     20          1           0       -7.468788    1.164146    0.841307
     21          1           0       -8.423633   -0.127590    0.113117
     22          1           0       -7.551000    1.009870   -0.914280
     23          1           0       -0.228016    1.403637   -0.051191
     24         17           0        2.433221    2.246466   -0.048785
     25          6           0        4.106596   -0.345088    0.015975
     26          1           0        2.652003   -2.616193    0.043173
     27          1           0        0.212579   -2.874446    0.020648
     28          9           0        4.698774   -1.550216    0.044506
     29          9           0        4.572989    0.287903   -1.069246
     30          9           0        4.550551    0.328103    1.086092
 ---------------------------------------------------------------------
 Rotational constants (GHZ):      1.1254728      0.1254812      0.1154813
 General basis read from cards:  (5D, 7F)
 There are   846 symmetry adapted cartesian basis functions of A   symmetry.
 There are   752 symmetry adapted basis functions of A   symmetry.
   752 basis functions,  1110 primitive gaussians,   846 cartesian basis functions
    72 alpha electrons       72 beta electrons
       nuclear repulsion energy      1432.9305447897 Hartrees.
 NAtoms=   30 NActive=   30 NUniq=   30 SFac= 1.00D+00 NAtFMM=   60 NAOKFM=F Big=F
 Integral buffers will be    131072 words long.
 Raffenetti 1 integral format.
 Two-electron integral symmetry is turned on.
 One-electron integrals computed using PRISM.
 NBasis=   752 RedAO= T EigKep=  1.08D-06  NBF=   752
 NBsUse=   750 1.00D-06 EigRej=  5.41D-07 NBFU=   750
 ExpMin= 3.60D-02 ExpMax= 1.06D+05 ExpMxC= 3.62D+03 IAcc=3 IRadAn=         5 AccDes= 0.00D+00
 Harris functional with IExCor=  205 and IRadAn=       5 diagonalized for initial guess.
 HarFok:  IExCor=  205 AccDes= 0.00D+00 IRadAn=         5 IDoV= 1 UseB2=F ITyADJ=14
 ICtDFT=  3500011 ScaDFX=  1.000000  1.000000  1.000000  1.000000
 FoFCou: FMM=F IPFlag=           0 FMFlag=      100000 FMFlg1=           0
         NFxFlg=           0 DoJE=T BraDBF=F KetDBF=T FulRan=T
         wScrn=  0.000000 ICntrl=     500 IOpCl=  0 I1Cent=   200000004 NGrid=           0
         NMat0=    1 NMatS0=      1 NMatT0=    0 NMatD0=    1 NMtDS0=    0 NMtDT0=    0
 Petite list used in FoFCou.
 Requested convergence on RMS density matrix=1.00D-08 within 128 cycles.
 Requested convergence on MAX density matrix=1.00D-06.
 Requested convergence on             energy=1.00D-06.
 No special actions if energy rises.
 Initial convergence to 1.0D-05 achieved.  Increase integral accuracy.
 SCF Done:  E(RHF) =  -1365.47335404     A.U. after   16 cycles
            NFock= 16  Conv=0.35D-08     -V/T= 2.0007
 ExpMin= 3.60D-02 ExpMax= 1.06D+05 ExpMxC= 3.62D+03 IAcc=3 IRadAn=         5 AccDes= 0.00D+00
 HarFok:  IExCor=  205 AccDes= 0.00D+00 IRadAn=         5 IDoV=-2 UseB2=F ITyADJ=14
 ICtDFT= 12500011 ScaDFX=  1.000000  1.000000  1.000000  1.000000
 Range of M.O.s used for correlation:    23   750
 NBasis=   752 NAE=    72 NBE=    72 NFC=    22 NFV=     0
 NROrb=    728 NOA=    50 NOB=    50 NVA=   678 NVB=   678

 **** Warning!!: The largest alpha MO coefficient is  0.23015199D+03

 Fully direct method using O(OVN) memory.
 JobTyp=1 Pass  1:  I=   1 to  10 NPSUse=  4 ParTrn=T ParDer=T DoDerP=F.
 JobTyp=1 Pass  2:  I=  11 to  23 NPSUse=  4 ParTrn=T ParDer=T DoDerP=F.
 JobTyp=1 Pass  3:  I=  24 to  50 NPSUse=  4 ParTrn=T ParDer=T DoDerP=F.
 Spin components of T(2) and E(2):
     alpha-alpha T2 =       0.1304605936D+00 E2=     -0.4309178703D+00
     alpha-beta  T2 =       0.6820744664D+00 E2=     -0.2453315301D+01
     beta-beta   T2 =       0.1304605936D+00 E2=     -0.4309178703D+00
 ANorm=    0.1393913790D+01
 E2 =    -0.3315151042D+01 EUMP2 =    -0.13687885050783D+04

 **********************************************************************

            Population analysis using the SCF density.

 **********************************************************************

 Orbital symmetries:
       Occupied  (A) (A) (A) (A) (A) (A) (A) (A) (A) (A) (A) (A)
                 (A) (A) (A) (A) (A) (A) (A) (A) (A) (A) (A) (A)
                 (A) (A) (A) (A) (A) (A) (A) (A) (A) (A) (A) (A)
                 (A) (A) (A) (A) (A) (A) (A) (A) (A) (A) (A) (A)
                 (A) (A) (A) (A) (A) (A) (A) (A) (A) (A) (A) (A)
                 (A) (A) (A) (A) (A) (A) (A) (A) (A) (A) (A) (A)
       Virtual   (A) (A) (A) (A) (A) (A) (A) (A) (A) (A) (A) (A)
                 (A) (A) (A) (A) (A) (A) (A) (A) (A) (A) (A) (A)
                 (A) (A) (A) (A) (A) (A) (A) (A) (A) (A) (A) (A)
                 (A) (A) (A) (A) (A) (A) (A) (A) (A) (A) (A) (A)
                 (A) (A) (A) (A) (A) (A) (A) (A) (A) (A) (A) (A)
                 (A) (A) (A) (A) (A) (A) (A) (A) (A) (A) (A) (A)
                 (A) (A) (A) (A) (A) (A) (A) (A) (A) (A) (A) (A)
                 (A) (A) (A) (A) (A) (A) (A) (A) (A) (A) (A) (A)
                 (A) (A) (A) (A) (A) (A) (A) (A) (A) (A) (A) (A)
                 (A) (A) (A) (A) (A) (A) (A) (A) (A) (A) (A) (A)
                 (A) (A) (A) (A) (A) (A) (A) (A) (A) (A) (A) (A)
                 (A) (A) (A) (A) (A) (A) (A) (A) (A) (A) (A) (A)
                 (A) (A) (A) (A) (A) (A) (A) (A) (A) (A) (A) (A)
                 (A) (A) (A) (A) (A) (A) (A) (A) (A) (A) (A) (A)
                 (A) (A) (A) (A) (A) (A) (A) (A) (A) (A) (A) (A)
                 (A) (A) (A) (A) (A) (A) (A) (A) (A) (A) (A) (A)
                 (A) (A) (A) (A) (A) (A) (A) (A) (A) (A) (A) (A)
                 (A) (A) (A) (A) (A) (A) (A) (A) (A) (A) (A) (A)
                 (A) (A) (A) (A) (A) (A) (A) (A) (A) (A) (A) (A)
                 (A) (A) (A) (A) (A) (A) (A) (A) (A) (A) (A) (A)
                 (A) (A) (A) (A) (A) (A) (A) (A) (A) (A) (A) (A)
                 (A) (A) (A) (A) (A) (A) (A) (A) (A) (A) (A) (A)
                 (A) (A) (A) (A) (A) (A) (A) (A) (A) (A) (A) (A)
                 (A) (A) (A) (A) (A) (A) (A) (A) (A) (A) (A) (A)
                 (A) (A) (A) (A) (A) (A) (A) (A) (A) (A) (A) (A)
                 (A) (A) (A) (A) (A) (A) (A) (A) (A) (A) (A) (A)
                 (A) (A) (A) (A) (A) (A) (A) (A) (A) (A) (A) (A)
                 (A) (A) (A) (A) (A) (A) (A) (A) (A) (A) (A) (A)
                 (A) (A) (A) (A) (A) (A) (A) (A) (A) (A) (A) (A)
                 (A) (A) (A) (A) (A) (A) (A) (A) (A) (A) (A) (A)
                 (A) (A) (A) (A) (A) (A) (A) (A) (A) (A) (A) (A)
                 (A) (A) (A) (A) (A) (A) (A) (A) (A) (A) (A) (A)
                 (A) (A) (A) (A) (A) (A) (A) (A) (A) (A) (A) (A)
                 (A) (A) (A) (A) (A) (A) (A) (A) (A) (A) (A) (A)
                 (A) (A) (A) (A) (A) (A) (A) (A) (A) (A) (A) (A)
                 (A) (A) (A) (A) (A) (A) (A) (A) (A) (A) (A) (A)
                 (A) (A) (A) (A) (A) (A) (A) (A) (A) (A) (A) (A)
                 (A) (A) (A) (A) (A) (A) (A) (A) (A) (A) (A) (A)
                 (A) (A) (A) (A) (A) (A) (A) (A) (A) (A) (A) (A)
                 (A) (A) (A) (A) (A) (A) (A) (A) (A) (A) (A) (A)
                 (A) (A) (A) (A) (A) (A) (A) (A) (A) (A) (A) (A)
                 (A) (A) (A) (A) (A) (A) (A) (A) (A) (A) (A) (A)
                 (A) (A) (A) (A) (A) (A) (A) (A) (A) (A) (A) (A)
                 (A) (A) (A) (A) (A) (A) (A) (A) (A) (A) (A) (A)
                 (A) (A) (A) (A) (A) (A) (A) (A) (A) (A) (A) (A)
                 (A) (A) (A) (A) (A) (A) (A) (A) (A) (A) (A) (A)
                 (A) (A) (A) (A) (A) (A) (A) (A) (A) (A) (A) (A)
                 (A) (A) (A) (A) (A) (A) (A) (A) (A) (A) (A) (A)
                 (A) (A) (A) (A) (A) (A) (A) (A) (A) (A) (A) (A)
                 (A) (A) (A) (A) (A) (A) (A) (A) (A) (A) (A) (A)
                 (A) (A) (A) (A) (A) (A) (A) (A) (A) (A) (A) (A)
                 (A) (A) (A) (A) (A) (A) (A) (A) (A) (A) (A) (A)
                 (A) (A) (A) (A) (A) (A) (A) (A) (A) (A) (A) (A)
                 (A) (A) (A) (A) (A) (A) (A) (A) (A) (A) (A) (A)
                 (A) (A) (A) (A) (A) (A) (A) (A) (A) (A) (A) (A)
                 (A) (A) (A) (A) (A) (A) (A) (A) (A) (A) (A) (A)
                 (A) (A) (A) (A) (A) (A)
 The electronic state is 1-A.
 Alpha  occ. eigenvalues -- -104.84723 -26.33454 -26.32803 -26.32796 -20.53343
 Alpha  occ. eigenvalues --  -15.61991 -15.59619 -11.50508 -11.39840 -11.32389
 Alpha  occ. eigenvalues --  -11.31871 -11.27027 -11.26959 -11.26658 -11.25471
 Alpha  occ. eigenvalues --  -11.24752 -11.23980 -11.22700 -10.57183  -8.03959
 Alpha  occ. eigenvalues --   -8.03783  -8.03780  -1.72456  -1.62853  -1.62438
 Alpha  occ. eigenvalues --   -1.42142  -1.28513  -1.24434  -1.20238  -1.12880
 Alpha  occ. eigenvalues --   -1.07888  -1.05994  -1.02006  -0.96976  -0.93859
 Alpha  occ. eigenvalues --   -0.88275  -0.86043  -0.83300  -0.82312  -0.81567
 Alpha  occ. eigenvalues --   -0.81057  -0.79492  -0.76320  -0.72910  -0.70426
 Alpha  occ. eigenvalues --   -0.70410  -0.67693  -0.67062  -0.66084  -0.65538
 Alpha  occ. eigenvalues --   -0.65446  -0.64278  -0.64037  -0.63197  -0.62767
 Alpha  occ. eigenvalues --   -0.60926  -0.59902  -0.58309  -0.56822  -0.55430
 Alpha  occ. eigenvalues --   -0.55147  -0.52828  -0.52272  -0.50690  -0.49933
 Alpha  occ. eigenvalues --   -0.49303  -0.46082  -0.45789  -0.45553  -0.41753
 Alpha  occ. eigenvalues --   -0.35484  -0.33438
 Alpha virt. eigenvalues --    0.02213   0.03727   0.04631   0.05170   0.05679
 Alpha virt. eigenvalues --    0.06379   0.07428   0.07718   0.08296   0.08593
 Alpha virt. eigenvalues --    0.08819   0.09360   0.09639   0.10575   0.10837
 Alpha virt. eigenvalues --    0.11152   0.11955   0.12464   0.12603   0.13408
 Alpha virt. eigenvalues --    0.14099   0.14588   0.14800   0.15715   0.15886
 Alpha virt. eigenvalues --    0.16154   0.16640   0.17027   0.17673   0.18030
 Alpha virt. eigenvalues --    0.18363   0.18530   0.18956   0.19117   0.19260
 Alpha virt. eigenvalues --    0.19766   0.20119   0.20581   0.20765   0.20810
 Alpha virt. eigenvalues --    0.21517   0.22237   0.22660   0.23230   0.23377
 Alpha virt. eigenvalues --    0.23525   0.24133   0.24790   0.25513   0.26232
 Alpha virt. eigenvalues --    0.26602   0.26989   0.27318   0.27949   0.28260
 Alpha virt. eigenvalues --    0.28652   0.29046   0.29486   0.29799   0.30809
 Alpha virt. eigenvalues --    0.31478   0.31654   0.31944   0.32344   0.33080
 Alpha virt. eigenvalues --    0.33672   0.33925   0.34167   0.34940   0.35165
 Alpha virt. eigenvalues --    0.36063   0.36753   0.37011   0.37271   0.37751
 Alpha virt. eigenvalues --    0.38204   0.38784   0.39542   0.40026   0.40119
 Alpha virt. eigenvalues --    0.40408   0.40952   0.41318   0.41814   0.42257
 Alpha virt. eigenvalues --    0.42662   0.42997   0.43275   0.43563   0.44414
 Alpha virt. eigenvalues --    0.44895   0.45067   0.45381   0.45958   0.46655
 Alpha virt. eigenvalues --    0.47259   0.47859   0.48236   0.48921   0.49304
 Alpha virt. eigenvalues --    0.50933   0.51046   0.51927   0.52817   0.53479
 Alpha virt. eigenvalues --    0.53834   0.55387   0.55970   0.56182   0.56666
 Alpha virt. eigenvalues --    0.57434   0.57951   0.58923   0.59295   0.59915
 Alpha virt. eigenvalues --    0.60330   0.61333   0.62086   0.63626   0.64185
 Alpha virt. eigenvalues --    0.65285   0.66046   0.66326   0.67761   0.68525
 Alpha virt. eigenvalues --    0.68875   0.70073   0.70556   0.70787   0.71635
 Alpha virt. eigenvalues --    0.72092   0.72583   0.73207   0.74076   0.74381
 Alpha virt. eigenvalues --    0.74980   0.75463   0.75799   0.76487   0.77230
 Alpha virt. eigenvalues --    0.77721   0.78430   0.79196   0.79893   0.80429
 Alpha virt. eigenvalues --    0.81093   0.81574   0.82329   0.82635   0.82982
 Alpha virt. eigenvalues --    0.83426   0.83903   0.85038   0.85639   0.85774
 Alpha virt. eigenvalues --    0.85889   0.86805   0.87331   0.87844   0.88477
 Alpha virt. eigenvalues --    0.88964   0.89396   0.90292   0.90969   0.91889
 Alpha virt. eigenvalues --    0.92936   0.93713   0.94285   0.94813   0.95411
 Alpha virt. eigenvalues --    0.96479   0.97060   0.97372   0.98264   0.98767
 Alpha virt. eigenvalues --    1.00042   1.00739   1.01237   1.01655   1.02239
 Alpha virt. eigenvalues --    1.03103   1.03579   1.03734   1.04676   1.05916
 Alpha virt. eigenvalues --    1.05986   1.07263   1.07993   1.09001   1.09981
 Alpha virt. eigenvalues --    1.11670   1.12213   1.14271   1.15129   1.16265
 Alpha virt. eigenvalues --    1.16474   1.17482   1.17745   1.18963   1.20078
 Alpha virt. eigenvalues --    1.21189   1.22040   1.22865   1.24608   1.25157
 Alpha virt. eigenvalues --    1.26177   1.27050   1.27443   1.28713   1.29952
 Alpha virt. eigenvalues --    1.30231   1.31584   1.32841   1.33642   1.33699
 Alpha virt. eigenvalues --    1.34088   1.34532   1.35635   1.35922   1.36876
 Alpha virt. eigenvalues --    1.37058   1.37983   1.39446   1.39515   1.39968
 Alpha virt. eigenvalues --    1.40190   1.41240   1.41815   1.42416   1.43082
 Alpha virt. eigenvalues --    1.43838   1.44771   1.45805   1.46326   1.47202
 Alpha virt. eigenvalues --    1.48518   1.49083   1.50266   1.50632   1.52678
 Alpha virt. eigenvalues --    1.53583   1.53763   1.54176   1.54886   1.55567
 Alpha virt. eigenvalues --    1.56836   1.57394   1.57854   1.58767   1.59751
 Alpha virt. eigenvalues --    1.60352   1.61225   1.61785   1.62458   1.63674
 Alpha virt. eigenvalues --    1.64451   1.65374   1.65630   1.66576   1.67068
 Alpha virt. eigenvalues --    1.67466   1.67990   1.68840   1.69112   1.70112
 Alpha virt. eigenvalues --    1.70730   1.71101   1.71582   1.72734   1.73097
 Alpha virt. eigenvalues --    1.74048   1.74570   1.75825   1.76455   1.77438
 Alpha virt. eigenvalues --    1.78257   1.79440   1.79965   1.81182   1.82170
 Alpha virt. eigenvalues --    1.83205   1.83734   1.84070   1.84818   1.86788
 Alpha virt. eigenvalues --    1.87350   1.88467   1.89447   1.90423   1.91612
 Alpha virt. eigenvalues --    1.92924   1.93493   1.96765   1.98741   1.99193
 Alpha virt. eigenvalues --    1.99549   2.00361   2.02302   2.03335   2.05377
 Alpha virt. eigenvalues --    2.06055   2.06969   2.10595   2.13306   2.16377
 Alpha virt. eigenvalues --    2.19393   2.20826   2.23553   2.24223   2.25390
 Alpha virt. eigenvalues --    2.26562   2.27487   2.28288   2.30507   2.30784
 Alpha virt. eigenvalues --    2.32758   2.40386   2.41716   2.43487   2.44668
 Alpha virt. eigenvalues --    2.46714   2.47931   2.49757   2.51485   2.52086
 Alpha virt. eigenvalues --    2.57103   2.61233   2.62177   2.64577   2.66583
 Alpha virt. eigenvalues --    2.69678   2.70879   2.77330   2.80961   2.81603
 Alpha virt. eigenvalues --    2.83111   2.84204   2.86755   2.87166   2.90079
 Alpha virt. eigenvalues --    2.92151   2.93091   2.93620   2.94233   2.94638
 Alpha virt. eigenvalues --    2.95913   2.97766   2.99810   3.01500   3.02062
 Alpha virt. eigenvalues --    3.04677   3.05861   3.06173   3.07224   3.09287
 Alpha virt. eigenvalues --    3.09937   3.11104   3.12366   3.13184   3.13426
 Alpha virt. eigenvalues --    3.13831   3.15653   3.16150   3.17336   3.18148
 Alpha virt. eigenvalues --    3.18587   3.19708   3.20051   3.20603   3.21087
 Alpha virt. eigenvalues --    3.23063   3.24115   3.25643   3.26922   3.27638
 Alpha virt. eigenvalues --    3.29027   3.29258   3.31322   3.31376   3.33598
 Alpha virt. eigenvalues --    3.34789   3.35600   3.36503   3.38054   3.39309
 Alpha virt. eigenvalues --    3.40738   3.40797   3.42203   3.44189   3.45432
 Alpha virt. eigenvalues --    3.46296   3.47017   3.47600   3.48599   3.49370
 Alpha virt. eigenvalues --    3.49781   3.51970   3.52328   3.54163   3.54846
 Alpha virt. eigenvalues --    3.55685   3.56132   3.56325   3.58369   3.59036
 Alpha virt. eigenvalues --    3.59249   3.60554   3.62234   3.63273   3.64228
 Alpha virt. eigenvalues --    3.65814   3.66476   3.67497   3.68356   3.69092
 Alpha virt. eigenvalues --    3.70150   3.71069   3.71723   3.71934   3.72585
 Alpha virt. eigenvalues --    3.72875   3.73861   3.74699   3.76216   3.76618
 Alpha virt. eigenvalues --    3.78008   3.79507   3.80426   3.80612   3.81626
 Alpha virt. eigenvalues --    3.81796   3.83369   3.83973   3.84915   3.86157
 Alpha virt. eigenvalues --    3.88080   3.88595   3.89746   3.90243   3.91553
 Alpha virt. eigenvalues --    3.92227   3.93223   3.93780   3.94497   3.94650
 Alpha virt. eigenvalues --    3.95303   3.97735   3.98571   3.99791   4.01049
 Alpha virt. eigenvalues --    4.02578   4.02878   4.03489   4.05475   4.05994
 Alpha virt. eigenvalues --    4.06238   4.06570   4.08700   4.09424   4.10961
 Alpha virt. eigenvalues --    4.13106   4.14032   4.16024   4.17423   4.17963
 Alpha virt. eigenvalues --    4.18344   4.19506   4.23491   4.24336   4.25183
 Alpha virt. eigenvalues --    4.26762   4.27048   4.27840   4.29642   4.30498
 Alpha virt. eigenvalues --    4.31209   4.32561   4.33182   4.34402   4.36352
 Alpha virt. eigenvalues --    4.37747   4.38682   4.39563   4.40771   4.41677
 Alpha virt. eigenvalues --    4.42116   4.42643   4.43901   4.46848   4.47359
 Alpha virt. eigenvalues --    4.51561   4.52240   4.53743   4.54863   4.56602
 Alpha virt. eigenvalues --    4.57266   4.58697   4.59922   4.61870   4.62698
 Alpha virt. eigenvalues --    4.64636   4.65135   4.66037   4.66157   4.67698
 Alpha virt. eigenvalues --    4.67997   4.69514   4.71245   4.72354   4.73183
 Alpha virt. eigenvalues --    4.74227   4.75464   4.75789   4.77682   4.78101
 Alpha virt. eigenvalues --    4.78877   4.79723   4.81612   4.81975   4.83749
 Alpha virt. eigenvalues --    4.84408   4.85580   4.85695   4.86547   4.87412
 Alpha virt. eigenvalues --    4.87606   4.89421   4.90782   4.91710   4.92576
 Alpha virt. eigenvalues --    4.93085   4.95071   4.95419   4.96153   4.96999
 Alpha virt. eigenvalues --    4.98243   5.00779   5.01416   5.02835   5.05448
 Alpha virt. eigenvalues --    5.05691   5.09172   5.11900   5.15295   5.17734
 Alpha virt. eigenvalues --    5.19241   5.21058   5.21924   5.26570   5.31061
 Alpha virt. eigenvalues --    5.33302   5.34267   5.38662   5.42191   5.46360
 Alpha virt. eigenvalues --    5.46930   5.52504   5.54409   5.55711   5.58982
 Alpha virt. eigenvalues --    5.61146   5.62642   5.64687   5.65412   5.66798
 Alpha virt. eigenvalues --    5.69418   5.70454   5.74390   5.75881   5.78338
 Alpha virt. eigenvalues --    5.79418   5.80680   5.81809   5.84779   5.86393
 Alpha virt. eigenvalues --    5.87091   5.90557   5.96101   5.98343   6.05294
 Alpha virt. eigenvalues --    6.06139   6.06815   6.10103   6.11932   6.13359
 Alpha virt. eigenvalues --    6.14470   6.14827   6.15914   6.19301   6.24411
 Alpha virt. eigenvalues --    6.26676   6.30984   6.34550   6.41806   6.47937
 Alpha virt. eigenvalues --    6.53316   6.55054   6.64075   6.73697   6.83512
 Alpha virt. eigenvalues --    6.83898   6.94500   6.96230   6.96705   6.97668
 Alpha virt. eigenvalues --    7.00388   7.03594   7.06725   7.08141   7.10905
 Alpha virt. eigenvalues --    7.11809   7.12582   7.12741   7.13552   7.14847
 Alpha virt. eigenvalues --    7.16248   7.16510   7.17784   7.19041   7.24406
 Alpha virt. eigenvalues --    7.26397   7.30419   7.36696   7.38022   7.44083
 Alpha virt. eigenvalues --    7.45473   7.53908   7.57239   7.61132   7.63226
 Alpha virt. eigenvalues --    7.68613   7.78574   7.81150   7.81317   7.87678
 Alpha virt. eigenvalues --    7.90315   7.93233   8.14702   8.27922   8.36054
 Alpha virt. eigenvalues --    8.39714   9.69821   9.71701   9.72922   9.81776
 Alpha virt. eigenvalues --    9.86046   9.88600  10.03562  10.12663  10.16078
 Alpha virt. eigenvalues --   10.26342  10.41031  10.52482  10.59451  10.68455
 Alpha virt. eigenvalues --   10.75317  10.80209  21.82027  21.93542  22.20005
 Alpha virt. eigenvalues --   25.00291  25.38406  25.51854  25.61230  25.61519
 Alpha virt. eigenvalues --   25.68024  25.72708  25.85749  25.88192  26.08530
 Alpha virt. eigenvalues --   26.29795  37.27086  37.34425  51.93961  68.83812
 Alpha virt. eigenvalues --   68.86890  68.93458 220.11476
          Condensed to atoms (all electrons):
               1          2          3          4          5          6
     1  C   16.261866  -0.036625  -0.690390  -0.207963  -0.178401  -0.588109
     2  N   -0.036625   6.977925   0.618082  -0.017949  -0.106195  -0.313139
     3  C   -0.690390   0.618082   7.320697   0.392692   0.307331  -1.001230
     4  O   -0.207963  -0.017949   0.392692   8.224057  -0.059063  -0.069142
     5  N   -0.178401  -0.106195   0.307331  -0.059063   6.709706   0.387214
     6  C   -0.588109  -0.313139  -1.001230  -0.069142   0.387214   7.228893
     7  C    0.013796  -0.019357   0.110895   0.031811  -0.165671  -0.506309
     8  C   -0.009236  -0.018679  -0.207172   0.003463  -0.030155   0.497135
     9  C    1.058055  -0.098439  -0.132275   0.329299   0.046373  -0.008829
    10  C   -1.180829   0.070561   0.450638   0.014482   0.040229   0.051163
    11  C   -3.234177  -0.083038  -0.885910  -0.013176   0.016468  -0.057127
    12  C   -1.042368   0.036772  -0.270952   0.004035  -0.023818  -0.017684
    13  C   -1.593681  -0.077945  -0.422638  -0.067151  -0.065302  -0.079208
    14  H   -0.044443   0.373249   0.013536  -0.000695   0.023045   0.021460
    15  H    0.007737   0.016429  -0.028453   0.000570   0.350414  -0.058782
    16  H    0.010635   0.009873   0.038200  -0.015013  -0.062171   0.473738
    17  H   -0.011294   0.002537   0.047945  -0.008435  -0.050779   0.414734
    18  H    0.001805   0.001501   0.004136  -0.000604   0.004256  -0.048373
    19  H   -0.001578   0.004284   0.018983  -0.000872   0.000139  -0.039092
    20  H    0.001022   0.000696   0.005747   0.000263   0.000459  -0.024572
    21  H   -0.000175  -0.000761  -0.001338   0.000348  -0.005163   0.014770
    22  H   -0.000373  -0.000229  -0.000728   0.000538  -0.001024  -0.026977
    23  H   -0.212062  -0.023473   0.073597  -0.027006   0.010934   0.019319
    24  Cl  -0.178945   0.008243   0.020446  -0.001202   0.000600   0.001499
    25  C   -1.770064  -0.006191  -0.242758   0.001932   0.004410  -0.003491
    26  H    0.128197  -0.000499   0.001067   0.000118  -0.000162  -0.000278
    27  H   -0.230585  -0.026062  -0.014885  -0.000975   0.004716   0.003032
    28  F    0.029884  -0.000011   0.000177   0.000000   0.000002  -0.000000
    29  F    0.008432  -0.000002  -0.000337   0.000001   0.000003   0.000001
    30  F    0.019875  -0.000059   0.000152   0.000001   0.000002   0.000000
               7          8          9         10         11         12
     1  C    0.013796  -0.009236   1.058055  -1.180829  -3.234177  -1.042368
     2  N   -0.019357  -0.018679  -0.098439   0.070561  -0.083038   0.036772
     3  C    0.110895  -0.207172  -0.132275   0.450638  -0.885910  -0.270952
     4  O    0.031811   0.003463   0.329299   0.014482  -0.013176   0.004035
     5  N   -0.165671  -0.030155   0.046373   0.040229   0.016468  -0.023818
     6  C   -0.506309   0.497135  -0.008829   0.051163  -0.057127  -0.017684
     7  C    5.541868  -0.111100   0.027446   0.002812   0.002999  -0.002184
     8  C   -0.111100   5.211580  -0.001101   0.000612  -0.000137  -0.000112
     9  C    0.027446  -0.001101  12.093504   4.111738  -5.744014  -1.249052
    10  C    0.002812   0.000612   4.111738  21.316116  -7.192051  -3.625952
    11  C    0.002999  -0.000137  -5.744014  -7.192051  30.169541  -2.598396
    12  C   -0.002184  -0.000112  -1.249052  -3.625952  -2.598396  12.406722
    13  C   -0.003302  -0.001242  -2.949154  -5.350485   1.159944   0.791586
    14  H   -0.009892   0.000365   0.090668   0.043910   0.005942  -0.105895
    15  H    0.033896  -0.008771  -0.016537  -0.004141  -0.001970   0.003831
    16  H   -0.104960  -0.008036  -0.011842  -0.001759   0.000025   0.000651
    17  H   -0.018610  -0.017381  -0.002706   0.001563  -0.000926  -0.000493
    18  H    0.455421  -0.027541  -0.004321  -0.000636  -0.000471   0.000275
    19  H    0.413789  -0.027459   0.002012   0.000175   0.000154  -0.000056
    20  H   -0.009387   0.412323   0.000215  -0.000016   0.000047   0.000014
    21  H   -0.031735   0.408634   0.000277   0.000038   0.000010  -0.000014
    22  H   -0.001543   0.427406  -0.000136  -0.000014  -0.000039  -0.000015
    23  H    0.002279   0.000609   0.370732   0.027341   0.094544  -0.047239
    24  Cl  -0.000031  -0.000002  -0.275651  -0.718585   0.687341   0.002716
    25  C    0.000128   0.000008  -1.324385  -2.659622  -5.723319   1.757462
    26  H   -0.000033  -0.000004   0.047421   0.195097  -0.035882   0.421148
    27  H    0.000515   0.000170  -0.009550  -0.065133   0.071461   0.027247
    28  F    0.000000   0.000000  -0.018251   0.030951   0.038950  -0.125627
    29  F   -0.000000   0.000000   0.036215  -0.025188  -0.051418   0.030757
    30  F   -0.000000   0.000000   0.057553   0.001855  -0.079586   0.017181
              13         14         15         16         17         18
     1  C   -1.593681  -0.044443   0.007737   0.010635  -0.011294   0.001805
     2  N   -0.077945   0.373249   0.016429   0.009873   0.002537   0.001501
     3  C   -0.422638   0.013536  -0.028453   0.038200   0.047945   0.004136
     4  O   -0.067151  -0.000695   0.000570  -0.015013  -0.008435  -0.000604
     5  N   -0.065302   0.023045   0.350414  -0.062171  -0.050779   0.004256
     6  C   -0.079208   0.021460  -0.058782   0.473738   0.414734  -0.048373
     7  C   -0.003302  -0.009892   0.033896  -0.104960  -0.018610   0.455421
     8  C   -0.001242   0.000365  -0.008771  -0.008036  -0.017381  -0.027541
     9  C   -2.949154   0.090668  -0.016537  -0.011842  -0.002706  -0.004321
    10  C   -5.350485   0.043910  -0.004141  -0.001759   0.001563  -0.000636
    11  C    1.159944   0.005942  -0.001970   0.000025  -0.000926  -0.000471
    12  C    0.791586  -0.105895   0.003831   0.000651  -0.000493   0.000275
    13  C   12.800842  -0.110048   0.008416   0.003435   0.000285   0.000869
    14  H   -0.110048   0.511675  -0.008785   0.001550   0.002113  -0.000398
    15  H    0.008416  -0.008785   0.522613  -0.002723   0.002215   0.001079
    16  H    0.003435   0.001550  -0.002723   0.602609  -0.028346   0.006333
    17  H    0.000285   0.002113   0.002215  -0.028346   0.562335  -0.005470
    18  H    0.000869  -0.000398   0.001079   0.006333  -0.005470   0.620614
    19  H   -0.000186   0.001871  -0.000594  -0.010241   0.009042  -0.061966
    20  H    0.000045  -0.000118   0.000775   0.001025  -0.002115  -0.007317
    21  H   -0.000084  -0.000122   0.000707  -0.002430  -0.001388  -0.007345
    22  H   -0.000085  -0.000022   0.000142  -0.003437   0.002039   0.004292
    23  H    0.023993  -0.000287   0.000497  -0.001651   0.000218  -0.000176
    24  Cl   0.164854   0.000045  -0.000031  -0.000022   0.000054   0.000001
    25  C    1.249441  -0.007892  -0.000010  -0.000015  -0.000149  -0.000038
    26  H   -0.264632   0.000610   0.000003   0.000014  -0.000011   0.000003
    27  H    0.561192  -0.000105   0.000875  -0.000161   0.000025  -0.000038
    28  F    0.068818   0.000013   0.000001   0.000000  -0.000000  -0.000000
    29  F   -0.005421   0.000032  -0.000002  -0.000000   0.000000  -0.000000
    30  F   -0.013602   0.000003   0.000001   0.000000  -0.000000   0.000000
              19         20         21         22         23         24
     1  C   -0.001578   0.001022  -0.000175  -0.000373  -0.212062  -0.178945
     2  N    0.004284   0.000696  -0.000761  -0.000229  -0.023473   0.008243
     3  C    0.018983   0.005747  -0.001338  -0.000728   0.073597   0.020446
     4  O   -0.000872   0.000263   0.000348   0.000538  -0.027006  -0.001202
     5  N    0.000139   0.000459  -0.005163  -0.001024   0.010934   0.000600
     6  C   -0.039092  -0.024572   0.014770  -0.026977   0.019319   0.001499
     7  C    0.413789  -0.009387  -0.031735  -0.001543   0.002279  -0.000031
     8  C   -0.027459   0.412323   0.408634   0.427406   0.000609  -0.000002
     9  C    0.002012   0.000215   0.000277  -0.000136   0.370732  -0.275651
    10  C    0.000175  -0.000016   0.000038  -0.000014   0.027341  -0.718585
    11  C    0.000154   0.000047   0.000010  -0.000039   0.094544   0.687341
    12  C   -0.000056   0.000014  -0.000014  -0.000015  -0.047239   0.002716
    13  C   -0.000186   0.000045  -0.000084  -0.000085   0.023993   0.164854
    14  H    0.001871  -0.000118  -0.000122  -0.000022  -0.000287   0.000045
    15  H   -0.000594   0.000775   0.000707   0.000142   0.000497  -0.000031
    16  H   -0.010241   0.001025  -0.002430  -0.003437  -0.001651  -0.000022
    17  H    0.009042  -0.002115  -0.001388   0.002039   0.000218   0.000054
    18  H   -0.061966  -0.007317  -0.007345   0.004292  -0.000176   0.000001
    19  H    0.685478   0.005203  -0.005502  -0.009100  -0.000099   0.000000
    20  H    0.005203   0.617064  -0.024207  -0.040643  -0.000031  -0.000001
    21  H   -0.005502  -0.024207   0.601274  -0.029385   0.000043  -0.000000
    22  H   -0.009100  -0.040643  -0.029385   0.620719   0.000030   0.000001
    23  H   -0.000099  -0.000031   0.000043   0.000030   0.412671   0.021776
    24  Cl   0.000000  -0.000001  -0.000000   0.000001   0.021776  17.917840
    25  C    0.000008   0.000003   0.000001  -0.000003  -0.029172  -0.397935
    26  H    0.000002   0.000000  -0.000000  -0.000000  -0.001525  -0.004040
    27  H   -0.000112  -0.000004   0.000007   0.000005   0.003463   0.002981
    28  F   -0.000000   0.000000   0.000000   0.000000   0.000428   0.004173
    29  F    0.000000   0.000000   0.000000   0.000000  -0.000048  -0.018174
    30  F   -0.000000   0.000000  -0.000000  -0.000000  -0.000235  -0.017984
              25         26         27         28         29         30
     1  C   -1.770064   0.128197  -0.230585   0.029884   0.008432   0.019875
     2  N   -0.006191  -0.000499  -0.026062  -0.000011  -0.000002  -0.000059
     3  C   -0.242758   0.001067  -0.014885   0.000177  -0.000337   0.000152
     4  O    0.001932   0.000118  -0.000975   0.000000   0.000001   0.000001
     5  N    0.004410  -0.000162   0.004716   0.000002   0.000003   0.000002
     6  C   -0.003491  -0.000278   0.003032  -0.000000   0.000001   0.000000
     7  C    0.000128  -0.000033   0.000515   0.000000  -0.000000  -0.000000
     8  C    0.000008  -0.000004   0.000170   0.000000   0.000000   0.000000
     9  C   -1.324385   0.047421  -0.009550  -0.018251   0.036215   0.057553
    10  C   -2.659622   0.195097  -0.065133   0.030951  -0.025188   0.001855
    11  C   -5.723319  -0.035882   0.071461   0.038950  -0.051418  -0.079586
    12  C    1.757462   0.421148   0.027247  -0.125627   0.030757   0.017181
    13  C    1.249441  -0.264632   0.561192   0.068818  -0.005421  -0.013602
    14  H   -0.007892   0.000610  -0.000105   0.000013   0.000032   0.000003
    15  H   -0.000010   0.000003   0.000875   0.000001  -0.000002   0.000001
    16  H   -0.000015   0.000014  -0.000161   0.000000  -0.000000   0.000000
    17  H   -0.000149  -0.000011   0.000025  -0.000000   0.000000  -0.000000
    18  H   -0.000038   0.000003  -0.000038  -0.000000  -0.000000   0.000000
    19  H    0.000008   0.000002  -0.000112  -0.000000   0.000000  -0.000000
    20  H    0.000003   0.000000  -0.000004   0.000000   0.000000   0.000000
    21  H    0.000001  -0.000000   0.000007   0.000000   0.000000  -0.000000
    22  H   -0.000003  -0.000000   0.000005   0.000000   0.000000  -0.000000
    23  H   -0.029172  -0.001525   0.003463   0.000428  -0.000048  -0.000235
    24  Cl  -0.397935  -0.004040   0.002981   0.004173  -0.018174  -0.017984
    25  C   13.216728  -0.103565   0.034244   0.128766   0.163814   0.154302
    26  H   -0.103565   0.473731  -0.019821  -0.017009  -0.000121  -0.000529
    27  H    0.034244  -0.019821   0.535177  -0.000009  -0.000141  -0.000077
    28  F    0.128766  -0.017009  -0.000009   9.163821   0.012130   0.011346
    29  F    0.163814  -0.000121  -0.000141   0.012130   9.062680   0.037469
    30  F    0.154302  -0.000529  -0.000077   0.011346   0.037469   9.062784
 Mulliken charges:
               1
     1  C   -0.330005
     2  N   -0.291502
     3  C    0.474746
     4  O   -0.514365
     5  N   -0.158397
     6  C   -0.270617
     7  C    0.346461
     8  C   -0.494179
     9  C   -0.425267
    10  C    0.465129
    11  C   -0.545790
    12  C   -0.390537
    13  C    0.170443
    14  H    0.198618
    15  H    0.180596
    16  H    0.104722
    17  H    0.102996
    18  H    0.064110
    19  H    0.015717
    20  H    0.063511
    21  H    0.083539
    22  H    0.058579
    23  H    0.280530
    24  Cl  -0.219965
    25  C    1.557361
    26  H    0.180702
    27  H    0.122550
    28  F   -0.328551
    29  F   -0.250682
    30  F   -0.250451
 Sum of Mulliken charges =  -0.00000
 Mulliken charges with hydrogens summed into heavy atoms:
               1
     1  C   -0.330005
     2  N   -0.092885
     3  C    0.474746
     4  O   -0.514365
     5  N    0.022199
     6  C   -0.062899
     7  C    0.426287
     8  C   -0.288549
     9  C   -0.144736
    10  C    0.465129
    11  C   -0.545790
    12  C   -0.209836
    13  C    0.292993
    24  Cl  -0.219965
    25  C    1.557361
    28  F   -0.328551
    29  F   -0.250682
    30  F   -0.250451
 Electronic spatial extent (au):  <R**2>=           8694.5335
 Charge=              0.0000 electrons
 Dipole moment (field-independent basis, Debye):
    X=             -6.4532    Y=             -5.0523    Z=             -0.8475  Tot=              8.2394
 Quadrupole moment (field-independent basis, Debye-Ang):
   XX=           -108.8669   YY=           -106.1934   ZZ=           -114.6139
   XY=              6.3921   XZ=              3.1164   YZ=              0.4381
 Traceless Quadrupole moment (field-independent basis, Debye-Ang):
   XX=              1.0245   YY=              3.6980   ZZ=             -4.7225
   XY=              6.3921   XZ=              3.1164   YZ=              0.4381
 Octapole moment (field-independent basis, Debye-Ang**2):
  XXX=           -125.5684  YYY=            -20.2258  ZZZ=              0.5072  XYY=             21.4405
  XXY=            -21.9117  XXZ=             -9.8045  XZZ=             15.0001  YZZ=              3.8682
  YYZ=             -1.9180  XYZ=             -3.7652
 Hexadecapole moment (field-independent basis, Debye-Ang**3):
 XXXX=          -9429.5317 YYYY=           -971.7512 ZZZZ=           -207.3042 XXXY=             71.7826
 XXXZ=             30.2262 YYYX=             32.1212 YYYZ=              2.6279 ZZZX=              2.3855
 ZZZY=              0.6209 XXYY=          -1771.9696 XXZZ=          -1665.6199 YYZZ=           -216.7405
 XXYZ=             17.8475 YYXZ=              8.8966 ZZXY=             -8.3719
 N-N= 1.432930544790D+03 E-N=-6.093363698138D+03  KE= 1.364558641557D+03
 1\1\GINC-R4083\SP\RMP2-FC\Gen\C11H12Cl1F3N2O1\ROOT\30-Nov-2019\0\\# MP
 2/Gen 5D SCF=Tight INT(grid=ultrafine) maxdisk=3489660928\\CP19.MP2_GT
 MP2LARGE\\0,1\C,0,-6.3330693079,1.2172209296,-0.0297743341\N,0,-5.0559
 207952,0.6543032575,0.0113379765\C,0,-3.8339772072,1.3190363472,-0.060
 0817055\O,0,-3.7244688526,2.5151564473,-0.2125443484\N,0,-2.7561925247
 ,0.4740653666,0.029054243\C,0,-1.4163577481,1.0457949276,0.0845918885\
 C,0,-0.3660391645,-0.0476636544,-0.0423451047\C,0,1.0466459308,0.52592
 66287,0.0053945548\C,0,-6.567290825,2.5955289002,-0.0025492504\C,0,-7.
 8734078117,3.061702649,-0.0240442857\C,0,-8.9656654608,2.195614158,-0.
 0741504389\C,0,-8.7160692052,0.8265330952,-0.1023504397\C,0,-7.4226979
 591,0.3396537315,-0.0809325327\H,0,-5.0292539606,-0.3522090217,-0.0527
 039582\H,0,-2.883006257,-0.4144880293,0.4918430712\H,0,-1.2754276262,1
 .6104162594,1.013857239\H,0,-1.3285652911,1.7594203219,-0.7360657637\H
 ,0,-0.5253641616,-0.5873365106,-0.9805353888\H,0,-0.4930496361,-0.7756
 340091,0.7678658223\H,0,1.2080013083,1.2377257198,-0.8075074831\H,0,1.
 7964855078,-0.2609479653,-0.0876212263\H,0,1.228621229,1.0500458195,0.
 946630384\H,0,-5.7459671957,3.2940543512,0.027065049\Cl,0,-8.106998605
 9,4.7833091285,0.012898\C,0,-10.3810141806,2.7007688394,-0.0985018428\
 H,0,-9.5484446251,0.1357290585,-0.1420335305\H,0,-7.2542469943,-0.7320
 66079,-0.1022631828\F,0,-11.2585898342,1.6852318988,-0.1471586998\F,0,
 -10.6842407062,3.4203085286,0.9906365458\F,0,-10.6279780395,3.47514890
 53,-1.163761258\\Version=ES64L-G09RevE.01\State=1-A\HF=-1365.473354\MP
 2=-1368.7885051\RMSD=3.511e-09\PG=C01 [X(C11H12Cl1F3N2O1)]\\@


 The number of Unix installations has grown to 10,
  with more expected.
                  -- The Unix Programmer's Manual,
                     2nd Edition, June, 1972.
 Job cpu time:       0 days  4 hours 12 minutes 39.9 seconds.
 File lengths (MBytes):  RWF=    303 Int=      0 D2E=      0 Chk=     33 Scr=      1
 Normal termination of Gaussian 09 at Sat Nov 30 16:02:39 2019.
pbs_rusage has been removed.
Please contact help@nci.org.au if you require this functionality.
