 Entering Gaussian System, Link 0=/apps/gaussian/g09e01/g09/g09
 AtFile(1): /home/507/hio507/Basis/6-31pGd.gbs
 Initial command:
 /apps/gaussian/g09e01/g09/l1.exe "/jobfs/local/3890848.r-man2/Gau-9397.inp" -scrdir="/jobfs/local/3890848.r-man2/"
 Entering Link 1 = /apps/gaussian/g09e01/g09/l1.exe PID=      9427.
  
 Copyright (c) 1988,1990,1992,1993,1995,1998,2003,2009,2015,
            Gaussian, Inc.  All Rights Reserved.
  
 This is part of the Gaussian(R) 09 program.  It is based on
 the Gaussian(R) 03 system (copyright 2003, Gaussian, Inc.),
 the Gaussian(R) 98 system (copyright 1998, Gaussian, Inc.),
 the Gaussian(R) 94 system (copyright 1995, Gaussian, Inc.),
 the Gaussian 92(TM) system (copyright 1992, Gaussian, Inc.),
 the Gaussian 90(TM) system (copyright 1990, Gaussian, Inc.),
 the Gaussian 88(TM) system (copyright 1988, Gaussian, Inc.),
 the Gaussian 86(TM) system (copyright 1986, Carnegie Mellon
 University), and the Gaussian 82(TM) system (copyright 1983,
 Carnegie Mellon University). Gaussian is a federally registered
 trademark of Gaussian, Inc.
  
 This software contains proprietary and confidential information,
 including trade secrets, belonging to Gaussian, Inc.
  
 This software is provided under written license and may be
 used, copied, transmitted, or stored only in accord with that
 written license.
  
 The following legend is applicable only to US Government
 contracts under FAR:
  
                    RESTRICTED RIGHTS LEGEND
  
 Use, reproduction and disclosure by the US Government is
 subject to restrictions as set forth in subparagraphs (a)
 and (c) of the Commercial Computer Software - Restricted
 Rights clause in FAR 52.227-19.
  
 Gaussian, Inc.
 340 Quinnipiac St., Bldg. 40, Wallingford CT 06492
  
  
 ---------------------------------------------------------------
 Warning -- This program may not be used in any manner that
 competes with the business of Gaussian, Inc. or will provide
 assistance to any competitor of Gaussian, Inc.  The licensee
 of this program is prohibited from giving any competitor of
 Gaussian, Inc. access to this program.  By using this program,
 the user acknowledges that Gaussian, Inc. is engaged in the
 business of creating and licensing software in the field of
 computational chemistry and represents and warrants to the
 licensee that it is not a competitor of Gaussian, Inc. and that
 it will not use this program in any manner prohibited above.
 ---------------------------------------------------------------
  

 Cite this work as:
 Gaussian 09, Revision E.01,
 M. J. Frisch, G. W. Trucks, H. B. Schlegel, G. E. Scuseria, 
 M. A. Robb, J. R. Cheeseman, G. Scalmani, V. Barone, B. Mennucci, 
 G. A. Petersson, H. Nakatsuji, M. Caricato, X. Li, H. P. Hratchian, 
 A. F. Izmaylov, J. Bloino, G. Zheng, J. L. Sonnenberg, M. Hada, 
 M. Ehara, K. Toyota, R. Fukuda, J. Hasegawa, M. Ishida, T. Nakajima, 
 Y. Honda, O. Kitao, H. Nakai, T. Vreven, J. A. Montgomery, Jr., 
 J. E. Peralta, F. Ogliaro, M. Bearpark, J. J. Heyd, E. Brothers, 
 K. N. Kudin, V. N. Staroverov, T. Keith, R. Kobayashi, J. Normand, 
 K. Raghavachari, A. Rendell, J. C. Burant, S. S. Iyengar, J. Tomasi, 
 M. Cossi, N. Rega, J. M. Millam, M. Klene, J. E. Knox, J. B. Cross, 
 V. Bakken, C. Adamo, J. Jaramillo, R. Gomperts, R. E. Stratmann, 
 O. Yazyev, A. J. Austin, R. Cammi, C. Pomelli, J. W. Ochterski, 
 R. L. Martin, K. Morokuma, V. G. Zakrzewski, G. A. Voth, 
 P. Salvador, J. J. Dannenberg, S. Dapprich, A. D. Daniels, 
 O. Farkas, J. B. Foresman, J. V. Ortiz, J. Cioslowski, 
 and D. J. Fox, Gaussian, Inc., Wallingford CT, 2013.
 
 ******************************************
 Gaussian 09:  ES64L-G09RevE.01 30-Nov-2015
                30-Nov-2019 
 ******************************************
 %chk=CP19.MP2_6-31pGd.chk
 %mem=1114112000
 %nproc=4
 Will use up to    4 processors via shared memory.
 -------------------------------------------------------------
 # MP2/Gen 6D SCF=Tight INT(grid=ultrafine) maxdisk=3489660928
 -------------------------------------------------------------
 1/38=1/1;
 2/12=2,17=6,18=5,40=1/2;
 3/5=7,8=2,11=9,16=1,25=1,30=1,75=-5/1,2,3;
 4//1;
 5/5=2,32=2,38=5/2;
 8/10=1/1;
 9/16=-3/6;
 6/7=2,8=2,9=2,10=2/1;
 99/5=1,9=1/99;
 ----------------
 CP19.MP2_6-31pGd
 ----------------
 Symbolic Z-matrix:
 Charge =  0 Multiplicity = 1
 C                    -6.33307   1.21722  -0.02977 
 N                    -5.05592   0.6543    0.01134 
 C                    -3.83398   1.31904  -0.06008 
 O                    -3.72447   2.51516  -0.21254 
 N                    -2.75619   0.47407   0.02905 
 C                    -1.41636   1.04579   0.08459 
 C                    -0.36604  -0.04766  -0.04235 
 C                     1.04665   0.52593   0.00539 
 C                    -6.56729   2.59553  -0.00255 
 C                    -7.87341   3.0617   -0.02404 
 C                    -8.96567   2.19561  -0.07415 
 C                    -8.71607   0.82653  -0.10235 
 C                    -7.4227    0.33965  -0.08093 
 H                    -5.02925  -0.35221  -0.0527 
 H                    -2.88301  -0.41449   0.49184 
 H                    -1.27543   1.61042   1.01386 
 H                    -1.32857   1.75942  -0.73607 
 H                    -0.52536  -0.58734  -0.98054 
 H                    -0.49305  -0.77563   0.76787 
 H                     1.208     1.23773  -0.80751 
 H                     1.79649  -0.26095  -0.08762 
 H                     1.22862   1.05005   0.94663 
 H                    -5.74597   3.29405   0.02707 
 Cl                   -8.107     4.78331   0.0129 
 C                    -10.38101   2.70077  -0.0985 
 H                    -9.54844   0.13573  -0.14203 
 H                    -7.25425  -0.73207  -0.10226 
 F                    -11.25859   1.68523  -0.14716 
 F                    -10.68424   3.42031   0.99064 
 F                    -10.62798   3.47515  -1.16376 
 
                          Input orientation:                          
 ---------------------------------------------------------------------
 Center     Atomic      Atomic             Coordinates (Angstroms)
 Number     Number       Type             X           Y           Z
 ---------------------------------------------------------------------
      1          6           0       -6.333069    1.217221   -0.029774
      2          7           0       -5.055921    0.654303    0.011338
      3          6           0       -3.833977    1.319036   -0.060082
      4          8           0       -3.724469    2.515156   -0.212544
      5          7           0       -2.756193    0.474065    0.029054
      6          6           0       -1.416358    1.045795    0.084592
      7          6           0       -0.366039   -0.047664   -0.042345
      8          6           0        1.046646    0.525927    0.005395
      9          6           0       -6.567291    2.595529   -0.002549
     10          6           0       -7.873408    3.061703   -0.024044
     11          6           0       -8.965665    2.195614   -0.074150
     12          6           0       -8.716069    0.826533   -0.102350
     13          6           0       -7.422698    0.339654   -0.080933
     14          1           0       -5.029254   -0.352209   -0.052704
     15          1           0       -2.883006   -0.414488    0.491843
     16          1           0       -1.275428    1.610416    1.013857
     17          1           0       -1.328565    1.759420   -0.736066
     18          1           0       -0.525364   -0.587337   -0.980535
     19          1           0       -0.493050   -0.775634    0.767866
     20          1           0        1.208001    1.237726   -0.807507
     21          1           0        1.796486   -0.260948   -0.087621
     22          1           0        1.228621    1.050046    0.946630
     23          1           0       -5.745967    3.294054    0.027065
     24         17           0       -8.106999    4.783309    0.012898
     25          6           0      -10.381014    2.700769   -0.098502
     26          1           0       -9.548445    0.135729   -0.142034
     27          1           0       -7.254247   -0.732066   -0.102263
     28          9           0      -11.258590    1.685232   -0.147159
     29          9           0      -10.684241    3.420309    0.990637
     30          9           0      -10.627978    3.475149   -1.163761
 ---------------------------------------------------------------------
                    Distance matrix (angstroms):
                    1          2          3          4          5
     1  C    0.000000
     2  N    1.396308   0.000000
     3  C    2.501349   1.392881   0.000000
     4  O    2.919390   2.299057   1.210760   0.000000
     5  N    3.653736   2.306848   1.372422   2.271999   0.000000
     6  C    4.921028   3.661291   2.437309   2.752215   1.457778
     7  C    6.099634   4.742429   3.727570   4.228010   2.447475
     8  C    7.412106   6.103920   4.945078   5.173787   3.803266
     9  C    1.398333   2.460242   3.017242   2.851700   4.361889
    10  C    2.403079   3.706084   4.399453   4.189026   5.734508
    11  C    2.808876   4.203457   5.206036   5.252752   6.444528
    12  C    2.415904   3.665962   4.907053   5.270642   5.971736
    13  C    1.400011   2.389383   3.720019   4.292672   4.669736
    14  H    2.040483   1.008900   2.054702   3.154330   2.419963
    15  H    3.851947   2.468756   2.052821   3.128424   1.009843
    16  H    5.179142   4.026329   2.790058   2.884514   2.110402
    17  H    5.083098   3.958923   2.632106   2.566236   2.067768
    18  H    6.155470   4.801190   3.927902   4.522117   2.668790
    19  H    6.222020   4.841162   4.029260   4.715143   2.688756
    20  H    7.581097   6.344100   5.097725   5.129822   4.122844
    21  H    8.263050   6.913968   5.848010   6.180882   4.613105
    22  H    7.626302   6.366070   5.168726   5.293707   4.129460
    23  H    2.158971   2.728497   2.750272   2.179576   4.109878
    24  Cl   3.983168   5.133982   5.501384   4.939829   6.870296
    25  C    4.311786   5.705848   6.691364   6.660109   7.944330
    26  H    3.394240   4.524954   5.836272   6.291688   6.802825
    27  H    2.157207   2.601454   3.988364   4.797494   4.658808
    28  F    4.949097   6.289757   7.434148   7.579976   8.590037
    29  F    4.982723   6.347267   7.241924   7.120770   8.512282
    30  F    4.983012   6.354986   7.212862   7.034546   8.508485
                    6          7          8          9         10
     6  C    0.000000
     7  C    1.521491   0.000000
     8  C    2.518516   1.525439   0.000000
     9  C    5.379719   6.741185   7.890206   0.000000
    10  C    6.765292   8.125828   9.273531   1.386983   0.000000
    11  C    7.638019   8.887456  10.150890   2.432542   1.394864
    12  C    7.305396   8.395881   9.767936   2.785059   2.390019
    13  C    6.049972   7.067385   8.471832   2.413884   2.759697
    14  H    3.876375   4.673160   6.139304   3.325242   4.443515
    15  H    2.109345   2.599046   4.069788   4.783156   6.103618
    16  H    1.096445   2.166052   2.754113   5.477896   6.834970
    17  H    1.091076   2.161772   2.777211   5.355499   6.711027
    18  H    2.143708   1.093998   2.163938   6.898693   8.259789
    19  H    2.153361   1.096592   2.155478   6.989613   8.355954
    20  H    2.778478   2.171475   1.092476   7.933899   9.295843
    21  H    3.472693   2.173489   1.090909   8.838521  10.225013
    22  H    2.781913   2.173932   1.092584   8.004105   9.372081
    23  H    4.878883   6.333682   7.335025   1.078604   2.140702
    24  Cl   7.664126   9.124900  10.095275   2.675317   1.737774
    25  C    9.117978  10.385411  11.633235   3.816382   2.534543
    26  H    8.185989   9.184778  10.603298   3.867473   3.373572
    27  H    6.105461   6.922384   8.396366   3.399226   3.844757
    28  F    9.865704  11.030031  12.360667   4.780987   3.656403
    29  F    9.610041  10.934311  12.122782   4.314621   3.009810
    30  F    9.608022  10.907574  12.098003   4.314085   3.009576
                   11         12         13         14         15
    11  C    0.000000
    12  C    1.391933   0.000000
    13  C    2.413583   1.382143   0.000000
    14  H    4.689051   3.870982   2.491595   0.000000
    15  H    6.643171   5.993148   4.637413   2.215127   0.000000
    16  H    7.788837   7.564624   6.371996   4.368142   2.637621
    17  H    7.678131   7.473091   6.291533   4.315212   2.941075
    18  H    8.933366   8.358103   7.017251   4.604474   2.785005
    19  H    9.017900   8.422723   7.069961   4.629230   2.432798
    20  H   10.244943   9.957585   8.707664   6.480816   4.599398
    21  H   11.038966  10.568663   9.238729   6.826439   4.717732
    22  H   10.309113  10.002359   8.741045   6.490454   4.388299
    23  H    3.403421   3.863537   3.398760   3.716891   4.708062
    24  Cl   2.727829   4.005038   4.497015   5.987517   7.384889
    25  C    1.502992   2.506954   3.785077   6.161502   8.140851
    26  H    2.141814   1.082420   2.136380   4.546333   6.718081
    27  H    3.391321   2.136856   1.085087   2.257729   4.422846
    28  F    2.350175   2.683986   4.065591   6.554747   8.658380
    29  F    2.363715   3.434529   4.612630   6.877450   8.707107
    30  F    2.363841   3.434699   4.612772   6.872323   8.823542
                   16         17         18         19         20
    16  H    0.000000
    17  H    1.757059   0.000000
    18  H    3.061097   2.492422   0.000000
    19  H    2.523066   3.063723   1.758808   0.000000
    20  H    3.102207   2.590645   2.522964   3.070667   0.000000
    21  H    3.761902   3.777342   2.508946   2.497745   1.763682
    22  H    2.566865   3.142273   3.077573   2.515793   1.764270
    23  H    4.877922   4.738239   6.582944   6.686127   7.299498
    24  Cl   7.598653   7.460027   9.344085   9.457486  10.000672
    25  C    9.237852   9.123566  10.427054  10.517025  11.702498
    26  H    8.482547   8.399742   9.090759   9.146512  10.833207
    27  H    6.517609   6.459328   6.787501   6.817097   8.717058
    28  F   10.050725   9.947749  11.002782  11.081064  12.492086
    29  F    9.581337   9.657573  11.097275  11.023427  12.223846
    30  F    9.782098   9.466030  10.890370  11.158724  12.050867
                   21         22         23         24         25
    21  H    0.000000
    22  H    1.763760   0.000000
    23  H    8.339052   7.384176   0.000000
    24  Cl  11.114568  10.097668   2.791514   0.000000
    25  C   12.532493  11.772885   4.674550   3.085536   0.000000
    26  H   11.351993  10.870433   4.945953   4.868446   2.697127
    27  H    9.062998   8.731274   4.301311   5.582097   4.643387
    28  F   13.199475  12.551107   5.745230   4.422242   1.343064
    29  F   13.056907  12.146455   5.032987   3.075048   1.340114
    30  F   13.018594  12.284699   5.028409   3.074272   1.339938
                   26         27         28         29         30
    26  H    0.000000
    27  H    2.453160   0.000000
    28  F    2.307722   4.677618   0.000000
    29  F    3.655330   5.495589   2.152892   0.000000
    30  F    3.655276   5.496317   2.152895   2.155830   0.000000
 Stoichiometry    C11H12ClF3N2O
 Framework group  C1[X(C11H12ClF3N2O)]
 Deg. of freedom    84
 Full point group                 C1      NOp   1
 Largest Abelian subgroup         C1      NOp   1
 Largest concise Abelian subgroup C1      NOp   1
                         Standard orientation:                         
 ---------------------------------------------------------------------
 Center     Atomic      Atomic             Coordinates (Angstroms)
 Number     Number       Type             X           Y           Z
 ---------------------------------------------------------------------
      1          6           0       -0.185521   -0.754717   -0.021846
      2          7           0       -1.563890   -0.975466   -0.054157
      3          6           0       -2.577026   -0.024032    0.037749
      4          8           0       -2.378781    1.158839    0.203439
      5          7           0       -3.834366   -0.567486   -0.047666
      6          6           0       -4.986164    0.325417   -0.082303
      7          6           0       -6.278045   -0.468081    0.045525
      8          6           0       -7.499780    0.444964    0.019528
      9          6           0        0.389864    0.519649   -0.037883
     10          6           0        1.771592    0.639727   -0.026485
     11          6           0        2.609305   -0.475190    0.002566
     12          6           0        2.021391   -1.736751    0.019844
     13          6           0        0.646750   -1.880085    0.008172
     14          1           0       -1.844033   -1.943174    0.000076
     15          1           0       -3.940591   -1.453311   -0.520756
     16          1           0       -4.987322    0.918963   -1.004200
     17          1           0       -4.883482    1.027647    0.746417
     18          1           0       -6.252700   -1.042261    0.976389
     19          1           0       -6.346333   -1.194246   -0.773337
     20          1           0       -7.468788    1.164146    0.841307
     21          1           0       -8.423633   -0.127590    0.113117
     22          1           0       -7.551000    1.009870   -0.914280
     23          1           0       -0.228016    1.403637   -0.051191
     24         17           0        2.433221    2.246466   -0.048785
     25          6           0        4.106596   -0.345088    0.015975
     26          1           0        2.652003   -2.616193    0.043173
     27          1           0        0.212579   -2.874446    0.020648
     28          9           0        4.698774   -1.550216    0.044506
     29          9           0        4.572989    0.287903   -1.069246
     30          9           0        4.550551    0.328103    1.086092
 ---------------------------------------------------------------------
 Rotational constants (GHZ):      1.1254728      0.1254812      0.1154813
 General basis read from cards:  (6D, 7F)
 There are   370 symmetry adapted cartesian basis functions of A   symmetry.
 There are   370 symmetry adapted basis functions of A   symmetry.
   370 basis functions,   648 primitive gaussians,   370 cartesian basis functions
    72 alpha electrons       72 beta electrons
       nuclear repulsion energy      1432.9305447897 Hartrees.
 NAtoms=   30 NActive=   30 NUniq=   30 SFac= 1.00D+00 NAtFMM=   60 NAOKFM=F Big=F
 Integral buffers will be    131072 words long.
 Raffenetti 1 integral format.
 Two-electron integral symmetry is turned on.
 One-electron integrals computed using PRISM.
 NBasis=   370 RedAO= T EigKep=  1.11D-06  NBF=   370
 NBsUse=   369 1.00D-06 EigRej=  4.91D-07 NBFU=   369
 ExpMin= 4.38D-02 ExpMax= 2.52D+04 ExpMxC= 3.78D+03 IAcc=3 IRadAn=         5 AccDes= 0.00D+00
 Harris functional with IExCor=  205 and IRadAn=       5 diagonalized for initial guess.
 HarFok:  IExCor=  205 AccDes= 0.00D+00 IRadAn=         5 IDoV= 1 UseB2=F ITyADJ=14
 ICtDFT=  3500011 ScaDFX=  1.000000  1.000000  1.000000  1.000000
 FoFCou: FMM=F IPFlag=           0 FMFlag=      100000 FMFlg1=           0
         NFxFlg=           0 DoJE=T BraDBF=F KetDBF=T FulRan=T
         wScrn=  0.000000 ICntrl=     500 IOpCl=  0 I1Cent=   200000004 NGrid=           0
         NMat0=    1 NMatS0=      1 NMatT0=    0 NMatD0=    1 NMtDS0=    0 NMtDT0=    0
 Petite list used in FoFCou.
 Requested convergence on RMS density matrix=1.00D-08 within 128 cycles.
 Requested convergence on MAX density matrix=1.00D-06.
 Requested convergence on             energy=1.00D-06.
 No special actions if energy rises.
 Initial convergence to 1.0D-05 achieved.  Increase integral accuracy.
 SCF Done:  E(RHF) =  -1365.16386807     A.U. after   17 cycles
            NFock= 17  Conv=0.62D-08     -V/T= 2.0017
 ExpMin= 4.38D-02 ExpMax= 2.52D+04 ExpMxC= 3.78D+03 IAcc=3 IRadAn=         5 AccDes= 0.00D+00
 HarFok:  IExCor=  205 AccDes= 0.00D+00 IRadAn=         5 IDoV=-2 UseB2=F ITyADJ=14
 ICtDFT= 12500011 ScaDFX=  1.000000  1.000000  1.000000  1.000000
 Range of M.O.s used for correlation:    23   369
 NBasis=   370 NAE=    72 NBE=    72 NFC=    22 NFV=     0
 NROrb=    347 NOA=    50 NOB=    50 NVA=   297 NVB=   297

 **** Warning!!: The largest alpha MO coefficient is  0.17138015D+03

 Fully direct method using O(OVN) memory.
 JobTyp=1 Pass  1:  I=   1 to  50 NPSUse=  4 ParTrn=T ParDer=T DoDerP=F.
 Spin components of T(2) and E(2):
     alpha-alpha T2 =       0.1142321143D+00 E2=     -0.3524942131D+00
     alpha-beta  T2 =       0.5866901763D+00 E2=     -0.1875209063D+01
     beta-beta   T2 =       0.1142321143D+00 E2=     -0.3524942131D+00
 ANorm=    0.1347276662D+01
 E2 =    -0.2580197489D+01 EUMP2 =    -0.13677440655573D+04

 **********************************************************************

            Population analysis using the SCF density.

 **********************************************************************

 Orbital symmetries:
       Occupied  (A) (A) (A) (A) (A) (A) (A) (A) (A) (A) (A) (A)
                 (A) (A) (A) (A) (A) (A) (A) (A) (A) (A) (A) (A)
                 (A) (A) (A) (A) (A) (A) (A) (A) (A) (A) (A) (A)
                 (A) (A) (A) (A) (A) (A) (A) (A) (A) (A) (A) (A)
                 (A) (A) (A) (A) (A) (A) (A) (A) (A) (A) (A) (A)
                 (A) (A) (A) (A) (A) (A) (A) (A) (A) (A) (A) (A)
       Virtual   (A) (A) (A) (A) (A) (A) (A) (A) (A) (A) (A) (A)
                 (A) (A) (A) (A) (A) (A) (A) (A) (A) (A) (A) (A)
                 (A) (A) (A) (A) (A) (A) (A) (A) (A) (A) (A) (A)
                 (A) (A) (A) (A) (A) (A) (A) (A) (A) (A) (A) (A)
                 (A) (A) (A) (A) (A) (A) (A) (A) (A) (A) (A) (A)
                 (A) (A) (A) (A) (A) (A) (A) (A) (A) (A) (A) (A)
                 (A) (A) (A) (A) (A) (A) (A) (A) (A) (A) (A) (A)
                 (A) (A) (A) (A) (A) (A) (A) (A) (A) (A) (A) (A)
                 (A) (A) (A) (A) (A) (A) (A) (A) (A) (A) (A) (A)
                 (A) (A) (A) (A) (A) (A) (A) (A) (A) (A) (A) (A)
                 (A) (A) (A) (A) (A) (A) (A) (A) (A) (A) (A) (A)
                 (A) (A) (A) (A) (A) (A) (A) (A) (A) (A) (A) (A)
                 (A) (A) (A) (A) (A) (A) (A) (A) (A) (A) (A) (A)
                 (A) (A) (A) (A) (A) (A) (A) (A) (A) (A) (A) (A)
                 (A) (A) (A) (A) (A) (A) (A) (A) (A) (A) (A) (A)
                 (A) (A) (A) (A) (A) (A) (A) (A) (A) (A) (A) (A)
                 (A) (A) (A) (A) (A) (A) (A) (A) (A) (A) (A) (A)
                 (A) (A) (A) (A) (A) (A) (A) (A) (A) (A) (A) (A)
                 (A) (A) (A) (A) (A) (A) (A) (A) (A) (A) (A) (A)
                 (A) (A) (A) (A) (A) (A) (A) (A) (A) (A) (A) (A)
                 (A) (A) (A) (A) (A) (A) (A) (A) (A) (A) (A) (A)
                 (A) (A) (A) (A) (A) (A) (A) (A) (A) (A) (A) (A)
                 (A) (A) (A) (A) (A) (A) (A) (A) (A) (A) (A) (A)
                 (A) (A) (A) (A) (A) (A) (A) (A) (A) (A) (A) (A)
                 (A) (A) (A) (A) (A) (A) (A) (A) (A)
 The electronic state is 1-A.
 Alpha  occ. eigenvalues -- -104.83589 -26.35131 -26.34400 -26.34392 -20.55049
 Alpha  occ. eigenvalues --  -15.63284 -15.60876 -11.51768 -11.40899 -11.33143
 Alpha  occ. eigenvalues --  -11.32641 -11.27815 -11.27567 -11.27536 -11.26371
 Alpha  occ. eigenvalues --  -11.25588 -11.24507 -11.23213 -10.56846  -8.03789
 Alpha  occ. eigenvalues --   -8.03439  -8.03436  -1.73069  -1.63411  -1.62957
 Alpha  occ. eigenvalues --   -1.42704  -1.28971  -1.24835  -1.20701  -1.13261
 Alpha  occ. eigenvalues --   -1.08268  -1.06370  -1.02386  -0.97338  -0.94172
 Alpha  occ. eigenvalues --   -0.88644  -0.86405  -0.83553  -0.82672  -0.81830
 Alpha  occ. eigenvalues --   -0.81375  -0.79842  -0.76701  -0.73270  -0.70605
 Alpha  occ. eigenvalues --   -0.70599  -0.67858  -0.67308  -0.66335  -0.65690
 Alpha  occ. eigenvalues --   -0.65673  -0.64555  -0.64122  -0.63348  -0.62978
 Alpha  occ. eigenvalues --   -0.61244  -0.60221  -0.58477  -0.56997  -0.55745
 Alpha  occ. eigenvalues --   -0.55276  -0.53146  -0.52506  -0.50801  -0.50102
 Alpha  occ. eigenvalues --   -0.49392  -0.46179  -0.45911  -0.45589  -0.41711
 Alpha  occ. eigenvalues --   -0.35620  -0.33537
 Alpha virt. eigenvalues --    0.04247   0.06951   0.07792   0.08106   0.08539
 Alpha virt. eigenvalues --    0.08899   0.09015   0.09511   0.09955   0.10948
 Alpha virt. eigenvalues --    0.11075   0.11493   0.12311   0.12384   0.12795
 Alpha virt. eigenvalues --    0.13414   0.13629   0.14498   0.14881   0.15014
 Alpha virt. eigenvalues --    0.15788   0.15864   0.17082   0.17531   0.17732
 Alpha virt. eigenvalues --    0.18581   0.19187   0.19933   0.20118   0.20738
 Alpha virt. eigenvalues --    0.21189   0.21657   0.22113   0.22960   0.23646
 Alpha virt. eigenvalues --    0.24141   0.24662   0.25535   0.26133   0.26546
 Alpha virt. eigenvalues --    0.27203   0.28300   0.28446   0.29018   0.29799
 Alpha virt. eigenvalues --    0.30457   0.30756   0.31182   0.31763   0.31960
 Alpha virt. eigenvalues --    0.32322   0.32745   0.33033   0.33457   0.33832
 Alpha virt. eigenvalues --    0.34357   0.34677   0.35505   0.36331   0.37369
 Alpha virt. eigenvalues --    0.37651   0.38209   0.38598   0.39866   0.40317
 Alpha virt. eigenvalues --    0.40777   0.41162   0.41941   0.42276   0.42362
 Alpha virt. eigenvalues --    0.43323   0.43765   0.44001   0.44251   0.44744
 Alpha virt. eigenvalues --    0.45203   0.45496   0.46307   0.46876   0.47368
 Alpha virt. eigenvalues --    0.47770   0.48683   0.48846   0.49621   0.49898
 Alpha virt. eigenvalues --    0.50058   0.50541   0.51638   0.52517   0.54050
 Alpha virt. eigenvalues --    0.55808   0.56210   0.57137   0.57846   0.58242
 Alpha virt. eigenvalues --    0.58757   0.60571   0.61732   0.62319   0.64713
 Alpha virt. eigenvalues --    0.66575   0.68215   0.73467   0.76845   0.78443
 Alpha virt. eigenvalues --    0.83687   0.84203   0.84909   0.87035   0.87268
 Alpha virt. eigenvalues --    0.89235   0.89876   0.90955   0.91239   0.92628
 Alpha virt. eigenvalues --    0.92872   0.93653   0.94096   0.94803   0.96019
 Alpha virt. eigenvalues --    0.97295   0.98504   0.99429   1.01303   1.02007
 Alpha virt. eigenvalues --    1.02736   1.03600   1.04451   1.05220   1.06717
 Alpha virt. eigenvalues --    1.07875   1.07954   1.09292   1.12899   1.13584
 Alpha virt. eigenvalues --    1.15762   1.17028   1.17822   1.18781   1.19316
 Alpha virt. eigenvalues --    1.20735   1.21576   1.22517   1.23605   1.24504
 Alpha virt. eigenvalues --    1.24736   1.25128   1.25715   1.26712   1.28016
 Alpha virt. eigenvalues --    1.29960   1.31555   1.32180   1.34329   1.34773
 Alpha virt. eigenvalues --    1.36192   1.36913   1.38749   1.39067   1.39806
 Alpha virt. eigenvalues --    1.42109   1.43525   1.44193   1.47019   1.47416
 Alpha virt. eigenvalues --    1.49191   1.51432   1.52899   1.53801   1.57190
 Alpha virt. eigenvalues --    1.58514   1.59893   1.60412   1.62035   1.63255
 Alpha virt. eigenvalues --    1.66590   1.67099   1.69614   1.70195   1.70634
 Alpha virt. eigenvalues --    1.72445   1.74265   1.76611   1.77655   1.79690
 Alpha virt. eigenvalues --    1.82564   1.85242   1.87764   1.88415   1.91466
 Alpha virt. eigenvalues --    1.93057   1.94327   1.94491   1.96926   1.97469
 Alpha virt. eigenvalues --    1.97909   1.98411   2.00222   2.01250   2.03109
 Alpha virt. eigenvalues --    2.04058   2.05286   2.08691   2.10394   2.11315
 Alpha virt. eigenvalues --    2.12176   2.12781   2.13190   2.13812   2.14049
 Alpha virt. eigenvalues --    2.15968   2.16260   2.17919   2.18951   2.20394
 Alpha virt. eigenvalues --    2.20976   2.23742   2.25155   2.26331   2.28957
 Alpha virt. eigenvalues --    2.30467   2.32071   2.33244   2.35147   2.35658
 Alpha virt. eigenvalues --    2.36869   2.38613   2.39544   2.39730   2.41957
 Alpha virt. eigenvalues --    2.42906   2.43772   2.43953   2.44296   2.45257
 Alpha virt. eigenvalues --    2.50026   2.51114   2.52582   2.55909   2.56932
 Alpha virt. eigenvalues --    2.58550   2.59227   2.61375   2.63252   2.66069
 Alpha virt. eigenvalues --    2.67777   2.68243   2.71678   2.74178   2.74564
 Alpha virt. eigenvalues --    2.79065   2.80775   2.83627   2.87750   2.91553
 Alpha virt. eigenvalues --    2.94935   2.96806   2.98006   2.99274   3.01388
 Alpha virt. eigenvalues --    3.05296   3.08904   3.10425   3.11140   3.13778
 Alpha virt. eigenvalues --    3.15437   3.15662   3.19821   3.24512   3.30705
 Alpha virt. eigenvalues --    3.33164   3.46673   3.48493   3.52516   3.60241
 Alpha virt. eigenvalues --    3.61867   3.68668   3.70648   3.79825   4.54597
 Alpha virt. eigenvalues --    4.64765   4.65884   4.68621   4.71627   4.78318
 Alpha virt. eigenvalues --    4.80272   4.81315   4.84250   4.87000   4.87970
 Alpha virt. eigenvalues --    4.96975   5.00443   5.07219   5.19442   5.99313
 Alpha virt. eigenvalues --    6.48943   7.43953
          Condensed to atoms (all electrons):
               1          2          3          4          5          6
     1  C   15.367402   0.060156  -1.311940  -0.385681  -0.194757  -0.598533
     2  N    0.060156   7.662533   0.249519  -0.065509  -0.212531  -0.131524
     3  C   -1.311940   0.249519   6.493520   0.643177   0.263725  -0.526507
     4  O   -0.385681  -0.065509   0.643177   8.292546  -0.134331  -0.089200
     5  N   -0.194757  -0.212531   0.263725  -0.134331   7.481012   0.416845
     6  C   -0.598533  -0.131524  -0.526507  -0.089200   0.416845   6.511714
     7  C    0.028547   0.002633   0.012510   0.011593  -0.122730  -0.103555
     8  C   -0.006163   0.000179  -0.047100  -0.000824   0.005948  -0.048532
     9  C   -1.676697  -0.289263   1.352331   0.378715   0.049690   0.203320
    10  C   -2.924554   0.001220   0.019867   0.088998   0.008739   0.026781
    11  C   -2.072418  -0.045230  -0.451322  -0.010759  -0.003982  -0.035789
    12  C    1.160460   0.129322   0.445399  -0.004418   0.012762   0.022292
    13  C   -0.512989   0.172728  -1.940998  -0.078436  -0.067915  -0.204157
    14  H   -0.065828   0.267854  -0.034730   0.002575   0.016149   0.001808
    15  H    0.009026   0.030640   0.036376   0.002412   0.261895  -0.074661
    16  H    0.004447   0.004712   0.069815  -0.000709  -0.075154   0.387657
    17  H   -0.011424   0.004348   0.014922  -0.009396  -0.036938   0.414423
    18  H    0.004234   0.000441   0.042679  -0.000255  -0.000876  -0.100489
    19  H   -0.004260  -0.000389  -0.034326  -0.000316   0.001106  -0.017770
    20  H   -0.000254  -0.000063  -0.010706  -0.000084  -0.000930  -0.024607
    21  H    0.000003   0.000011   0.001954   0.000013   0.000326   0.052790
    22  H    0.000315   0.000015   0.009717  -0.000039  -0.000446  -0.023462
    23  H    0.029933  -0.007483   0.044588  -0.007046   0.000437   0.003992
    24  Cl   0.051050  -0.001106   0.015041   0.001048   0.001056   0.001489
    25  C   -1.066478  -0.001444  -0.123470  -0.000086   0.003991  -0.002043
    26  H    0.023282  -0.000495   0.002308  -0.000002  -0.000018   0.000014
    27  H    0.153328  -0.010721  -0.012781   0.000070   0.000427  -0.000417
    28  F    0.025899  -0.000069   0.000056  -0.000000  -0.000000  -0.000001
    29  F    0.003318  -0.000025  -0.000410  -0.000002   0.000000  -0.000003
    30  F    0.011819  -0.000103  -0.000224   0.000003   0.000000  -0.000002
               7          8          9         10         11         12
     1  C    0.028547  -0.006163  -1.676697  -2.924554  -2.072418   1.160460
     2  N    0.002633   0.000179  -0.289263   0.001220  -0.045230   0.129322
     3  C    0.012510  -0.047100   1.352331   0.019867  -0.451322   0.445399
     4  O    0.011593  -0.000824   0.378715   0.088998  -0.010759  -0.004418
     5  N   -0.122730   0.005948   0.049690   0.008739  -0.003982   0.012762
     6  C   -0.103555  -0.048532   0.203320   0.026781  -0.035789   0.022292
     7  C    5.669560   0.220489  -0.024517  -0.002434   0.000982  -0.000263
     8  C    0.220489   5.401741   0.000786   0.000029  -0.000199   0.000116
     9  C   -0.024517   0.000786  12.782760  -1.474518  -0.778693   2.622339
    10  C   -0.002434   0.000029  -1.474518  25.622911  -6.154739 -11.070042
    11  C    0.000982  -0.000199  -0.778693  -6.154739  22.672717  -1.863095
    12  C   -0.000263   0.000116   2.622339 -11.070042  -1.863095  18.967738
    13  C    0.015584  -0.002143  -7.296017   1.806890  -0.096408  -4.122082
    14  H   -0.000822  -0.000074   0.029862   0.002761   0.011459   0.021200
    15  H   -0.001371   0.002285   0.009658   0.000192  -0.000094  -0.000682
    16  H   -0.075923  -0.001432   0.001744   0.000200   0.000059  -0.000020
    17  H   -0.034182  -0.003293   0.002059   0.000332  -0.000065   0.000144
    18  H    0.430971  -0.046142  -0.000383  -0.000010   0.000020  -0.000014
    19  H    0.390963  -0.009715   0.000304   0.000014  -0.000022   0.000025
    20  H   -0.033803   0.425481  -0.000055  -0.000000  -0.000001   0.000001
    21  H   -0.088266   0.395084   0.000019   0.000000   0.000000  -0.000000
    22  H   -0.021040   0.389877  -0.000034  -0.000001   0.000001  -0.000000
    23  H   -0.000111   0.000013   0.310055  -0.062890   0.019692  -0.019922
    24  Cl  -0.000071   0.000007   0.138104  -0.419697  -0.226124   0.121508
    25  C    0.000025  -0.000007  -0.645157   0.113802  -4.019007  -0.383136
    26  H    0.000000  -0.000000  -0.012513   0.012950   0.083481   0.250482
    27  H   -0.000016  -0.000000   0.054994  -0.036905   0.025174   0.029408
    28  F    0.000000  -0.000000  -0.000500  -0.048326   0.124695  -0.033903
    29  F    0.000000  -0.000000  -0.010585  -0.186078   0.340727  -0.043362
    30  F    0.000000  -0.000000   0.005067  -0.194155   0.329643  -0.040229
              13         14         15         16         17         18
     1  C   -0.512989  -0.065828   0.009026   0.004447  -0.011424   0.004234
     2  N    0.172728   0.267854   0.030640   0.004712   0.004348   0.000441
     3  C   -1.940998  -0.034730   0.036376   0.069815   0.014922   0.042679
     4  O   -0.078436   0.002575   0.002412  -0.000709  -0.009396  -0.000255
     5  N   -0.067915   0.016149   0.261895  -0.075154  -0.036938  -0.000876
     6  C   -0.204157   0.001808  -0.074661   0.387657   0.414423  -0.100489
     7  C    0.015584  -0.000822  -0.001371  -0.075923  -0.034182   0.430971
     8  C   -0.002143  -0.000074   0.002285  -0.001432  -0.003293  -0.046142
     9  C   -7.296017   0.029862   0.009658   0.001744   0.002059  -0.000383
    10  C    1.806890   0.002761   0.000192   0.000200   0.000332  -0.000010
    11  C   -0.096408   0.011459  -0.000094   0.000059  -0.000065   0.000020
    12  C   -4.122082   0.021200  -0.000682  -0.000020   0.000144  -0.000014
    13  C   18.311758   0.006523  -0.008907  -0.000613  -0.001403   0.000543
    14  H    0.006523   0.272545   0.001024   0.000003  -0.000001  -0.000005
    15  H   -0.008907   0.001024   0.308735   0.001480   0.002241   0.000398
    16  H   -0.000613   0.000003   0.001480   0.513017  -0.033341   0.003437
    17  H   -0.001403  -0.000001   0.002241  -0.033341   0.463744  -0.003170
    18  H    0.000543  -0.000005   0.000398   0.003437  -0.003170   0.498482
    19  H   -0.000619   0.000004   0.001757  -0.003946   0.003131  -0.034433
    20  H   -0.000003   0.000000  -0.000002   0.000074   0.001317  -0.003425
    21  H   -0.000006  -0.000000   0.000000  -0.000112  -0.000096  -0.002645
    22  H    0.000022  -0.000000   0.000007   0.001339   0.000294   0.003247
    23  H    0.008894  -0.000077  -0.000002  -0.000000  -0.000003  -0.000000
    24  Cl   0.041492   0.000018   0.000003   0.000000  -0.000002  -0.000000
    25  C    0.644628   0.001171  -0.000009  -0.000001  -0.000005   0.000000
    26  H   -0.024880  -0.000007   0.000000  -0.000000  -0.000000  -0.000000
    27  H    0.100681   0.004923   0.000003   0.000000  -0.000000  -0.000000
    28  F    0.045403   0.000000   0.000000  -0.000000  -0.000000   0.000000
    29  F    0.001081   0.000000  -0.000000  -0.000000   0.000000  -0.000000
    30  F   -0.001188   0.000000   0.000000   0.000000  -0.000000   0.000000
              19         20         21         22         23         24
     1  C   -0.004260  -0.000254   0.000003   0.000315   0.029933   0.051050
     2  N   -0.000389  -0.000063   0.000011   0.000015  -0.007483  -0.001106
     3  C   -0.034326  -0.010706   0.001954   0.009717   0.044588   0.015041
     4  O   -0.000316  -0.000084   0.000013  -0.000039  -0.007046   0.001048
     5  N    0.001106  -0.000930   0.000326  -0.000446   0.000437   0.001056
     6  C   -0.017770  -0.024607   0.052790  -0.023462   0.003992   0.001489
     7  C    0.390963  -0.033803  -0.088266  -0.021040  -0.000111  -0.000071
     8  C   -0.009715   0.425481   0.395084   0.389877   0.000013   0.000007
     9  C    0.000304  -0.000055   0.000019  -0.000034   0.310055   0.138104
    10  C    0.000014  -0.000000   0.000000  -0.000001  -0.062890  -0.419697
    11  C   -0.000022  -0.000001   0.000000   0.000001   0.019692  -0.226124
    12  C    0.000025   0.000001  -0.000000  -0.000000  -0.019922   0.121508
    13  C   -0.000619  -0.000003  -0.000006   0.000022   0.008894   0.041492
    14  H    0.000004   0.000000  -0.000000  -0.000000  -0.000077   0.000018
    15  H    0.001757  -0.000002   0.000000   0.000007  -0.000002   0.000003
    16  H   -0.003946   0.000074  -0.000112   0.001339  -0.000000   0.000000
    17  H    0.003131   0.001317  -0.000096   0.000294  -0.000003  -0.000002
    18  H   -0.034433  -0.003425  -0.002645   0.003247  -0.000000  -0.000000
    19  H    0.530524   0.003538  -0.002737  -0.003421  -0.000000  -0.000000
    20  H    0.003538   0.499594  -0.024736  -0.030362  -0.000000  -0.000000
    21  H   -0.002737  -0.024736   0.493831  -0.025434   0.000000   0.000000
    22  H   -0.003421  -0.030362  -0.025434   0.502267   0.000000  -0.000000
    23  H   -0.000000  -0.000000   0.000000   0.000000   0.339957  -0.002058
    24  Cl  -0.000000  -0.000000   0.000000  -0.000000  -0.002058  16.930181
    25  C   -0.000000  -0.000000   0.000000   0.000000   0.005182   0.069768
    26  H   -0.000000  -0.000000  -0.000000   0.000000   0.000007   0.000957
    27  H    0.000000  -0.000000   0.000000  -0.000000  -0.000074  -0.000184
    28  F   -0.000000  -0.000000   0.000000   0.000000   0.000009   0.001253
    29  F   -0.000000  -0.000000  -0.000000   0.000000   0.000009  -0.008087
    30  F   -0.000000  -0.000000   0.000000   0.000000   0.000005  -0.008423
              25         26         27         28         29         30
     1  C   -1.066478   0.023282   0.153328   0.025899   0.003318   0.011819
     2  N   -0.001444  -0.000495  -0.010721  -0.000069  -0.000025  -0.000103
     3  C   -0.123470   0.002308  -0.012781   0.000056  -0.000410  -0.000224
     4  O   -0.000086  -0.000002   0.000070  -0.000000  -0.000002   0.000003
     5  N    0.003991  -0.000018   0.000427  -0.000000   0.000000   0.000000
     6  C   -0.002043   0.000014  -0.000417  -0.000001  -0.000003  -0.000002
     7  C    0.000025   0.000000  -0.000016   0.000000   0.000000   0.000000
     8  C   -0.000007  -0.000000  -0.000000  -0.000000  -0.000000  -0.000000
     9  C   -0.645157  -0.012513   0.054994  -0.000500  -0.010585   0.005067
    10  C    0.113802   0.012950  -0.036905  -0.048326  -0.186078  -0.194155
    11  C   -4.019007   0.083481   0.025174   0.124695   0.340727   0.329643
    12  C   -0.383136   0.250482   0.029408  -0.033903  -0.043362  -0.040229
    13  C    0.644628  -0.024880   0.100681   0.045403   0.001081  -0.001188
    14  H    0.001171  -0.000007   0.004923   0.000000   0.000000   0.000000
    15  H   -0.000009   0.000000   0.000003   0.000000  -0.000000   0.000000
    16  H   -0.000001  -0.000000   0.000000  -0.000000  -0.000000   0.000000
    17  H   -0.000005  -0.000000  -0.000000  -0.000000   0.000000  -0.000000
    18  H    0.000000  -0.000000  -0.000000   0.000000  -0.000000   0.000000
    19  H   -0.000000  -0.000000   0.000000  -0.000000  -0.000000  -0.000000
    20  H   -0.000000  -0.000000  -0.000000  -0.000000  -0.000000  -0.000000
    21  H    0.000000  -0.000000   0.000000   0.000000  -0.000000   0.000000
    22  H    0.000000   0.000000  -0.000000   0.000000   0.000000   0.000000
    23  H    0.005182   0.000007  -0.000074   0.000009   0.000009   0.000005
    24  Cl   0.069768   0.000957  -0.000184   0.001253  -0.008087  -0.008423
    25  C    9.454239  -0.007393   0.020116   0.003441   0.017705   0.011042
    26  H   -0.007393   0.394743  -0.000875  -0.000109   0.000073   0.000048
    27  H    0.020116  -0.000875   0.441039   0.000076   0.000014   0.000014
    28  F    0.003441  -0.000109   0.000076   9.363500  -0.020061  -0.020261
    29  F    0.017705   0.000073   0.000014  -0.020061   9.295463  -0.030703
    30  F    0.011042   0.000048   0.000014  -0.020261  -0.030703   9.293365
 Mulliken charges:
               1
     1  C   -0.101243
     2  N   -0.820356
     3  C    0.777010
     4  O   -0.634057
     5  N   -0.673501
     6  C   -0.061872
     7  C   -0.274752
     8  C   -0.676411
     9  C    0.267124
    10  C    0.868664
    11  C   -1.850703
    12  C   -0.202026
    13  C   -0.797465
    14  H    0.461662
    15  H    0.417596
    16  H    0.203266
    17  H    0.226365
    18  H    0.207392
    19  H    0.180589
    20  H    0.199025
    21  H    0.200002
    22  H    0.197140
    23  H    0.336893
    24  Cl   0.292775
    25  C    1.903125
    26  H    0.277947
    27  H    0.231706
    28  F   -0.441103
    29  F   -0.359073
    30  F   -0.355720
 Sum of Mulliken charges =  -0.00000
 Mulliken charges with hydrogens summed into heavy atoms:
               1
     1  C   -0.101243
     2  N   -0.358694
     3  C    0.777010
     4  O   -0.634057
     5  N   -0.255904
     6  C    0.367759
     7  C    0.113229
     8  C   -0.080243
     9  C    0.604017
    10  C    0.868664
    11  C   -1.850703
    12  C    0.075921
    13  C   -0.565759
    24  Cl   0.292775
    25  C    1.903125
    28  F   -0.441103
    29  F   -0.359073
    30  F   -0.355720
 Electronic spatial extent (au):  <R**2>=           8696.2294
 Charge=             -0.0000 electrons
 Dipole moment (field-independent basis, Debye):
    X=             -6.4595    Y=             -5.2548    Z=             -0.8892  Tot=              8.3743
 Quadrupole moment (field-independent basis, Debye-Ang):
   XX=           -109.6755   YY=           -106.7035   ZZ=           -115.5762
   XY=              6.3630   XZ=              3.2887   YZ=              0.4868
 Traceless Quadrupole moment (field-independent basis, Debye-Ang):
   XX=              0.9762   YY=              3.9482   ZZ=             -4.9244
   XY=              6.3630   XZ=              3.2887   YZ=              0.4868
 Octapole moment (field-independent basis, Debye-Ang**2):
  XXX=           -123.3970  YYY=            -21.6850  ZZZ=              0.5249  XYY=             21.8033
  XXY=            -23.2578  XXZ=            -10.4446  XZZ=             16.0435  YZZ=              3.9751
  YYZ=             -2.0182  XYZ=             -4.0817
 Hexadecapole moment (field-independent basis, Debye-Ang**3):
 XXXX=          -9501.6284 YYYY=           -974.0555 ZZZZ=           -209.3030 XXXY=             70.6490
 XXXZ=             33.0120 YYYX=             32.6167 YYYZ=              2.6101 ZZZX=              2.3813
 ZZZY=              0.7889 XXYY=          -1783.9147 XXZZ=          -1679.6769 YYZZ=           -218.6310
 XXYZ=             19.1736 YYXZ=              9.2327 ZZXY=             -8.2239
 N-N= 1.432930544790D+03 E-N=-6.090453498070D+03  KE= 1.362855366981D+03
 1\1\GINC-R4083\SP\RMP2-FC\Gen\C11H12Cl1F3N2O1\ROOT\30-Nov-2019\0\\# MP
 2/Gen 6D SCF=Tight INT(grid=ultrafine) maxdisk=3489660928\\CP19.MP2_6-
 31pGd\\0,1\C,0,-6.3330693079,1.2172209296,-0.0297743341\N,0,-5.0559207
 952,0.6543032575,0.0113379765\C,0,-3.8339772072,1.3190363472,-0.060081
 7055\O,0,-3.7244688526,2.5151564473,-0.2125443484\N,0,-2.7561925247,0.
 4740653666,0.029054243\C,0,-1.4163577481,1.0457949276,0.0845918885\C,0
 ,-0.3660391645,-0.0476636544,-0.0423451047\C,0,1.0466459308,0.52592662
 87,0.0053945548\C,0,-6.567290825,2.5955289002,-0.0025492504\C,0,-7.873
 4078117,3.061702649,-0.0240442857\C,0,-8.9656654608,2.195614158,-0.074
 1504389\C,0,-8.7160692052,0.8265330952,-0.1023504397\C,0,-7.4226979591
 ,0.3396537315,-0.0809325327\H,0,-5.0292539606,-0.3522090217,-0.0527039
 582\H,0,-2.883006257,-0.4144880293,0.4918430712\H,0,-1.2754276262,1.61
 04162594,1.013857239\H,0,-1.3285652911,1.7594203219,-0.7360657637\H,0,
 -0.5253641616,-0.5873365106,-0.9805353888\H,0,-0.4930496361,-0.7756340
 091,0.7678658223\H,0,1.2080013083,1.2377257198,-0.8075074831\H,0,1.796
 4855078,-0.2609479653,-0.0876212263\H,0,1.228621229,1.0500458195,0.946
 630384\H,0,-5.7459671957,3.2940543512,0.027065049\Cl,0,-8.1069986059,4
 .7833091285,0.012898\C,0,-10.3810141806,2.7007688394,-0.0985018428\H,0
 ,-9.5484446251,0.1357290585,-0.1420335305\H,0,-7.2542469943,-0.7320660
 79,-0.1022631828\F,0,-11.2585898342,1.6852318988,-0.1471586998\F,0,-10
 .6842407062,3.4203085286,0.9906365458\F,0,-10.6279780395,3.4751489053,
 -1.163761258\\Version=ES64L-G09RevE.01\State=1-A\HF=-1365.1638681\MP2=
 -1367.7440656\RMSD=6.155e-09\PG=C01 [X(C11H12Cl1F3N2O1)]\\@


 I DON'T PRETEND TO UNDERSTAND THE UNIVERSE --
 IT'S A GREAT DEAL BIGGER THAN I AM.
       -- ATTR. TO WILLIAM ALLINGHAM (1828-89)
 Job cpu time:       0 days  0 hours 13 minutes 35.0 seconds.
 File lengths (MBytes):  RWF=     75 Int=      0 D2E=      0 Chk=      9 Scr=      1
 Normal termination of Gaussian 09 at Sat Nov 30 15:02:52 2019.
pbs_rusage has been removed.
Please contact help@nci.org.au if you require this functionality.
