 Entering Gaussian System, Link 0=/apps/gaussian/g09e01/g09/g09
 AtFile(1): /home/507/hio507/Basis/GTMP2LARGE.gbs
 Initial command:
 /apps/gaussian/g09e01/g09/l1.exe "/jobfs/local/3890856.r-man2/Gau-6996.inp" -scrdir="/jobfs/local/3890856.r-man2/"
 Entering Link 1 = /apps/gaussian/g09e01/g09/l1.exe PID=      7008.
  
 Copyright (c) 1988,1990,1992,1993,1995,1998,2003,2009,2015,
            Gaussian, Inc.  All Rights Reserved.
  
 This is part of the Gaussian(R) 09 program.  It is based on
 the Gaussian(R) 03 system (copyright 2003, Gaussian, Inc.),
 the Gaussian(R) 98 system (copyright 1998, Gaussian, Inc.),
 the Gaussian(R) 94 system (copyright 1995, Gaussian, Inc.),
 the Gaussian 92(TM) system (copyright 1992, Gaussian, Inc.),
 the Gaussian 90(TM) system (copyright 1990, Gaussian, Inc.),
 the Gaussian 88(TM) system (copyright 1988, Gaussian, Inc.),
 the Gaussian 86(TM) system (copyright 1986, Carnegie Mellon
 University), and the Gaussian 82(TM) system (copyright 1983,
 Carnegie Mellon University). Gaussian is a federally registered
 trademark of Gaussian, Inc.
  
 This software contains proprietary and confidential information,
 including trade secrets, belonging to Gaussian, Inc.
  
 This software is provided under written license and may be
 used, copied, transmitted, or stored only in accord with that
 written license.
  
 The following legend is applicable only to US Government
 contracts under FAR:
  
                    RESTRICTED RIGHTS LEGEND
  
 Use, reproduction and disclosure by the US Government is
 subject to restrictions as set forth in subparagraphs (a)
 and (c) of the Commercial Computer Software - Restricted
 Rights clause in FAR 52.227-19.
  
 Gaussian, Inc.
 340 Quinnipiac St., Bldg. 40, Wallingford CT 06492
  
  
 ---------------------------------------------------------------
 Warning -- This program may not be used in any manner that
 competes with the business of Gaussian, Inc. or will provide
 assistance to any competitor of Gaussian, Inc.  The licensee
 of this program is prohibited from giving any competitor of
 Gaussian, Inc. access to this program.  By using this program,
 the user acknowledges that Gaussian, Inc. is engaged in the
 business of creating and licensing software in the field of
 computational chemistry and represents and warrants to the
 licensee that it is not a competitor of Gaussian, Inc. and that
 it will not use this program in any manner prohibited above.
 ---------------------------------------------------------------
  

 Cite this work as:
 Gaussian 09, Revision E.01,
 M. J. Frisch, G. W. Trucks, H. B. Schlegel, G. E. Scuseria, 
 M. A. Robb, J. R. Cheeseman, G. Scalmani, V. Barone, B. Mennucci, 
 G. A. Petersson, H. Nakatsuji, M. Caricato, X. Li, H. P. Hratchian, 
 A. F. Izmaylov, J. Bloino, G. Zheng, J. L. Sonnenberg, M. Hada, 
 M. Ehara, K. Toyota, R. Fukuda, J. Hasegawa, M. Ishida, T. Nakajima, 
 Y. Honda, O. Kitao, H. Nakai, T. Vreven, J. A. Montgomery, Jr., 
 J. E. Peralta, F. Ogliaro, M. Bearpark, J. J. Heyd, E. Brothers, 
 K. N. Kudin, V. N. Staroverov, T. Keith, R. Kobayashi, J. Normand, 
 K. Raghavachari, A. Rendell, J. C. Burant, S. S. Iyengar, J. Tomasi, 
 M. Cossi, N. Rega, J. M. Millam, M. Klene, J. E. Knox, J. B. Cross, 
 V. Bakken, C. Adamo, J. Jaramillo, R. Gomperts, R. E. Stratmann, 
 O. Yazyev, A. J. Austin, R. Cammi, C. Pomelli, J. W. Ochterski, 
 R. L. Martin, K. Morokuma, V. G. Zakrzewski, G. A. Voth, 
 P. Salvador, J. J. Dannenberg, S. Dapprich, A. D. Daniels, 
 O. Farkas, J. B. Foresman, J. V. Ortiz, J. Cioslowski, 
 and D. J. Fox, Gaussian, Inc., Wallingford CT, 2013.
 
 ******************************************
 Gaussian 09:  ES64L-G09RevE.01 30-Nov-2015
                30-Nov-2019 
 ******************************************
 %chk=CP19_c2.MP2_GTMP2LARGE.chk
 %mem=1114112000
 %nproc=4
 Will use up to    4 processors via shared memory.
 -------------------------------------------------------------
 # MP2/Gen 5D SCF=Tight INT(grid=ultrafine) maxdisk=3489660928
 -------------------------------------------------------------
 1/38=1/1;
 2/12=2,17=6,18=5,40=1/2;
 3/5=7,8=1,11=9,16=1,25=1,30=1,75=-5/1,2,3;
 4//1;
 5/5=2,32=2,38=5/2;
 8/10=1/1;
 9/16=-3/6;
 6/7=2,8=2,9=2,10=2/1;
 99/5=1,9=1/99;
 ----------------------
 CP19_c2.MP2_GTMP2LARGE
 ----------------------
 Symbolic Z-matrix:
 Charge =  0 Multiplicity = 1
 C                    -6.27233   1.41578  -0.00063 
 N                    -5.02289   0.79305   0.03503 
 C                    -3.77284   1.40724   0.01608 
 O                    -3.60958   2.60706   0.01466 
 N                    -2.73402   0.51055   0.03089 
 C                    -1.37073   1.01004  -0.09898 
 C                    -0.36909  -0.1078    0.15048 
 C                     1.06725   0.39116   0.02811 
 C                    -7.39352   0.59329   0.16659 
 C                    -8.66886   1.12429   0.12268 
 C                    -8.8674    2.48935  -0.08729 
 C                    -7.74628   3.29601  -0.25061 
 C                    -6.45719   2.78556  -0.21061 
 H                    -5.03836  -0.19671   0.23011 
 H                    -2.90377  -0.42265  -0.3157 
 H                    -1.24188   1.8107    0.63102 
 H                    -1.21476   1.45391  -1.08935 
 H                    -0.53705  -0.91914  -0.56781 
 H                    -0.54234  -0.5259    1.14647 
 H                     1.26237   0.79228  -0.96928 
 H                     1.78216  -0.41271   0.20914 
 H                     1.26882   1.18535   0.75072 
 H                    -7.276    -0.47224   0.33076 
 Cl                   -10.00899   0.03803   0.33704 
 C                    -10.24471   3.08768  -0.13902 
 H                    -7.88386   4.35753  -0.41325 
 H                    -5.60663   3.43679  -0.3324 
 F                    -10.19535   4.41081  -0.35147 
 F                    -10.98851   2.56428  -1.12447 
 F                    -10.92214   2.90319   1.00325 
 
                          Input orientation:                          
 ---------------------------------------------------------------------
 Center     Atomic      Atomic             Coordinates (Angstroms)
 Number     Number       Type             X           Y           Z
 ---------------------------------------------------------------------
      1          6           0       -6.272330    1.415781   -0.000627
      2          7           0       -5.022891    0.793053    0.035029
      3          6           0       -3.772837    1.407244    0.016082
      4          8           0       -3.609579    2.607064    0.014657
      5          7           0       -2.734019    0.510549    0.030889
      6          6           0       -1.370734    1.010042   -0.098984
      7          6           0       -0.369094   -0.107796    0.150478
      8          6           0        1.067254    0.391156    0.028113
      9          6           0       -7.393523    0.593294    0.166589
     10          6           0       -8.668859    1.124292    0.122679
     11          6           0       -8.867396    2.489349   -0.087287
     12          6           0       -7.746277    3.296005   -0.250613
     13          6           0       -6.457189    2.785561   -0.210609
     14          1           0       -5.038362   -0.196710    0.230105
     15          1           0       -2.903769   -0.422650   -0.315704
     16          1           0       -1.241884    1.810700    0.631022
     17          1           0       -1.214758    1.453909   -1.089355
     18          1           0       -0.537053   -0.919144   -0.567805
     19          1           0       -0.542340   -0.525902    1.146467
     20          1           0        1.262366    0.792277   -0.969278
     21          1           0        1.782156   -0.412714    0.209145
     22          1           0        1.268820    1.185350    0.750716
     23          1           0       -7.275997   -0.472242    0.330756
     24         17           0      -10.008993    0.038026    0.337043
     25          6           0      -10.244711    3.087685   -0.139018
     26          1           0       -7.883864    4.357528   -0.413249
     27          1           0       -5.606634    3.436785   -0.332399
     28          9           0      -10.195351    4.410805   -0.351470
     29          9           0      -10.988508    2.564282   -1.124473
     30          9           0      -10.922142    2.903191    1.003251
 ---------------------------------------------------------------------
                    Distance matrix (angstroms):
                    1          2          3          4          5
     1  C    0.000000
     2  N    1.396482   0.000000
     3  C    2.499564   1.392919   0.000000
     4  O    2.917127   2.299673   1.210877   0.000000
     5  N    3.652408   2.306243   1.372378   2.272057   0.000000
     6  C    4.919344   3.661050   2.437439   2.752421   1.457706
     7  C    6.098550   4.741590   3.728119   4.229617   2.447350
     8  C    7.410815   6.103395   4.945610   5.175249   3.803149
     9  C    1.400543   2.382669   3.714100   4.289124   4.662214
    10  C    2.417337   3.662033   4.905350   5.273195   5.967196
    11  C    2.809701   4.203879   5.209239   5.260122   6.445768
    12  C    2.402135   3.709878   4.407581   4.202056   5.741144
    13  C    1.398057   2.467314   3.026036   2.862077   4.369896
    14  H    2.043537   1.008923   2.054271   3.154201   2.418656
    15  H    3.850495   2.468122   2.052772   3.128334   1.009853
    16  H    5.085305   3.960659   2.635650   2.572952   2.068096
    17  H    5.173569   4.025276   2.787101   2.878155   2.110220
    18  H    6.218277   4.839190   4.027816   4.713154   2.688702
    19  H    6.157821   4.801070   3.930768   4.528182   2.668746
    20  H    7.622249   6.364988   5.167434   5.291259   4.129261
    21  H    8.262091   6.913237   5.848715   6.182855   4.613028
    22  H    7.581989   6.344425   5.099728   5.134377   4.122648
    23  H    2.163745   2.600945   3.987935   4.798402   4.656755
    24  Cl   3.996858   5.051979   6.392763   6.903360   7.296729
    25  C    4.312102   5.706403   6.688281   6.654291   7.942354
    26  H    3.379523   4.592560   5.078292   4.638614   6.443400
    27  H    2.153528   2.732230   2.757406   2.190231   4.116643
    28  F    4.948065   6.323912   7.099659   6.838122   8.427910
    29  F    4.982411   6.330110   7.396318   7.466461   8.584245
    30  F    4.984065   6.339661   7.370545   7.385024   8.585778
                    6          7          8          9         10
     6  C    0.000000
     7  C    1.521537   0.000000
     8  C    2.518523   1.525458   0.000000
     9  C    6.043029   7.059348   8.464324   0.000000
    10  C    7.302384   8.390763   9.764134   1.382160   0.000000
    11  C    7.641232   8.889478  10.154457   2.414907   1.395308
    12  C    6.774671   8.134468   9.284081   2.757380   2.388900
    13  C    5.388594   6.750318   7.899835   2.413512   2.786105
    14  H    3.875054   4.670793   6.137176   2.484940   3.864853
    15  H    2.109448   2.596350   4.068109   4.628460   5.985104
    16  H    1.091130   2.161785   2.776819   6.288119   7.475929
    17  H    1.096440   2.165931   2.754225   6.363584   7.559186
    18  H    2.153271   1.096552   2.155413   7.059603   8.413005
    19  H    2.143948   1.093993   2.163909   7.010812   8.355333
    20  H    2.781734   2.173855   1.092591   8.732365   9.996590
    21  H    3.472736   2.173544   1.090901   9.230761  10.563786
    22  H    2.778483   2.171469   1.092488   8.702179   9.957691
    23  H    6.103604   6.918861   8.393265   1.084495   2.128915
    24  Cl   8.703703   9.642806  11.086180   2.679190   1.738357
    25  C    9.114037  10.383772  11.630123   3.800612   2.531148
    26  H    7.329754   8.759491   9.800481   3.840066   3.370052
    27  H    4.887373   6.342638   7.344836   3.395203   3.864187
    28  F    9.460592  10.827051  11.964445   4.763614   3.654609
    29  F    9.796370  11.024403  12.304159   4.298319   3.001622
    30  F    9.799405  11.007274  12.288484   4.299625   3.002861
                   11         12         13         14         15
    11  C    0.000000
    12  C    1.390783   0.000000
    13  C    2.431470   1.387048   0.000000
    14  H    4.687979   4.445555   3.331853   0.000000
    15  H    6.640539   6.105941   4.788576   2.214824   0.000000
    16  H    7.689275   6.729825   5.371973   4.313198   2.940409
    17  H    7.787113   6.837949   5.479833   4.368692   2.640600
    18  H    9.013508   8.357093   6.992885   4.628213   2.431338
    19  H    8.939824   8.273785   6.913240   4.600250   2.779380
    20  H   10.308735   9.377674   8.008762   6.489667   4.388608
    21  H   11.041865  10.235087   8.848274   6.823970   4.715237
    22  H   10.254049   9.312867   7.948335   6.477783   4.597109
    23  H    3.387968   3.841723   3.402470   2.256781   4.420040
    24  Cl   2.737204   4.009944   4.523736   4.977319   7.150000
    25  C    1.502558   2.509586   3.800228   6.166812   8.138987
    26  H    2.136277   1.082687   2.132498   5.408500   6.903692
    27  H    3.404450   2.145828   1.078132   3.720435   4.711794
    28  F    2.350586   2.692752   4.078617   6.939882   8.748185
    29  F    2.362306   3.436730   4.627847   6.697925   8.656725
    30  F    2.362736   3.436946   4.628510   6.695223   8.780385
                   16         17         18         19         20
    16  H    0.000000
    17  H    1.757194   0.000000
    18  H    3.063662   2.522435   0.000000
    19  H    2.492941   3.061160   1.758805   0.000000
    20  H    3.141562   2.566772   2.515561   3.077488   0.000000
    21  H    3.777085   3.761898   2.497769   2.508917   1.763764
    22  H    2.590178   3.102603   3.070598   2.522955   1.764349
    23  H    6.458522   6.516548   6.813259   6.783097   8.728845
    24  Cl   8.949357   9.020970   9.563083   9.517915  11.371846
    25  C    9.125489   9.225639  10.510812  10.432953  11.763122
    26  H    7.189766   7.305142   9.046700   8.954250   9.832279
    27  H    4.756404   4.877843   6.688063   6.598259   7.387976
    28  F    9.374988   9.483605  11.033489  10.945114  12.031405
    29  F    9.932086   9.836684  11.030732  11.127841  12.379338
    30  F    9.748820  10.035573  11.177143  10.932497  12.522342
                   21         22         23         24         25
    21  H    0.000000
    22  H    1.763696   0.000000
    23  H    9.059165   8.714234   0.000000
    24  Cl  11.800454  11.343568   2.780230   0.000000
    25  C   12.530744  11.703500   4.659080   3.095580   0.000000
    26  H   10.796969   9.756493   4.924401   4.872085   2.694680
    27  H    8.349020   7.315324   4.301981   5.601828   4.655215
    28  F   12.924446  11.960167   5.729940   4.430573   1.340977
    29  F   13.180702  12.476373   5.012076   3.078546   1.341009
    30  F   13.153897  12.313988   5.013997   3.080072   1.340794
                   26         27         28         29         30
    26  H    0.000000
    27  H    2.457658   0.000000
    28  F    2.312926   4.690991   0.000000
    29  F    3.655186   5.509375   2.153203   0.000000
    30  F    3.654135   5.506660   2.153229   2.155567   0.000000
 Stoichiometry    C11H12ClF3N2O
 Framework group  C1[X(C11H12ClF3N2O)]
 Deg. of freedom    84
 Full point group                 C1      NOp   1
 Largest Abelian subgroup         C1      NOp   1
 Largest concise Abelian subgroup C1      NOp   1
                         Standard orientation:                         
 ---------------------------------------------------------------------
 Center     Atomic      Atomic             Coordinates (Angstroms)
 Number     Number       Type             X           Y           Z
 ---------------------------------------------------------------------
      1          6           0        0.226956    0.173145    0.025176
      2          7           0        1.568767    0.559214    0.050765
      3          6           0        2.686621   -0.266785   -0.040619
      4          8           0        2.629617   -1.464626   -0.208400
      5          7           0        3.870869    0.421091    0.047745
      6          6           0        5.120286   -0.329133    0.079774
      7          6           0        6.309309    0.613527   -0.032888
      8          6           0        7.630715   -0.148292   -0.009693
      9          6           0       -0.725624    1.199428   -0.004054
     10          6           0       -2.076313    0.906188   -0.008264
     11          6           0       -2.520171   -0.416437    0.014904
     12          6           0       -1.564773   -1.426749    0.042472
     13          6           0       -0.204307   -1.156546    0.047429
     14          1           0        1.734042    1.552932   -0.005232
     15          1           0        3.871308    1.311910    0.523395
     16          1           0        5.105682   -1.029994   -0.756376
     17          1           0        5.187965   -0.927713    0.995908
     18          1           0        6.287453    1.333483    0.793921
     19          1           0        6.220006    1.190922   -0.957799
     20          1           0        7.744593   -0.713288    0.918513
     21          1           0        8.480467    0.530806   -0.092222
     22          1           0        7.688753   -0.857001   -0.839086
     23          1           0       -0.415983    2.238630   -0.021652
     24         17           0       -3.196126    2.235351   -0.043290
     25          6           0       -3.983399   -0.757950    0.011185
     26          1           0       -1.893407   -2.458215    0.059513
     27          1           0        0.513418   -1.960947    0.060820
     28          9           0       -4.175882   -2.084778    0.037610
     29          9           0       -4.625160   -0.251855    1.074348
     30          9           0       -4.610108   -0.296699   -1.080700
 ---------------------------------------------------------------------
 Rotational constants (GHZ):      1.0957442      0.1212632      0.1115976
 General basis read from cards:  (5D, 7F)
 There are   846 symmetry adapted cartesian basis functions of A   symmetry.
 There are   752 symmetry adapted basis functions of A   symmetry.
   752 basis functions,  1110 primitive gaussians,   846 cartesian basis functions
    72 alpha electrons       72 beta electrons
       nuclear repulsion energy      1425.2033769962 Hartrees.
 NAtoms=   30 NActive=   30 NUniq=   30 SFac= 1.00D+00 NAtFMM=   60 NAOKFM=F Big=F
 Integral buffers will be    131072 words long.
 Raffenetti 1 integral format.
 Two-electron integral symmetry is turned on.
 One-electron integrals computed using PRISM.
 NBasis=   752 RedAO= T EigKep=  2.72D-06  NBF=   752
 NBsUse=   749 1.00D-06 EigRej=  9.12D-07 NBFU=   749
 ExpMin= 3.60D-02 ExpMax= 1.06D+05 ExpMxC= 3.62D+03 IAcc=3 IRadAn=         5 AccDes= 0.00D+00
 Harris functional with IExCor=  205 and IRadAn=       5 diagonalized for initial guess.
 HarFok:  IExCor=  205 AccDes= 0.00D+00 IRadAn=         5 IDoV= 1 UseB2=F ITyADJ=14
 ICtDFT=  3500011 ScaDFX=  1.000000  1.000000  1.000000  1.000000
 FoFCou: FMM=F IPFlag=           0 FMFlag=      100000 FMFlg1=           0
         NFxFlg=           0 DoJE=T BraDBF=F KetDBF=T FulRan=T
         wScrn=  0.000000 ICntrl=     500 IOpCl=  0 I1Cent=   200000004 NGrid=           0
         NMat0=    1 NMatS0=      1 NMatT0=    0 NMatD0=    1 NMtDS0=    0 NMtDT0=    0
 Petite list used in FoFCou.
 Requested convergence on RMS density matrix=1.00D-08 within 128 cycles.
 Requested convergence on MAX density matrix=1.00D-06.
 Requested convergence on             energy=1.00D-06.
 No special actions if energy rises.
 Initial convergence to 1.0D-05 achieved.  Increase integral accuracy.
 SCF Done:  E(RHF) =  -1365.47374914     A.U. after   15 cycles
            NFock= 15  Conv=0.74D-08     -V/T= 2.0007
 ExpMin= 3.60D-02 ExpMax= 1.06D+05 ExpMxC= 3.62D+03 IAcc=3 IRadAn=         5 AccDes= 0.00D+00
 HarFok:  IExCor=  205 AccDes= 0.00D+00 IRadAn=         5 IDoV=-2 UseB2=F ITyADJ=14
 ICtDFT= 12500011 ScaDFX=  1.000000  1.000000  1.000000  1.000000
 Range of M.O.s used for correlation:    23   749
 NBasis=   752 NAE=    72 NBE=    72 NFC=    22 NFV=     0
 NROrb=    727 NOA=    50 NOB=    50 NVA=   677 NVB=   677

 **** Warning!!: The largest alpha MO coefficient is  0.14155410D+03

 Fully direct method using O(OVN) memory.
 JobTyp=1 Pass  1:  I=   1 to  10 NPSUse=  4 ParTrn=T ParDer=T DoDerP=F.
 JobTyp=1 Pass  2:  I=  11 to  23 NPSUse=  4 ParTrn=T ParDer=T DoDerP=F.
 JobTyp=1 Pass  3:  I=  24 to  50 NPSUse=  4 ParTrn=T ParDer=T DoDerP=F.
 Spin components of T(2) and E(2):
     alpha-alpha T2 =       0.1304225108D+00 E2=     -0.4308397418D+00
     alpha-beta  T2 =       0.6819887068D+00 E2=     -0.2453128890D+01
     beta-beta   T2 =       0.1304225108D+00 E2=     -0.4308397418D+00
 ANorm=    0.1393855706D+01
 E2 =    -0.3314808374D+01 EUMP2 =    -0.13687885575115D+04

 **********************************************************************

            Population analysis using the SCF density.

 **********************************************************************

 Orbital symmetries:
       Occupied  (A) (A) (A) (A) (A) (A) (A) (A) (A) (A) (A) (A)
                 (A) (A) (A) (A) (A) (A) (A) (A) (A) (A) (A) (A)
                 (A) (A) (A) (A) (A) (A) (A) (A) (A) (A) (A) (A)
                 (A) (A) (A) (A) (A) (A) (A) (A) (A) (A) (A) (A)
                 (A) (A) (A) (A) (A) (A) (A) (A) (A) (A) (A) (A)
                 (A) (A) (A) (A) (A) (A) (A) (A) (A) (A) (A) (A)
       Virtual   (A) (A) (A) (A) (A) (A) (A) (A) (A) (A) (A) (A)
                 (A) (A) (A) (A) (A) (A) (A) (A) (A) (A) (A) (A)
                 (A) (A) (A) (A) (A) (A) (A) (A) (A) (A) (A) (A)
                 (A) (A) (A) (A) (A) (A) (A) (A) (A) (A) (A) (A)
                 (A) (A) (A) (A) (A) (A) (A) (A) (A) (A) (A) (A)
                 (A) (A) (A) (A) (A) (A) (A) (A) (A) (A) (A) (A)
                 (A) (A) (A) (A) (A) (A) (A) (A) (A) (A) (A) (A)
                 (A) (A) (A) (A) (A) (A) (A) (A) (A) (A) (A) (A)
                 (A) (A) (A) (A) (A) (A) (A) (A) (A) (A) (A) (A)
                 (A) (A) (A) (A) (A) (A) (A) (A) (A) (A) (A) (A)
                 (A) (A) (A) (A) (A) (A) (A) (A) (A) (A) (A) (A)
                 (A) (A) (A) (A) (A) (A) (A) (A) (A) (A) (A) (A)
                 (A) (A) (A) (A) (A) (A) (A) (A) (A) (A) (A) (A)
                 (A) (A) (A) (A) (A) (A) (A) (A) (A) (A) (A) (A)
                 (A) (A) (A) (A) (A) (A) (A) (A) (A) (A) (A) (A)
                 (A) (A) (A) (A) (A) (A) (A) (A) (A) (A) (A) (A)
                 (A) (A) (A) (A) (A) (A) (A) (A) (A) (A) (A) (A)
                 (A) (A) (A) (A) (A) (A) (A) (A) (A) (A) (A) (A)
                 (A) (A) (A) (A) (A) (A) (A) (A) (A) (A) (A) (A)
                 (A) (A) (A) (A) (A) (A) (A) (A) (A) (A) (A) (A)
                 (A) (A) (A) (A) (A) (A) (A) (A) (A) (A) (A) (A)
                 (A) (A) (A) (A) (A) (A) (A) (A) (A) (A) (A) (A)
                 (A) (A) (A) (A) (A) (A) (A) (A) (A) (A) (A) (A)
                 (A) (A) (A) (A) (A) (A) (A) (A) (A) (A) (A) (A)
                 (A) (A) (A) (A) (A) (A) (A) (A) (A) (A) (A) (A)
                 (A) (A) (A) (A) (A) (A) (A) (A) (A) (A) (A) (A)
                 (A) (A) (A) (A) (A) (A) (A) (A) (A) (A) (A) (A)
                 (A) (A) (A) (A) (A) (A) (A) (A) (A) (A) (A) (A)
                 (A) (A) (A) (A) (A) (A) (A) (A) (A) (A) (A) (A)
                 (A) (A) (A) (A) (A) (A) (A) (A) (A) (A) (A) (A)
                 (A) (A) (A) (A) (A) (A) (A) (A) (A) (A) (A) (A)
                 (A) (A) (A) (A) (A) (A) (A) (A) (A) (A) (A) (A)
                 (A) (A) (A) (A) (A) (A) (A) (A) (A) (A) (A) (A)
                 (A) (A) (A) (A) (A) (A) (A) (A) (A) (A) (A) (A)
                 (A) (A) (A) (A) (A) (A) (A) (A) (A) (A) (A) (A)
                 (A) (A) (A) (A) (A) (A) (A) (A) (A) (A) (A) (A)
                 (A) (A) (A) (A) (A) (A) (A) (A) (A) (A) (A) (A)
                 (A) (A) (A) (A) (A) (A) (A) (A) (A) (A) (A) (A)
                 (A) (A) (A) (A) (A) (A) (A) (A) (A) (A) (A) (A)
                 (A) (A) (A) (A) (A) (A) (A) (A) (A) (A) (A) (A)
                 (A) (A) (A) (A) (A) (A) (A) (A) (A) (A) (A) (A)
                 (A) (A) (A) (A) (A) (A) (A) (A) (A) (A) (A) (A)
                 (A) (A) (A) (A) (A) (A) (A) (A) (A) (A) (A) (A)
                 (A) (A) (A) (A) (A) (A) (A) (A) (A) (A) (A) (A)
                 (A) (A) (A) (A) (A) (A) (A) (A) (A) (A) (A) (A)
                 (A) (A) (A) (A) (A) (A) (A) (A) (A) (A) (A) (A)
                 (A) (A) (A) (A) (A) (A) (A) (A) (A) (A) (A) (A)
                 (A) (A) (A) (A) (A) (A) (A) (A) (A) (A) (A) (A)
                 (A) (A) (A) (A) (A) (A) (A) (A) (A) (A) (A) (A)
                 (A) (A) (A) (A) (A) (A) (A) (A) (A) (A) (A) (A)
                 (A) (A) (A) (A) (A) (A) (A) (A) (A) (A) (A) (A)
                 (A) (A) (A) (A) (A) (A) (A) (A) (A) (A) (A) (A)
                 (A) (A) (A) (A) (A) (A) (A) (A) (A) (A) (A) (A)
                 (A) (A) (A) (A) (A) (A) (A) (A) (A) (A) (A) (A)
                 (A) (A) (A) (A) (A) (A) (A) (A) (A) (A) (A) (A)
                 (A) (A) (A) (A) (A) (A) (A) (A) (A) (A) (A) (A)
                 (A) (A) (A) (A) (A)
 The electronic state is 1-A.
 Alpha  occ. eigenvalues -- -104.85457 -26.33469 -26.32874 -26.32870 -20.53385
 Alpha  occ. eigenvalues --  -15.62003 -15.59639 -11.50550 -11.39870 -11.32774
 Alpha  occ. eigenvalues --  -11.31879 -11.27071 -11.26731 -11.26555 -11.25960
 Alpha  occ. eigenvalues --  -11.24303 -11.24010 -11.22736 -10.57912  -8.04688
 Alpha  occ. eigenvalues --   -8.04513  -8.04509  -1.72513  -1.62915  -1.62489
 Alpha  occ. eigenvalues --   -1.42163  -1.28546  -1.24466  -1.20536  -1.13033
 Alpha  occ. eigenvalues --   -1.07989  -1.06081  -1.02110  -0.96893  -0.93949
 Alpha  occ. eigenvalues --   -0.87893  -0.87008  -0.83301  -0.82220  -0.81625
 Alpha  occ. eigenvalues --   -0.81200  -0.78892  -0.76452  -0.73057  -0.70471
 Alpha  occ. eigenvalues --   -0.70433  -0.67750  -0.66807  -0.66545  -0.65586
 Alpha  occ. eigenvalues --   -0.65264  -0.64854  -0.64097  -0.63170  -0.62602
 Alpha  occ. eigenvalues --   -0.60765  -0.60069  -0.58357  -0.56931  -0.55397
 Alpha  occ. eigenvalues --   -0.55293  -0.53042  -0.52309  -0.50790  -0.49977
 Alpha  occ. eigenvalues --   -0.49331  -0.46704  -0.45895  -0.45756  -0.41756
 Alpha  occ. eigenvalues --   -0.35733  -0.33386
 Alpha virt. eigenvalues --    0.02440   0.03871   0.04962   0.05111   0.05683
 Alpha virt. eigenvalues --    0.06190   0.07458   0.07890   0.08095   0.08365
 Alpha virt. eigenvalues --    0.08960   0.09401   0.09798   0.10300   0.10599
 Alpha virt. eigenvalues --    0.11663   0.11795   0.12087   0.12426   0.13401
 Alpha virt. eigenvalues --    0.14243   0.14588   0.15082   0.15247   0.16109
 Alpha virt. eigenvalues --    0.16263   0.17027   0.17579   0.17890   0.18153
 Alpha virt. eigenvalues --    0.18287   0.18488   0.18776   0.18913   0.19400
 Alpha virt. eigenvalues --    0.19648   0.20065   0.20363   0.20926   0.21320
 Alpha virt. eigenvalues --    0.21460   0.22539   0.22858   0.22999   0.23310
 Alpha virt. eigenvalues --    0.23932   0.24220   0.24670   0.25257   0.25965
 Alpha virt. eigenvalues --    0.26277   0.26749   0.27005   0.27481   0.27678
 Alpha virt. eigenvalues --    0.28644   0.29345   0.29957   0.30413   0.30802
 Alpha virt. eigenvalues --    0.31562   0.31637   0.32264   0.33028   0.33236
 Alpha virt. eigenvalues --    0.33760   0.33921   0.34578   0.34988   0.35338
 Alpha virt. eigenvalues --    0.36038   0.36606   0.36976   0.37761   0.37939
 Alpha virt. eigenvalues --    0.38448   0.39221   0.39400   0.40047   0.40378
 Alpha virt. eigenvalues --    0.40573   0.41032   0.41599   0.42064   0.42349
 Alpha virt. eigenvalues --    0.42748   0.43250   0.43368   0.43901   0.44214
 Alpha virt. eigenvalues --    0.45008   0.45424   0.46347   0.46920   0.47076
 Alpha virt. eigenvalues --    0.47703   0.47833   0.49290   0.49361   0.50586
 Alpha virt. eigenvalues --    0.50997   0.51820   0.52541   0.52851   0.54290
 Alpha virt. eigenvalues --    0.54794   0.55897   0.56480   0.56775   0.56921
 Alpha virt. eigenvalues --    0.57810   0.58294   0.58940   0.59211   0.60060
 Alpha virt. eigenvalues --    0.60218   0.60393   0.63781   0.64022   0.65095
 Alpha virt. eigenvalues --    0.66047   0.67352   0.67451   0.68475   0.68830
 Alpha virt. eigenvalues --    0.69576   0.70225   0.70506   0.71053   0.71609
 Alpha virt. eigenvalues --    0.72177   0.73133   0.73782   0.73855   0.74408
 Alpha virt. eigenvalues --    0.75136   0.75823   0.76159   0.76761   0.77532
 Alpha virt. eigenvalues --    0.78129   0.78574   0.79797   0.80182   0.81128
 Alpha virt. eigenvalues --    0.81785   0.82385   0.82665   0.82797   0.83432
 Alpha virt. eigenvalues --    0.83802   0.84263   0.84937   0.85445   0.86121
 Alpha virt. eigenvalues --    0.86555   0.87899   0.87992   0.88095   0.88890
 Alpha virt. eigenvalues --    0.89588   0.90151   0.91362   0.91966   0.92157
 Alpha virt. eigenvalues --    0.93189   0.93910   0.94343   0.95392   0.96103
 Alpha virt. eigenvalues --    0.96399   0.96682   0.98285   0.98791   0.99877
 Alpha virt. eigenvalues --    1.00218   1.01323   1.01449   1.01967   1.03348
 Alpha virt. eigenvalues --    1.03668   1.04270   1.04830   1.05681   1.06861
 Alpha virt. eigenvalues --    1.07210   1.07821   1.08141   1.09889   1.11395
 Alpha virt. eigenvalues --    1.11980   1.14056   1.14894   1.15576   1.16810
 Alpha virt. eigenvalues --    1.17422   1.18278   1.19195   1.20130   1.21050
 Alpha virt. eigenvalues --    1.22215   1.22930   1.24639   1.25632   1.25735
 Alpha virt. eigenvalues --    1.26404   1.27587   1.28812   1.29196   1.30240
 Alpha virt. eigenvalues --    1.31607   1.32187   1.32842   1.33005   1.33992
 Alpha virt. eigenvalues --    1.34174   1.34325   1.35835   1.36214   1.36461
 Alpha virt. eigenvalues --    1.38025   1.39226   1.39844   1.39961   1.40383
 Alpha virt. eigenvalues --    1.40724   1.41268   1.42556   1.43347   1.43728
 Alpha virt. eigenvalues --    1.44488   1.45376   1.45984   1.47134   1.48510
 Alpha virt. eigenvalues --    1.48725   1.49080   1.51797   1.51882   1.52450
 Alpha virt. eigenvalues --    1.53203   1.54114   1.54695   1.55740   1.56631
 Alpha virt. eigenvalues --    1.57239   1.58071   1.58417   1.59325   1.59894
 Alpha virt. eigenvalues --    1.61325   1.61566   1.61831   1.62909   1.63945
 Alpha virt. eigenvalues --    1.64605   1.64885   1.65786   1.67096   1.67701
 Alpha virt. eigenvalues --    1.68533   1.69176   1.69523   1.69900   1.70547
 Alpha virt. eigenvalues --    1.71000   1.71333   1.72292   1.73552   1.74382
 Alpha virt. eigenvalues --    1.75472   1.75857   1.76286   1.77380   1.78400
 Alpha virt. eigenvalues --    1.79349   1.79505   1.80831   1.81866   1.82393
 Alpha virt. eigenvalues --    1.83024   1.83446   1.85424   1.85669   1.87534
 Alpha virt. eigenvalues --    1.88408   1.89461   1.90126   1.91553   1.92941
 Alpha virt. eigenvalues --    1.94505   1.95088   1.97217   1.97636   1.99209
 Alpha virt. eigenvalues --    2.00245   2.01940   2.02814   2.05160   2.06301
 Alpha virt. eigenvalues --    2.08907   2.10028   2.13670   2.15509   2.18894
 Alpha virt. eigenvalues --    2.20450   2.23506   2.24173   2.25347   2.26479
 Alpha virt. eigenvalues --    2.27964   2.28382   2.30422   2.31045   2.34698
 Alpha virt. eigenvalues --    2.36480   2.41661   2.43394   2.43722   2.46624
 Alpha virt. eigenvalues --    2.47575   2.49693   2.50908   2.52879   2.56091
 Alpha virt. eigenvalues --    2.61808   2.61962   2.64388   2.65854   2.69456
 Alpha virt. eigenvalues --    2.70873   2.77617   2.80292   2.81569   2.83124
 Alpha virt. eigenvalues --    2.84225   2.85733   2.87092   2.89881   2.91972
 Alpha virt. eigenvalues --    2.92999   2.93183   2.94236   2.94450   2.96091
 Alpha virt. eigenvalues --    2.97911   2.99835   3.01281   3.02012   3.04195
 Alpha virt. eigenvalues --    3.04740   3.06773   3.06916   3.09196   3.10001
 Alpha virt. eigenvalues --    3.10605   3.12189   3.12983   3.13194   3.13820
 Alpha virt. eigenvalues --    3.15672   3.16381   3.16601   3.18760   3.19147
 Alpha virt. eigenvalues --    3.19759   3.20268   3.20853   3.21422   3.23163
 Alpha virt. eigenvalues --    3.23327   3.25564   3.26393   3.27138   3.28565
 Alpha virt. eigenvalues --    3.29912   3.30613   3.31334   3.32287   3.34238
 Alpha virt. eigenvalues --    3.35382   3.36456   3.38452   3.39348   3.40182
 Alpha virt. eigenvalues --    3.41260   3.42750   3.44367   3.45409   3.46339
 Alpha virt. eigenvalues --    3.46846   3.47075   3.48429   3.49156   3.49847
 Alpha virt. eigenvalues --    3.51113   3.52226   3.53699   3.54473   3.54856
 Alpha virt. eigenvalues --    3.55939   3.57080   3.58465   3.59183   3.59777
 Alpha virt. eigenvalues --    3.60653   3.62836   3.63938   3.64983   3.65859
 Alpha virt. eigenvalues --    3.66214   3.66941   3.67539   3.68840   3.69841
 Alpha virt. eigenvalues --    3.71063   3.71225   3.72224   3.72802   3.73004
 Alpha virt. eigenvalues --    3.74222   3.74919   3.75676   3.77284   3.78047
 Alpha virt. eigenvalues --    3.79041   3.79517   3.80694   3.81851   3.82496
 Alpha virt. eigenvalues --    3.83547   3.84512   3.85101   3.85357   3.86034
 Alpha virt. eigenvalues --    3.89106   3.89948   3.90483   3.91533   3.91824
 Alpha virt. eigenvalues --    3.92858   3.93177   3.93886   3.95129   3.96113
 Alpha virt. eigenvalues --    3.98211   3.99120   3.99424   4.00542   4.02134
 Alpha virt. eigenvalues --    4.02641   4.03269   4.03849   4.05435   4.06163
 Alpha virt. eigenvalues --    4.06734   4.07659   4.09386   4.10946   4.13196
 Alpha virt. eigenvalues --    4.15099   4.16088   4.16881   4.17784   4.18415
 Alpha virt. eigenvalues --    4.19014   4.23143   4.24275   4.26207   4.26706
 Alpha virt. eigenvalues --    4.26949   4.29584   4.30357   4.30759   4.31359
 Alpha virt. eigenvalues --    4.32832   4.33263   4.34943   4.36637   4.37844
 Alpha virt. eigenvalues --    4.38590   4.39587   4.40705   4.41588   4.42314
 Alpha virt. eigenvalues --    4.42586   4.43264   4.46956   4.49272   4.50355
 Alpha virt. eigenvalues --    4.52148   4.53107   4.53699   4.55730   4.57528
 Alpha virt. eigenvalues --    4.58175   4.59989   4.61843   4.62875   4.63118
 Alpha virt. eigenvalues --    4.64052   4.65167   4.67714   4.68047   4.69023
 Alpha virt. eigenvalues --    4.69275   4.70628   4.72453   4.72680   4.74585
 Alpha virt. eigenvalues --    4.75222   4.75457   4.77723   4.77946   4.78762
 Alpha virt. eigenvalues --    4.80244   4.80753   4.81853   4.83889   4.84578
 Alpha virt. eigenvalues --    4.85297   4.85354   4.85889   4.87147   4.88205
 Alpha virt. eigenvalues --    4.89385   4.89599   4.91175   4.92239   4.92814
 Alpha virt. eigenvalues --    4.94294   4.95669   4.95843   4.96148   4.98361
 Alpha virt. eigenvalues --    5.00672   5.01208   5.02297   5.05097   5.06235
 Alpha virt. eigenvalues --    5.10933   5.11918   5.15245   5.17233   5.18529
 Alpha virt. eigenvalues --    5.20491   5.22086   5.26572   5.31259   5.33326
 Alpha virt. eigenvalues --    5.34335   5.37892   5.43683   5.45773   5.47275
 Alpha virt. eigenvalues --    5.51072   5.52858   5.57372   5.58838   5.60550
 Alpha virt. eigenvalues --    5.63219   5.64276   5.65293   5.66994   5.69366
 Alpha virt. eigenvalues --    5.70294   5.73755   5.75959   5.77163   5.78714
 Alpha virt. eigenvalues --    5.81122   5.81354   5.83976   5.85982   5.88854
 Alpha virt. eigenvalues --    5.90816   5.94339   5.97101   6.05224   6.06453
 Alpha virt. eigenvalues --    6.06996   6.09480   6.12937   6.14034   6.14831
 Alpha virt. eigenvalues --    6.15217   6.16228   6.19210   6.22129   6.26422
 Alpha virt. eigenvalues --    6.31420   6.35352   6.40254   6.48456   6.52208
 Alpha virt. eigenvalues --    6.54971   6.63656   6.73412   6.83619   6.84052
 Alpha virt. eigenvalues --    6.94331   6.96157   6.96523   6.97348   7.00755
 Alpha virt. eigenvalues --    7.03568   7.06486   7.07976   7.10721   7.11785
 Alpha virt. eigenvalues --    7.12509   7.12674   7.13466   7.14750   7.16213
 Alpha virt. eigenvalues --    7.16462   7.17608   7.18975   7.24413   7.26300
 Alpha virt. eigenvalues --    7.29865   7.36621   7.37879   7.43854   7.45424
 Alpha virt. eigenvalues --    7.53892   7.57038   7.60751   7.63419   7.68621
 Alpha virt. eigenvalues --    7.78198   7.81257   7.81370   7.87563   7.90336
 Alpha virt. eigenvalues --    7.93043   8.14611   8.27503   8.35672   8.39899
 Alpha virt. eigenvalues --    9.69759   9.71624   9.72931   9.81776   9.85944
 Alpha virt. eigenvalues --    9.88604  10.03520  10.12545  10.16028  10.26320
 Alpha virt. eigenvalues --   10.40985  10.52429  10.59413  10.67674  10.75174
 Alpha virt. eigenvalues --   10.80098  21.81273  21.92446  22.19455  24.99814
 Alpha virt. eigenvalues --   25.38374  25.51829  25.61142  25.63111  25.66939
 Alpha virt. eigenvalues --   25.72609  25.85294  25.89155  26.07929  26.29779
 Alpha virt. eigenvalues --   37.27040  37.34444  51.93868  68.83703  68.86746
 Alpha virt. eigenvalues --   68.93127 220.10684
          Condensed to atoms (all electrons):
               1          2          3          4          5          6
     1  C   14.454581  -0.107317  -1.013479  -0.278314  -0.147912  -0.679207
     2  N   -0.107317   6.979793   0.632170  -0.017881  -0.107808  -0.265735
     3  C   -1.013479   0.632170   7.021211   0.373834   0.320656  -0.946123
     4  O   -0.278314  -0.017881   0.373834   8.231720  -0.057590  -0.067088
     5  N   -0.147912  -0.107808   0.320656  -0.057590   6.718712   0.352545
     6  C   -0.679207  -0.265735  -0.946123  -0.067088   0.352545   7.116373
     7  C    0.013522  -0.019916   0.111170   0.033584  -0.167014  -0.513944
     8  C   -0.009588  -0.017838  -0.194519   0.003389  -0.030846   0.493931
     9  C    1.366855  -0.075411  -0.263199  -0.023791  -0.077836  -0.088995
    10  C   -0.315456  -0.062979  -0.697200  -0.007855  -0.011267  -0.065820
    11  C   -1.169989  -0.037842  -0.380972   0.032350   0.037893   0.003747
    12  C   -4.205484   0.124425   0.377690   0.089443   0.016086   0.073703
    13  C   -0.729827  -0.123354   0.055170   0.242990   0.057636   0.132480
    14  H   -0.091172   0.393098   0.023885  -0.000114   0.017480   0.019355
    15  H    0.011606   0.014390  -0.024595   0.000539   0.350206  -0.062101
    16  H   -0.007800   0.002350   0.049381  -0.008245  -0.050963   0.411631
    17  H    0.009833   0.010044   0.036993  -0.015287  -0.063879   0.475621
    18  H   -0.000883   0.003985   0.017508  -0.000814   0.001130  -0.037890
    19  H    0.001581   0.001579   0.004221  -0.000681   0.003664  -0.048520
    20  H   -0.000454  -0.000152  -0.000996   0.000536  -0.001015  -0.027172
    21  H   -0.000254  -0.000733  -0.000914   0.000361  -0.005188   0.014613
    22  H    0.001092   0.000625   0.005341   0.000271   0.000564  -0.023757
    23  H   -0.151531  -0.028787  -0.028074  -0.000121   0.002789  -0.000132
    24  Cl  -0.114556   0.000928   0.004216  -0.000006  -0.001041  -0.000348
    25  C   -0.713754   0.010904  -0.029631   0.002547   0.006759   0.003009
    26  H    0.060786  -0.001299   0.009587  -0.000472  -0.000013   0.000483
    27  H   -0.222249  -0.016224   0.054924  -0.018663   0.009419   0.014046
    28  F    0.015182  -0.000113  -0.001625   0.000000   0.000003  -0.000008
    29  F   -0.001295  -0.000001  -0.000279  -0.000000   0.000002   0.000001
    30  F    0.006827  -0.000015   0.000188   0.000000   0.000002   0.000002
               7          8          9         10         11         12
     1  C    0.013522  -0.009588   1.366855  -0.315456  -1.169989  -4.205484
     2  N   -0.019916  -0.017838  -0.075411  -0.062979  -0.037842   0.124425
     3  C    0.111170  -0.194519  -0.263199  -0.697200  -0.380972   0.377690
     4  O    0.033584   0.003389  -0.023791  -0.007855   0.032350   0.089443
     5  N   -0.167014  -0.030846  -0.077836  -0.011267   0.037893   0.016086
     6  C   -0.513944   0.493931  -0.088995  -0.065820   0.003747   0.073703
     7  C    5.563430  -0.119811  -0.004966   0.000510   0.000839   0.002298
     8  C   -0.119811   5.210585  -0.001541  -0.000277   0.000209   0.000599
     9  C   -0.004966  -0.001541   6.552114   0.830477   0.054574  -0.483597
    10  C    0.000510  -0.000277   0.830477   9.553881   0.523909  -1.670816
    11  C    0.000839   0.000209   0.054574   0.523909  14.097592  -0.496184
    12  C    0.002298   0.000599  -0.483597  -1.670816  -0.496184  10.550879
    13  C    0.020356   0.001774  -0.889032  -0.923017  -2.919314   0.579657
    14  H   -0.010122   0.000249  -0.068380  -0.092628   0.001982   0.038046
    15  H    0.033610  -0.009609   0.002499   0.003794  -0.000914  -0.004103
    16  H   -0.017025  -0.017970  -0.000367  -0.000906  -0.000696   0.000406
    17  H   -0.103228  -0.007978   0.003140   0.001211  -0.000736  -0.001883
    18  H    0.413699  -0.026764   0.000281   0.000005  -0.000049   0.000125
    19  H    0.455905  -0.028305   0.000464  -0.000048  -0.000243  -0.000548
    20  H   -0.001376   0.427308  -0.000141  -0.000044  -0.000010  -0.000003
    21  H   -0.031317   0.407948  -0.000094  -0.000012   0.000013   0.000039
    22  H   -0.010020   0.412677   0.000092   0.000042   0.000013  -0.000015
    23  H    0.000860   0.000129   0.430150   0.080835   0.045297  -0.009202
    24  Cl  -0.000006  -0.000003  -0.073045   0.011660  -0.154174  -0.025653
    25  C   -0.000092   0.000027  -0.885544  -1.418414  -3.226064   0.734506
    26  H   -0.000107   0.000003   0.007095   0.014477   0.006825   0.412598
    27  H    0.002150   0.000473  -0.027006  -0.037038   0.015694   0.111223
    28  F    0.000000  -0.000000  -0.007598   0.037248  -0.021689  -0.046009
    29  F   -0.000000   0.000000   0.022473  -0.010539   0.002069  -0.003330
    30  F   -0.000000   0.000000   0.021962  -0.005323   0.003663  -0.010693
              13         14         15         16         17         18
     1  C   -0.729827  -0.091172   0.011606  -0.007800   0.009833  -0.000883
     2  N   -0.123354   0.393098   0.014390   0.002350   0.010044   0.003985
     3  C    0.055170   0.023885  -0.024595   0.049381   0.036993   0.017508
     4  O    0.242990  -0.000114   0.000539  -0.008245  -0.015287  -0.000814
     5  N    0.057636   0.017480   0.350206  -0.050963  -0.063879   0.001130
     6  C    0.132480   0.019355  -0.062101   0.411631   0.475621  -0.037890
     7  C    0.020356  -0.010122   0.033610  -0.017025  -0.103228   0.413699
     8  C    0.001774   0.000249  -0.009609  -0.017970  -0.007978  -0.026764
     9  C   -0.889032  -0.068380   0.002499  -0.000367   0.003140   0.000281
    10  C   -0.923017  -0.092628   0.003794  -0.000906   0.001211   0.000005
    11  C   -2.919314   0.001982  -0.000914  -0.000696  -0.000736  -0.000049
    12  C    0.579657   0.038046  -0.004103   0.000406  -0.001883   0.000125
    13  C    9.806432   0.087239  -0.014535  -0.003486  -0.011658   0.000765
    14  H    0.087239   0.502850  -0.008571   0.002263   0.001226   0.002081
    15  H   -0.014535  -0.008571   0.521250   0.002240  -0.002150  -0.000516
    16  H   -0.003486   0.002263   0.002240   0.564400  -0.029012   0.009173
    17  H   -0.011658   0.001226  -0.002150  -0.029012   0.602456  -0.010440
    18  H    0.000765   0.002081  -0.000516   0.009173  -0.010440   0.684173
    19  H   -0.003156  -0.000509   0.001265  -0.005696   0.006466  -0.061812
    20  H    0.000067  -0.000013   0.000146   0.001908  -0.003287  -0.009136
    21  H    0.000314  -0.000135   0.000692  -0.001348  -0.002372  -0.005592
    22  H    0.000043  -0.000113   0.000760  -0.002111   0.001005   0.005170
    23  H   -0.002208  -0.001899   0.000900  -0.000071  -0.000094  -0.000145
    24  Cl  -0.010103  -0.003111   0.000027  -0.000003   0.000017   0.000002
    25  C    0.520090  -0.003300   0.000018  -0.000117  -0.000079  -0.000011
    26  H   -0.087615   0.000892  -0.000058   0.000036   0.000064   0.000002
    27  H    0.455736  -0.001572   0.000513  -0.000353  -0.001534  -0.000114
    28  F    0.030471  -0.000101   0.000001   0.000000  -0.000000   0.000000
    29  F   -0.005355   0.000020  -0.000001   0.000000  -0.000000   0.000000
    30  F   -0.006363   0.000016   0.000001  -0.000000   0.000000  -0.000000
              19         20         21         22         23         24
     1  C    0.001581  -0.000454  -0.000254   0.001092  -0.151531  -0.114556
     2  N    0.001579  -0.000152  -0.000733   0.000625  -0.028787   0.000928
     3  C    0.004221  -0.000996  -0.000914   0.005341  -0.028074   0.004216
     4  O   -0.000681   0.000536   0.000361   0.000271  -0.000121  -0.000006
     5  N    0.003664  -0.001015  -0.005188   0.000564   0.002789  -0.001041
     6  C   -0.048520  -0.027172   0.014613  -0.023757  -0.000132  -0.000348
     7  C    0.455905  -0.001376  -0.031317  -0.010020   0.000860  -0.000006
     8  C   -0.028305   0.427308   0.407948   0.412677   0.000129  -0.000003
     9  C    0.000464  -0.000141  -0.000094   0.000092   0.430150  -0.073045
    10  C   -0.000048  -0.000044  -0.000012   0.000042   0.080835   0.011660
    11  C   -0.000243  -0.000010   0.000013   0.000013   0.045297  -0.154174
    12  C   -0.000548  -0.000003   0.000039  -0.000015  -0.009202  -0.025653
    13  C   -0.003156   0.000067   0.000314   0.000043  -0.002208  -0.010103
    14  H   -0.000509  -0.000013  -0.000135  -0.000113  -0.001899  -0.003111
    15  H    0.001265   0.000146   0.000692   0.000760   0.000900   0.000027
    16  H   -0.005696   0.001908  -0.001348  -0.002111  -0.000071  -0.000003
    17  H    0.006466  -0.003287  -0.002372   0.001005  -0.000094   0.000017
    18  H   -0.061812  -0.009136  -0.005592   0.005170  -0.000145   0.000002
    19  H    0.620420   0.004319  -0.007174  -0.007331  -0.000037   0.000001
    20  H    0.004319   0.620954  -0.029095  -0.040890   0.000001  -0.000000
    21  H   -0.007174  -0.029095   0.600502  -0.024279   0.000008  -0.000000
    22  H   -0.007331  -0.040890  -0.024279   0.617669  -0.000000   0.000000
    23  H   -0.000037   0.000001   0.000008  -0.000000   0.524261   0.017113
    24  Cl   0.000001  -0.000000  -0.000000   0.000000   0.017113  17.891896
    25  C   -0.000012  -0.000000   0.000000   0.000001  -0.020440  -0.298517
    26  H    0.000006  -0.000000  -0.000001  -0.000001  -0.000426   0.002160
    27  H   -0.000170   0.000012   0.000042  -0.000003   0.002024   0.001105
    28  F   -0.000000  -0.000000   0.000000   0.000000   0.000382   0.002897
    29  F   -0.000000   0.000000   0.000000  -0.000000   0.000241  -0.011028
    30  F    0.000000  -0.000000   0.000000  -0.000000   0.000106  -0.012241
              25         26         27         28         29         30
     1  C   -0.713754   0.060786  -0.222249   0.015182  -0.001295   0.006827
     2  N    0.010904  -0.001299  -0.016224  -0.000113  -0.000001  -0.000015
     3  C   -0.029631   0.009587   0.054924  -0.001625  -0.000279   0.000188
     4  O    0.002547  -0.000472  -0.018663   0.000000  -0.000000   0.000000
     5  N    0.006759  -0.000013   0.009419   0.000003   0.000002   0.000002
     6  C    0.003009   0.000483   0.014046  -0.000008   0.000001   0.000002
     7  C   -0.000092  -0.000107   0.002150   0.000000  -0.000000  -0.000000
     8  C    0.000027   0.000003   0.000473  -0.000000   0.000000   0.000000
     9  C   -0.885544   0.007095  -0.027006  -0.007598   0.022473   0.021962
    10  C   -1.418414   0.014477  -0.037038   0.037248  -0.010539  -0.005323
    11  C   -3.226064   0.006825   0.015694  -0.021689   0.002069   0.003663
    12  C    0.734506   0.412598   0.111223  -0.046009  -0.003330  -0.010693
    13  C    0.520090  -0.087615   0.455736   0.030471  -0.005355  -0.006363
    14  H   -0.003300   0.000892  -0.001572  -0.000101   0.000020   0.000016
    15  H    0.000018  -0.000058   0.000513   0.000001  -0.000001   0.000001
    16  H   -0.000117   0.000036  -0.000353   0.000000   0.000000  -0.000000
    17  H   -0.000079   0.000064  -0.001534  -0.000000  -0.000000   0.000000
    18  H   -0.000011   0.000002  -0.000114   0.000000   0.000000  -0.000000
    19  H   -0.000012   0.000006  -0.000170  -0.000000  -0.000000   0.000000
    20  H   -0.000000  -0.000000   0.000012  -0.000000   0.000000  -0.000000
    21  H    0.000000  -0.000001   0.000042   0.000000   0.000000   0.000000
    22  H    0.000001  -0.000001  -0.000003   0.000000  -0.000000  -0.000000
    23  H   -0.020440  -0.000426   0.002024   0.000382   0.000241   0.000106
    24  Cl  -0.298517   0.002160   0.001105   0.002897  -0.011028  -0.012241
    25  C    9.487003  -0.056909   0.016814   0.152806   0.138463   0.133668
    26  H   -0.056909   0.466697  -0.011154  -0.012231   0.000734   0.000588
    27  H    0.016814  -0.011154   0.413313  -0.000707  -0.000031  -0.000064
    28  F    0.152806  -0.012231  -0.000707   9.169752   0.008965   0.008831
    29  F    0.138463   0.000734  -0.000031   0.008965   9.077960   0.036812
    30  F    0.133668   0.000588  -0.000064   0.008831   0.036812   9.077484
 Mulliken charges:
               1
     1  C    0.018656
     2  N   -0.290888
     3  C    0.483462
     4  O   -0.514642
     5  N   -0.173176
     6  C   -0.284699
     7  C    0.347013
     8  C   -0.494252
     9  C   -0.321633
    10  C    0.261588
    11  C   -0.417793
    12  C   -0.154205
    13  C   -0.262197
    14  H    0.191059
    15  H    0.182696
    16  H    0.102383
    17  H    0.105539
    18  H    0.016067
    19  H    0.064351
    20  H    0.058534
    21  H    0.083975
    22  H    0.063155
    23  H    0.138070
    24  Cl  -0.228188
    25  C    1.446267
    26  H    0.187253
    27  H    0.239394
    28  F   -0.336457
    29  F   -0.255880
    30  F   -0.255452
 Sum of Mulliken charges =  -0.00000
 Mulliken charges with hydrogens summed into heavy atoms:
               1
     1  C    0.018656
     2  N   -0.099829
     3  C    0.483462
     4  O   -0.514642
     5  N    0.009520
     6  C   -0.076777
     7  C    0.427430
     8  C   -0.288588
     9  C   -0.183564
    10  C    0.261588
    11  C   -0.417793
    12  C    0.033048
    13  C   -0.022803
    24  Cl  -0.228188
    25  C    1.446267
    28  F   -0.336457
    29  F   -0.255880
    30  F   -0.255452
 Electronic spatial extent (au):  <R**2>=           8971.8418
 Charge=              0.0000 electrons
 Dipole moment (field-independent basis, Debye):
    X=              6.3438    Y=              3.1629    Z=              0.8921  Tot=              7.1445
 Quadrupole moment (field-independent basis, Debye-Ang):
   XX=           -111.6985   YY=           -109.4485   ZZ=           -114.6093
   XY=             10.2056   XZ=              3.1343   YZ=              0.2177
 Traceless Quadrupole moment (field-independent basis, Debye-Ang):
   XX=              0.2203   YY=              2.4702   ZZ=             -2.6905
   XY=             10.2056   XZ=              3.1343   YZ=              0.2177
 Octapole moment (field-independent basis, Debye-Ang**2):
  XXX=            122.4879  YYY=              0.6592  ZZZ=             -0.3306  XYY=            -22.9873
  XXY=             29.1474  XXZ=              9.6082  XZZ=            -14.6672  YZZ=             -4.4993
  YYZ=              2.5466  XYZ=              2.7943
 Hexadecapole moment (field-independent basis, Debye-Ang**3):
 XXXX=          -9753.5420 YYYY=          -1008.1992 ZZZZ=           -207.2742 XXXY=             66.6644
 XXXZ=             28.1234 YYYX=             71.9720 YYYZ=              1.3099 ZZZX=              0.1710
 ZZZY=              0.9634 XXYY=          -1867.0453 XXZZ=          -1728.3980 YYZZ=           -211.7160
 XXYZ=             13.3226 YYXZ=              8.5982 ZZXY=             12.1502
 N-N= 1.425203376996D+03 E-N=-6.077751268456D+03  KE= 1.364560133264D+03
 1\1\GINC-R4052\SP\RMP2-FC\Gen\C11H12Cl1F3N2O1\ROOT\30-Nov-2019\0\\# MP
 2/Gen 5D SCF=Tight INT(grid=ultrafine) maxdisk=3489660928\\CP19_c2.MP2
 _GTMP2LARGE\\0,1\C,0,-6.27233042,1.4157811597,-0.0006268092\N,0,-5.022
 8905115,0.793053056,0.0350288231\C,0,-3.772836679,1.4072440652,0.01608
 19501\O,0,-3.609579486,2.6070636568,0.0146574578\N,0,-2.7340192472,0.5
 105491394,0.0308891718\C,0,-1.3707340862,1.0100418431,-0.098984489\C,0
 ,-0.3690942356,-0.1077962292,0.1504779418\C,0,1.0672538533,0.391155574
 6,0.0281129047\C,0,-7.3935234681,0.5932937771,0.1665888279\C,0,-8.6688
 587036,1.1242917509,0.1226786916\C,0,-8.8673955835,2.4893488258,-0.087
 2874356\C,0,-7.7462770605,3.296005243,-0.2506130266\C,0,-6.457188542,2
 .7855613836,-0.2106085962\H,0,-5.0383620591,-0.1967102376,0.2301051026
 \H,0,-2.9037689183,-0.4226499675,-0.3157040869\H,0,-1.2418841584,1.810
 7001969,0.6310220645\H,0,-1.2147580036,1.4539093437,-1.0893548604\H,0,
 -0.5370531127,-0.9191438891,-0.5678051958\H,0,-0.5423395604,-0.5259023
 146,1.1464668854\H,0,1.2623655568,0.792277158,-0.9692775949\H,0,1.7821
 559004,-0.4127141529,0.2091445643\H,0,1.268819724,1.1853501596,0.75071
 64431\H,0,-7.2759974095,-0.4722417649,0.3307563214\Cl,0,-10.0089927485
 ,0.0380259625,0.3370431866\C,0,-10.2447112205,3.0876849677,-0.13901835
 72\H,0,-7.8838643184,4.3575280509,-0.4132489856\H,0,-5.606634186,3.436
 7851958,-0.3323987941\F,0,-10.1953508559,4.4108054742,-0.3514700238\F,
 0,-10.988508358,2.5642817182,-1.1244726977\F,0,-10.9221421016,2.903190
 8532,1.003250616\\Version=ES64L-G09RevE.01\State=1-A\HF=-1365.4737491\
 MP2=-1368.7885575\RMSD=7.396e-09\PG=C01 [X(C11H12Cl1F3N2O1)]\\@


 THE MORE ACCURATE THE CALCULATIONS BECOME, THE MORE THE CONCEPTS
 TEND TO VANISH INTO THIN AIR.
     -- R.S. MULLIKEN, J.C.P. 43,S2(1965)
 Job cpu time:       0 days  3 hours 21 minutes  5.2 seconds.
 File lengths (MBytes):  RWF=    303 Int=      0 D2E=      0 Chk=     33 Scr=      1
 Normal termination of Gaussian 09 at Sat Nov 30 15:50:58 2019.
pbs_rusage has been removed.
Please contact help@nci.org.au if you require this functionality.
