 Entering Gaussian System, Link 0=/apps/gaussian/g09e01/g09/g09
 AtFile(1): /home/507/hio507/Basis/6-31pGd.gbs
 Initial command:
 /apps/gaussian/g09e01/g09/l1.exe "/jobfs/local/3890855.r-man2/Gau-6957.inp" -scrdir="/jobfs/local/3890855.r-man2/"
 Entering Link 1 = /apps/gaussian/g09e01/g09/l1.exe PID=      6984.
  
 Copyright (c) 1988,1990,1992,1993,1995,1998,2003,2009,2015,
            Gaussian, Inc.  All Rights Reserved.
  
 This is part of the Gaussian(R) 09 program.  It is based on
 the Gaussian(R) 03 system (copyright 2003, Gaussian, Inc.),
 the Gaussian(R) 98 system (copyright 1998, Gaussian, Inc.),
 the Gaussian(R) 94 system (copyright 1995, Gaussian, Inc.),
 the Gaussian 92(TM) system (copyright 1992, Gaussian, Inc.),
 the Gaussian 90(TM) system (copyright 1990, Gaussian, Inc.),
 the Gaussian 88(TM) system (copyright 1988, Gaussian, Inc.),
 the Gaussian 86(TM) system (copyright 1986, Carnegie Mellon
 University), and the Gaussian 82(TM) system (copyright 1983,
 Carnegie Mellon University). Gaussian is a federally registered
 trademark of Gaussian, Inc.
  
 This software contains proprietary and confidential information,
 including trade secrets, belonging to Gaussian, Inc.
  
 This software is provided under written license and may be
 used, copied, transmitted, or stored only in accord with that
 written license.
  
 The following legend is applicable only to US Government
 contracts under FAR:
  
                    RESTRICTED RIGHTS LEGEND
  
 Use, reproduction and disclosure by the US Government is
 subject to restrictions as set forth in subparagraphs (a)
 and (c) of the Commercial Computer Software - Restricted
 Rights clause in FAR 52.227-19.
  
 Gaussian, Inc.
 340 Quinnipiac St., Bldg. 40, Wallingford CT 06492
  
  
 ---------------------------------------------------------------
 Warning -- This program may not be used in any manner that
 competes with the business of Gaussian, Inc. or will provide
 assistance to any competitor of Gaussian, Inc.  The licensee
 of this program is prohibited from giving any competitor of
 Gaussian, Inc. access to this program.  By using this program,
 the user acknowledges that Gaussian, Inc. is engaged in the
 business of creating and licensing software in the field of
 computational chemistry and represents and warrants to the
 licensee that it is not a competitor of Gaussian, Inc. and that
 it will not use this program in any manner prohibited above.
 ---------------------------------------------------------------
  

 Cite this work as:
 Gaussian 09, Revision E.01,
 M. J. Frisch, G. W. Trucks, H. B. Schlegel, G. E. Scuseria, 
 M. A. Robb, J. R. Cheeseman, G. Scalmani, V. Barone, B. Mennucci, 
 G. A. Petersson, H. Nakatsuji, M. Caricato, X. Li, H. P. Hratchian, 
 A. F. Izmaylov, J. Bloino, G. Zheng, J. L. Sonnenberg, M. Hada, 
 M. Ehara, K. Toyota, R. Fukuda, J. Hasegawa, M. Ishida, T. Nakajima, 
 Y. Honda, O. Kitao, H. Nakai, T. Vreven, J. A. Montgomery, Jr., 
 J. E. Peralta, F. Ogliaro, M. Bearpark, J. J. Heyd, E. Brothers, 
 K. N. Kudin, V. N. Staroverov, T. Keith, R. Kobayashi, J. Normand, 
 K. Raghavachari, A. Rendell, J. C. Burant, S. S. Iyengar, J. Tomasi, 
 M. Cossi, N. Rega, J. M. Millam, M. Klene, J. E. Knox, J. B. Cross, 
 V. Bakken, C. Adamo, J. Jaramillo, R. Gomperts, R. E. Stratmann, 
 O. Yazyev, A. J. Austin, R. Cammi, C. Pomelli, J. W. Ochterski, 
 R. L. Martin, K. Morokuma, V. G. Zakrzewski, G. A. Voth, 
 P. Salvador, J. J. Dannenberg, S. Dapprich, A. D. Daniels, 
 O. Farkas, J. B. Foresman, J. V. Ortiz, J. Cioslowski, 
 and D. J. Fox, Gaussian, Inc., Wallingford CT, 2013.
 
 ******************************************
 Gaussian 09:  ES64L-G09RevE.01 30-Nov-2015
                30-Nov-2019 
 ******************************************
 %chk=CP19_c2.MP2_6-31pGd.chk
 %mem=1114112000
 %nproc=4
 Will use up to    4 processors via shared memory.
 -------------------------------------------------------------
 # MP2/Gen 6D SCF=Tight INT(grid=ultrafine) maxdisk=3489660928
 -------------------------------------------------------------
 1/38=1/1;
 2/12=2,17=6,18=5,40=1/2;
 3/5=7,8=2,11=9,16=1,25=1,30=1,75=-5/1,2,3;
 4//1;
 5/5=2,32=2,38=5/2;
 8/10=1/1;
 9/16=-3/6;
 6/7=2,8=2,9=2,10=2/1;
 99/5=1,9=1/99;
 -------------------
 CP19_c2.MP2_6-31pGd
 -------------------
 Symbolic Z-matrix:
 Charge =  0 Multiplicity = 1
 C                    -6.27233   1.41578  -0.00063 
 N                    -5.02289   0.79305   0.03503 
 C                    -3.77284   1.40724   0.01608 
 O                    -3.60958   2.60706   0.01466 
 N                    -2.73402   0.51055   0.03089 
 C                    -1.37073   1.01004  -0.09898 
 C                    -0.36909  -0.1078    0.15048 
 C                     1.06725   0.39116   0.02811 
 C                    -7.39352   0.59329   0.16659 
 C                    -8.66886   1.12429   0.12268 
 C                    -8.8674    2.48935  -0.08729 
 C                    -7.74628   3.29601  -0.25061 
 C                    -6.45719   2.78556  -0.21061 
 H                    -5.03836  -0.19671   0.23011 
 H                    -2.90377  -0.42265  -0.3157 
 H                    -1.24188   1.8107    0.63102 
 H                    -1.21476   1.45391  -1.08935 
 H                    -0.53705  -0.91914  -0.56781 
 H                    -0.54234  -0.5259    1.14647 
 H                     1.26237   0.79228  -0.96928 
 H                     1.78216  -0.41271   0.20914 
 H                     1.26882   1.18535   0.75072 
 H                    -7.276    -0.47224   0.33076 
 Cl                   -10.00899   0.03803   0.33704 
 C                    -10.24471   3.08768  -0.13902 
 H                    -7.88386   4.35753  -0.41325 
 H                    -5.60663   3.43679  -0.3324 
 F                    -10.19535   4.41081  -0.35147 
 F                    -10.98851   2.56428  -1.12447 
 F                    -10.92214   2.90319   1.00325 
 
                          Input orientation:                          
 ---------------------------------------------------------------------
 Center     Atomic      Atomic             Coordinates (Angstroms)
 Number     Number       Type             X           Y           Z
 ---------------------------------------------------------------------
      1          6           0       -6.272330    1.415781   -0.000627
      2          7           0       -5.022891    0.793053    0.035029
      3          6           0       -3.772837    1.407244    0.016082
      4          8           0       -3.609579    2.607064    0.014657
      5          7           0       -2.734019    0.510549    0.030889
      6          6           0       -1.370734    1.010042   -0.098984
      7          6           0       -0.369094   -0.107796    0.150478
      8          6           0        1.067254    0.391156    0.028113
      9          6           0       -7.393523    0.593294    0.166589
     10          6           0       -8.668859    1.124292    0.122679
     11          6           0       -8.867396    2.489349   -0.087287
     12          6           0       -7.746277    3.296005   -0.250613
     13          6           0       -6.457189    2.785561   -0.210609
     14          1           0       -5.038362   -0.196710    0.230105
     15          1           0       -2.903769   -0.422650   -0.315704
     16          1           0       -1.241884    1.810700    0.631022
     17          1           0       -1.214758    1.453909   -1.089355
     18          1           0       -0.537053   -0.919144   -0.567805
     19          1           0       -0.542340   -0.525902    1.146467
     20          1           0        1.262366    0.792277   -0.969278
     21          1           0        1.782156   -0.412714    0.209145
     22          1           0        1.268820    1.185350    0.750716
     23          1           0       -7.275997   -0.472242    0.330756
     24         17           0      -10.008993    0.038026    0.337043
     25          6           0      -10.244711    3.087685   -0.139018
     26          1           0       -7.883864    4.357528   -0.413249
     27          1           0       -5.606634    3.436785   -0.332399
     28          9           0      -10.195351    4.410805   -0.351470
     29          9           0      -10.988508    2.564282   -1.124473
     30          9           0      -10.922142    2.903191    1.003251
 ---------------------------------------------------------------------
                    Distance matrix (angstroms):
                    1          2          3          4          5
     1  C    0.000000
     2  N    1.396482   0.000000
     3  C    2.499564   1.392919   0.000000
     4  O    2.917127   2.299673   1.210877   0.000000
     5  N    3.652408   2.306243   1.372378   2.272057   0.000000
     6  C    4.919344   3.661050   2.437439   2.752421   1.457706
     7  C    6.098550   4.741590   3.728119   4.229617   2.447350
     8  C    7.410815   6.103395   4.945610   5.175249   3.803149
     9  C    1.400543   2.382669   3.714100   4.289124   4.662214
    10  C    2.417337   3.662033   4.905350   5.273195   5.967196
    11  C    2.809701   4.203879   5.209239   5.260122   6.445768
    12  C    2.402135   3.709878   4.407581   4.202056   5.741144
    13  C    1.398057   2.467314   3.026036   2.862077   4.369896
    14  H    2.043537   1.008923   2.054271   3.154201   2.418656
    15  H    3.850495   2.468122   2.052772   3.128334   1.009853
    16  H    5.085305   3.960659   2.635650   2.572952   2.068096
    17  H    5.173569   4.025276   2.787101   2.878155   2.110220
    18  H    6.218277   4.839190   4.027816   4.713154   2.688702
    19  H    6.157821   4.801070   3.930768   4.528182   2.668746
    20  H    7.622249   6.364988   5.167434   5.291259   4.129261
    21  H    8.262091   6.913237   5.848715   6.182855   4.613028
    22  H    7.581989   6.344425   5.099728   5.134377   4.122648
    23  H    2.163745   2.600945   3.987935   4.798402   4.656755
    24  Cl   3.996858   5.051979   6.392763   6.903360   7.296729
    25  C    4.312102   5.706403   6.688281   6.654291   7.942354
    26  H    3.379523   4.592560   5.078292   4.638614   6.443400
    27  H    2.153528   2.732230   2.757406   2.190231   4.116643
    28  F    4.948065   6.323912   7.099659   6.838122   8.427910
    29  F    4.982411   6.330110   7.396318   7.466461   8.584245
    30  F    4.984065   6.339661   7.370545   7.385024   8.585778
                    6          7          8          9         10
     6  C    0.000000
     7  C    1.521537   0.000000
     8  C    2.518523   1.525458   0.000000
     9  C    6.043029   7.059348   8.464324   0.000000
    10  C    7.302384   8.390763   9.764134   1.382160   0.000000
    11  C    7.641232   8.889478  10.154457   2.414907   1.395308
    12  C    6.774671   8.134468   9.284081   2.757380   2.388900
    13  C    5.388594   6.750318   7.899835   2.413512   2.786105
    14  H    3.875054   4.670793   6.137176   2.484940   3.864853
    15  H    2.109448   2.596350   4.068109   4.628460   5.985104
    16  H    1.091130   2.161785   2.776819   6.288119   7.475929
    17  H    1.096440   2.165931   2.754225   6.363584   7.559186
    18  H    2.153271   1.096552   2.155413   7.059603   8.413005
    19  H    2.143948   1.093993   2.163909   7.010812   8.355333
    20  H    2.781734   2.173855   1.092591   8.732365   9.996590
    21  H    3.472736   2.173544   1.090901   9.230761  10.563786
    22  H    2.778483   2.171469   1.092488   8.702179   9.957691
    23  H    6.103604   6.918861   8.393265   1.084495   2.128915
    24  Cl   8.703703   9.642806  11.086180   2.679190   1.738357
    25  C    9.114037  10.383772  11.630123   3.800612   2.531148
    26  H    7.329754   8.759491   9.800481   3.840066   3.370052
    27  H    4.887373   6.342638   7.344836   3.395203   3.864187
    28  F    9.460592  10.827051  11.964445   4.763614   3.654609
    29  F    9.796370  11.024403  12.304159   4.298319   3.001622
    30  F    9.799405  11.007274  12.288484   4.299625   3.002861
                   11         12         13         14         15
    11  C    0.000000
    12  C    1.390783   0.000000
    13  C    2.431470   1.387048   0.000000
    14  H    4.687979   4.445555   3.331853   0.000000
    15  H    6.640539   6.105941   4.788576   2.214824   0.000000
    16  H    7.689275   6.729825   5.371973   4.313198   2.940409
    17  H    7.787113   6.837949   5.479833   4.368692   2.640600
    18  H    9.013508   8.357093   6.992885   4.628213   2.431338
    19  H    8.939824   8.273785   6.913240   4.600250   2.779380
    20  H   10.308735   9.377674   8.008762   6.489667   4.388608
    21  H   11.041865  10.235087   8.848274   6.823970   4.715237
    22  H   10.254049   9.312867   7.948335   6.477783   4.597109
    23  H    3.387968   3.841723   3.402470   2.256781   4.420040
    24  Cl   2.737204   4.009944   4.523736   4.977319   7.150000
    25  C    1.502558   2.509586   3.800228   6.166812   8.138987
    26  H    2.136277   1.082687   2.132498   5.408500   6.903692
    27  H    3.404450   2.145828   1.078132   3.720435   4.711794
    28  F    2.350586   2.692752   4.078617   6.939882   8.748185
    29  F    2.362306   3.436730   4.627847   6.697925   8.656725
    30  F    2.362736   3.436946   4.628510   6.695223   8.780385
                   16         17         18         19         20
    16  H    0.000000
    17  H    1.757194   0.000000
    18  H    3.063662   2.522435   0.000000
    19  H    2.492941   3.061160   1.758805   0.000000
    20  H    3.141562   2.566772   2.515561   3.077488   0.000000
    21  H    3.777085   3.761898   2.497769   2.508917   1.763764
    22  H    2.590178   3.102603   3.070598   2.522955   1.764349
    23  H    6.458522   6.516548   6.813259   6.783097   8.728845
    24  Cl   8.949357   9.020970   9.563083   9.517915  11.371846
    25  C    9.125489   9.225639  10.510812  10.432953  11.763122
    26  H    7.189766   7.305142   9.046700   8.954250   9.832279
    27  H    4.756404   4.877843   6.688063   6.598259   7.387976
    28  F    9.374988   9.483605  11.033489  10.945114  12.031405
    29  F    9.932086   9.836684  11.030732  11.127841  12.379338
    30  F    9.748820  10.035573  11.177143  10.932497  12.522342
                   21         22         23         24         25
    21  H    0.000000
    22  H    1.763696   0.000000
    23  H    9.059165   8.714234   0.000000
    24  Cl  11.800454  11.343568   2.780230   0.000000
    25  C   12.530744  11.703500   4.659080   3.095580   0.000000
    26  H   10.796969   9.756493   4.924401   4.872085   2.694680
    27  H    8.349020   7.315324   4.301981   5.601828   4.655215
    28  F   12.924446  11.960167   5.729940   4.430573   1.340977
    29  F   13.180702  12.476373   5.012076   3.078546   1.341009
    30  F   13.153897  12.313988   5.013997   3.080072   1.340794
                   26         27         28         29         30
    26  H    0.000000
    27  H    2.457658   0.000000
    28  F    2.312926   4.690991   0.000000
    29  F    3.655186   5.509375   2.153203   0.000000
    30  F    3.654135   5.506660   2.153229   2.155567   0.000000
 Stoichiometry    C11H12ClF3N2O
 Framework group  C1[X(C11H12ClF3N2O)]
 Deg. of freedom    84
 Full point group                 C1      NOp   1
 Largest Abelian subgroup         C1      NOp   1
 Largest concise Abelian subgroup C1      NOp   1
                         Standard orientation:                         
 ---------------------------------------------------------------------
 Center     Atomic      Atomic             Coordinates (Angstroms)
 Number     Number       Type             X           Y           Z
 ---------------------------------------------------------------------
      1          6           0        0.226956    0.173145    0.025176
      2          7           0        1.568767    0.559214    0.050765
      3          6           0        2.686621   -0.266785   -0.040619
      4          8           0        2.629617   -1.464626   -0.208400
      5          7           0        3.870869    0.421091    0.047745
      6          6           0        5.120286   -0.329133    0.079774
      7          6           0        6.309309    0.613527   -0.032888
      8          6           0        7.630715   -0.148292   -0.009693
      9          6           0       -0.725624    1.199428   -0.004054
     10          6           0       -2.076313    0.906188   -0.008264
     11          6           0       -2.520171   -0.416437    0.014904
     12          6           0       -1.564773   -1.426749    0.042472
     13          6           0       -0.204307   -1.156546    0.047429
     14          1           0        1.734042    1.552932   -0.005232
     15          1           0        3.871308    1.311910    0.523395
     16          1           0        5.105682   -1.029994   -0.756376
     17          1           0        5.187965   -0.927713    0.995908
     18          1           0        6.287453    1.333483    0.793921
     19          1           0        6.220006    1.190922   -0.957799
     20          1           0        7.744593   -0.713288    0.918513
     21          1           0        8.480467    0.530806   -0.092222
     22          1           0        7.688753   -0.857001   -0.839086
     23          1           0       -0.415983    2.238630   -0.021652
     24         17           0       -3.196126    2.235351   -0.043290
     25          6           0       -3.983399   -0.757950    0.011185
     26          1           0       -1.893407   -2.458215    0.059513
     27          1           0        0.513418   -1.960947    0.060820
     28          9           0       -4.175882   -2.084778    0.037610
     29          9           0       -4.625160   -0.251855    1.074348
     30          9           0       -4.610108   -0.296699   -1.080700
 ---------------------------------------------------------------------
 Rotational constants (GHZ):      1.0957442      0.1212632      0.1115976
 General basis read from cards:  (6D, 7F)
 There are   370 symmetry adapted cartesian basis functions of A   symmetry.
 There are   370 symmetry adapted basis functions of A   symmetry.
   370 basis functions,   648 primitive gaussians,   370 cartesian basis functions
    72 alpha electrons       72 beta electrons
       nuclear repulsion energy      1425.2033769962 Hartrees.
 NAtoms=   30 NActive=   30 NUniq=   30 SFac= 1.00D+00 NAtFMM=   60 NAOKFM=F Big=F
 Integral buffers will be    131072 words long.
 Raffenetti 1 integral format.
 Two-electron integral symmetry is turned on.
 One-electron integrals computed using PRISM.
 NBasis=   370 RedAO= T EigKep=  1.09D-06  NBF=   370
 NBsUse=   369 1.00D-06 EigRej=  8.55D-07 NBFU=   369
 ExpMin= 4.38D-02 ExpMax= 2.52D+04 ExpMxC= 3.78D+03 IAcc=3 IRadAn=         5 AccDes= 0.00D+00
 Harris functional with IExCor=  205 and IRadAn=       5 diagonalized for initial guess.
 HarFok:  IExCor=  205 AccDes= 0.00D+00 IRadAn=         5 IDoV= 1 UseB2=F ITyADJ=14
 ICtDFT=  3500011 ScaDFX=  1.000000  1.000000  1.000000  1.000000
 FoFCou: FMM=F IPFlag=           0 FMFlag=      100000 FMFlg1=           0
         NFxFlg=           0 DoJE=T BraDBF=F KetDBF=T FulRan=T
         wScrn=  0.000000 ICntrl=     500 IOpCl=  0 I1Cent=   200000004 NGrid=           0
         NMat0=    1 NMatS0=      1 NMatT0=    0 NMatD0=    1 NMtDS0=    0 NMtDT0=    0
 Petite list used in FoFCou.
 Requested convergence on RMS density matrix=1.00D-08 within 128 cycles.
 Requested convergence on MAX density matrix=1.00D-06.
 Requested convergence on             energy=1.00D-06.
 No special actions if energy rises.
 Initial convergence to 1.0D-05 achieved.  Increase integral accuracy.
 SCF Done:  E(RHF) =  -1365.16434294     A.U. after   17 cycles
            NFock= 17  Conv=0.66D-08     -V/T= 2.0017
 ExpMin= 4.38D-02 ExpMax= 2.52D+04 ExpMxC= 3.78D+03 IAcc=3 IRadAn=         5 AccDes= 0.00D+00
 HarFok:  IExCor=  205 AccDes= 0.00D+00 IRadAn=         5 IDoV=-2 UseB2=F ITyADJ=14
 ICtDFT= 12500011 ScaDFX=  1.000000  1.000000  1.000000  1.000000
 Range of M.O.s used for correlation:    23   369
 NBasis=   370 NAE=    72 NBE=    72 NFC=    22 NFV=     0
 NROrb=    347 NOA=    50 NOB=    50 NVA=   297 NVB=   297

 **** Warning!!: The largest alpha MO coefficient is  0.16805060D+03

 Fully direct method using O(OVN) memory.
 JobTyp=1 Pass  1:  I=   1 to  50 NPSUse=  4 ParTrn=T ParDer=T DoDerP=F.
 Spin components of T(2) and E(2):
     alpha-alpha T2 =       0.1141729733D+00 E2=     -0.3523992218D+00
     alpha-beta  T2 =       0.5865050786D+00 E2=     -0.1874952675D+01
     beta-beta   T2 =       0.1141729733D+00 E2=     -0.3523992218D+00
 ANorm=    0.1347164068D+01
 E2 =    -0.2579751119D+01 EUMP2 =    -0.13677440940577D+04

 **********************************************************************

            Population analysis using the SCF density.

 **********************************************************************

 Orbital symmetries:
       Occupied  (A) (A) (A) (A) (A) (A) (A) (A) (A) (A) (A) (A)
                 (A) (A) (A) (A) (A) (A) (A) (A) (A) (A) (A) (A)
                 (A) (A) (A) (A) (A) (A) (A) (A) (A) (A) (A) (A)
                 (A) (A) (A) (A) (A) (A) (A) (A) (A) (A) (A) (A)
                 (A) (A) (A) (A) (A) (A) (A) (A) (A) (A) (A) (A)
                 (A) (A) (A) (A) (A) (A) (A) (A) (A) (A) (A) (A)
       Virtual   (A) (A) (A) (A) (A) (A) (A) (A) (A) (A) (A) (A)
                 (A) (A) (A) (A) (A) (A) (A) (A) (A) (A) (A) (A)
                 (A) (A) (A) (A) (A) (A) (A) (A) (A) (A) (A) (A)
                 (A) (A) (A) (A) (A) (A) (A) (A) (A) (A) (A) (A)
                 (A) (A) (A) (A) (A) (A) (A) (A) (A) (A) (A) (A)
                 (A) (A) (A) (A) (A) (A) (A) (A) (A) (A) (A) (A)
                 (A) (A) (A) (A) (A) (A) (A) (A) (A) (A) (A) (A)
                 (A) (A) (A) (A) (A) (A) (A) (A) (A) (A) (A) (A)
                 (A) (A) (A) (A) (A) (A) (A) (A) (A) (A) (A) (A)
                 (A) (A) (A) (A) (A) (A) (A) (A) (A) (A) (A) (A)
                 (A) (A) (A) (A) (A) (A) (A) (A) (A) (A) (A) (A)
                 (A) (A) (A) (A) (A) (A) (A) (A) (A) (A) (A) (A)
                 (A) (A) (A) (A) (A) (A) (A) (A) (A) (A) (A) (A)
                 (A) (A) (A) (A) (A) (A) (A) (A) (A) (A) (A) (A)
                 (A) (A) (A) (A) (A) (A) (A) (A) (A) (A) (A) (A)
                 (A) (A) (A) (A) (A) (A) (A) (A) (A) (A) (A) (A)
                 (A) (A) (A) (A) (A) (A) (A) (A) (A) (A) (A) (A)
                 (A) (A) (A) (A) (A) (A) (A) (A) (A) (A) (A) (A)
                 (A) (A) (A) (A) (A) (A) (A) (A) (A) (A) (A) (A)
                 (A) (A) (A) (A) (A) (A) (A) (A) (A) (A) (A) (A)
                 (A) (A) (A) (A) (A) (A) (A) (A) (A) (A) (A) (A)
                 (A) (A) (A) (A) (A) (A) (A) (A) (A) (A) (A) (A)
                 (A) (A) (A) (A) (A) (A) (A) (A) (A) (A) (A) (A)
                 (A) (A) (A) (A) (A) (A) (A) (A) (A) (A) (A) (A)
                 (A) (A) (A) (A) (A) (A) (A) (A) (A)
 The electronic state is 1-A.
 Alpha  occ. eigenvalues -- -104.84361 -26.35136 -26.34465 -26.34461 -20.55093
 Alpha  occ. eigenvalues --  -15.63299 -15.60898 -11.51805 -11.40931 -11.33558
 Alpha  occ. eigenvalues --  -11.32647 -11.27614 -11.27601 -11.27390 -11.26867
 Alpha  occ. eigenvalues --  -11.25129 -11.24540 -11.23253 -10.57611  -8.04554
 Alpha  occ. eigenvalues --   -8.04204  -8.04204  -1.73118  -1.63464  -1.62999
 Alpha  occ. eigenvalues --   -1.42725  -1.29005  -1.24869  -1.21007  -1.13422
 Alpha  occ. eigenvalues --   -1.08378  -1.06456  -1.02495  -0.97250  -0.94263
 Alpha  occ. eigenvalues --   -0.88253  -0.87387  -0.83556  -0.82563  -0.81880
 Alpha  occ. eigenvalues --   -0.81521  -0.79218  -0.76852  -0.73411  -0.70635
 Alpha  occ. eigenvalues --   -0.70623  -0.67927  -0.67049  -0.66805  -0.65716
 Alpha  occ. eigenvalues --   -0.65541  -0.65073  -0.64175  -0.63301  -0.62829
 Alpha  occ. eigenvalues --   -0.61103  -0.60377  -0.58524  -0.57107  -0.55616
 Alpha  occ. eigenvalues --   -0.55535  -0.53354  -0.52543  -0.50903  -0.50155
 Alpha  occ. eigenvalues --   -0.49427  -0.46849  -0.46004  -0.45796  -0.41717
 Alpha  occ. eigenvalues --   -0.35883  -0.33482
 Alpha virt. eigenvalues --    0.04435   0.07184   0.07791   0.08173   0.08386
 Alpha virt. eigenvalues --    0.08796   0.09061   0.09486   0.09800   0.10906
 Alpha virt. eigenvalues --    0.11146   0.11595   0.12209   0.12280   0.12697
 Alpha virt. eigenvalues --    0.13019   0.13614   0.14178   0.14729   0.15182
 Alpha virt. eigenvalues --    0.15479   0.16054   0.17344   0.17751   0.17995
 Alpha virt. eigenvalues --    0.18783   0.18923   0.19377   0.19692   0.21044
 Alpha virt. eigenvalues --    0.21377   0.21746   0.22136   0.22677   0.22979
 Alpha virt. eigenvalues --    0.24200   0.24462   0.25435   0.25833   0.26493
 Alpha virt. eigenvalues --    0.26982   0.27502   0.28015   0.28593   0.29735
 Alpha virt. eigenvalues --    0.30072   0.30680   0.31637   0.32022   0.32463
 Alpha virt. eigenvalues --    0.32501   0.32698   0.33197   0.33807   0.34156
 Alpha virt. eigenvalues --    0.34568   0.34994   0.35375   0.36112   0.37252
 Alpha virt. eigenvalues --    0.37632   0.38226   0.39298   0.39324   0.39997
 Alpha virt. eigenvalues --    0.40764   0.41466   0.41573   0.41992   0.42442
 Alpha virt. eigenvalues --    0.43240   0.43656   0.44145   0.44325   0.45207
 Alpha virt. eigenvalues --    0.45638   0.45838   0.46493   0.46619   0.46720
 Alpha virt. eigenvalues --    0.47314   0.48478   0.48764   0.49833   0.50003
 Alpha virt. eigenvalues --    0.50027   0.50691   0.51200   0.52124   0.54473
 Alpha virt. eigenvalues --    0.55662   0.56644   0.57218   0.57836   0.58293
 Alpha virt. eigenvalues --    0.59234   0.60250   0.61014   0.62565   0.64437
 Alpha virt. eigenvalues --    0.66069   0.69185   0.73352   0.77638   0.79345
 Alpha virt. eigenvalues --    0.82734   0.84396   0.84806   0.85121   0.86606
 Alpha virt. eigenvalues --    0.89061   0.89988   0.91098   0.91567   0.92153
 Alpha virt. eigenvalues --    0.92602   0.93440   0.94628   0.95549   0.96244
 Alpha virt. eigenvalues --    0.96522   0.97389   0.99725   1.01434   1.02090
 Alpha virt. eigenvalues --    1.03035   1.03341   1.04989   1.05786   1.06461
 Alpha virt. eigenvalues --    1.07328   1.08223   1.08612   1.12976   1.13702
 Alpha virt. eigenvalues --    1.16081   1.16854   1.18132   1.18443   1.18914
 Alpha virt. eigenvalues --    1.20616   1.21304   1.22368   1.23117   1.24197
 Alpha virt. eigenvalues --    1.24284   1.25158   1.25626   1.26162   1.28030
 Alpha virt. eigenvalues --    1.29202   1.31445   1.33202   1.34090   1.34495
 Alpha virt. eigenvalues --    1.35187   1.36975   1.38479   1.39394   1.40485
 Alpha virt. eigenvalues --    1.40796   1.43555   1.45388   1.47285   1.48538
 Alpha virt. eigenvalues --    1.49081   1.50496   1.52367   1.53980   1.57025
 Alpha virt. eigenvalues --    1.58771   1.59820   1.60520   1.62247   1.63112
 Alpha virt. eigenvalues --    1.65727   1.68319   1.69046   1.69233   1.71479
 Alpha virt. eigenvalues --    1.71976   1.73807   1.76344   1.77310   1.79337
 Alpha virt. eigenvalues --    1.81859   1.85308   1.87671   1.88627   1.90844
 Alpha virt. eigenvalues --    1.91655   1.93718   1.94382   1.97029   1.97463
 Alpha virt. eigenvalues --    1.97897   1.98736   2.00059   2.01174   2.03040
 Alpha virt. eigenvalues --    2.04417   2.05348   2.08989   2.10583   2.10898
 Alpha virt. eigenvalues --    2.12125   2.12834   2.13135   2.13249   2.14023
 Alpha virt. eigenvalues --    2.15965   2.16157   2.18540   2.18890   2.20321
 Alpha virt. eigenvalues --    2.21887   2.22842   2.25510   2.26305   2.28754
 Alpha virt. eigenvalues --    2.30494   2.31972   2.33735   2.35371   2.36045
 Alpha virt. eigenvalues --    2.36562   2.38982   2.39663   2.40410   2.41432
 Alpha virt. eigenvalues --    2.41930   2.43333   2.43800   2.44432   2.44490
 Alpha virt. eigenvalues --    2.49952   2.50751   2.52253   2.54968   2.56472
 Alpha virt. eigenvalues --    2.58050   2.59435   2.61624   2.63330   2.66263
 Alpha virt. eigenvalues --    2.67684   2.68939   2.71376   2.73936   2.74417
 Alpha virt. eigenvalues --    2.79753   2.80690   2.83623   2.88160   2.90892
 Alpha virt. eigenvalues --    2.94896   2.97272   2.98236   2.99572   3.01420
 Alpha virt. eigenvalues --    3.05013   3.08859   3.09686   3.11206   3.11581
 Alpha virt. eigenvalues --    3.15022   3.17334   3.21454   3.24560   3.30043
 Alpha virt. eigenvalues --    3.32684   3.46819   3.48832   3.52441   3.60169
 Alpha virt. eigenvalues --    3.61297   3.67679   3.71389   3.79764   4.54629
 Alpha virt. eigenvalues --    4.64296   4.65579   4.69234   4.70705   4.78933
 Alpha virt. eigenvalues --    4.80044   4.80486   4.84405   4.86498   4.87795
 Alpha virt. eigenvalues --    4.96880   5.00952   5.06855   5.19302   5.99481
 Alpha virt. eigenvalues --    6.47079   7.37684
          Condensed to atoms (all electrons):
               1          2          3          4          5          6
     1  C   16.499386   0.056473  -1.529147  -0.416089  -0.208102  -0.649924
     2  N    0.056473   7.682832   0.224091  -0.068944  -0.227811  -0.144339
     3  C   -1.529147   0.224091   6.768642   0.632403   0.277332  -0.490066
     4  O   -0.416089  -0.068944   0.632403   8.296848  -0.134208  -0.092456
     5  N   -0.208102  -0.227811   0.277332  -0.134208   7.491918   0.422124
     6  C   -0.649924  -0.144339  -0.490066  -0.092456   0.422124   6.523188
     7  C    0.031280   0.004087   0.016329   0.013045  -0.123368  -0.111472
     8  C   -0.006106  -0.000004  -0.046012  -0.001005   0.007089  -0.047546
     9  C   -2.188143   0.134693  -2.416804  -0.085981  -0.048759  -0.202278
    10  C    1.726397   0.073894   0.208707  -0.009956   0.038229   0.010001
    11  C   -1.720833   0.008864   0.257622   0.019226   0.019894   0.010268
    12  C   -4.130002  -0.000996  -0.872290   0.151382  -0.032577  -0.041671
    13  C   -0.310278  -0.202694   2.234576   0.343240   0.021946   0.247272
    14  H   -0.061863   0.265727  -0.031380   0.002713   0.017531   0.002721
    15  H    0.013000   0.030542   0.036632   0.002494   0.261801  -0.078942
    16  H   -0.009536   0.004355   0.019025  -0.009199  -0.037298   0.411118
    17  H    0.005064   0.004439   0.064806  -0.000791  -0.075221   0.394693
    18  H   -0.004290  -0.000372  -0.032577  -0.000317   0.001293  -0.018214
    19  H    0.004261   0.000368   0.040341  -0.000246  -0.000926  -0.098298
    20  H    0.000325   0.000018   0.009782  -0.000038  -0.000403  -0.024254
    21  H    0.000002   0.000010   0.002011   0.000013   0.000297   0.052503
    22  H   -0.000258  -0.000062  -0.010875  -0.000082  -0.000925  -0.023519
    23  H    0.148121  -0.008935   0.002532   0.000076   0.000679   0.000121
    24  Cl   0.036763  -0.005344  -0.020874   0.000016  -0.000450  -0.000709
    25  C   -1.366231  -0.006053  -0.172891   0.000676   0.003286  -0.002209
    26  H   -0.012607  -0.000043   0.007538  -0.000075   0.000011   0.000067
    27  H    0.027029  -0.006653   0.043390  -0.009953   0.000582   0.004481
    28  F    0.032229  -0.000001   0.000669   0.000001   0.000001   0.000001
    29  F    0.014658   0.000022   0.000330  -0.000000   0.000001   0.000001
    30  F    0.014237  -0.000053   0.000111   0.000000   0.000000  -0.000002
               7          8          9         10         11         12
     1  C    0.031280  -0.006106  -2.188143   1.726397  -1.720833  -4.130002
     2  N    0.004087  -0.000004   0.134693   0.073894   0.008864  -0.000996
     3  C    0.016329  -0.046012  -2.416804   0.208707   0.257622  -0.872290
     4  O    0.013045  -0.001005  -0.085981  -0.009956   0.019226   0.151382
     5  N   -0.123368   0.007089  -0.048759   0.038229   0.019894  -0.032577
     6  C   -0.111472  -0.047546  -0.202278   0.010001   0.010268  -0.041671
     7  C    5.672043   0.217839   0.014799  -0.000289  -0.000085  -0.001217
     8  C    0.217839   5.401686  -0.001710   0.000222  -0.000123  -0.000663
     9  C    0.014799  -0.001710  24.093538  -7.163801  -2.113883   5.429321
    10  C   -0.000289   0.000222  -7.163801  19.623909  -2.617118  -4.970283
    11  C   -0.000085  -0.000123  -2.113883  -2.617118  21.718182  -3.704723
    12  C   -0.001217  -0.000663   5.429321  -4.970283  -3.704723  17.528558
    13  C   -0.021269   0.000391 -10.465248   1.390826   0.853229  -6.662021
    14  H   -0.000822  -0.000068   0.010939   0.020353   0.013656   0.002596
    15  H   -0.000408   0.002123  -0.010671  -0.000803  -0.000394   0.001119
    16  H   -0.034572  -0.004195  -0.000745   0.000200  -0.000127  -0.000520
    17  H   -0.077094  -0.000320  -0.000614   0.000106  -0.000063  -0.000177
    18  H    0.390890  -0.011060  -0.000408   0.000037  -0.000016  -0.000045
    19  H    0.430342  -0.045144   0.000523   0.000011   0.000008  -0.000002
    20  H   -0.020390   0.389867   0.000022  -0.000000   0.000000   0.000000
    21  H   -0.087867   0.394986  -0.000008  -0.000000   0.000000   0.000001
    22  H   -0.034632   0.425369   0.000003   0.000001  -0.000001  -0.000006
    23  H   -0.000027   0.000001   0.031912   0.087121   0.053335  -0.056732
    24  Cl   0.000011  -0.000000   0.325733  -0.479941  -0.278410   0.134881
    25  C    0.000080  -0.000012   1.923916  -2.065988  -5.766215   3.172197
    26  H   -0.000000   0.000000  -0.068336  -0.002966   0.095322   0.206223
    27  H   -0.000130   0.000015   0.033531  -0.024032   0.025208  -0.007768
    28  F   -0.000000  -0.000000  -0.033729  -0.023559   0.067574  -0.076057
    29  F   -0.000000  -0.000000  -0.025200  -0.166038   0.350428  -0.057775
    30  F   -0.000000  -0.000000  -0.023370  -0.166556   0.321351  -0.052728
              13         14         15         16         17         18
     1  C   -0.310278  -0.061863   0.013000  -0.009536   0.005064  -0.004290
     2  N   -0.202694   0.265727   0.030542   0.004355   0.004439  -0.000372
     3  C    2.234576  -0.031380   0.036632   0.019025   0.064806  -0.032577
     4  O    0.343240   0.002713   0.002494  -0.009199  -0.000791  -0.000317
     5  N    0.021946   0.017531   0.261801  -0.037298  -0.075221   0.001293
     6  C    0.247272   0.002721  -0.078942   0.411118   0.394693  -0.018214
     7  C   -0.021269  -0.000822  -0.000408  -0.034572  -0.077094   0.390890
     8  C    0.000391  -0.000068   0.002123  -0.004195  -0.000320  -0.011060
     9  C  -10.465248   0.010939  -0.010671  -0.000745  -0.000614  -0.000408
    10  C    1.390826   0.020353  -0.000803   0.000200   0.000106   0.000037
    11  C    0.853229   0.013656  -0.000394  -0.000127  -0.000063  -0.000016
    12  C   -6.662021   0.002596   0.001119  -0.000520  -0.000177  -0.000045
    13  C   19.642525   0.017797   0.010277   0.000786   0.000118   0.000129
    14  H    0.017797   0.271890   0.001010  -0.000000   0.000004   0.000004
    15  H    0.010277   0.001010   0.307903   0.002241   0.001503   0.001769
    16  H    0.000786  -0.000000   0.002241   0.465237  -0.033531   0.003142
    17  H    0.000118   0.000004   0.001503  -0.033531   0.513345  -0.003942
    18  H    0.000129   0.000004   0.001769   0.003142  -0.003942   0.529784
    19  H   -0.000546  -0.000004   0.000394  -0.003197   0.003435  -0.034387
    20  H   -0.000032  -0.000000   0.000006   0.000288   0.001339  -0.003431
    21  H    0.000023  -0.000000  -0.000000  -0.000096  -0.000112  -0.002735
    22  H   -0.000073   0.000000  -0.000002   0.001322   0.000076   0.003536
    23  H    0.067124   0.004784   0.000003  -0.000000   0.000000  -0.000000
    24  Cl   0.019625  -0.000209   0.000007   0.000000   0.000000  -0.000000
    25  C   -2.254488   0.001061  -0.000012  -0.000006  -0.000003  -0.000000
    26  H    0.132218   0.000002   0.000000   0.000000   0.000000   0.000000
    27  H    0.229852  -0.000088  -0.000001  -0.000003  -0.000000  -0.000000
    28  F    0.157345   0.000000  -0.000000  -0.000000  -0.000000  -0.000000
    29  F    0.045843   0.000000  -0.000000  -0.000000  -0.000000  -0.000000
    30  F    0.044503   0.000000   0.000000  -0.000000   0.000000  -0.000000
              19         20         21         22         23         24
     1  C    0.004261   0.000325   0.000002  -0.000258   0.148121   0.036763
     2  N    0.000368   0.000018   0.000010  -0.000062  -0.008935  -0.005344
     3  C    0.040341   0.009782   0.002011  -0.010875   0.002532  -0.020874
     4  O   -0.000246  -0.000038   0.000013  -0.000082   0.000076   0.000016
     5  N   -0.000926  -0.000403   0.000297  -0.000925   0.000679  -0.000450
     6  C   -0.098298  -0.024254   0.052503  -0.023519   0.000121  -0.000709
     7  C    0.430342  -0.020390  -0.087867  -0.034632  -0.000027   0.000011
     8  C   -0.045144   0.389867   0.394986   0.425369   0.000001  -0.000000
     9  C    0.000523   0.000022  -0.000008   0.000003   0.031912   0.325733
    10  C    0.000011  -0.000000  -0.000000   0.000001   0.087121  -0.479941
    11  C    0.000008   0.000000   0.000000  -0.000001   0.053335  -0.278410
    12  C   -0.000002   0.000000   0.000001  -0.000006  -0.056732   0.134881
    13  C   -0.000546  -0.000032   0.000023  -0.000073   0.067124   0.019625
    14  H   -0.000004  -0.000000  -0.000000   0.000000   0.004784  -0.000209
    15  H    0.000394   0.000006  -0.000000  -0.000002   0.000003   0.000007
    16  H   -0.003197   0.000288  -0.000096   0.001322  -0.000000   0.000000
    17  H    0.003435   0.001339  -0.000112   0.000076   0.000000   0.000000
    18  H   -0.034387  -0.003431  -0.002735   0.003536  -0.000000  -0.000000
    19  H    0.498267   0.003250  -0.002637  -0.003432  -0.000000   0.000000
    20  H    0.003250   0.502510  -0.025409  -0.030421  -0.000000   0.000000
    21  H   -0.002637  -0.025409   0.493471  -0.024725   0.000000  -0.000000
    22  H   -0.003432  -0.030421  -0.024725   0.499950  -0.000000  -0.000000
    23  H   -0.000000  -0.000000   0.000000  -0.000000   0.421827  -0.014602
    24  Cl   0.000000   0.000000  -0.000000  -0.000000  -0.014602  16.976104
    25  C    0.000000   0.000000   0.000000  -0.000000   0.013487   0.021925
    26  H   -0.000000  -0.000000  -0.000000   0.000000   0.000009   0.000934
    27  H    0.000000   0.000000   0.000000  -0.000000  -0.000075  -0.000021
    28  F    0.000000   0.000000  -0.000000  -0.000000   0.000015   0.000251
    29  F   -0.000000   0.000000   0.000000  -0.000000   0.000023  -0.007708
    30  F    0.000000   0.000000   0.000000  -0.000000   0.000024  -0.007111
              25         26         27         28         29         30
     1  C   -1.366231  -0.012607   0.027029   0.032229   0.014658   0.014237
     2  N   -0.006053  -0.000043  -0.006653  -0.000001   0.000022  -0.000053
     3  C   -0.172891   0.007538   0.043390   0.000669   0.000330   0.000111
     4  O    0.000676  -0.000075  -0.009953   0.000001  -0.000000   0.000000
     5  N    0.003286   0.000011   0.000582   0.000001   0.000001   0.000000
     6  C   -0.002209   0.000067   0.004481   0.000001   0.000001  -0.000002
     7  C    0.000080  -0.000000  -0.000130  -0.000000  -0.000000  -0.000000
     8  C   -0.000012   0.000000   0.000015  -0.000000  -0.000000  -0.000000
     9  C    1.923916  -0.068336   0.033531  -0.033729  -0.025200  -0.023370
    10  C   -2.065988  -0.002966  -0.024032  -0.023559  -0.166038  -0.166556
    11  C   -5.766215   0.095322   0.025208   0.067574   0.350428   0.321351
    12  C    3.172197   0.206223  -0.007768  -0.076057  -0.057775  -0.052728
    13  C   -2.254488   0.132218   0.229852   0.157345   0.045843   0.044503
    14  H    0.001061   0.000002  -0.000088   0.000000   0.000000   0.000000
    15  H   -0.000012   0.000000  -0.000001  -0.000000  -0.000000   0.000000
    16  H   -0.000006   0.000000  -0.000003  -0.000000  -0.000000  -0.000000
    17  H   -0.000003   0.000000  -0.000000  -0.000000  -0.000000   0.000000
    18  H   -0.000000   0.000000  -0.000000  -0.000000  -0.000000  -0.000000
    19  H    0.000000  -0.000000   0.000000   0.000000  -0.000000   0.000000
    20  H    0.000000  -0.000000   0.000000   0.000000   0.000000   0.000000
    21  H    0.000000  -0.000000   0.000000  -0.000000   0.000000   0.000000
    22  H   -0.000000   0.000000  -0.000000  -0.000000  -0.000000  -0.000000
    23  H    0.013487   0.000009  -0.000075   0.000015   0.000023   0.000024
    24  Cl   0.021925   0.000934  -0.000021   0.000251  -0.007708  -0.007111
    25  C   10.754529  -0.029977   0.008488  -0.005471  -0.040970  -0.017027
    26  H   -0.029977   0.392745  -0.000253   0.000633  -0.000040  -0.000079
    27  H    0.008488  -0.000253   0.358313   0.000007   0.000012   0.000012
    28  F   -0.005471   0.000633   0.000007   9.356435  -0.018282  -0.018766
    29  F   -0.040970  -0.000040   0.000012  -0.018282   9.300323  -0.031710
    30  F   -0.017027  -0.000079   0.000012  -0.018766  -0.031710   9.298889
 Mulliken charges:
               1
     1  C    0.004185
     2  N   -0.818112
     3  C    0.776047
     4  O   -0.632792
     5  N   -0.673963
     6  C   -0.052662
     7  C   -0.277100
     8  C   -0.675621
     9  C   -1.149241
    10  C    0.511315
    11  C   -1.612176
    12  C    0.041974
    13  C    0.457005
    14  H    0.461647
    15  H    0.418410
    16  H    0.225312
    17  H    0.202941
    18  H    0.181209
    19  H    0.207620
    20  H    0.196971
    21  H    0.200272
    22  H    0.198756
    23  H    0.249177
    24  Cl   0.299132
    25  C    1.827906
    26  H    0.278674
    27  H    0.318059
    28  F   -0.439298
    29  F   -0.363919
    30  F   -0.361725
 Sum of Mulliken charges =  -0.00000
 Mulliken charges with hydrogens summed into heavy atoms:
               1
     1  C    0.004185
     2  N   -0.356466
     3  C    0.776047
     4  O   -0.632792
     5  N   -0.255553
     6  C    0.375591
     7  C    0.111729
     8  C   -0.079622
     9  C   -0.900064
    10  C    0.511315
    11  C   -1.612176
    12  C    0.320647
    13  C    0.775064
    24  Cl   0.299132
    25  C    1.827906
    28  F   -0.439298
    29  F   -0.363919
    30  F   -0.361725
 Electronic spatial extent (au):  <R**2>=           8973.7616
 Charge=             -0.0000 electrons
 Dipole moment (field-independent basis, Debye):
    X=              6.3720    Y=              3.2023    Z=              0.9370  Tot=              7.1928
 Quadrupole moment (field-independent basis, Debye-Ang):
   XX=           -112.8019   YY=           -109.9608   ZZ=           -115.5759
   XY=             10.7200   XZ=              3.2925   YZ=              0.2600
 Traceless Quadrupole moment (field-independent basis, Debye-Ang):
   XX=             -0.0224   YY=              2.8187   ZZ=             -2.7964
   XY=             10.7200   XZ=              3.2925   YZ=              0.2600
 Octapole moment (field-independent basis, Debye-Ang**2):
  XXX=            121.1866  YYY=              0.9947  ZZZ=             -0.3517  XYY=            -23.5329
  XXY=             28.7830  XXZ=             10.2419  XZZ=            -15.7110  YZZ=             -4.5347
  YYZ=              2.6726  XYZ=              3.0737
 Hexadecapole moment (field-independent basis, Debye-Ang**3):
 XXXX=          -9833.0271 YYYY=          -1011.0449 ZZZZ=           -209.2816 XXXY=             71.1002
 XXXZ=             30.4338 YYYX=             74.6333 YYYZ=              1.2104 ZZZX=              0.1237
 ZZZY=              1.1264 XXYY=          -1881.0562 XXZZ=          -1743.1688 YYZZ=           -213.4359
 XXYZ=             14.5455 YYXZ=              8.8395 ZZXY=             12.4745
 N-N= 1.425203376996D+03 E-N=-6.074834311562D+03  KE= 1.362854098923D+03
 1\1\GINC-R4052\SP\RMP2-FC\Gen\C11H12Cl1F3N2O1\ROOT\30-Nov-2019\0\\# MP
 2/Gen 6D SCF=Tight INT(grid=ultrafine) maxdisk=3489660928\\CP19_c2.MP2
 _6-31pGd\\0,1\C,0,-6.27233042,1.4157811597,-0.0006268092\N,0,-5.022890
 5115,0.793053056,0.0350288231\C,0,-3.772836679,1.4072440652,0.01608195
 01\O,0,-3.609579486,2.6070636568,0.0146574578\N,0,-2.7340192472,0.5105
 491394,0.0308891718\C,0,-1.3707340862,1.0100418431,-0.098984489\C,0,-0
 .3690942356,-0.1077962292,0.1504779418\C,0,1.0672538533,0.3911555746,0
 .0281129047\C,0,-7.3935234681,0.5932937771,0.1665888279\C,0,-8.6688587
 036,1.1242917509,0.1226786916\C,0,-8.8673955835,2.4893488258,-0.087287
 4356\C,0,-7.7462770605,3.296005243,-0.2506130266\C,0,-6.457188542,2.78
 55613836,-0.2106085962\H,0,-5.0383620591,-0.1967102376,0.2301051026\H,
 0,-2.9037689183,-0.4226499675,-0.3157040869\H,0,-1.2418841584,1.810700
 1969,0.6310220645\H,0,-1.2147580036,1.4539093437,-1.0893548604\H,0,-0.
 5370531127,-0.9191438891,-0.5678051958\H,0,-0.5423395604,-0.5259023146
 ,1.1464668854\H,0,1.2623655568,0.792277158,-0.9692775949\H,0,1.7821559
 004,-0.4127141529,0.2091445643\H,0,1.268819724,1.1853501596,0.75071644
 31\H,0,-7.2759974095,-0.4722417649,0.3307563214\Cl,0,-10.0089927485,0.
 0380259625,0.3370431866\C,0,-10.2447112205,3.0876849677,-0.1390183572\
 H,0,-7.8838643184,4.3575280509,-0.4132489856\H,0,-5.606634186,3.436785
 1958,-0.3323987941\F,0,-10.1953508559,4.4108054742,-0.3514700238\F,0,-
 10.988508358,2.5642817182,-1.1244726977\F,0,-10.9221421016,2.903190853
 2,1.003250616\\Version=ES64L-G09RevE.01\State=1-A\HF=-1365.1643429\MP2
 =-1367.7440941\RMSD=6.602e-09\PG=C01 [X(C11H12Cl1F3N2O1)]\\@


 "PERFECTION IS NOT AN ACCIDENT"
         --  EAGLE ELECTRIC MANUFACTURING CO.,INC. NY
 Job cpu time:       0 days  0 hours 13 minutes 11.0 seconds.
 File lengths (MBytes):  RWF=     75 Int=      0 D2E=      0 Chk=      9 Scr=      1
 Normal termination of Gaussian 09 at Sat Nov 30 15:03:57 2019.
pbs_rusage has been removed.
Please contact help@nci.org.au if you require this functionality.
