 Entering Gaussian System, Link 0=/apps/gaussian/g09e01/g09/g09
 Initial command:
 /apps/gaussian/g09e01/g09/l1.exe "/jobfs/local/3579015.r-man2/Gau-8514.inp" -scrdir="/jobfs/local/3579015.r-man2/"
 Entering Link 1 = /apps/gaussian/g09e01/g09/l1.exe PID=      8515.
  
 Copyright (c) 1988,1990,1992,1993,1995,1998,2003,2009,2015,
            Gaussian, Inc.  All Rights Reserved.
  
 This is part of the Gaussian(R) 09 program.  It is based on
 the Gaussian(R) 03 system (copyright 2003, Gaussian, Inc.),
 the Gaussian(R) 98 system (copyright 1998, Gaussian, Inc.),
 the Gaussian(R) 94 system (copyright 1995, Gaussian, Inc.),
 the Gaussian 92(TM) system (copyright 1992, Gaussian, Inc.),
 the Gaussian 90(TM) system (copyright 1990, Gaussian, Inc.),
 the Gaussian 88(TM) system (copyright 1988, Gaussian, Inc.),
 the Gaussian 86(TM) system (copyright 1986, Carnegie Mellon
 University), and the Gaussian 82(TM) system (copyright 1983,
 Carnegie Mellon University). Gaussian is a federally registered
 trademark of Gaussian, Inc.
  
 This software contains proprietary and confidential information,
 including trade secrets, belonging to Gaussian, Inc.
  
 This software is provided under written license and may be
 used, copied, transmitted, or stored only in accord with that
 written license.
  
 The following legend is applicable only to US Government
 contracts under FAR:
  
                    RESTRICTED RIGHTS LEGEND
  
 Use, reproduction and disclosure by the US Government is
 subject to restrictions as set forth in subparagraphs (a)
 and (c) of the Commercial Computer Software - Restricted
 Rights clause in FAR 52.227-19.
  
 Gaussian, Inc.
 340 Quinnipiac St., Bldg. 40, Wallingford CT 06492
  
  
 ---------------------------------------------------------------
 Warning -- This program may not be used in any manner that
 competes with the business of Gaussian, Inc. or will provide
 assistance to any competitor of Gaussian, Inc.  The licensee
 of this program is prohibited from giving any competitor of
 Gaussian, Inc. access to this program.  By using this program,
 the user acknowledges that Gaussian, Inc. is engaged in the
 business of creating and licensing software in the field of
 computational chemistry and represents and warrants to the
 licensee that it is not a competitor of Gaussian, Inc. and that
 it will not use this program in any manner prohibited above.
 ---------------------------------------------------------------
  

 Cite this work as:
 Gaussian 09, Revision E.01,
 M. J. Frisch, G. W. Trucks, H. B. Schlegel, G. E. Scuseria, 
 M. A. Robb, J. R. Cheeseman, G. Scalmani, V. Barone, B. Mennucci, 
 G. A. Petersson, H. Nakatsuji, M. Caricato, X. Li, H. P. Hratchian, 
 A. F. Izmaylov, J. Bloino, G. Zheng, J. L. Sonnenberg, M. Hada, 
 M. Ehara, K. Toyota, R. Fukuda, J. Hasegawa, M. Ishida, T. Nakajima, 
 Y. Honda, O. Kitao, H. Nakai, T. Vreven, J. A. Montgomery, Jr., 
 J. E. Peralta, F. Ogliaro, M. Bearpark, J. J. Heyd, E. Brothers, 
 K. N. Kudin, V. N. Staroverov, T. Keith, R. Kobayashi, J. Normand, 
 K. Raghavachari, A. Rendell, J. C. Burant, S. S. Iyengar, J. Tomasi, 
 M. Cossi, N. Rega, J. M. Millam, M. Klene, J. E. Knox, J. B. Cross, 
 V. Bakken, C. Adamo, J. Jaramillo, R. Gomperts, R. E. Stratmann, 
 O. Yazyev, A. J. Austin, R. Cammi, C. Pomelli, J. W. Ochterski, 
 R. L. Martin, K. Morokuma, V. G. Zakrzewski, G. A. Voth, 
 P. Salvador, J. J. Dannenberg, S. Dapprich, A. D. Daniels, 
 O. Farkas, J. B. Foresman, J. V. Ortiz, J. Cioslowski, 
 and D. J. Fox, Gaussian, Inc., Wallingford CT, 2013.
 
 ******************************************
 Gaussian 09:  ES64L-G09RevE.01 30-Nov-2015
                14-Nov-2019 
 ******************************************
 %chk=CP19.M062X_6-311pGd_opt_Pentadecane_GD3.chk
 %mem=196608000
 %nproc=4
 Will use up to    4 processors via shared memory.
 ----------------------------------------------------------------------
 # M062X/6-311+G* SCF=Tight INT(grid=ultrafine) OPT IOP(2/17=4) Empiric
 alDispersion=GD3 SCRF=(SMD,Solvent=n-Pentadecane) maxdisk=2147483648
 ----------------------------------------------------------------------
 1/14=-1,18=20,19=15,26=4,38=1/1,3;
 2/9=110,12=2,17=4,18=5,40=1/2;
 3/5=4,6=6,7=11,11=2,16=1,25=1,30=1,70=32201,71=1,72=151,74=-55,75=-5,124=31/1,2,3;
 4//1;
 5/5=2,32=2,38=5,53=151/2;
 6/7=2,8=2,9=2,10=2,28=1/1;
 7//1,2,3,16;
 1/14=-1,18=20,19=15,26=4/3(2);
 2/9=110,17=4/2;
 99//99;
 2/9=110,17=4/2;
 3/5=4,6=6,7=11,11=2,16=1,25=1,30=1,70=32205,71=1,72=151,74=-55,75=-5,124=31/1,2,3;
 4/5=5,16=3,69=1/1;
 5/5=2,32=2,38=5,53=151/2;
 7//1,2,3,16;
 1/14=-1,18=20,19=15,26=4/3(-5);
 2/9=110,17=4/2;
 6/7=2,8=2,9=2,10=2,19=2,28=1/1;
 99/9=1/99;
 ---------------------------------------
 CP19.M062X_6-311pGd_opt_Pentadecane_GD3
 ---------------------------------------
 Symbolic Z-matrix:
 Charge =  0 Multiplicity = 1
 C                    -6.32713   1.22943  -0.02226 
 N                    -5.05002   0.67596   0.02395 
 C                    -3.82922   1.34347  -0.02695 
 O                    -3.72675   2.54582  -0.16811 
 N                    -2.75413   0.50923   0.06992 
 C                    -1.40543   1.05663   0.12999 
 C                    -0.37653  -0.04615  -0.07179 
 C                     1.04533   0.50051  -0.01586 
 C                    -6.57297   2.60748  -0.02457 
 C                    -7.88184   3.06222  -0.05437 
 C                    -8.96875   2.18893  -0.08436 
 C                    -8.70908   0.82052  -0.08299 
 C                    -7.41277   0.34374  -0.05282 
 H                    -5.01941  -0.33408   0.01209 
 H                    -2.88743  -0.42203   0.43772 
 H                    -1.23895   1.56564   1.08654 
 H                    -1.31572   1.81011  -0.65414 
 H                    -0.55844  -0.53077  -1.03583 
 H                    -0.50532  -0.81357   0.70035 
 H                     1.20848   1.25245  -0.79202 
 H                     1.77982  -0.29332  -0.1632 
 H                     1.25201   0.96929   0.94963 
 H                    -5.75713   3.31267  -0.00792 
 Cl                   -8.12837   4.78632  -0.05314 
 C                    -10.38489   2.6844   -0.11811 
 H                    -9.53487   0.12074  -0.10654 
 H                    -7.23595  -0.72655  -0.05245 
 F                    -11.26066   1.66689  -0.14363 
 F                    -10.6957   3.42928   0.95457 
 F                    -10.64171   3.43709  -1.19945 
 

 GradGradGradGradGradGradGradGradGradGradGradGradGradGradGradGradGradGrad
 Berny optimization.
 Initialization pass.
                           ----------------------------
                           !    Initial Parameters    !
                           ! (Angstroms and Degrees)  !
 --------------------------                            --------------------------
 ! Name  Definition              Value          Derivative Info.                !
 --------------------------------------------------------------------------------
 ! R1    R(1,2)                  1.3927         estimate D2E/DX2                !
 ! R2    R(1,9)                  1.3998         estimate D2E/DX2                !
 ! R3    R(1,13)                 1.4014         estimate D2E/DX2                !
 ! R4    R(2,3)                  1.3923         estimate D2E/DX2                !
 ! R5    R(2,14)                 1.0106         estimate D2E/DX2                !
 ! R6    R(3,4)                  1.2149         estimate D2E/DX2                !
 ! R7    R(3,5)                  1.3642         estimate D2E/DX2                !
 ! R8    R(5,6)                  1.4568         estimate D2E/DX2                !
 ! R9    R(5,15)                 1.0101         estimate D2E/DX2                !
 ! R10   R(6,7)                  1.5217         estimate D2E/DX2                !
 ! R11   R(6,16)                 1.0963         estimate D2E/DX2                !
 ! R12   R(6,17)                 1.0912         estimate D2E/DX2                !
 ! R13   R(7,8)                  1.5244         estimate D2E/DX2                !
 ! R14   R(7,18)                 1.0942         estimate D2E/DX2                !
 ! R15   R(7,19)                 1.0962         estimate D2E/DX2                !
 ! R16   R(8,20)                 1.0929         estimate D2E/DX2                !
 ! R17   R(8,21)                 1.0915         estimate D2E/DX2                !
 ! R18   R(8,22)                 1.093          estimate D2E/DX2                !
 ! R19   R(9,10)                 1.3859         estimate D2E/DX2                !
 ! R20   R(9,23)                 1.0785         estimate D2E/DX2                !
 ! R21   R(10,11)                1.3946         estimate D2E/DX2                !
 ! R22   R(10,24)                1.7416         estimate D2E/DX2                !
 ! R23   R(11,12)                1.3928         estimate D2E/DX2                !
 ! R24   R(11,25)                1.5007         estimate D2E/DX2                !
 ! R25   R(12,13)                1.3815         estimate D2E/DX2                !
 ! R26   R(12,26)                1.0827         estimate D2E/DX2                !
 ! R27   R(13,27)                1.0848         estimate D2E/DX2                !
 ! R28   R(25,28)                1.3427         estimate D2E/DX2                !
 ! R29   R(25,29)                1.3424         estimate D2E/DX2                !
 ! R30   R(25,30)                1.3423         estimate D2E/DX2                !
 ! A1    A(2,1,9)              123.5288         estimate D2E/DX2                !
 ! A2    A(2,1,13)             117.3837         estimate D2E/DX2                !
 ! A3    A(9,1,13)             119.0836         estimate D2E/DX2                !
 ! A4    A(1,2,3)              127.7576         estimate D2E/DX2                !
 ! A5    A(1,2,14)             115.1255         estimate D2E/DX2                !
 ! A6    A(3,2,14)             116.8843         estimate D2E/DX2                !
 ! A7    A(2,3,4)              123.5497         estimate D2E/DX2                !
 ! A8    A(2,3,5)              113.2787         estimate D2E/DX2                !
 ! A9    A(4,3,5)              123.1586         estimate D2E/DX2                !
 ! A10   A(3,5,6)              120.1804         estimate D2E/DX2                !
 ! A11   A(3,5,15)             119.0547         estimate D2E/DX2                !
 ! A12   A(6,5,15)             116.9741         estimate D2E/DX2                !
 ! A13   A(5,6,7)              110.3779         estimate D2E/DX2                !
 ! A14   A(5,6,16)             110.5511         estimate D2E/DX2                !
 ! A15   A(5,6,17)             107.8153         estimate D2E/DX2                !
 ! A16   A(7,6,16)             110.4582         estimate D2E/DX2                !
 ! A17   A(7,6,17)             110.4598         estimate D2E/DX2                !
 ! A18   A(16,6,17)            107.0931         estimate D2E/DX2                !
 ! A19   A(6,7,8)              111.4655         estimate D2E/DX2                !
 ! A20   A(6,7,18)             108.9894         estimate D2E/DX2                !
 ! A21   A(6,7,19)             109.542          estimate D2E/DX2                !
 ! A22   A(8,7,18)             110.2564         estimate D2E/DX2                !
 ! A23   A(8,7,19)             109.5596         estimate D2E/DX2                !
 ! A24   A(18,7,19)            106.9172         estimate D2E/DX2                !
 ! A25   A(7,8,20)             111.0951         estimate D2E/DX2                !
 ! A26   A(7,8,21)             111.2173         estimate D2E/DX2                !
 ! A27   A(7,8,22)             111.2601         estimate D2E/DX2                !
 ! A28   A(20,8,21)            107.7019         estimate D2E/DX2                !
 ! A29   A(20,8,22)            107.6997         estimate D2E/DX2                !
 ! A30   A(21,8,22)            107.693          estimate D2E/DX2                !
 ! A31   A(1,9,10)             119.2688         estimate D2E/DX2                !
 ! A32   A(1,9,23)             120.7184         estimate D2E/DX2                !
 ! A33   A(10,9,23)            120.0122         estimate D2E/DX2                !
 ! A34   A(9,10,11)            122.0752         estimate D2E/DX2                !
 ! A35   A(9,10,24)            117.2888         estimate D2E/DX2                !
 ! A36   A(11,10,24)           120.636          estimate D2E/DX2                !
 ! A37   A(10,11,12)           118.0277         estimate D2E/DX2                !
 ! A38   A(10,11,25)           121.9513         estimate D2E/DX2                !
 ! A39   A(12,11,25)           120.021          estimate D2E/DX2                !
 ! A40   A(11,12,13)           120.9307         estimate D2E/DX2                !
 ! A41   A(11,12,26)           119.5247         estimate D2E/DX2                !
 ! A42   A(13,12,26)           119.5446         estimate D2E/DX2                !
 ! A43   A(1,13,12)            120.6139         estimate D2E/DX2                !
 ! A44   A(1,13,27)            119.8195         estimate D2E/DX2                !
 ! A45   A(12,13,27)           119.5666         estimate D2E/DX2                !
 ! A46   A(11,25,28)           111.4517         estimate D2E/DX2                !
 ! A47   A(11,25,29)           112.5641         estimate D2E/DX2                !
 ! A48   A(11,25,30)           112.5688         estimate D2E/DX2                !
 ! A49   A(28,25,29)           106.5383         estimate D2E/DX2                !
 ! A50   A(28,25,30)           106.5483         estimate D2E/DX2                !
 ! A51   A(29,25,30)           106.7545         estimate D2E/DX2                !
 ! D1    D(9,1,2,3)             -5.2741         estimate D2E/DX2                !
 ! D2    D(9,1,2,14)          -179.5119         estimate D2E/DX2                !
 ! D3    D(13,1,2,3)           175.4496         estimate D2E/DX2                !
 ! D4    D(13,1,2,14)            1.2118         estimate D2E/DX2                !
 ! D5    D(2,1,9,10)          -179.1415         estimate D2E/DX2                !
 ! D6    D(2,1,9,23)             1.1332         estimate D2E/DX2                !
 ! D7    D(13,1,9,10)            0.1231         estimate D2E/DX2                !
 ! D8    D(13,1,9,23)         -179.6022         estimate D2E/DX2                !
 ! D9    D(2,1,13,12)          179.2203         estimate D2E/DX2                !
 ! D10   D(2,1,13,27)           -0.7547         estimate D2E/DX2                !
 ! D11   D(9,1,13,12)           -0.0893         estimate D2E/DX2                !
 ! D12   D(9,1,13,27)          179.9357         estimate D2E/DX2                !
 ! D13   D(1,2,3,4)             -2.5854         estimate D2E/DX2                !
 ! D14   D(1,2,3,5)            178.6911         estimate D2E/DX2                !
 ! D15   D(14,2,3,4)           171.5652         estimate D2E/DX2                !
 ! D16   D(14,2,3,5)            -7.1583         estimate D2E/DX2                !
 ! D17   D(2,3,5,6)           -175.5879         estimate D2E/DX2                !
 ! D18   D(2,3,5,15)           -18.1687         estimate D2E/DX2                !
 ! D19   D(4,3,5,6)              5.6829         estimate D2E/DX2                !
 ! D20   D(4,3,5,15)           163.1021         estimate D2E/DX2                !
 ! D21   D(3,5,6,7)           -167.6351         estimate D2E/DX2                !
 ! D22   D(3,5,6,16)            69.854          estimate D2E/DX2                !
 ! D23   D(3,5,6,17)           -46.9019         estimate D2E/DX2                !
 ! D24   D(15,5,6,7)            34.4904         estimate D2E/DX2                !
 ! D25   D(15,5,6,16)          -88.0205         estimate D2E/DX2                !
 ! D26   D(15,5,6,17)          155.2236         estimate D2E/DX2                !
 ! D27   D(5,6,7,8)            179.9028         estimate D2E/DX2                !
 ! D28   D(5,6,7,18)            57.9817         estimate D2E/DX2                !
 ! D29   D(5,6,7,19)           -58.678          estimate D2E/DX2                !
 ! D30   D(16,6,7,8)           -57.5318         estimate D2E/DX2                !
 ! D31   D(16,6,7,18)         -179.4528         estimate D2E/DX2                !
 ! D32   D(16,6,7,19)           63.8875         estimate D2E/DX2                !
 ! D33   D(17,6,7,8)            60.7634         estimate D2E/DX2                !
 ! D34   D(17,6,7,18)          -61.1576         estimate D2E/DX2                !
 ! D35   D(17,6,7,19)         -177.8173         estimate D2E/DX2                !
 ! D36   D(6,7,8,20)           -59.9184         estimate D2E/DX2                !
 ! D37   D(6,7,8,21)          -179.8766         estimate D2E/DX2                !
 ! D38   D(6,7,8,22)            60.0656         estimate D2E/DX2                !
 ! D39   D(18,7,8,20)           61.267          estimate D2E/DX2                !
 ! D40   D(18,7,8,21)          -58.6911         estimate D2E/DX2                !
 ! D41   D(18,7,8,22)         -178.7489         estimate D2E/DX2                !
 ! D42   D(19,7,8,20)          178.6725         estimate D2E/DX2                !
 ! D43   D(19,7,8,21)           58.7144         estimate D2E/DX2                !
 ! D44   D(19,7,8,22)          -61.3435         estimate D2E/DX2                !
 ! D45   D(1,9,10,11)           -0.0996         estimate D2E/DX2                !
 ! D46   D(1,9,10,24)          179.9007         estimate D2E/DX2                !
 ! D47   D(23,9,10,11)         179.6276         estimate D2E/DX2                !
 ! D48   D(23,9,10,24)          -0.3721         estimate D2E/DX2                !
 ! D49   D(9,10,11,12)           0.0379         estimate D2E/DX2                !
 ! D50   D(9,10,11,25)        -179.9321         estimate D2E/DX2                !
 ! D51   D(24,10,11,12)       -179.9624         estimate D2E/DX2                !
 ! D52   D(24,10,11,25)          0.0675         estimate D2E/DX2                !
 ! D53   D(10,11,12,13)         -0.0015         estimate D2E/DX2                !
 ! D54   D(10,11,12,26)       -179.9612         estimate D2E/DX2                !
 ! D55   D(25,11,12,13)        179.9692         estimate D2E/DX2                !
 ! D56   D(25,11,12,26)          0.0095         estimate D2E/DX2                !
 ! D57   D(10,11,25,28)        179.9848         estimate D2E/DX2                !
 ! D58   D(10,11,25,29)        -60.3803         estimate D2E/DX2                !
 ! D59   D(10,11,25,30)         60.334          estimate D2E/DX2                !
 ! D60   D(12,11,25,28)          0.0154         estimate D2E/DX2                !
 ! D61   D(12,11,25,29)        119.6502         estimate D2E/DX2                !
 ! D62   D(12,11,25,30)       -119.6355         estimate D2E/DX2                !
 ! D63   D(11,12,13,1)           0.0283         estimate D2E/DX2                !
 ! D64   D(11,12,13,27)       -179.9967         estimate D2E/DX2                !
 ! D65   D(26,12,13,1)         179.988          estimate D2E/DX2                !
 ! D66   D(26,12,13,27)         -0.0369         estimate D2E/DX2                !
 --------------------------------------------------------------------------------
 Trust Radius=3.00D-01 FncErr=1.00D-07 GrdErr=1.00D-06
 Number of steps in this run=    157 maximum allowed number of steps=    180.
 GradGradGradGradGradGradGradGradGradGradGradGradGradGradGradGradGradGrad

                          Input orientation:                          
 ---------------------------------------------------------------------
 Center     Atomic      Atomic             Coordinates (Angstroms)
 Number     Number       Type             X           Y           Z
 ---------------------------------------------------------------------
      1          6           0       -6.327134    1.229433   -0.022256
      2          7           0       -5.050022    0.675957    0.023948
      3          6           0       -3.829219    1.343471   -0.026951
      4          8           0       -3.726752    2.545818   -0.168111
      5          7           0       -2.754131    0.509227    0.069922
      6          6           0       -1.405431    1.056626    0.129993
      7          6           0       -0.376533   -0.046148   -0.071794
      8          6           0        1.045327    0.500513   -0.015860
      9          6           0       -6.572974    2.607478   -0.024567
     10          6           0       -7.881835    3.062221   -0.054374
     11          6           0       -8.968746    2.188932   -0.084364
     12          6           0       -8.709084    0.820518   -0.082988
     13          6           0       -7.412767    0.343743   -0.052824
     14          1           0       -5.019413   -0.334078    0.012095
     15          1           0       -2.887425   -0.422026    0.437717
     16          1           0       -1.238951    1.565643    1.086544
     17          1           0       -1.315724    1.810107   -0.654144
     18          1           0       -0.558439   -0.530766   -1.035835
     19          1           0       -0.505319   -0.813572    0.700355
     20          1           0        1.208476    1.252446   -0.792023
     21          1           0        1.779819   -0.293318   -0.163197
     22          1           0        1.252009    0.969285    0.949635
     23          1           0       -5.757131    3.312668   -0.007920
     24         17           0       -8.128366    4.786317   -0.053138
     25          6           0      -10.384891    2.684402   -0.118108
     26          1           0       -9.534872    0.120741   -0.106545
     27          1           0       -7.235951   -0.726548   -0.052449
     28          9           0      -11.260664    1.666892   -0.143628
     29          9           0      -10.695702    3.429283    0.954567
     30          9           0      -10.641707    3.437087   -1.199451
 ---------------------------------------------------------------------
                    Distance matrix (angstroms):
                    1          2          3          4          5
     1  C    0.000000
     2  N    1.392654   0.000000
     3  C    2.500521   1.392310   0.000000
     4  O    2.918241   2.298763   1.214934   0.000000
     5  N    3.646031   2.302396   1.364244   2.269439   0.000000
     6  C    4.927089   3.665952   2.445743   2.774003   1.456793
     7  C    6.085985   4.729916   3.722109   4.236925   2.445710
     8  C    7.408411   6.098004   4.946908   5.194150   3.800437
     9  C    1.399804   2.460185   3.020912   2.850506   4.358342
    10  C    2.403589   3.703992   4.402108   4.188594   5.729448
    11  C    2.811158   4.202049   5.208919   5.254796   6.439460
    12  C    2.417558   3.663477   4.908126   5.273285   5.965044
    13  C    1.401421   2.387220   3.720476   4.295245   4.663190
    14  H    2.038598   1.010568   2.057245   3.161843   2.417852
    15  H    3.843239   2.460406   2.054232   3.143182   1.010085
    16  H    5.218437   4.055234   2.828201   2.953652   2.108390
    17  H    5.084358   3.961198   2.632258   2.567208   2.070164
    18  H    6.115839   4.770078   3.902386   4.500725   2.669335
    19  H    6.212050   4.830171   4.028663   4.734699   2.684102
    20  H    7.574859   6.337740   5.096272   5.139898   4.122812
    21  H    8.249929   6.900816   5.844566   6.195406   4.610329
    22  H    7.645630   6.376405   5.187737   5.340681   4.127313
    23  H    2.159856   2.730067   2.755893   2.176272   4.108936
    24  Cl   3.987081   5.135874   5.507862   4.940370   6.869574
    25  C    4.311788   5.702180   6.692028   6.659769   7.936954
    26  H    3.394979   4.520970   5.835741   6.294366   6.794152
    27  H    2.157017   2.598296   3.986408   4.799608   4.650680
    28  F    4.954374   6.291431   7.439395   7.585047   8.587601
    29  F    4.987776   6.349847   7.243106   7.113872   8.507519
    30  F    4.987490   6.355114   7.222740   7.048022   8.508673
                    6          7          8          9         10
     6  C    0.000000
     7  C    1.521663   0.000000
     8  C    2.517290   1.524353   0.000000
     9  C    5.397456   6.740908   7.904295   0.000000
    10  C    6.782346   8.123535   9.287522   1.385929   0.000000
    11  C    7.650608   8.878168  10.155644   2.432793   1.394600
    12  C    7.310572   8.377508   9.759890   2.785607   2.389642
    13  C    6.052248   7.047054   8.459627   2.414653   2.758651
    14  H    3.874123   4.652556   6.121961   3.326807   4.442153
    15  H    2.115990   2.589492   4.064893   4.793210   6.109522
    16  H    1.096269   2.164113   2.750949   5.547232   6.904299
    17  H    1.091170   2.160300   2.774348   5.354516   6.711284
    18  H    2.143913   1.094221   2.162395   6.858999   8.216140
    19  H    2.152477   1.096239   2.155060   7.003252   8.366862
    20  H    2.778663   2.171941   1.092909   7.935746   9.298020
    21  H    3.471906   2.172396   1.091492   8.843245  10.228346
    22  H    2.782342   2.174068   1.092998   8.053763   9.424199
    23  H    4.903677   6.343230   7.360823   1.078503   2.139918
    24  Cl   7.690383   9.134768  10.125520   2.677200   1.741633
    25  C    9.129180  10.374261  11.637428   3.813841   2.532212
    26  H    8.186552   9.159925  10.587401   3.868258   3.374545
    27  H    6.099833   6.893108   8.371773   3.399419   3.843428
    28  F    9.877901  11.018348  12.361804   4.782606   3.656692
    29  F    9.623854  10.936969  12.139654   4.316359   3.011734
    30  F    9.630307  10.898547  12.108308   4.315460   3.011414
                   11         12         13         14         15
    11  C    0.000000
    12  C    1.392832   0.000000
    13  C    2.413874   1.381544   0.000000
    14  H    4.687441   3.867273   2.488332   0.000000
    15  H    6.638684   5.975513   4.615815   2.175836   0.000000
    16  H    7.842783   7.597757   6.395874   4.365235   2.662569
    17  H    7.683548   7.481128   6.299662   4.331134   2.940208
    18  H    8.890181   8.316664   6.979462   4.586626   2.758144
    19  H    9.014456   8.401526   7.044111   4.591369   2.428316
    20  H   10.244688   9.952250   8.700459   6.476903   4.592660
    21  H   11.031746  10.548183   9.215296   6.801614   4.707530
    22  H   10.345072  10.015579   8.744974   6.473676   4.396900
    23  H    3.403395   3.863997   3.399657   3.720671   4.730935
    24  Cl   2.730133   4.008202   4.499839   5.990684   7.405082
    25  C    1.500699   2.506716   3.783711   6.157640   8.134546
    26  H    2.144389   1.082667   2.134466   4.539857   6.691738
    27  H    3.391698   2.136461   1.084798   2.251941   4.386647
    28  F    2.351367   2.688975   4.070047   6.556016   8.649432
    29  F    2.366480   3.439306   4.616607   6.875420   8.721749
    30  F    2.366455   3.439179   4.616231   6.877478   8.814871
                   16         17         18         19         20
    16  H    0.000000
    17  H    1.759446   0.000000
    18  H    3.059824   2.489751   0.000000
    19  H    2.519528   3.061881   1.759874   0.000000
    20  H    3.101130   2.588741   2.522157   3.071272   0.000000
    21  H    3.759064   3.774628   2.507056   2.497647   1.763871
    22  H    2.565009   3.142028   3.077331   2.515735   1.765063
    23  H    4.966277   4.733011   6.546373   6.716327   7.306095
    24  Cl   7.689971   7.458628   9.302734   9.488802  10.010535
    25  C    9.292526   9.126967  10.379725  10.512453  11.700890
    26  H    8.504911   8.408818   9.047894   9.113553  10.824516
    27  H    6.520388   6.468829   6.752374   6.773160   8.704696
    28  F   10.097441   9.959065  10.961905  11.069890  12.492864
    29  F    9.639539   9.653687  11.063806  11.041302  12.226964
    30  F    9.855957   9.482530  10.837108  11.154538  12.056761
                   21         22         23         24         25
    21  H    0.000000
    22  H    1.763844   0.000000
    23  H    8.356607   7.452275   0.000000
    24  Cl  11.134943  10.176774   2.792210   0.000000
    25  C   12.523939  11.810976   4.671512   3.084506   0.000000
    26  H   11.322407  10.871630   4.946660   4.873265   2.700930
    27  H    9.026853   8.713524   4.301646   5.584629   4.642705
    28  F   13.187002  12.579701   5.745944   4.421572   1.342742
    29  F   13.066973  12.198337   5.032838   3.073797   1.342417
    30  F   13.010921  12.335684   5.029344   3.074303   1.342308
                   26         27         28         29         30
    26  H    0.000000
    27  H    2.450686   0.000000
    28  F    2.317395   4.683501   0.000000
    29  F    3.663323   5.500444   2.152031   0.000000
    30  F    3.663015   5.500058   2.152083   2.154709   0.000000
 Stoichiometry    C11H12ClF3N2O
 Framework group  C1[X(C11H12ClF3N2O)]
 Deg. of freedom    84
 Full point group                 C1      NOp   1
 Largest Abelian subgroup         C1      NOp   1
 Largest concise Abelian subgroup C1      NOp   1
                         Standard orientation:                         
 ---------------------------------------------------------------------
 Center     Atomic      Atomic             Coordinates (Angstroms)
 Number     Number       Type             X           Y           Z
 ---------------------------------------------------------------------
      1          6           0       -0.191294   -0.742935   -0.023472
      2          7           0       -1.567124   -0.956782   -0.052577
      3          6           0       -2.579615   -0.002947    0.007328
      4          8           0       -2.374088    1.186855    0.142211
      5          7           0       -3.831314   -0.539580   -0.072889
      6          6           0       -4.999158    0.329898   -0.121837
      7          6           0       -6.270270   -0.477272    0.097732
      8          6           0       -7.509044    0.409946    0.053710
      9          6           0        0.393893    0.528651   -0.032242
     10          6           0        1.775369    0.638897   -0.019268
     11          6           0        2.607406   -0.480059    0.004406
     12          6           0        2.011283   -1.738837    0.014201
     13          6           0        0.636389   -1.873567    0.000870
     14          1           0       -1.851134   -1.926446   -0.034208
     15          1           0       -3.941398   -1.475543   -0.436381
     16          1           0       -5.043389    0.861356   -1.079647
     17          1           0       -4.886730    1.084187    0.658586
     18          1           0       -6.204874   -0.988983    1.062716
     19          1           0       -6.348254   -1.254865   -0.671038
     20          1           0       -7.468167    1.181221    0.826958
     21          1           0       -8.418068   -0.172641    0.213781
     22          1           0       -7.602425    0.912562   -0.912365
     23          1           0       -0.218048    1.416653   -0.044454
     24         17           0        2.448388    2.245172   -0.033713
     25          6           0        4.103007   -0.357430    0.019917
     26          1           0        2.634293   -2.624086    0.033182
     27          1           0        0.195571   -2.864728    0.008951
     28          9           0        4.694339   -1.562744    0.042271
     29          9           0        4.578681    0.281596   -1.060576
     30          9           0        4.554092    0.309703    1.093809
 ---------------------------------------------------------------------
 Rotational constants (GHZ):      1.1261655      0.1253395      0.1153582
 Standard basis: 6-311+G(d) (5D, 7F)
 There are   458 symmetry adapted cartesian basis functions of A   symmetry.
 There are   440 symmetry adapted basis functions of A   symmetry.
   440 basis functions,   725 primitive gaussians,   458 cartesian basis functions
    72 alpha electrons       72 beta electrons
       nuclear repulsion energy      1432.5020605484 Hartrees.
 NAtoms=   30 NActive=   30 NUniq=   30 SFac= 1.00D+00 NAtFMM=   60 NAOKFM=F Big=F
 Integral buffers will be    131072 words long.
 Raffenetti 2 integral format.
 Two-electron integral symmetry is turned on.
 Nuclear repulsion after empirical dispersion term =     1432.5007768096 Hartrees.
 ------------------------------------------------------------------------------
 Polarizable Continuum Model (PCM)
 =================================
 Model                : PCM (using non-symmetric T matrix).
 Atomic radii         : SMD-Coulomb.
 Polarization charges : Total charges.
 Charge compensation  : None.
 Solution method      : On-the-fly selection.
 Cavity type          : VdW (van der Waals Surface) (Alpha=1.000).
 Cavity algorithm     : GePol (No added spheres)
                        Default sphere list used, NSphG=   30.
                        Lebedev-Laikov grids with approx.  5.0 points / Ang**2.
                        Smoothing algorithm: York/Karplus (Gamma=1.0000).
                        Polarization charges: spherical gaussians, with
                                              point-specific exponents (IZeta= 3).
                        Self-potential: point-specific (ISelfS= 7).
                        Self-field    : sphere-specific E.n sum rule (ISelfD= 2).
 1st derivatives      : Analytical E(r).r(x)/FMM algorithm (CHGder, D1EAlg=3).
                        Cavity 1st derivative terms included.
 Solvent              : n-Pentadecane, Eps=   2.033300 Eps(inf)=   2.049192
 ------------------------------------------------------------------------------
 ------------------------------------------------------------------------------
 Atomic radii for non-electrostatic terms: SMD-CDS.
 ------------------------------------------------------------------------------
 Nuclear repulsion after PCM non-electrostatic terms =     1432.4934122635 Hartrees.
 One-electron integrals computed using PRISM.
 NBasis=   440 RedAO= T EigKep=  1.97D-06  NBF=   440
 NBsUse=   438 1.00D-06 EigRej=  8.26D-07 NBFU=   438
 ExpMin= 4.38D-02 ExpMax= 1.06D+05 ExpMxC= 3.62D+03 IAcc=3 IRadAn=         5 AccDes= 0.00D+00
 Harris functional with IExCor= 1009 and IRadAn=       5 diagonalized for initial guess.
 HarFok:  IExCor= 1009 AccDes= 0.00D+00 IRadAn=         5 IDoV= 1 UseB2=F ITyADJ=14
 ICtDFT=  3500011 ScaDFX=  1.000000  1.000000  1.000000  1.000000
 FoFCou: FMM=F IPFlag=           0 FMFlag=      100000 FMFlg1=           0
         NFxFlg=           0 DoJE=T BraDBF=F KetDBF=T FulRan=T
         wScrn=  0.000000 ICntrl=     500 IOpCl=  0 I1Cent=   200000004 NGrid=           0
         NMat0=    1 NMatS0=      1 NMatT0=    0 NMatD0=    1 NMtDS0=    0 NMtDT0=    0
 Petite list used in FoFCou.
 Requested convergence on RMS density matrix=1.00D-08 within 128 cycles.
 Requested convergence on MAX density matrix=1.00D-06.
 Requested convergence on             energy=1.00D-06.
 No special actions if energy rises.
 Inv3:  Mode=1 IEnd=    17904747.
 Iteration    1 A*A^-1 deviation from unit magnitude is 4.66D-15 for    607.
 Iteration    1 A*A^-1 deviation from orthogonality  is 2.48D-15 for   2435    787.
 Iteration    1 A^-1*A deviation from unit magnitude is 4.88D-15 for   2418.
 Iteration    1 A^-1*A deviation from orthogonality  is 1.61D-15 for   1027     99.
 Error on total polarization charges =  0.02036
 SCF Done:  E(RM062X) =  -1370.81293802     A.U. after   16 cycles
            NFock= 16  Conv=0.44D-08     -V/T= 2.0029
 SMD-CDS (non-electrostatic) energy       (kcal/mol) =      -4.62
 (included in total energy above)

 **********************************************************************

            Population analysis using the SCF density.

 **********************************************************************

 Orbital symmetries:
       Occupied  (A) (A) (A) (A) (A) (A) (A) (A) (A) (A) (A) (A)
                 (A) (A) (A) (A) (A) (A) (A) (A) (A) (A) (A) (A)
                 (A) (A) (A) (A) (A) (A) (A) (A) (A) (A) (A) (A)
                 (A) (A) (A) (A) (A) (A) (A) (A) (A) (A) (A) (A)
                 (A) (A) (A) (A) (A) (A) (A) (A) (A) (A) (A) (A)
                 (A) (A) (A) (A) (A) (A) (A) (A) (A) (A) (A) (A)
       Virtual   (A) (A) (A) (A) (A) (A) (A) (A) (A) (A) (A) (A)
                 (A) (A) (A) (A) (A) (A) (A) (A) (A) (A) (A) (A)
                 (A) (A) (A) (A) (A) (A) (A) (A) (A) (A) (A) (A)
                 (A) (A) (A) (A) (A) (A) (A) (A) (A) (A) (A) (A)
                 (A) (A) (A) (A) (A) (A) (A) (A) (A) (A) (A) (A)
                 (A) (A) (A) (A) (A) (A) (A) (A) (A) (A) (A) (A)
                 (A) (A) (A) (A) (A) (A) (A) (A) (A) (A) (A) (A)
                 (A) (A) (A) (A) (A) (A) (A) (A) (A) (A) (A) (A)
                 (A) (A) (A) (A) (A) (A) (A) (A) (A) (A) (A) (A)
                 (A) (A) (A) (A) (A) (A) (A) (A) (A) (A) (A) (A)
                 (A) (A) (A) (A) (A) (A) (A) (A) (A) (A) (A) (A)
                 (A) (A) (A) (A) (A) (A) (A) (A) (A) (A) (A) (A)
                 (A) (A) (A) (A) (A) (A) (A) (A) (A) (A) (A) (A)
                 (A) (A) (A) (A) (A) (A) (A) (A) (A) (A) (A) (A)
                 (A) (A) (A) (A) (A) (A) (A) (A) (A) (A) (A) (A)
                 (A) (A) (A) (A) (A) (A) (A) (A) (A) (A) (A) (A)
                 (A) (A) (A) (A) (A) (A) (A) (A) (A) (A) (A) (A)
                 (A) (A) (A) (A) (A) (A) (A) (A) (A) (A) (A) (A)
                 (A) (A) (A) (A) (A) (A) (A) (A) (A) (A) (A) (A)
                 (A) (A) (A) (A) (A) (A) (A) (A) (A) (A) (A) (A)
                 (A) (A) (A) (A) (A) (A) (A) (A) (A) (A) (A) (A)
                 (A) (A) (A) (A) (A) (A) (A) (A) (A) (A) (A) (A)
                 (A) (A) (A) (A) (A) (A) (A) (A) (A) (A) (A) (A)
                 (A) (A) (A) (A) (A) (A) (A) (A) (A) (A) (A) (A)
                 (A) (A) (A) (A) (A) (A) (A) (A) (A) (A) (A) (A)
                 (A) (A) (A) (A) (A) (A) (A) (A) (A) (A) (A) (A)
                 (A) (A) (A) (A) (A) (A) (A) (A) (A) (A) (A) (A)
                 (A) (A) (A) (A) (A) (A) (A) (A) (A) (A) (A) (A)
                 (A) (A) (A) (A) (A) (A) (A) (A) (A) (A) (A) (A)
                 (A) (A) (A) (A) (A) (A) (A) (A) (A) (A) (A) (A)
                 (A) (A) (A) (A) (A) (A)
 The electronic state is 1-A.
 Alpha  occ. eigenvalues -- -102.68276 -25.27988 -25.27420 -25.27414 -19.59983
 Alpha  occ. eigenvalues --  -14.80056 -14.77810 -10.80595 -10.68778 -10.62844
 Alpha  occ. eigenvalues --  -10.62113 -10.58052 -10.57499 -10.57393 -10.56418
 Alpha  occ. eigenvalues --  -10.56055 -10.54359 -10.52922  -9.82562  -7.55080
 Alpha  occ. eigenvalues --   -7.54396  -7.54375  -1.47100  -1.37732  -1.37331
 Alpha  occ. eigenvalues --   -1.19381  -1.07726  -1.04299  -1.01263  -0.95068
 Alpha  occ. eigenvalues --   -0.90277  -0.88419  -0.85291  -0.81753  -0.78480
 Alpha  occ. eigenvalues --   -0.74223  -0.72622  -0.69740  -0.69513  -0.69388
 Alpha  occ. eigenvalues --   -0.68263  -0.66885  -0.64418  -0.61927  -0.57695
 Alpha  occ. eigenvalues --   -0.57655  -0.56815  -0.55940  -0.55074  -0.54429
 Alpha  occ. eigenvalues --   -0.53569  -0.53236  -0.52973  -0.51920  -0.51282
 Alpha  occ. eigenvalues --   -0.51061  -0.50305  -0.49102  -0.47753  -0.46377
 Alpha  occ. eigenvalues --   -0.45792  -0.43911  -0.43285  -0.42787  -0.41178
 Alpha  occ. eigenvalues --   -0.40455  -0.38658  -0.38520  -0.36120  -0.33464
 Alpha  occ. eigenvalues --   -0.31786  -0.29087
 Alpha virt. eigenvalues --   -0.00881  -0.00385  -0.00108   0.01702   0.02262
 Alpha virt. eigenvalues --    0.02628   0.03188   0.03490   0.04185   0.04937
 Alpha virt. eigenvalues --    0.05176   0.05528   0.06149   0.06416   0.06898
 Alpha virt. eigenvalues --    0.07136   0.07283   0.07858   0.08572   0.08750
 Alpha virt. eigenvalues --    0.08885   0.09209   0.09749   0.10521   0.11142
 Alpha virt. eigenvalues --    0.11640   0.11876   0.12080   0.12629   0.13101
 Alpha virt. eigenvalues --    0.13620   0.14714   0.14939   0.15159   0.15704
 Alpha virt. eigenvalues --    0.16342   0.16780   0.17826   0.18042   0.18281
 Alpha virt. eigenvalues --    0.19035   0.19494   0.19611   0.19778   0.20351
 Alpha virt. eigenvalues --    0.20618   0.20872   0.21428   0.21688   0.22005
 Alpha virt. eigenvalues --    0.22469   0.22600   0.23167   0.23417   0.23794
 Alpha virt. eigenvalues --    0.24119   0.24209   0.24760   0.25024   0.25875
 Alpha virt. eigenvalues --    0.26225   0.26715   0.27123   0.27362   0.27843
 Alpha virt. eigenvalues --    0.28323   0.28543   0.28630   0.29413   0.29849
 Alpha virt. eigenvalues --    0.30377   0.30453   0.30869   0.31112   0.31600
 Alpha virt. eigenvalues --    0.31954   0.32681   0.33098   0.33719   0.34818
 Alpha virt. eigenvalues --    0.35265   0.35815   0.36594   0.36694   0.37082
 Alpha virt. eigenvalues --    0.37707   0.38205   0.38805   0.39356   0.40270
 Alpha virt. eigenvalues --    0.40603   0.41667   0.43344   0.43412   0.43721
 Alpha virt. eigenvalues --    0.44605   0.45254   0.46152   0.47085   0.47332
 Alpha virt. eigenvalues --    0.48257   0.49580   0.50124   0.50893   0.51298
 Alpha virt. eigenvalues --    0.51789   0.52276   0.52713   0.54721   0.56400
 Alpha virt. eigenvalues --    0.57041   0.58183   0.59877   0.60492   0.60892
 Alpha virt. eigenvalues --    0.61299   0.62023   0.62548   0.63498   0.64243
 Alpha virt. eigenvalues --    0.65741   0.66584   0.67463   0.67495   0.68454
 Alpha virt. eigenvalues --    0.68898   0.70094   0.70617   0.71049   0.71968
 Alpha virt. eigenvalues --    0.72351   0.72806   0.72976   0.73451   0.74311
 Alpha virt. eigenvalues --    0.74532   0.75698   0.76537   0.77017   0.77612
 Alpha virt. eigenvalues --    0.78418   0.80069   0.80549   0.82404   0.83925
 Alpha virt. eigenvalues --    0.84500   0.86792   0.86880   0.89286   0.89857
 Alpha virt. eigenvalues --    0.91195   0.92437   0.93864   0.94693   0.94889
 Alpha virt. eigenvalues --    0.95117   0.96606   0.96824   0.96925   0.97474
 Alpha virt. eigenvalues --    0.99187   1.01771   1.02927   1.04780   1.04948
 Alpha virt. eigenvalues --    1.06243   1.06752   1.07997   1.09980   1.10961
 Alpha virt. eigenvalues --    1.11491   1.14068   1.15770   1.18511   1.20795
 Alpha virt. eigenvalues --    1.22134   1.23578   1.24281   1.24821   1.25975
 Alpha virt. eigenvalues --    1.26981   1.29430   1.30794   1.33944   1.34806
 Alpha virt. eigenvalues --    1.36124   1.38859   1.39908   1.43413   1.44523
 Alpha virt. eigenvalues --    1.45327   1.45763   1.47041   1.48675   1.49545
 Alpha virt. eigenvalues --    1.50196   1.51839   1.53621   1.53713   1.54292
 Alpha virt. eigenvalues --    1.54837   1.57450   1.57707   1.58103   1.58766
 Alpha virt. eigenvalues --    1.60346   1.61431   1.61672   1.62233   1.63831
 Alpha virt. eigenvalues --    1.65892   1.67993   1.72114   1.75303   1.75599
 Alpha virt. eigenvalues --    1.76413   1.78299   1.78692   1.79738   1.80391
 Alpha virt. eigenvalues --    1.82493   1.83346   1.84567   1.85277   1.88004
 Alpha virt. eigenvalues --    1.89237   1.92404   1.92519   1.94713   1.95474
 Alpha virt. eigenvalues --    1.97411   1.98961   1.99751   2.04749   2.06272
 Alpha virt. eigenvalues --    2.08549   2.08708   2.10839   2.13085   2.15167
 Alpha virt. eigenvalues --    2.19606   2.21490   2.23058   2.25899   2.29962
 Alpha virt. eigenvalues --    2.31975   2.33132   2.34135   2.35192   2.38208
 Alpha virt. eigenvalues --    2.40132   2.41379   2.45912   2.47769   2.52129
 Alpha virt. eigenvalues --    2.54543   2.54743   2.55886   2.57694   2.57990
 Alpha virt. eigenvalues --    2.59830   2.61862   2.62489   2.64823   2.67077
 Alpha virt. eigenvalues --    2.70724   2.70860   2.76697   2.81538   2.82171
 Alpha virt. eigenvalues --    2.84319   2.84570   2.86095   2.89193   2.94885
 Alpha virt. eigenvalues --    2.95145   2.96884   3.00036   3.01349   3.01795
 Alpha virt. eigenvalues --    3.04853   3.05857   3.10097   3.11590   3.12134
 Alpha virt. eigenvalues --    3.17444   3.21103   3.24059   3.25184   3.27689
 Alpha virt. eigenvalues --    3.28646   3.31128   3.35377   3.39646   3.40354
 Alpha virt. eigenvalues --    3.42487   3.43618   3.44625   3.50431   3.57276
 Alpha virt. eigenvalues --    3.65785   3.66734   3.70324   3.77546   3.78565
 Alpha virt. eigenvalues --    3.80591   3.82483   3.84334   3.84728   3.86901
 Alpha virt. eigenvalues --    3.87519   3.88650   3.97273   3.98025   4.00085
 Alpha virt. eigenvalues --    4.01310   4.01543   4.02030   4.05471   4.06274
 Alpha virt. eigenvalues --    4.13354   4.23168   4.27576   4.32181   4.53869
 Alpha virt. eigenvalues --    4.58113   4.76898   4.81381   4.89059   4.98567
 Alpha virt. eigenvalues --    5.01806   5.18028   5.20461   5.42205   5.90193
 Alpha virt. eigenvalues --    6.44883   6.48578   6.50058   6.52895   6.55734
 Alpha virt. eigenvalues --    6.57924   6.64114   6.87489   6.90841  10.00207
 Alpha virt. eigenvalues --   23.44322  23.58118  23.66082  23.73472  23.80607
 Alpha virt. eigenvalues --   23.90672  23.93384  23.97602  24.08287  24.12005
 Alpha virt. eigenvalues --   24.19958  25.96134  26.32585  26.80219  35.58637
 Alpha virt. eigenvalues --   35.68930  50.14096  66.89015  66.91494  66.97371
 Alpha virt. eigenvalues --  216.11039
          Condensed to atoms (all electrons):
               1          2          3          4          5          6
     1  C   17.125561   0.114210  -0.969424  -0.226232  -0.340864  -0.624442
     2  N    0.114210   7.969448   0.338758  -0.072935  -0.692044  -0.439136
     3  C   -0.969424   0.338758   8.302253   0.610817   0.047227  -1.109950
     4  O   -0.226232  -0.072935   0.610817   8.089943  -0.187620  -0.120977
     5  N   -0.340864  -0.692044   0.047227  -0.187620   7.848822   0.656722
     6  C   -0.624442  -0.439136  -1.109950  -0.120977   0.656722   8.340946
     7  C    0.004654   0.030203   0.248740   0.013164  -0.158507  -0.843480
     8  C   -0.013814  -0.009209  -0.207019  -0.001547   0.005919   0.359664
     9  C   -0.829673  -0.217652   0.364448   0.302077   0.114405   0.025494
    10  C   -1.871751   0.103489   0.880429   0.028735   0.059601   0.041719
    11  C   -1.728425  -0.120957  -1.232032  -0.011870  -0.000800  -0.085017
    12  C    0.130186   0.096293  -0.183754   0.002912  -0.031826  -0.003981
    13  C   -2.118371  -0.009881  -1.334964  -0.056263  -0.198772  -0.195583
    14  H   -0.026986   0.225735  -0.038815  -0.002211   0.073040   0.020946
    15  H   -0.034311   0.094596   0.039198  -0.002047   0.225262  -0.068941
    16  H    0.008323   0.004662   0.066214  -0.003348  -0.088978   0.384314
    17  H    0.002354   0.013603   0.046381   0.000847  -0.048141   0.346904
    18  H    0.005049  -0.000822   0.034766  -0.000048   0.002645  -0.095067
    19  H   -0.004576  -0.000223  -0.023741  -0.000254   0.003048  -0.051144
    20  H   -0.000335  -0.000061  -0.010070  -0.000091   0.000146  -0.047354
    21  H    0.000047  -0.000009   0.003331   0.000021  -0.001356   0.070745
    22  H    0.000237   0.000026   0.010368  -0.000019   0.000145  -0.040111
    23  H   -0.001076  -0.024790   0.062790   0.003349   0.003568   0.006150
    24  Cl  -0.162343  -0.001399   0.030866   0.000442   0.002782   0.003486
    25  C   -1.875707   0.003371  -0.150711   0.000839   0.008751  -0.001902
    26  H    0.041524  -0.002745   0.003288  -0.000018  -0.000073   0.000026
    27  H    0.045697  -0.020832  -0.012054   0.000012  -0.000137  -0.000537
    28  F    0.020178  -0.000174  -0.000747   0.000002   0.000001  -0.000006
    29  F    0.012991   0.000007  -0.000563  -0.000004   0.000001  -0.000001
    30  F    0.029922  -0.000023   0.000309  -0.000000   0.000003   0.000004
               7          8          9         10         11         12
     1  C    0.004654  -0.013814  -0.829673  -1.871751  -1.728425   0.130186
     2  N    0.030203  -0.009209  -0.217652   0.103489  -0.120957   0.096293
     3  C    0.248740  -0.207019   0.364448   0.880429  -1.232032  -0.183754
     4  O    0.013164  -0.001547   0.302077   0.028735  -0.011870   0.002912
     5  N   -0.158507   0.005919   0.114405   0.059601  -0.000800  -0.031826
     6  C   -0.843480   0.359664   0.025494   0.041719  -0.085017  -0.003981
     7  C    6.269281  -0.194121  -0.004402  -0.003814   0.000828   0.001092
     8  C   -0.194121   6.064424  -0.003732   0.000047  -0.000580  -0.000007
     9  C   -0.004402  -0.003732  10.894568   3.781007  -3.932244  -1.148630
    10  C   -0.003814   0.000047   3.781007  25.014037  -9.806660  -2.398503
    11  C    0.000828  -0.000580  -3.932244  -9.806660  30.615997  -4.050158
    12  C    0.001092  -0.000007  -1.148630  -2.398503  -4.050158  13.493713
    13  C    0.015300  -0.001778  -2.863058  -6.272023   1.890592  -0.232655
    14  H   -0.002728   0.000102   0.076113   0.030150   0.010186  -0.006751
    15  H    0.003256   0.005565   0.005769  -0.000059  -0.001236   0.001192
    16  H   -0.062547  -0.005509   0.001753   0.000596   0.000231  -0.000099
    17  H    0.002827  -0.023821  -0.004850  -0.000299  -0.000023   0.000190
    18  H    0.450422  -0.055807   0.000467   0.000019   0.000043  -0.000041
    19  H    0.449837  -0.031894  -0.000227  -0.000002  -0.000030   0.000042
    20  H    0.008850   0.394270  -0.000081  -0.000004  -0.000002   0.000001
    21  H   -0.113270   0.390994   0.000026   0.000001   0.000000  -0.000000
    22  H    0.012880   0.362627   0.000079   0.000002   0.000001  -0.000001
    23  H   -0.000377   0.000050   0.355424  -0.062082   0.024450  -0.025314
    24  Cl  -0.000175   0.000025   0.567430  -1.221511  -0.521679   0.315222
    25  C   -0.000162  -0.000010  -1.235893  -2.816689  -4.159921   0.046173
    26  H    0.000000  -0.000000  -0.008029  -0.017056   0.140671   0.264406
    27  H    0.000008   0.000002  -0.009063   0.000173   0.028741  -0.006774
    28  F    0.000000  -0.000000  -0.005946  -0.062768  -0.195296   0.054699
    29  F   -0.000000  -0.000000   0.006523  -0.093569   0.121511  -0.011194
    30  F    0.000000   0.000000   0.032999  -0.061425   0.101774  -0.015913
              13         14         15         16         17         18
     1  C   -2.118371  -0.026986  -0.034311   0.008323   0.002354   0.005049
     2  N   -0.009881   0.225735   0.094596   0.004662   0.013603  -0.000822
     3  C   -1.334964  -0.038815   0.039198   0.066214   0.046381   0.034766
     4  O   -0.056263  -0.002211  -0.002047  -0.003348   0.000847  -0.000048
     5  N   -0.198772   0.073040   0.225262  -0.088978  -0.048141   0.002645
     6  C   -0.195583   0.020946  -0.068941   0.384314   0.346904  -0.095067
     7  C    0.015300  -0.002728   0.003256  -0.062547   0.002827   0.450422
     8  C   -0.001778   0.000102   0.005565  -0.005509  -0.023821  -0.055807
     9  C   -2.863058   0.076113   0.005769   0.001753  -0.004850   0.000467
    10  C   -6.272023   0.030150  -0.000059   0.000596  -0.000299   0.000019
    11  C    1.890592   0.010186  -0.001236   0.000231  -0.000023   0.000043
    12  C   -0.232655  -0.006751   0.001192  -0.000099   0.000190  -0.000041
    13  C   16.316782  -0.089461   0.004999   0.000044   0.002192  -0.000250
    14  H   -0.089461   0.341496   0.001168   0.000220  -0.000020   0.000005
    15  H    0.004999   0.001168   0.364564   0.001801   0.002260  -0.000963
    16  H    0.000044   0.000220   0.001801   0.460802  -0.037390   0.006091
    17  H    0.002192  -0.000020   0.002260  -0.037390   0.423145  -0.007752
    18  H   -0.000250   0.000005  -0.000963   0.006091  -0.007752   0.444454
    19  H    0.000238   0.000049   0.003554  -0.008933   0.004944  -0.043970
    20  H    0.000019   0.000000  -0.000020  -0.000806   0.003389  -0.008383
    21  H   -0.000007   0.000000  -0.000020  -0.000096  -0.000210  -0.003384
    22  H   -0.000012  -0.000000   0.000031   0.003279  -0.000148   0.005931
    23  H   -0.026143   0.000140  -0.000031   0.000005  -0.000014   0.000000
    24  Cl   0.248949   0.000164   0.000001  -0.000002  -0.000001  -0.000000
    25  C    0.785718   0.002694  -0.000103   0.000003  -0.000008   0.000001
    26  H   -0.094838   0.000013   0.000000   0.000000   0.000000  -0.000000
    27  H    0.274806   0.007731   0.000008  -0.000000   0.000000   0.000000
    28  F    0.125204  -0.000001  -0.000000   0.000000   0.000000   0.000000
    29  F   -0.003693   0.000002  -0.000000  -0.000000   0.000000  -0.000000
    30  F   -0.014247   0.000001   0.000000   0.000000  -0.000000   0.000000
              19         20         21         22         23         24
     1  C   -0.004576  -0.000335   0.000047   0.000237  -0.001076  -0.162343
     2  N   -0.000223  -0.000061  -0.000009   0.000026  -0.024790  -0.001399
     3  C   -0.023741  -0.010070   0.003331   0.010368   0.062790   0.030866
     4  O   -0.000254  -0.000091   0.000021  -0.000019   0.003349   0.000442
     5  N    0.003048   0.000146  -0.001356   0.000145   0.003568   0.002782
     6  C   -0.051144  -0.047354   0.070745  -0.040111   0.006150   0.003486
     7  C    0.449837   0.008850  -0.113270   0.012880  -0.000377  -0.000175
     8  C   -0.031894   0.394270   0.390994   0.362627   0.000050   0.000025
     9  C   -0.000227  -0.000081   0.000026   0.000079   0.355424   0.567430
    10  C   -0.000002  -0.000004   0.000001   0.000002  -0.062082  -1.221511
    11  C   -0.000030  -0.000002   0.000000   0.000001   0.024450  -0.521679
    12  C    0.000042   0.000001  -0.000000  -0.000001  -0.025314   0.315222
    13  C    0.000238   0.000019  -0.000007  -0.000012  -0.026143   0.248949
    14  H    0.000049   0.000000   0.000000  -0.000000   0.000140   0.000164
    15  H    0.003554  -0.000020  -0.000020   0.000031  -0.000031   0.000001
    16  H   -0.008933  -0.000806  -0.000096   0.003279   0.000005  -0.000002
    17  H    0.004944   0.003389  -0.000210  -0.000148  -0.000014  -0.000001
    18  H   -0.043970  -0.008383  -0.003384   0.005931   0.000000  -0.000000
    19  H    0.466553   0.006385  -0.003385  -0.008290  -0.000000   0.000000
    20  H    0.006385   0.446722  -0.023809  -0.035486  -0.000000   0.000000
    21  H   -0.003385  -0.023809   0.432640  -0.025519   0.000000   0.000000
    22  H   -0.008290  -0.035486  -0.025519   0.449487   0.000000  -0.000000
    23  H   -0.000000  -0.000000   0.000000   0.000000   0.343366  -0.009958
    24  Cl   0.000000   0.000000   0.000000  -0.000000  -0.009958  17.538527
    25  C   -0.000001  -0.000000   0.000000   0.000000   0.013786  -0.224813
    26  H    0.000000   0.000000  -0.000000  -0.000000   0.000050  -0.000123
    27  H   -0.000000  -0.000000   0.000000   0.000000  -0.000015   0.000219
    28  F   -0.000000  -0.000000   0.000000   0.000000   0.000017   0.011226
    29  F    0.000000   0.000000  -0.000000  -0.000000  -0.000020  -0.012378
    30  F   -0.000000  -0.000000   0.000000   0.000000  -0.000036  -0.012128
              25         26         27         28         29         30
     1  C   -1.875707   0.041524   0.045697   0.020178   0.012991   0.029922
     2  N    0.003371  -0.002745  -0.020832  -0.000174   0.000007  -0.000023
     3  C   -0.150711   0.003288  -0.012054  -0.000747  -0.000563   0.000309
     4  O    0.000839  -0.000018   0.000012   0.000002  -0.000004  -0.000000
     5  N    0.008751  -0.000073  -0.000137   0.000001   0.000001   0.000003
     6  C   -0.001902   0.000026  -0.000537  -0.000006  -0.000001   0.000004
     7  C   -0.000162   0.000000   0.000008   0.000000  -0.000000   0.000000
     8  C   -0.000010  -0.000000   0.000002  -0.000000  -0.000000   0.000000
     9  C   -1.235893  -0.008029  -0.009063  -0.005946   0.006523   0.032999
    10  C   -2.816689  -0.017056   0.000173  -0.062768  -0.093569  -0.061425
    11  C   -4.159921   0.140671   0.028741  -0.195296   0.121511   0.101774
    12  C    0.046173   0.264406  -0.006774   0.054699  -0.011194  -0.015913
    13  C    0.785718  -0.094838   0.274806   0.125204  -0.003693  -0.014247
    14  H    0.002694   0.000013   0.007731  -0.000001   0.000002   0.000001
    15  H   -0.000103   0.000000   0.000008  -0.000000  -0.000000   0.000000
    16  H    0.000003   0.000000  -0.000000   0.000000  -0.000000   0.000000
    17  H   -0.000008   0.000000   0.000000   0.000000   0.000000  -0.000000
    18  H    0.000001  -0.000000   0.000000   0.000000  -0.000000   0.000000
    19  H   -0.000001   0.000000  -0.000000  -0.000000   0.000000  -0.000000
    20  H   -0.000000   0.000000  -0.000000  -0.000000   0.000000  -0.000000
    21  H    0.000000  -0.000000   0.000000   0.000000  -0.000000   0.000000
    22  H    0.000000  -0.000000   0.000000   0.000000  -0.000000   0.000000
    23  H    0.013786   0.000050  -0.000015   0.000017  -0.000020  -0.000036
    24  Cl  -0.224813  -0.000123   0.000219   0.011226  -0.012378  -0.012128
    25  C   14.548934  -0.012502   0.023044   0.196373   0.120855   0.078490
    26  H   -0.012502   0.383616  -0.003762   0.009673   0.000149   0.000153
    27  H    0.023044  -0.003762   0.417391   0.000081   0.000038   0.000038
    28  F    0.196373   0.009673   0.000081   9.062328  -0.035700  -0.036809
    29  F    0.120855   0.000149   0.000038  -0.035700   8.998652  -0.049172
    30  F    0.078490   0.000153   0.000038  -0.036809  -0.049172   8.999406
 Mulliken charges:
               1
     1  C   -0.712603
     2  N   -0.381507
     3  C    0.183664
     4  O   -0.367676
     5  N   -0.302973
     6  C   -0.529493
     7  C   -0.127758
     8  C   -1.034841
     9  C   -0.265101
    10  C    0.748209
    11  C   -1.088095
    12  C   -0.290518
    13  C   -0.152843
    14  H    0.377017
    15  H    0.354509
    16  H    0.269368
    17  H    0.273641
    18  H    0.266592
    19  H    0.242017
    20  H    0.266720
    21  H    0.273261
    22  H    0.264492
    23  H    0.336711
    24  Cl   0.447173
    25  C    0.649389
    26  H    0.295578
    27  H    0.255186
    28  F   -0.142335
    29  F   -0.054434
    30  F   -0.053347
 Sum of Mulliken charges =  -0.00000
 Mulliken charges with hydrogens summed into heavy atoms:
               1
     1  C   -0.712603
     2  N   -0.004490
     3  C    0.183664
     4  O   -0.367676
     5  N    0.051536
     6  C    0.013516
     7  C    0.380851
     8  C   -0.230369
     9  C    0.071610
    10  C    0.748209
    11  C   -1.088095
    12  C    0.005060
    13  C    0.102342
    24  Cl   0.447173
    25  C    0.649389
    28  F   -0.142335
    29  F   -0.054434
    30  F   -0.053347
 Electronic spatial extent (au):  <R**2>=           8701.8015
 Charge=              0.0000 electrons
 Dipole moment (field-independent basis, Debye):
    X=             -7.4625    Y=             -5.8741    Z=             -0.8132  Tot=              9.5318
 Quadrupole moment (field-independent basis, Debye-Ang):
   XX=           -107.2368   YY=           -104.9641   ZZ=           -115.3504
   XY=              7.5601   XZ=              2.9075   YZ=              0.6513
 Traceless Quadrupole moment (field-independent basis, Debye-Ang):
   XX=              1.9469   YY=              4.2196   ZZ=             -6.1666
   XY=              7.5601   XZ=              2.9075   YZ=              0.6513
 Octapole moment (field-independent basis, Debye-Ang**2):
  XXX=           -153.5044  YYY=            -26.1658  ZZZ=              0.2436  XYY=             18.2726
  XXY=            -29.6238  XXZ=             -9.6762  XZZ=             14.8795  YZZ=              3.6649
  YYZ=             -1.8527  XYZ=             -3.9671
 Hexadecapole moment (field-independent basis, Debye-Ang**3):
 XXXX=          -9387.6428 YYYY=           -966.7422 ZZZZ=           -211.2175 XXXY=             93.2442
 XXXZ=             30.9046 YYYX=             36.1328 YYYZ=              3.8223 ZZZX=              4.2250
 ZZZY=             -0.0412 XXYY=          -1774.9107 XXZZ=          -1680.1365 YYZZ=           -218.0149
 XXYZ=             17.1644 YYXZ=              8.0502 ZZXY=             -9.5410
 N-N= 1.432493412264D+03 E-N=-6.095791656061D+03  KE= 1.366887505294D+03
 D1PCM: PCM CHGder 1st derivatives, ID1Alg=3 FixD1E=F DoIter=F DoCFld=F I1PDM=0.
 Calling FoFJK, ICntrl=      2127 FMM=F ISym2X=0 I1Cent= 0 IOpClX= 0 NMat=1 NMatS=1 NMatT=0.
 ***** Axes restored to original set *****
 -------------------------------------------------------------------
 Center     Atomic                   Forces (Hartrees/Bohr)
 Number     Number              X              Y              Z
 -------------------------------------------------------------------
      1        6          -0.000000267    0.000000440   -0.000000130
      2        7          -0.000000647    0.000000929    0.000001201
      3        6          -0.000007417    0.000009124   -0.000003836
      4        8           0.000000590   -0.000004444   -0.000000978
      5        7           0.000005447   -0.000007253    0.000005101
      6        6           0.000001733    0.000000145   -0.000000235
      7        6          -0.000000169   -0.000001199   -0.000001140
      8        6          -0.000000686   -0.000001895   -0.000000310
      9        6           0.000000589    0.000000449   -0.000001008
     10        6           0.000000636    0.000001098   -0.000001462
     11        6           0.000000340    0.000001301   -0.000000166
     12        6          -0.000000135    0.000001192    0.000001488
     13        6          -0.000000227    0.000000866    0.000001806
     14        1           0.000000059   -0.000000034    0.000003626
     15        1          -0.000000174   -0.000001655   -0.000000452
     16        1           0.000000123    0.000000296   -0.000001717
     17        1           0.000000538   -0.000000681   -0.000001161
     18        1          -0.000000331   -0.000003091    0.000001860
     19        1          -0.000002155   -0.000001068    0.000001634
     20        1          -0.000000164   -0.000002645   -0.000001194
     21        1          -0.000000540   -0.000002542    0.000000491
     22        1           0.000000291   -0.000000714   -0.000001576
     23        1           0.000000658    0.000000444   -0.000002066
     24       17           0.000001260    0.000001069   -0.000003335
     25        6           0.000000331    0.000001962   -0.000000523
     26        1          -0.000000428    0.000001480    0.000002467
     27        1          -0.000000680    0.000000753    0.000002910
     28        9           0.000000035    0.000002002    0.000001021
     29        9           0.000000894    0.000003099   -0.000001094
     30        9           0.000000496    0.000000568   -0.000001220
 -------------------------------------------------------------------
 Cartesian Forces:  Max     0.000009124 RMS     0.000002189

 GradGradGradGradGradGradGradGradGradGradGradGradGradGradGradGradGradGrad
 Berny optimization.
 FormGI is forming the generalized inverse of G from B-inverse, IUseBI=4.
 Internal  Forces:  Max     0.000009334 RMS     0.000000983
 Search for a local minimum.
 Step number   1 out of a maximum of  157
 All quantities printed in internal units (Hartrees-Bohrs-Radians)
 Mixed Optimization -- En-DIIS/RFO-DIIS
 Second derivative matrix not updated -- first step.
 ITU=  0
     Eigenvalues ---    0.00444   0.00479   0.00757   0.00941   0.01591
     Eigenvalues ---    0.01701   0.01789   0.01794   0.01809   0.01980
     Eigenvalues ---    0.02001   0.02107   0.02165   0.02169   0.02186
     Eigenvalues ---    0.02208   0.02217   0.02242   0.02268   0.03726
     Eigenvalues ---    0.04450   0.04935   0.05519   0.05532   0.05549
     Eigenvalues ---    0.08183   0.09212   0.10555   0.10799   0.12078
     Eigenvalues ---    0.12661   0.15219   0.15965   0.16000   0.16000
     Eigenvalues ---    0.16000   0.16000   0.16000   0.16000   0.21893
     Eigenvalues ---    0.21904   0.22014   0.22178   0.22370   0.23488
     Eigenvalues ---    0.24614   0.24995   0.24998   0.25000   0.25000
     Eigenvalues ---    0.25000   0.25000   0.25000   0.25000   0.29951
     Eigenvalues ---    0.30207   0.31312   0.32304   0.34098   0.34102
     Eigenvalues ---    0.34329   0.34468   0.34479   0.34641   0.34678
     Eigenvalues ---    0.35421   0.35674   0.36176   0.37369   0.42215
     Eigenvalues ---    0.42828   0.45878   0.45937   0.45958   0.46242
     Eigenvalues ---    0.46860   0.46919   0.47222   0.48502   0.52099
     Eigenvalues ---    0.56595   0.56667   0.56691   0.97664
 RFO step:  Lambda= 0.00000000D+00 EMin= 4.43800422D-03
 Linear search not attempted -- first point.
 Iteration  1 RMS(Cart)=  0.00008805 RMS(Int)=  0.00000000
 Iteration  2 RMS(Cart)=  0.00000000 RMS(Int)=  0.00000000
 Variable       Old X    -DE/DX   Delta X   Delta X   Delta X     New X
                                 (Linear)    (Quad)   (Total)
    R1        2.63173  -0.00000   0.00000  -0.00000  -0.00000   2.63173
    R2        2.64525  -0.00000   0.00000  -0.00000  -0.00000   2.64525
    R3        2.64830  -0.00000   0.00000  -0.00000  -0.00000   2.64830
    R4        2.63108  -0.00000   0.00000  -0.00000  -0.00000   2.63108
    R5        1.90970   0.00000   0.00000   0.00000   0.00000   1.90970
    R6        2.29589  -0.00000   0.00000  -0.00000  -0.00000   2.29589
    R7        2.57805   0.00001   0.00000   0.00002   0.00002   2.57807
    R8        2.75294   0.00000   0.00000   0.00000   0.00000   2.75295
    R9        1.90878   0.00000   0.00000   0.00000   0.00000   1.90879
   R10        2.87553  -0.00000   0.00000  -0.00000  -0.00000   2.87553
   R11        2.07165  -0.00000   0.00000  -0.00000  -0.00000   2.07165
   R12        2.06201   0.00000   0.00000   0.00000   0.00000   2.06201
   R13        2.88061  -0.00000   0.00000  -0.00000  -0.00000   2.88061
   R14        2.06778  -0.00000   0.00000  -0.00000  -0.00000   2.06778
   R15        2.07159   0.00000   0.00000   0.00000   0.00000   2.07159
   R16        2.06530   0.00000   0.00000   0.00000   0.00000   2.06530
   R17        2.06262   0.00000   0.00000   0.00000   0.00000   2.06262
   R18        2.06547  -0.00000   0.00000  -0.00000  -0.00000   2.06547
   R19        2.61903  -0.00000   0.00000  -0.00000  -0.00000   2.61903
   R20        2.03808   0.00000   0.00000   0.00000   0.00000   2.03808
   R21        2.63541   0.00000   0.00000   0.00000   0.00000   2.63541
   R22        3.29121  -0.00000   0.00000  -0.00000  -0.00000   3.29121
   R23        2.63207   0.00000   0.00000   0.00000   0.00000   2.63207
   R24        2.83591   0.00000   0.00000   0.00000   0.00000   2.83591
   R25        2.61074   0.00000   0.00000   0.00000   0.00000   2.61074
   R26        2.04594   0.00000   0.00000   0.00000   0.00000   2.04594
   R27        2.04997   0.00000   0.00000   0.00000   0.00000   2.04997
   R28        2.53741   0.00000   0.00000   0.00000   0.00000   2.53741
   R29        2.53680   0.00000   0.00000   0.00000   0.00000   2.53680
   R30        2.53659   0.00000   0.00000   0.00000   0.00000   2.53659
    A1        2.15598  -0.00000   0.00000  -0.00000  -0.00000   2.15598
    A2        2.04873   0.00000   0.00000   0.00000   0.00000   2.04873
    A3        2.07840   0.00000   0.00000   0.00000   0.00000   2.07840
    A4        2.22979   0.00000   0.00000   0.00000   0.00000   2.22979
    A5        2.00932   0.00000   0.00000   0.00000   0.00000   2.00932
    A6        2.04002  -0.00000   0.00000  -0.00000  -0.00000   2.04001
    A7        2.15635   0.00000   0.00000   0.00000   0.00000   2.15635
    A8        1.97709   0.00000   0.00000   0.00000   0.00000   1.97709
    A9        2.14952  -0.00000   0.00000  -0.00000  -0.00000   2.14952
   A10        2.09754  -0.00000   0.00000   0.00000   0.00000   2.09754
   A11        2.07790   0.00000   0.00000   0.00002   0.00002   2.07791
   A12        2.04158   0.00000   0.00000   0.00001   0.00001   2.04159
   A13        1.92646  -0.00000   0.00000  -0.00001  -0.00001   1.92645
   A14        1.92948   0.00000   0.00000  -0.00000  -0.00000   1.92948
   A15        1.88173   0.00000   0.00000   0.00001   0.00001   1.88174
   A16        1.92786   0.00000   0.00000   0.00000   0.00000   1.92786
   A17        1.92789   0.00000   0.00000   0.00000   0.00000   1.92789
   A18        1.86913  -0.00000   0.00000  -0.00001  -0.00001   1.86912
   A19        1.94544  -0.00000   0.00000   0.00000   0.00000   1.94544
   A20        1.90222   0.00000   0.00000   0.00001   0.00001   1.90223
   A21        1.91187  -0.00000   0.00000  -0.00001  -0.00001   1.91186
   A22        1.92434  -0.00000   0.00000  -0.00000  -0.00000   1.92434
   A23        1.91218   0.00000   0.00000   0.00001   0.00001   1.91218
   A24        1.86606  -0.00000   0.00000  -0.00001  -0.00001   1.86605
   A25        1.93897   0.00000   0.00000   0.00000   0.00000   1.93897
   A26        1.94111  -0.00000   0.00000  -0.00000  -0.00000   1.94111
   A27        1.94185   0.00000   0.00000   0.00000   0.00000   1.94186
   A28        1.87975   0.00000   0.00000   0.00000   0.00000   1.87975
   A29        1.87971  -0.00000   0.00000  -0.00000  -0.00000   1.87971
   A30        1.87960  -0.00000   0.00000  -0.00000  -0.00000   1.87960
   A31        2.08163   0.00000   0.00000  -0.00000  -0.00000   2.08163
   A32        2.10693   0.00000   0.00000   0.00000   0.00000   2.10693
   A33        2.09461  -0.00000   0.00000  -0.00000  -0.00000   2.09461
   A34        2.13061  -0.00000   0.00000  -0.00000  -0.00000   2.13061
   A35        2.04708  -0.00000   0.00000  -0.00000  -0.00000   2.04707
   A36        2.10550   0.00000   0.00000   0.00000   0.00000   2.10550
   A37        2.05997  -0.00000   0.00000  -0.00000  -0.00000   2.05997
   A38        2.12845   0.00000   0.00000  -0.00000  -0.00000   2.12845
   A39        2.09476   0.00000   0.00000   0.00000   0.00000   2.09476
   A40        2.11064  -0.00000   0.00000   0.00000   0.00000   2.11064
   A41        2.08610   0.00000   0.00000   0.00000   0.00000   2.08610
   A42        2.08645  -0.00000   0.00000  -0.00000  -0.00000   2.08645
   A43        2.10511  -0.00000   0.00000  -0.00000  -0.00000   2.10511
   A44        2.09124   0.00000   0.00000   0.00000   0.00000   2.09125
   A45        2.08683   0.00000   0.00000   0.00000   0.00000   2.08683
   A46        1.94520   0.00000   0.00000   0.00000   0.00000   1.94520
   A47        1.96461   0.00000   0.00000   0.00000   0.00000   1.96461
   A48        1.96470  -0.00000   0.00000  -0.00000  -0.00000   1.96470
   A49        1.85944  -0.00000   0.00000  -0.00000  -0.00000   1.85944
   A50        1.85962   0.00000   0.00000  -0.00000  -0.00000   1.85962
   A51        1.86322   0.00000   0.00000   0.00000   0.00000   1.86322
    D1       -0.09205  -0.00000   0.00000  -0.00002  -0.00002  -0.09207
    D2       -3.13307  -0.00000   0.00000  -0.00001  -0.00001  -3.13309
    D3        3.06217  -0.00000   0.00000  -0.00003  -0.00003   3.06214
    D4        0.02115  -0.00000   0.00000  -0.00002  -0.00002   0.02113
    D5       -3.12661  -0.00000   0.00000  -0.00002  -0.00002  -3.12663
    D6        0.01978  -0.00000   0.00000  -0.00001  -0.00001   0.01976
    D7        0.00215  -0.00000   0.00000  -0.00001  -0.00001   0.00214
    D8       -3.13465  -0.00000   0.00000  -0.00000  -0.00000  -3.13465
    D9        3.12798   0.00000   0.00000   0.00002   0.00002   3.12800
   D10       -0.01317   0.00000   0.00000   0.00001   0.00001  -0.01316
   D11       -0.00156   0.00000   0.00000   0.00001   0.00001  -0.00155
   D12        3.14047  -0.00000   0.00000  -0.00000  -0.00000   3.14047
   D13       -0.04512   0.00000   0.00000   0.00006   0.00006  -0.04506
   D14        3.11875   0.00000   0.00000   0.00007   0.00007   3.11882
   D15        2.99438   0.00000   0.00000   0.00006   0.00006   2.99443
   D16       -0.12494   0.00000   0.00000   0.00006   0.00006  -0.12487
   D17       -3.06459   0.00000   0.00000  -0.00001  -0.00001  -3.06459
   D18       -0.31710   0.00000   0.00000   0.00007   0.00007  -0.31703
   D19        0.09918   0.00000   0.00000  -0.00000  -0.00000   0.09918
   D20        2.84667   0.00000   0.00000   0.00008   0.00008   2.84675
   D21       -2.92578   0.00000   0.00000   0.00006   0.00006  -2.92572
   D22        1.21918   0.00000   0.00000   0.00007   0.00007   1.21925
   D23       -0.81859   0.00000   0.00000   0.00007   0.00007  -0.81852
   D24        0.60197  -0.00000   0.00000  -0.00001  -0.00001   0.60196
   D25       -1.53625  -0.00000   0.00000  -0.00001  -0.00001  -1.53626
   D26        2.70916  -0.00000   0.00000  -0.00001  -0.00001   2.70915
   D27        3.13990   0.00000   0.00000   0.00002   0.00002   3.13992
   D28        1.01197   0.00000   0.00000   0.00002   0.00002   1.01199
   D29       -1.02412   0.00000   0.00000   0.00003   0.00003  -1.02410
   D30       -1.00412  -0.00000   0.00000   0.00001   0.00001  -1.00411
   D31       -3.13204  -0.00000   0.00000   0.00001   0.00001  -3.13203
   D32        1.11505   0.00000   0.00000   0.00002   0.00002   1.11507
   D33        1.06052  -0.00000   0.00000   0.00001   0.00001   1.06053
   D34       -1.06740  -0.00000   0.00000   0.00001   0.00001  -1.06739
   D35       -3.10350   0.00000   0.00000   0.00002   0.00002  -3.10348
   D36       -1.04577  -0.00000   0.00000  -0.00001  -0.00001  -1.04578
   D37       -3.13944  -0.00000   0.00000  -0.00001  -0.00001  -3.13945
   D38        1.04834  -0.00000   0.00000  -0.00001  -0.00001   1.04833
   D39        1.06931   0.00000   0.00000  -0.00000  -0.00000   1.06931
   D40       -1.02435   0.00000   0.00000  -0.00000  -0.00000  -1.02436
   D41       -3.11976   0.00000   0.00000  -0.00000  -0.00000  -3.11976
   D42        3.11842   0.00000   0.00000  -0.00000  -0.00000   3.11842
   D43        1.02476   0.00000   0.00000  -0.00001  -0.00001   1.02475
   D44       -1.07065   0.00000   0.00000  -0.00001  -0.00001  -1.07065
   D45       -0.00174  -0.00000   0.00000  -0.00000  -0.00000  -0.00174
   D46        3.13986   0.00000   0.00000   0.00000   0.00000   3.13986
   D47        3.13509  -0.00000   0.00000  -0.00001  -0.00001   3.13509
   D48       -0.00649  -0.00000   0.00000  -0.00000  -0.00000  -0.00650
   D49        0.00066   0.00000   0.00000   0.00001   0.00001   0.00067
   D50       -3.14041   0.00000   0.00000   0.00001   0.00001  -3.14040
   D51       -3.14094   0.00000   0.00000   0.00000   0.00000  -3.14093
   D52        0.00118   0.00000   0.00000   0.00000   0.00000   0.00118
   D53       -0.00003  -0.00000   0.00000  -0.00000  -0.00000  -0.00003
   D54       -3.14092   0.00000   0.00000   0.00000   0.00000  -3.14091
   D55        3.14105  -0.00000   0.00000  -0.00001  -0.00001   3.14105
   D56        0.00017  -0.00000   0.00000  -0.00000  -0.00000   0.00016
   D57        3.14133  -0.00000   0.00000  -0.00001  -0.00001   3.14132
   D58       -1.05384  -0.00000   0.00000  -0.00001  -0.00001  -1.05384
   D59        1.05303  -0.00000   0.00000  -0.00001  -0.00001   1.05302
   D60        0.00027  -0.00000   0.00000  -0.00001  -0.00001   0.00026
   D61        2.08829  -0.00000   0.00000  -0.00001  -0.00001   2.08828
   D62       -2.08803   0.00000   0.00000  -0.00001  -0.00001  -2.08804
   D63        0.00049  -0.00000   0.00000  -0.00000  -0.00000   0.00049
   D64       -3.14153   0.00000   0.00000   0.00001   0.00001  -3.14153
   D65        3.14138  -0.00000   0.00000  -0.00001  -0.00001   3.14138
   D66       -0.00064   0.00000   0.00000   0.00000   0.00000  -0.00064
         Item               Value     Threshold  Converged?
 Maximum Force            0.000009     0.000450     YES
 RMS     Force            0.000001     0.000300     YES
 Maximum Displacement     0.000315     0.001800     YES
 RMS     Displacement     0.000088     0.001200     YES
 Predicted change in Energy=-5.527155D-10
 Optimization completed.
    -- Stationary point found.
                           ----------------------------
                           !   Optimized Parameters   !
                           ! (Angstroms and Degrees)  !
 --------------------------                            --------------------------
 ! Name  Definition              Value          Derivative Info.                !
 --------------------------------------------------------------------------------
 ! R1    R(1,2)                  1.3927         -DE/DX =    0.0                 !
 ! R2    R(1,9)                  1.3998         -DE/DX =    0.0                 !
 ! R3    R(1,13)                 1.4014         -DE/DX =    0.0                 !
 ! R4    R(2,3)                  1.3923         -DE/DX =    0.0                 !
 ! R5    R(2,14)                 1.0106         -DE/DX =    0.0                 !
 ! R6    R(3,4)                  1.2149         -DE/DX =    0.0                 !
 ! R7    R(3,5)                  1.3642         -DE/DX =    0.0                 !
 ! R8    R(5,6)                  1.4568         -DE/DX =    0.0                 !
 ! R9    R(5,15)                 1.0101         -DE/DX =    0.0                 !
 ! R10   R(6,7)                  1.5217         -DE/DX =    0.0                 !
 ! R11   R(6,16)                 1.0963         -DE/DX =    0.0                 !
 ! R12   R(6,17)                 1.0912         -DE/DX =    0.0                 !
 ! R13   R(7,8)                  1.5244         -DE/DX =    0.0                 !
 ! R14   R(7,18)                 1.0942         -DE/DX =    0.0                 !
 ! R15   R(7,19)                 1.0962         -DE/DX =    0.0                 !
 ! R16   R(8,20)                 1.0929         -DE/DX =    0.0                 !
 ! R17   R(8,21)                 1.0915         -DE/DX =    0.0                 !
 ! R18   R(8,22)                 1.093          -DE/DX =    0.0                 !
 ! R19   R(9,10)                 1.3859         -DE/DX =    0.0                 !
 ! R20   R(9,23)                 1.0785         -DE/DX =    0.0                 !
 ! R21   R(10,11)                1.3946         -DE/DX =    0.0                 !
 ! R22   R(10,24)                1.7416         -DE/DX =    0.0                 !
 ! R23   R(11,12)                1.3928         -DE/DX =    0.0                 !
 ! R24   R(11,25)                1.5007         -DE/DX =    0.0                 !
 ! R25   R(12,13)                1.3815         -DE/DX =    0.0                 !
 ! R26   R(12,26)                1.0827         -DE/DX =    0.0                 !
 ! R27   R(13,27)                1.0848         -DE/DX =    0.0                 !
 ! R28   R(25,28)                1.3427         -DE/DX =    0.0                 !
 ! R29   R(25,29)                1.3424         -DE/DX =    0.0                 !
 ! R30   R(25,30)                1.3423         -DE/DX =    0.0                 !
 ! A1    A(2,1,9)              123.5288         -DE/DX =    0.0                 !
 ! A2    A(2,1,13)             117.3837         -DE/DX =    0.0                 !
 ! A3    A(9,1,13)             119.0836         -DE/DX =    0.0                 !
 ! A4    A(1,2,3)              127.7576         -DE/DX =    0.0                 !
 ! A5    A(1,2,14)             115.1255         -DE/DX =    0.0                 !
 ! A6    A(3,2,14)             116.8843         -DE/DX =    0.0                 !
 ! A7    A(2,3,4)              123.5497         -DE/DX =    0.0                 !
 ! A8    A(2,3,5)              113.2787         -DE/DX =    0.0                 !
 ! A9    A(4,3,5)              123.1586         -DE/DX =    0.0                 !
 ! A10   A(3,5,6)              120.1804         -DE/DX =    0.0                 !
 ! A11   A(3,5,15)             119.0547         -DE/DX =    0.0                 !
 ! A12   A(6,5,15)             116.9741         -DE/DX =    0.0                 !
 ! A13   A(5,6,7)              110.3779         -DE/DX =    0.0                 !
 ! A14   A(5,6,16)             110.5511         -DE/DX =    0.0                 !
 ! A15   A(5,6,17)             107.8153         -DE/DX =    0.0                 !
 ! A16   A(7,6,16)             110.4582         -DE/DX =    0.0                 !
 ! A17   A(7,6,17)             110.4598         -DE/DX =    0.0                 !
 ! A18   A(16,6,17)            107.0931         -DE/DX =    0.0                 !
 ! A19   A(6,7,8)              111.4655         -DE/DX =    0.0                 !
 ! A20   A(6,7,18)             108.9894         -DE/DX =    0.0                 !
 ! A21   A(6,7,19)             109.542          -DE/DX =    0.0                 !
[...]
 00001176,0.00000220,0.00001272,-0.00001189,0.00003690,-0.00000064,-0.0
 0000026,0.00000412,0.00000703,0.00001336,-0.00104110,0.00083909,-0.000
 04382,-0.02956053,0.24443638,-0.00026449,-0.00002312,0.00583527,0.0000
 3778,-0.00000952,-0.00005707,-0.00000513,0.00000816,0.00004299,0.00002
 687,-0.00001371,0.00007127,0.00001623,-0.00000738,-0.00002137,-0.00000
 330,-0.00000098,0.00001049,0.00000044,-0.00000015,-0.00000014,-0.00000
 020,0.00000009,0.00000013,-0.00012014,0.00066932,0.00445312,-0.0004487
 4,-0.00030105,-0.02372594,0.00017485,-0.00062114,0.00378225,-0.0002596
 4,0.00000536,0.00407487,0.00010106,0.00002439,-0.00097591,0.00000301,0
 .00000223,-0.00021668,-0.00000046,-0.00000601,-0.00001324,0.00000237,0
 .00000187,0.00000145,-0.00000197,-0.00000094,0.00000089,-0.00000044,0.
 00000154,0.00000092,0.00000018,-0.00000101,0.00000006,-0.00000016,-0.0
 0000038,0.00000013,0.00000021,0.00000010,-0.00000023,0.00000026,0.0000
 0049,0.00000061,0.00003148,0.00001103,-0.00302288,0.00083468,0.0003114
 9,0.01288091,-0.01148049,0.00341488,-0.00051908,0.01499711,-0.00193259
 ,0.00062887,-0.01015934,-0.00411469,-0.00010303,0.00217235,0.00232792,
 -0.00006542,0.00427722,-0.00153265,-0.00042530,-0.00119038,-0.00058575
 ,0.00011700,0.00010285,0.00033152,0.00006039,0.00005221,-0.00018335,-0
 .00001530,0.00416753,-0.00622689,0.00000151,-0.02877667,-0.00777080,-0
 .00063488,-0.20149047,0.04056420,-0.00327725,-0.00598227,0.02024598,-0
 .00010646,0.00993448,-0.00143734,-0.00003086,0.00022359,0.00078752,0.0
 0002589,-0.00011797,0.00048007,0.00015399,0.00034468,0.00013299,0.0000
 9414,0.00007595,0.00004466,0.00002021,-0.00003405,-0.00000752,-0.00000
 321,-0.00001638,-0.00004076,0.00000935,-0.00001767,0.00003765,-0.00000
 529,0.00013487,-0.00002584,-0.00000491,-0.00000550,0.00003470,0.000017
 51,0.00003737,0.00005562,-0.00002225,-0.00156611,0.00619854,0.00004980
 ,0.60381829,0.00290892,-0.00472813,0.00012755,-0.00583912,0.00059904,-
 0.00020293,0.00394286,0.00205077,0.00001476,-0.00096107,-0.00117260,0.
 00006534,-0.00162374,0.00045930,0.00013253,0.00047789,0.00025778,-0.00
 003265,-0.00005210,-0.00011571,-0.00003076,-0.00001350,0.00006957,0.00
 000653,-0.00775280,-0.00146002,-0.00024756,-0.01525771,0.02562362,-0.0
 0032937,0.03090503,-0.10699127,0.00065658,0.03048576,-0.00516789,0.000
 70336,-0.00204333,-0.00742375,-0.00005422,-0.00009011,-0.00025050,-0.0
 0001196,0.00005937,-0.00015565,-0.00003645,-0.00013928,-0.00005063,-0.
 00005205,-0.00003918,-0.00001721,0.00000419,0.00001602,0.00000256,-0.0
 0001191,0.00000922,0.00000584,0.00001271,0.00000019,-0.00001616,0.0000
 1249,-0.00004559,0.00000361,0.00000030,-0.00000352,-0.00000995,-0.0000
 1480,-0.00114058,0.00084544,-0.00004919,0.00126794,-0.00635746,0.00008
 685,-0.01971970,0.53498240,-0.00017833,0.00004930,-0.00082482,0.000374
 14,-0.00003404,-0.00098318,-0.00026715,-0.00021991,0.00006795,-0.00001
 757,0.00014146,-0.00027820,0.00007669,-0.00005532,-0.00005264,-0.00001
 627,-0.00001159,0.00010542,0.00000015,0.00000612,0.00002028,0.00000200
 ,-0.00000634,0.00000251,-0.00013317,-0.00013757,0.00519057,-0.00058877
 ,-0.00008294,-0.00265096,-0.00337247,0.00080685,-0.06498241,-0.0000688
 9,0.00050492,0.00067132,0.00007175,-0.00011027,0.00636160,0.,0.0000052
 9,0.00027100,-0.00000100,0.00004285,0.00011196,-0.00000550,-0.00001253
 ,-0.00002454,0.00000514,0.00002117,-0.00000684,0.00000361,-0.00001896,
 -0.00001735,-0.00000255,0.00001541,-0.00000606,0.00000558,0.00001286,-
 0.00000367,0.00000501,-0.00000244,0.00000397,-0.00000777,-0.00000686,-
 0.00001128,0.00000822,0.00001710,0.00115941,0.00007449,0.00014442,-0.0
 0304696,0.00289733,-0.00032893,0.49823100,-0.00331489,0.00268297,-0.00
 026591,-0.00116721,-0.00116713,0.00002514,0.00022764,0.00056411,-0.000
 06661,-0.00002062,-0.00018252,0.00001344,-0.00027453,-0.00004054,0.000
 02227,0.00003652,0.00005941,-0.00000073,-0.00001358,-0.00002512,-0.000
 00432,-0.00000444,0.00001266,0.00000138,-0.00029247,0.00091058,0.00002
 529,0.00059609,0.00151796,-0.00011960,0.00871987,0.00362722,0.00012056
 ,-0.22728097,-0.14535777,-0.00538768,-0.01625594,-0.01927086,-0.000612
 41,0.00000102,-0.00007734,0.00000096,0.00000595,-0.00002411,-0.0000029
 2,-0.00001338,-0.00000618,-0.00000322,-0.00000248,-0.00000362,-0.00000
 110,0.00000086,0.00000065,0.00000235,0.00000012,0.00000257,-0.00000256
 ,0.00000071,-0.00000079,-0.00000030,-0.00000627,-0.00000068,0.00000005
 ,0.00000063,-0.00000084,0.00000002,-0.00001175,-0.00007146,0.00001209,
 0.00027658,0.00084134,0.00000205,-0.00023311,0.00066833,0.00007571,0.2
 4111331,0.00317994,-0.00008210,0.00006592,0.00031371,0.00064104,-0.000
 02099,0.00009935,-0.00018738,0.00002905,-0.00002391,0.00003512,0.00000
 126,0.00008460,0.00004306,-0.00000477,-0.00000181,-0.00002478,-0.00000
 095,0.00000566,0.00000747,0.00000129,0.00000176,-0.00000398,-0.0000003
 6,0.00074494,-0.00029994,0.00001924,0.00228015,-0.00366870,0.00001466,
 -0.02310495,-0.01433256,-0.00064590,-0.14394696,-0.18304886,-0.0042112
 3,0.01008408,0.01160991,0.00029327,-0.00002069,0.00000448,-0.00000368,
 -0.00000210,0.00000662,-0.00000124,0.00000150,0.00000122,0.00000118,-0
 .00000029,0.00000078,-0.00000045,-0.00000013,0.00000033,-0.00000092,-0
 .00000012,-0.00000025,0.00000108,-0.00000023,-0.00000013,0.00000002,0.
 00000174,0.00000064,-0.00000003,-0.00000020,-0.00000001,-0.00000006,-0
 .00005924,0.00004318,-0.00000437,-0.00075185,-0.00154065,-0.00002510,-
 0.00311857,-0.00280295,-0.00008508,0.15271262,0.19005015,-0.00023544,0
 .00005740,0.00746534,-0.00000115,-0.00001931,-0.00002567,-0.00001122,-
 0.00003040,-0.00018206,-0.00000687,0.00001694,0.00003262,-0.00000452,-
 0.00001100,-0.00003273,-0.00000039,0.00000698,0.00001766,-0.00000114,-
 0.00000342,0.00000582,0.00000016,0.00000098,-0.00000031,0.00001072,0.0
 0004065,-0.00108349,-0.00012655,-0.00001096,0.00581387,0.00002236,0.00
 004870,0.00432376,-0.00535256,-0.00429568,-0.03907154,-0.00050343,-0.0
 0044294,0.00425284,-0.00000287,-0.00000484,0.00006929,0.00000180,-0.00
 000063,0.00001476,0.00000098,-0.00000304,-0.00000322,-0.00000103,0.000
 00186,-0.00000062,0.00000063,-0.00000154,-0.00000218,-0.00000017,0.000
 00233,-0.00000122,0.00000071,0.00000124,-0.00000030,-0.00000015,-0.000
 00027,0.00000063,-0.00000110,-0.00000117,-0.00000126,0.00000406,-0.000
 00117,-0.00045591,-0.00000194,0.00001686,0.00028001,0.00007299,0.00002
 170,-0.00291841,0.00605442,0.00451437,0.02711596,0.00649861,-0.0232003
 4,-0.00001542,0.00277665,-0.00141933,0.00017324,-0.00039593,-0.0005084
 2,0.00006330,0.00000769,0.00045966,-0.00003489,0.00015388,0.00004275,-
 0.00000464,-0.00006957,-0.00003789,0.00000527,0.00001035,0.00001435,0.
 00000427,0.00000013,-0.00000694,-0.00000233,-0.00352426,-0.00278988,-0
 .00023102,-0.00161933,-0.00049187,-0.00003752,-0.00505164,0.00157966,-
 0.00028310,-0.00075125,0.03047270,0.00000365,-0.06634554,0.04379468,-0
 .00063671,-0.00190859,0.00049412,-0.00012494,-0.00005347,0.00000534,-0
 .00002633,0.00001959,0.00000840,0.00000900,0.00000990,0.00000643,-0.00
 000171,-0.00000372,-0.00000001,0.00000399,-0.00000385,0.00000046,-0.00
 000360,0.00000087,0.00000257,-0.00000124,0.00000655,-0.00000115,-0.000
 00029,0.00000121,0.00000204,0.00000195,0.00047209,-0.00106927,0.000015
 14,0.00018098,0.00013754,0.00002012,0.00132691,0.00105407,0.00002524,0
 .00099166,-0.00031315,0.00014048,0.06849478,0.00701824,-0.01539562,0.0
 0011358,0.00188242,0.00172622,-0.00000761,-0.00057192,-0.00020107,0.00
 007227,0.00012001,0.00058445,-0.00005232,-0.00003053,0.00003633,0.0000
 0419,-0.00002999,0.00000278,-0.00000678,0.00000166,-0.00000353,-0.0000
 0030,-0.00000200,0.00000082,0.00000033,-0.00360749,-0.00096536,-0.0001
 1265,-0.00084720,0.00070012,-0.00001715,0.00181787,0.00172608,0.000025
 59,0.00007642,-0.00614537,-0.00001997,0.04343652,-0.33659071,-0.000115
 80,-0.00131112,-0.00009173,0.00001745,-0.00004018,-0.00000279,-0.00001
 406,0.00000724,0.00000147,0.00000614,0.00000646,0.00000218,-0.00000175
 ,-0.00000286,0.00000141,0.00000414,-0.00000268,0.00000309,-0.00000319,
 0.00000103,0.00000119,-0.00000166,0.00000145,-0.00000045,-0.00000008,0
 .00000115,0.00000058,0.00000189,0.00060944,-0.00071293,0.00000275,0.00
 008427,-0.00015022,0.00000223,-0.00084242,-0.00003110,-0.00002580,0.00
 011101,0.00066265,0.00002438,-0.04856329,0.35511067,-0.00001122,-0.000
 49506,0.00395565,0.00000331,-0.00048155,-0.00317189,0.00009123,0.00001
 311,-0.00081876,0.00002827,0.00000828,0.00015346,-0.00002110,0.0000117
 7,0.00002579,-0.00000021,0.00001797,0.00009159,-0.00000616,-0.00000787
 ,0.00001834,0.00000019,0.00000163,-0.00000338,-0.00017416,-0.00008194,
 0.00523326,-0.00007847,-0.00003041,-0.00071070,-0.00027586,0.00006966,
 0.00672347,-0.00002542,0.00069081,0.00258101,-0.00073227,-0.00012519,-
 0.03397023,0.00013412,0.00030704,0.00060765,-0.00002266,-0.00001718,0.
 00004601,0.00000821,-0.00000538,-0.00001188,-0.00000830,0.00001089,-0.
 00000403,0.00000354,-0.00000535,-0.00000852,-0.00000123,0.00000672,-0.
 00000400,0.00000245,0.00000352,-0.00000078,-0.00000019,-0.00000050,0.0
 0000114,-0.00000393,-0.00000315,-0.00000308,-0.00002090,-0.00003439,-0
 .00013509,0.00001690,0.00001434,-0.00053874,0.00003385,0.00001923,0.00
 057963,0.00013608,0.00001100,-0.00451470,0.00097069,0.00008910,0.02371
 227,0.00244786,-0.00153401,0.00011862,-0.00333688,0.00052006,-0.000139
 94,0.00254839,0.00050726,0.00007292,-0.00081645,-0.00022806,0.00001769
 ,-0.00118997,0.00051609,0.00010915,0.00033822,0.00016680,-0.00003439,-
 0.00002569,-0.00009357,-0.00001740,-0.00001625,0.00005200,0.00000511,-
 0.00256059,-0.00169846,-0.00009714,-0.00439854,0.00939680,-0.00011880,
 -0.03834530,-0.03998271,-0.00135418,-0.00135090,-0.00233810,-0.0000363
 0,-0.00128257,-0.00054030,-0.00001607,-0.00007827,-0.00018632,-0.00000
 498,0.00002244,-0.00012972,-0.00004883,-0.00008985,-0.00003972,-0.0000
 2338,-0.00001415,-0.00001314,-0.00000896,0.00000852,0.00000253,0.00000
 380,0.00000359,0.00001407,-0.00000557,0.00000675,-0.00001080,-0.000000
 65,-0.00004030,0.00000909,0.00000179,0.00000279,-0.00001090,-0.0000033
 6,-0.00042482,0.00049431,-0.00002167,0.00045721,-0.00047571,-0.0000038
 3,-0.18646187,-0.08882648,-0.00333460,-0.00339669,0.00142392,-0.000082
 82,-0.00020733,0.00020213,-0.00000838,0.21638360,0.00120469,-0.0003855
 4,0.00004848,-0.00076771,0.00046828,-0.00005719,0.00054765,-0.00010114
 ,0.00004877,-0.00016121,0.00008523,-0.00000497,-0.00024198,0.00018007,
 0.00003352,0.00005525,0.00001484,-0.00001458,0.00000014,-0.00002204,-0
 .00000074,-0.00000552,0.00001004,0.00000048,-0.00013517,0.00005832,-0.
 00002790,0.00010442,0.00074768,0.00001301,-0.00699151,-0.00180369,-0.0
 0024507,0.00353834,-0.00601053,0.00005596,-0.00035427,0.00190426,0.000
 00040,-0.00008732,-0.00005844,-0.00000047,-0.00000822,-0.00003887,-0.0
 0002192,-0.00001678,-0.00000739,0.00000162,-0.00000104,-0.00000130,-0.
 00000578,0.00000017,0.00000083,0.00000594,-0.00000080,0.00000635,-0.00
 000683,0.00000332,-0.00000087,-0.00000373,-0.00000911,0.00000290,0.000
 00073,0.00000228,-0.00000272,0.00000257,-0.00006818,0.00011880,-0.0000
 0828,-0.00028314,0.00094800,-0.00001982,-0.09944845,-0.16224351,-0.002
 75540,0.00324638,0.00196208,0.00008405,-0.00016855,0.00004429,-0.00000
 441,0.15516137,0.27687854,0.00006283,-0.00004207,0.00010905,-0.0001043
 1,0.00001478,0.00005785,0.00008312,0.00003961,-0.00006444,-0.00001077,
 -0.00002252,0.00004937,-0.00003272,0.00001740,0.00001587,0.00000730,0.
 00000458,-0.00001551,0.00000040,-0.00000177,-0.00000551,-0.00000060,0.
 00000202,0.00000012,-0.00005034,-0.00004453,-0.00044949,-0.00016396,0.
 00023822,0.00195787,-0.00124992,-0.00107185,0.00809535,-0.00004446,-0.
 00005412,0.00009602,-0.00003717,-0.00001431,0.00013531,-0.00000137,-0.
 00000632,-0.00002131,0.00000048,-0.00000807,-0.00001999,-0.00000040,0.
 00000147,0.00000358,-0.00000069,-0.00000380,0.00000063,0.,0.00000256,0
 .00000290,-0.00000034,-0.00000237,0.00000134,-0.00000094,-0.00000209,0
 .00000055,-0.00000156,0.00000049,-0.00000069,0.00000123,0.00000110,0.0
 0000174,-0.00001011,0.00001078,-0.00030873,0.00000566,-0.00000844,0.00
 026520,-0.00337010,-0.00258663,-0.07087692,-0.00004976,0.00003405,-0.0
 0029931,-0.00000598,0.00000588,-0.00000432,0.00406743,0.00463760,0.081
 46811,0.00321281,-0.00036119,0.00048789,-0.00403591,0.00040178,-0.0000
 9639,0.00273065,0.00113565,0.00010562,-0.00059705,-0.00065427,0.000000
 29,-0.00115614,0.00039937,0.00007904,0.00032625,0.00016536,-0.00003166
 ,-0.00002832,-0.00008859,-0.00001551,-0.00001353,0.00004905,0.00000454
 ,-0.00054675,0.00102321,-0.00079251,0.00298703,0.00270735,-0.00047986,
 -0.01041052,0.02793408,0.02996600,-0.00310094,-0.00395337,0.00214147,-
 0.00261009,0.00076403,-0.00172117,-0.00002797,-0.00020458,-0.00003111,
 0.00003283,-0.00012341,-0.00003482,-0.00009577,-0.00003673,-0.00002763
 ,-0.00001834,-0.00001305,-0.00000424,0.00001014,0.00000060,-0.00000150
 ,0.00000434,0.00001190,-0.00000168,0.00000475,-0.00000966,0.00000190,-
 0.00003623,0.00000679,0.00000174,0.00000070,-0.00000999,-0.00000626,0.
 00001935,0.00001143,-0.00002251,-0.00255070,-0.00275412,0.00160848,-0.
 09943478,0.03765859,0.04784764,0.00014517,0.00019543,0.00072429,-0.000
 51241,0.00024373,-0.00028692,0.01188658,-0.02647077,-0.02311736,0.0895
 4222,-0.00240656,0.00078758,-0.00034107,0.00334775,-0.00026405,0.00003
 643,-0.00215111,-0.00116966,-0.00005794,0.00041809,0.00069495,-0.00000
 699,0.00086380,-0.00023671,-0.00004359,-0.00024597,-0.00013081,0.00001
 532,0.00002606,0.00006417,0.00000997,0.00000783,-0.00003633,-0.0000039
 6,0.00130641,-0.00046978,0.00101396,-0.00115045,-0.00666212,-0.0006397
 2,0.01535747,-0.00865193,-0.02172144,0.00083868,0.00229260,-0.00082479
 ,0.00194988,0.00047342,0.00124399,0.00001161,0.00015582,0.00000166,-0.
 00002964,0.00008724,0.00001479,0.00007692,0.00002767,0.00002616,0.0000
 1771,0.00000843,-0.00000052,-0.00000861,0.00000095,0.00000598,-0.00000
 424,-0.00000720,-0.00000227,-0.00000179,0.00000648,-0.00000419,0.00002
 455,-0.00000270,-0.00000113,0.00000183,0.00000669,0.00000778,0.0002023
 0,-0.00009601,0.00007002,-0.00294854,0.00193747,0.00088224,0.03803269,
 -0.13234059,-0.08469243,-0.00034668,0.00046268,-0.00067991,0.00024496,
 -0.00015715,0.00010108,-0.01493757,-0.05609445,-0.04734543,-0.03441874
 ,0.18098643,-0.00157402,0.00051878,-0.00030101,0.00209615,-0.00013526,
 0.00015101,-0.00141404,-0.00063364,-0.00010496,0.00032727,0.00037054,0
 .00007115,0.00060666,-0.00018021,0.00000171,-0.00017372,-0.00009397,-0
 .00000970,0.00001824,0.00004550,0.00000069,0.00000549,-0.00002509,-0.0
 0000515,0.00095205,-0.00029618,0.00037261,-0.00166056,-0.00311489,0.00
 050763,0.00799864,-0.01438849,-0.00688902,0.00283366,0.00135980,-0.000
 91130,0.00097577,-0.00055732,0.00060784,-0.00000998,0.00009613,-0.0000
 4649,-0.00001735,0.00005309,-0.00001594,0.00005683,0.00002426,0.000023
 70,0.00000817,0.00000259,0.00000215,-0.00000639,0.00000532,0.00000811,
 -0.00000260,-0.00001075,0.00000121,-0.00000315,0.00000148,-0.00000122,
 0.00001721,-0.00000191,-0.00000200,0.00000311,0.00000723,0.00000804,0.
 00006998,-0.00004710,-0.00007061,0.00058760,0.00210174,0.00011961,0.05
 101546,-0.08265710,-0.18116418,-0.00018594,0.00032939,-0.00038651,0.00
 035562,-0.00015686,0.00009091,-0.01413580,-0.03923304,-0.01143688,-0.0
 5511578,0.14447427,0.28902912,0.00316229,-0.00033376,-0.00020858,-0.00
 393137,0.00037822,-0.00022148,0.00266193,0.00111384,-0.00003853,-0.000
 59432,-0.00063384,0.00004925,-0.00112672,0.00039232,0.00013777,0.00031
 757,0.00015782,-0.00003226,-0.00002856,-0.00008723,-0.00001786,-0.0000
 1350,0.00004864,0.00000367,-0.00056626,0.00101513,0.00072242,0.0028487
 3,0.00254740,0.00055719,-0.00847849,0.02740352,-0.02981711,-0.00285060
 ,-0.00385815,-0.00227233,-0.00263351,0.00070540,0.00162811,-0.00003094
 ,-0.00020389,0.00001591,0.00003587,-0.00012419,-0.00004110,-0.00008898
 ,-0.00003472,-0.00002517,-0.00002178,-0.00001205,-0.00000541,0.0000088
 1,0.00000335,0.00000112,0.00000509,0.00000871,-0.00000091,0.00000402,-
 0.00001118,0.00000231,-0.00003578,0.00000693,0.00000085,0.00000155,-0.
 00000868,-0.00000446,0.00002651,0.00001176,0.00001652,-0.00252613,-0.0
 0261765,-0.00180136,-0.09469836,0.03409361,-0.04347866,0.00017217,0.00
 021479,-0.00070028,-0.00050496,0.00023062,0.00024855,0.00993046,-0.028
 64428,0.02402441,0.01427261,-0.00407865,0.00637144,0.08468267,-0.00243
 457,0.00078793,0.00012521,0.00335812,-0.00024985,0.00021116,-0.0021592
 4,-0.00117978,0.00005414,0.00044076,0.00070154,-0.00005891,0.00086279,
 -0.00024166,-0.00011207,-0.00024473,-0.00012792,0.00002677,0.00002594,
 0.00006423,0.00001584,0.00000823,-0.00003716,-0.00000128,0.00137528,-0
 .00047770,-0.00089492,-0.00120801,-0.00670267,0.00054509,0.01431666,-0
 .00892138,0.02245799,0.00081112,0.00229366,0.00090395,0.00200968,0.000
 49326,-0.00119583,0.00001293,0.00016027,0.00001400,-0.00003557,0.00009
 276,0.00003158,0.00007057,0.00002420,0.00002228,0.00002271,0.00000968,
 0.00000008,-0.00000767,-0.00000386,0.00000160,-0.00000481,-0.00000230,
 -0.00000434,-0.00000043,0.00000976,-0.00000518,0.00002537,-0.00000325,
 0.00000016,-0.00000026,0.00000469,0.00000462,0.00019466,-0.00010115,-0
 .00005729,-0.00289157,0.00186493,-0.00097709,0.03429841,-0.13356487,0.
 08681869,-0.00038216,0.00046090,0.00066782,0.00025034,-0.00015628,-0.0
 0008378,-0.01742088,-0.05666002,0.04620378,-0.00360987,0.01832692,-0.0
 0785831,-0.02768379,0.18313513,0.00171797,-0.00052586,-0.00016423,-0.0
 0228150,0.00013120,-0.00001251,0.00154175,0.00074632,-0.00009302,-0.00
 035761,-0.00043617,0.00010970,-0.00064328,0.00020491,0.00011074,0.0001
 7842,0.00009265,-0.00004317,-0.00001776,-0.00004714,-0.00001942,-0.000
 00717,0.00002900,0.00000049,-0.00099145,0.00035221,0.00034865,0.001745
 17,0.00318136,0.00061270,-0.00793904,0.01578869,-0.00854026,-0.0029176
 0,-0.00154452,-0.00117611,-0.00111348,0.00058747,0.00066585,0.00000605
 ,-0.00010757,-0.00005434,0.00002686,-0.00007395,-0.00004792,-0.0000466
 3,-0.00001568,-0.00000865,-0.00001708,-0.00001222,-0.00000146,0.000004
 40,0.00000816,0.00000413,0.00000326,-0.00000202,0.00000512,-0.00000076
 ,-0.00001048,0.00000377,-0.00002025,0.00000349,-0.00000120,0.00000253,
 -0.00000183,0.00000033,-0.00005813,0.00004987,-0.00007927,-0.00083321,
 -0.00211864,-0.00020104,-0.04661494,0.08478241,-0.18492820,0.00021125,
 -0.00031066,-0.00041311,-0.00038226,0.00016606,0.00007990,0.01510053,0
 .03747700,-0.00875776,-0.00118201,0.00846171,-0.08965051,0.04488596,-0
 .14685576,0.29225079\\0.00000026,-0.00000044,0.00000013,0.00000065,-0.
 00000093,-0.00000120,0.00000742,-0.00000913,0.00000384,-0.00000059,0.0
 0000444,0.00000098,-0.00000545,0.00000725,-0.00000510,-0.00000173,-0.0
 0000015,0.00000024,0.00000017,0.00000120,0.00000114,0.00000068,0.00000
 190,0.00000031,-0.00000060,-0.00000045,0.00000101,-0.00000063,-0.00000
 110,0.00000146,-0.00000034,-0.00000131,0.00000017,0.00000013,-0.000001
 19,-0.00000149,0.00000024,-0.00000086,-0.00000181,-0.00000006,0.000000
 03,-0.00000363,0.00000017,0.00000166,0.00000045,-0.00000012,-0.0000003
 0,0.00000172,-0.00000054,0.00000068,0.00000116,0.00000033,0.00000309,-
 0.00000186,0.00000216,0.00000107,-0.00000163,0.00000016,0.00000264,0.0
 0000119,0.00000054,0.00000254,-0.00000049,-0.00000029,0.00000071,0.000
 00158,-0.00000066,-0.00000044,0.00000207,-0.00000126,-0.00000107,0.000
 00334,-0.00000033,-0.00000196,0.00000052,0.00000043,-0.00000148,-0.000
 00247,0.00000068,-0.00000075,-0.00000291,-0.00000003,-0.00000200,-0.00
 000102,-0.00000089,-0.00000310,0.00000109,-0.00000050,-0.00000057,0.00
 000122\\\@


 ... THIS SEEMS PLAINLY ABSURD; BUT WHOEVER WISHES TO BECOME A 
 PHILOSOPHER MUST LEARN NOT TO BE FRIGHTENED BY ABSURDITIES.

                          -- BERTRAND RUSSELL
 Job cpu time:       0 days  4 hours 31 minutes 38.5 seconds.
 File lengths (MBytes):  RWF=    689 Int=      0 D2E=      0 Chk=     23 Scr=      1
 Normal termination of Gaussian 09 at Thu Nov 14 10:39:42 2019.
pbs_rusage has been removed.
Please contact help@nci.org.au if you require this functionality.
