 Entering Gaussian System, Link 0=/apps/gaussian/g16c01/g16/g16
 Initial command:
 /apps/gaussian/g16c01/g16/l1.exe "/jobfs/11080172.gadi-pbs/Gau-308616.inp" -scrdir="/jobfs/11080172.gadi-pbs/"
 Entering Link 1 = /apps/gaussian/g16c01/g16/l1.exe PID=    308617.
  
 Copyright (c) 1988-2019, Gaussian, Inc.  All Rights Reserved.
  
 This is part of the Gaussian(R) 16 program.  It is based on
 the Gaussian(R) 09 system (copyright 2009, Gaussian, Inc.),
 the Gaussian(R) 03 system (copyright 2003, Gaussian, Inc.),
 the Gaussian(R) 98 system (copyright 1998, Gaussian, Inc.),
 the Gaussian(R) 94 system (copyright 1995, Gaussian, Inc.),
 the Gaussian 92(TM) system (copyright 1992, Gaussian, Inc.),
 the Gaussian 90(TM) system (copyright 1990, Gaussian, Inc.),
 the Gaussian 88(TM) system (copyright 1988, Gaussian, Inc.),
 the Gaussian 86(TM) system (copyright 1986, Carnegie Mellon
 University), and the Gaussian 82(TM) system (copyright 1983,
 Carnegie Mellon University). Gaussian is a federally registered
 trademark of Gaussian, Inc.
  
 This software contains proprietary and confidential information,
 including trade secrets, belonging to Gaussian, Inc.
  
 This software is provided under written license and may be
 used, copied, transmitted, or stored only in accord with that
 written license.
  
 The following legend is applicable only to US Government
 contracts under FAR:
  
                    RESTRICTED RIGHTS LEGEND
  
 Use, reproduction and disclosure by the US Government is
 subject to restrictions as set forth in subparagraphs (a)
 and (c) of the Commercial Computer Software - Restricted
 Rights clause in FAR 52.227-19.
  
 Gaussian, Inc.
 340 Quinnipiac St., Bldg. 40, Wallingford CT 06492
  
  
 ---------------------------------------------------------------
 Warning -- This program may not be used in any manner that
 competes with the business of Gaussian, Inc. or will provide
 assistance to any competitor of Gaussian, Inc.  The licensee
 of this program is prohibited from giving any competitor of
 Gaussian, Inc. access to this program.  By using this program,
 the user acknowledges that Gaussian, Inc. is engaged in the
 business of creating and licensing software in the field of
 computational chemistry and represents and warrants to the
 licensee that it is not a competitor of Gaussian, Inc. and that
 it will not use this program in any manner prohibited above.
 ---------------------------------------------------------------
  

 Cite this work as:
 Gaussian 16, Revision C.01,
 M. J. Frisch, G. W. Trucks, H. B. Schlegel, G. E. Scuseria, 
 M. A. Robb, J. R. Cheeseman, G. Scalmani, V. Barone, 
 G. A. Petersson, H. Nakatsuji, X. Li, M. Caricato, A. V. Marenich, 
 J. Bloino, B. G. Janesko, R. Gomperts, B. Mennucci, H. P. Hratchian, 
 J. V. Ortiz, A. F. Izmaylov, J. L. Sonnenberg, D. Williams-Young, 
 F. Ding, F. Lipparini, F. Egidi, J. Goings, B. Peng, A. Petrone, 
 T. Henderson, D. Ranasinghe, V. G. Zakrzewski, J. Gao, N. Rega, 
 G. Zheng, W. Liang, M. Hada, M. Ehara, K. Toyota, R. Fukuda, 
 J. Hasegawa, M. Ishida, T. Nakajima, Y. Honda, O. Kitao, H. Nakai, 
 T. Vreven, K. Throssell, J. A. Montgomery, Jr., J. E. Peralta, 
 F. Ogliaro, M. J. Bearpark, J. J. Heyd, E. N. Brothers, K. N. Kudin, 
 V. N. Staroverov, T. A. Keith, R. Kobayashi, J. Normand, 
 K. Raghavachari, A. P. Rendell, J. C. Burant, S. S. Iyengar, 
 J. Tomasi, M. Cossi, J. M. Millam, M. Klene, C. Adamo, R. Cammi, 
 J. W. Ochterski, R. L. Martin, K. Morokuma, O. Farkas, 
 J. B. Foresman, and D. J. Fox, Gaussian, Inc., Wallingford CT, 2019.
 
 ******************************************
 Gaussian 16:  ES64L-G16RevC.01  3-Jul-2019
                 9-Sep-2020 
 ******************************************
 %NprocShared=6
 Will use up to    6 processors via shared memory.
 %Mem=192000MB
 %chk=CP22_c2.DSDPBEP86_AUG-cc-PVTZ.chk
 ---------------------------------------------------------------------
 # DSDPBEP86/AUG-cc-PVTZ SCF=Tight INT(grid=ultrafine) MaxDisk=60000MB
 ---------------------------------------------------------------------
 1/38=1,172=1/1;
 2/12=2,17=6,18=5,40=1/2;
 3/5=16,6=1,7=10,11=9,25=1,30=1,74=-77,75=-5/1,2,3;
 4//1;
 5/5=2,32=2,38=5/2;
 8/10=1/1;
 9/16=-3/6;
 6/7=2,8=2,9=2,10=2/1;
 99/5=1,9=1/99;
 -----------------------------
 CP22_c2.DSDPBEP86_AUG-cc-PVTZ
 -----------------------------
 Symbolic Z-matrix:
 Charge =  0 Multiplicity = 1
 C                    -5.92864   1.41995   0.35153 
 N                    -4.70123   0.75319   0.36026 
 C                    -3.45371   1.28281   0.03512 
 O                    -3.28446   2.42232  -0.33867 
 N                    -2.4358    0.37321   0.1525 
 C                    -1.06213   0.81712  -0.05123 
 C                    -0.12067  -0.37697  -0.10489 
 C                     1.32401   0.06004  -0.32576 
 C                    -7.07247   0.64528   0.57584 
 C                    -8.30818   1.26115   0.5974 
 C                    -8.4775    2.62247   0.40675 
 C                    -7.32536   3.364     0.18702 
 C                    -6.0586    2.79857   0.15496 
 H                    -4.75523  -0.24796   0.47261 
 H                    -2.56674  -0.4195    0.76413 
 H                    -0.76001   1.51174   0.74132 
 H                    -1.03116   1.37307  -0.98957 
 H                    -0.4414   -1.04772  -0.90741 
 H                    -0.19261  -0.94425   0.83073 
 H                     1.42825   0.60793  -1.26514 
 H                     1.99517  -0.799    -0.36545 
 H                     1.66669   0.71366   0.47988 
 H                    -6.98942  -0.4233    0.73166 
 Cl                   -7.4759    5.07814  -0.05853 
 H                    -5.18992   3.41193  -0.02721 
 S                    -9.77348   0.23932   0.88945 
 H                    -9.45083   3.09198   0.42539 
 F                    -9.06311  -0.55088   2.10885 
 F                    -10.38888   1.30058   1.93668 
 F                    -9.26435  -0.90444  -0.13398 
 F                    -10.58963   0.94742  -0.30782 
 F                    -11.07131  -0.66948   1.149 
 
                          Input orientation:                          
 ---------------------------------------------------------------------
 Center     Atomic      Atomic             Coordinates (Angstroms)
 Number     Number       Type             X           Y           Z
 ---------------------------------------------------------------------
      1          6           0       -5.928642    1.419947    0.351533
      2          7           0       -4.701233    0.753189    0.360256
      3          6           0       -3.453707    1.282813    0.035122
      4          8           0       -3.284458    2.422322   -0.338674
      5          7           0       -2.435802    0.373209    0.152505
      6          6           0       -1.062125    0.817120   -0.051234
      7          6           0       -0.120667   -0.376967   -0.104890
      8          6           0        1.324013    0.060042   -0.325761
      9          6           0       -7.072470    0.645280    0.575840
     10          6           0       -8.308178    1.261151    0.597399
     11          6           0       -8.477502    2.622466    0.406751
     12          6           0       -7.325362    3.363995    0.187018
     13          6           0       -6.058604    2.798574    0.154960
     14          1           0       -4.755234   -0.247961    0.472609
     15          1           0       -2.566744   -0.419501    0.764134
     16          1           0       -0.760006    1.511743    0.741317
     17          1           0       -1.031164    1.373070   -0.989566
     18          1           0       -0.441397   -1.047724   -0.907407
     19          1           0       -0.192611   -0.944249    0.830725
     20          1           0        1.428252    0.607931   -1.265142
     21          1           0        1.995165   -0.799000   -0.365447
     22          1           0        1.666687    0.713659    0.479883
     23          1           0       -6.989421   -0.423301    0.731657
     24         17           0       -7.475904    5.078137   -0.058530
     25          1           0       -5.189923    3.411926   -0.027214
     26         16           0       -9.773481    0.239316    0.889451
     27          1           0       -9.450830    3.091979    0.425387
     28          9           0       -9.063112   -0.550879    2.108846
     29          9           0      -10.388882    1.300584    1.936680
     30          9           0       -9.264345   -0.904436   -0.133982
     31          9           0      -10.589628    0.947420   -0.307821
     32          9           0      -11.071305   -0.669475    1.149004
 ---------------------------------------------------------------------
                    Distance matrix (angstroms):
                    1          2          3          4          5
     1  C    0.000000
     2  N    1.396844   0.000000
     3  C    2.498845   1.393749   0.000000
     4  O    2.910816   2.298208   1.211135   0.000000
     5  N    3.651739   2.306452   1.370141   2.271637   0.000000
     6  C    4.920224   3.662856   2.438030   2.756458   1.457928
     7  C    6.096704   4.740802   3.726074   4.230869   2.447216
     8  C    7.410066   6.103660   4.944897   5.178662   3.803028
     9  C    1.399559   2.383461   3.714064   4.282902   4.663896
    10  C    2.397469   3.650248   4.886974   5.240449   5.955767
    11  C    2.818828   4.213854   5.212610   5.250088   6.451816
    12  C    2.399420   3.705721   4.398193   4.182344   5.731822
    13  C    1.398623   2.463372   3.016187   2.842731   4.359712
    14  H    2.042905   1.008881   2.056365   3.154643   2.422412
    15  H    3.854369   2.468676   2.053298   3.131654   1.009765
    16  H    5.184126   4.031611   2.794127   2.892818   2.109800
    17  H    5.077996   3.959253   2.631890   2.569422   2.068105
    18  H    6.146885   4.795463   3.923490   4.521911   2.668355
    19  H    6.222628   4.840487   4.028341   4.718137   2.688417
    20  H    7.576074   6.342997   5.097025   5.134199   4.122588
    21  H    8.259813   6.912141   5.846760   6.184825   4.612572
    22  H    7.629177   6.369167   5.171091   5.301265   4.129589
    23  H    2.160395   2.599590   3.987137   4.792695   4.658893
    24  Cl   3.993060   5.155517   5.530943   4.969915   6.898080
    25  H    2.158040   2.730904   2.747992   2.169590   4.105031
    26  S    4.057836   5.125603   6.462067   6.955661   7.375808
    27  H    3.899610   5.294606   6.276215   6.249509   7.528399
    28  F    4.098439   4.876899   6.255252   6.944286   6.971545
    29  F    4.735048   5.927403   7.191168   7.543764   8.203340
    30  F    4.094557   4.879957   6.210972   6.846040   6.952945
    31  F    4.731049   5.929355   7.152026   7.452637   8.186971
    32  F    5.607908   6.574490   7.942290   8.509253   8.755119
                    6          7          8          9         10
     6  C    0.000000
     7  C    1.521534   0.000000
     8  C    2.518370   1.525405   0.000000
     9  C    6.045411   7.059458   8.465006   0.000000
    10  C    7.288564   8.379258   9.750589   1.380846   0.000000
    11  C    7.645707   8.893541  10.157376   2.431454   1.384989
    12  C    6.765461   8.123277   9.273119   2.757998   2.357179
    13  C    5.378984   6.738744   7.888833   2.416970   2.760436
    14  H    3.879157   4.672190   6.139178   2.485583   3.862176
    15  H    2.111382   2.596210   4.068885   4.633657   5.984685
    16  H    1.096319   2.166113   2.754855   6.373802   7.553702
    17  H    1.091104   2.162009   2.776965   6.283117   7.448887
    18  H    2.143823   1.093991   2.163823   7.002672   8.335562
    19  H    2.153213   1.096522   2.155506   7.065694   8.413124
    20  H    2.778365   2.171487   1.092468   8.697867   9.934476
    21  H    3.472405   2.173188   1.090859   9.230058  10.551311
    22  H    2.781943   2.173951   1.092567   8.739952   9.990570
    23  H    6.106095   6.919663   8.394340   1.083070   2.143484
    24  Cl   7.700187   9.157501  10.133668   4.496155   3.961352
    25  H    4.875686   6.329226   7.331823   3.400293   3.839204
    26  S    8.781028   9.723442  11.165270   2.749294   1.810126
    27  H    8.704741   9.968286  11.218472   3.415490   2.164988
    28  F    8.399592   9.214021  10.686108   2.782724   2.477468
    29  F    9.548504  10.602756  11.993728   3.644159   2.474785
    30  F    8.381349   9.158925  10.633923   2.776649   2.477689
    31  F    9.531848  10.554351  11.946657   3.639031   2.474443
    32  F   10.189908  11.026073  12.504041   4.248268   3.415620
                   11         12         13         14         15
    11  C    0.000000
    12  C    1.387652   0.000000
    13  C    2.438336   1.387589   0.000000
    14  H    4.700954   4.442223   3.328821   0.000000
    15  H    6.657203   6.106746   4.787503   2.214475   0.000000
    16  H    7.804191   6.844121   5.484058   4.373855   2.644717
    17  H    7.678454   6.705599   5.349501   4.316758   2.940541
    18  H    8.931758   8.249243   6.890257   4.599267   2.775935
    19  H    9.029985   8.357719   6.991084   4.629319   2.432345
    20  H   10.245855   9.291416   7.928973   6.479801   4.597126
    21  H   11.044432  10.222914   8.836094   6.824505   4.714975
    22  H   10.322474   9.379072   8.008281   6.493523   4.391673
    23  H    3.405384   3.840977   3.402863   2.255979   4.422798
    24  Cl   2.692584   1.738171   2.692717   6.004288   7.416243
    25  H    3.408776   2.146693   1.078886   3.719349   4.710322
    26  S    2.755352   4.031169   4.570514   5.059051   7.237872
    27  H    1.080813   2.156021   3.415614   5.762470   7.735366
    28  F    3.648312   4.694618   4.905464   4.618099   6.635382
    29  F    2.782342   4.087071   4.916281   6.023246   8.094406
    30  F    3.653840   4.699171   4.906379   4.596846   6.774927
    31  F    2.788811   4.091471   4.916413   6.006510   8.208790
    32  F    4.256246   5.588058   6.175975   6.366156   8.516935
                   16         17         18         19         20
    16  H    0.000000
    17  H    1.757474   0.000000
    18  H    3.061156   2.492954   0.000000
    19  H    2.522266   3.063756   1.758894   0.000000
    20  H    3.103421   2.590387   2.522847   3.070687   0.000000
    21  H    3.762370   3.777046   2.508470   2.497657   1.763603
    22  H    2.567903   3.142054   3.077509   2.515698   1.764410
    23  H    6.523044   6.456810   6.778868   6.817465   8.712512
    24  Cl   7.646059   7.491931   9.366486   9.492432  10.036067
    25  H    4.881138   4.730575   6.573562   6.684718   7.293497
    26  S    9.104051   9.013557   9.590253   9.653877  11.413017
    27  H    8.838970   8.709048  10.004168  10.107920  11.286399
    28  F    8.664070   8.821220   9.147601   8.970737  11.081306
    29  F    9.705089   9.804850  10.609234  10.498874  12.262793
    30  F    8.884135   8.585123   8.857942   9.122971  10.858103
    31  F    9.901547   9.592195  10.359860  10.628860  12.060728
    32  F   10.547361  10.466610  10.833598  10.886818  12.794483
                   21         22         23         24         25
    21  H    0.000000
    22  H    1.763694   0.000000
    23  H    9.059116   8.734087   0.000000
    24  Cl  11.150609  10.145222   5.579147   0.000000
    25  H    8.334974   7.385858   4.303841   2.828948   0.000000
    26  S   11.880821  11.457321   2.866173   5.439828   5.649313
    27  H   12.115112  11.369194   4.302270   2.842417   4.296806
    28  F   11.334425  10.926169   2.492613   6.237193   5.938701
    29  F   12.769991  12.157446   3.997524   5.170708   5.945067
    30  F   11.262383  11.067182   2.481149   6.244630   5.936607
    31  F   12.705524  12.283826   3.990098   5.178827   5.942167
    32  F   13.154581  12.830325   4.110543   6.886226   7.254790
                   26         27         28         29         30
    26  S    0.000000
    27  H    2.908118   0.000000
    28  F    1.617392   4.031721   0.000000
    29  F    1.612978   2.524490   2.283686   0.000000
    30  F    1.617035   4.039679   2.279424   3.227125   0.000000
    31  F    1.612752   2.536452   3.227295   2.280967   2.283849
    32  F    1.605496   4.159099   2.228947   2.228736   2.228534
                   31         32
    31  F    0.000000
    32  F    2.229059   0.000000
 Stoichiometry    C10H12ClF5N2OS
 Framework group  C1[X(C10H12ClF5N2OS)]
 Deg. of freedom    90
 Full point group                 C1      NOp   1
 Largest Abelian subgroup         C1      NOp   1
 Largest concise Abelian subgroup C1      NOp   1
                         Standard orientation:                         
 ---------------------------------------------------------------------
 Center     Atomic      Atomic             Coordinates (Angstroms)
 Number     Number       Type             X           Y           Z
 ---------------------------------------------------------------------
      1          6           0       -0.570594    0.213779   -0.044558
      2          7           0       -1.803515   -0.441491   -0.085774
      3          6           0       -3.067346    0.136140    0.021984
      4          8           0       -3.251877    1.319417    0.202685
      5          7           0       -4.085454   -0.776384   -0.067694
      6          6           0       -5.463676   -0.301089   -0.080100
      7          6           0       -6.429522   -1.469688    0.048680
      8          6           0       -7.880280   -0.998352    0.046541
      9          6           0        0.574573   -0.590638   -0.028006
     10          6           0        1.817901    0.009758   -0.008141
     11          6           0        1.993744    1.383533   -0.004110
     12          6           0        0.840124    2.154537   -0.021143
     13          6           0       -0.434160    1.605727   -0.041477
     14          1           0       -1.758265   -1.448416   -0.042248
     15          1           0       -3.906978   -1.652111   -0.537667
     16          1           0       -5.666651    0.268672   -0.994479
     17          1           0       -5.581896    0.388898    0.756828
     18          1           0       -6.208609   -2.014443    0.971315
     19          1           0       -6.271070   -2.170651   -0.779515
     20          1           0       -8.071629   -0.315862    0.877852
     21          1           0       -8.569126   -1.838922    0.140911
     22          1           0       -8.123029   -0.470917   -0.878980
     23          1           0        0.486768   -1.670136   -0.031895
     24         17           0        0.998658    3.885460   -0.017379
     25          1           0       -1.304593    2.243158   -0.046128
     26         16           0        3.284817   -1.050560    0.012799
     27          1           0        2.972933    1.840785    0.012218
     28          9           0        2.690790   -2.010934   -1.145117
     29          9           0        4.028289   -0.160273   -1.108065
     30          9           0        2.647833   -2.026417    1.133850
     31          9           0        3.984679   -0.175115    1.172436
     32          9           0        4.584087   -1.993524    0.031033
 ---------------------------------------------------------------------
 Rotational constants (GHZ):           0.4515166           0.1149604           0.0952516
 Standard basis: Aug-CC-pVTZ (5D, 7F)
 There are  1408 symmetry adapted cartesian basis functions of A   symmetry.
 There are  1204 symmetry adapted basis functions of A   symmetry.
  1204 basis functions,  1848 primitive gaussians,  1408 cartesian basis functions
    86 alpha electrons       86 beta electrons
       nuclear repulsion energy      2000.4627188828 Hartrees.
 NAtoms=   32 NActive=   32 NUniq=   32 SFac= 1.00D+00 NAtFMM=   60 NAOKFM=F Big=F
 Integral buffers will be    131072 words long.
 Regular integral format.
 Two-electron integral symmetry is turned on.
 Nuclear repulsion after empirical dispersion term =     2000.4361300132 Hartrees.
 One-electron integrals computed using PRISM.
 NBasis=  1204 RedAO= T EigKep=  1.24D-06  NBF=  1204
 NBsUse=  1201 1.00D-06 EigRej=  8.93D-07 NBFU=  1201
 ExpMin= 2.53D-02 ExpMax= 4.56D+05 ExpMxC= 1.44D+03 IAcc=3 IRadAn=         5 AccDes= 0.00D+00
 Harris functional with IExCor= 1004 and IRadAn=       5 diagonalized for initial guess.
 HarFok:  IExCor= 1004 AccDes= 0.00D+00 IRadAn=         5 IDoV= 1 UseB2=F ITyADJ=14
 ICtDFT=  3500011 ScaDFX=  1.000000  1.000000  1.000000  1.000000
 FoFCou: FMM=F IPFlag=           0 FMFlag=      100000 FMFlg1=           0
         NFxFlg=           0 DoJE=T BraDBF=F KetDBF=T FulRan=T
         wScrn=  0.000000 ICntrl=       500 IOpCl=  0 I1Cent=   200000004 NGrid=           0
         NMat0=    1 NMatS0=      1 NMatT0=    0 NMatD0=    1 NMtDS0=    0 NMtDT0=    0
 Petite list used in FoFCou.
 Requested convergence on RMS density matrix=1.00D-08 within 128 cycles.
 Requested convergence on MAX density matrix=1.00D-06.
 Requested convergence on             energy=1.00D-06.
 No special actions if energy rises.
 SCF Done:  E(RDSDPBEP86) =  -1926.75253512     A.U. after   13 cycles
            NFock= 13  Conv=0.82D-08     -V/T= 2.0025
 DoSCS=T DFT=T ScalE2(SS,OS)=  0.220000  0.520000
 ExpMin= 2.53D-02 ExpMax= 4.56D+05 ExpMxC= 1.44D+03 IAcc=3 IRadAn=         5 AccDes= 0.00D+00
 HarFok:  IExCor=  205 AccDes= 0.00D+00 IRadAn=         5 IDoV=-2 UseB2=F ITyADJ=14
 ICtDFT= 12500011 ScaDFX=  1.000000  1.000000  1.000000  1.000000
 GSVD:  LWork=       -1008 too small for GESVD, short by        4340 words or        4340 for optimal perf.
 Range of M.O.s used for correlation:    29  1201
 NBasis=  1204 NAE=    86 NBE=    86 NFC=    28 NFV=     0
 NROrb=   1173 NOA=    58 NOB=    58 NVA=  1115 NVB=  1115

 **** Warning!!: The largest alpha MO coefficient is  0.12533600D+03

 DoSCS=T DFT=T ScalE2(SS,OS)=  0.220000  0.520000
 Fully direct method using O(OVN) memory.
 JobTyp=1 Pass  1:  I=   1 to  58 NPSUse=  6 ParTrn=T ParDer=T DoDerP=F.
 Spin components of T(2) and E(2):
     alpha-alpha T2 =       0.2011872274D+00 E2=     -0.1307593705D+00
     alpha-beta  T2 =       0.1033617650D+01 E2=     -0.1735724328D+01
     beta-beta   T2 =       0.2011872274D+00 E2=     -0.1307593705D+00
 E2(DSDPBEP86) =    -0.1997243069D+01 E(DSDPBEP86) =    -0.19287497781883D+04

 **********************************************************************

            Population analysis using the SCF Density.

 **********************************************************************

 Orbital symmetries:
       Occupied  (A) (A) (A) (A) (A) (A) (A) (A) (A) (A) (A) (A)
                 (A) (A) (A) (A) (A) (A) (A) (A) (A) (A) (A) (A)
                 (A) (A) (A) (A) (A) (A) (A) (A) (A) (A) (A) (A)
                 (A) (A) (A) (A) (A) (A) (A) (A) (A) (A) (A) (A)
                 (A) (A) (A) (A) (A) (A) (A) (A) (A) (A) (A) (A)
                 (A) (A) (A) (A) (A) (A) (A) (A) (A) (A) (A) (A)
                 (A) (A) (A) (A) (A) (A) (A) (A) (A) (A) (A) (A)
                 (A) (A)
       Virtual   (A) (A) (A) (A) (A) (A) (A) (A) (A) (A) (A) (A)
                 (A) (A) (A) (A) (A) (A) (A) (A) (A) (A) (A) (A)
                 (A) (A) (A) (A) (A) (A) (A) (A) (A) (A) (A) (A)
                 (A) (A) (A) (A) (A) (A) (A) (A) (A) (A) (A) (A)
                 (A) (A) (A) (A) (A) (A) (A) (A) (A) (A) (A) (A)
                 (A) (A) (A) (A) (A) (A) (A) (A) (A) (A) (A) (A)
                 (A) (A) (A) (A) (A) (A) (A) (A) (A) (A) (A) (A)
                 (A) (A) (A) (A) (A) (A) (A) (A) (A) (A) (A) (A)
                 (A) (A) (A) (A) (A) (A) (A) (A) (A) (A) (A) (A)
                 (A) (A) (A) (A) (A) (A) (A) (A) (A) (A) (A) (A)
                 (A) (A) (A) (A) (A) (A) (A) (A) (A) (A) (A) (A)
                 (A) (A) (A) (A) (A) (A) (A) (A) (A) (A) (A) (A)
                 (A) (A) (A) (A) (A) (A) (A) (A) (A) (A) (A) (A)
                 (A) (A) (A) (A) (A) (A) (A) (A) (A) (A) (A) (A)
                 (A) (A) (A) (A) (A) (A) (A) (A) (A) (A) (A) (A)
                 (A) (A) (A) (A) (A) (A) (A) (A) (A) (A) (A) (A)
                 (A) (A) (A) (A) (A) (A) (A) (A) (A) (A) (A) (A)
                 (A) (A) (A) (A) (A) (A) (A) (A) (A) (A) (A) (A)
                 (A) (A) (A) (A) (A) (A) (A) (A) (A) (A) (A) (A)
                 (A) (A) (A) (A) (A) (A) (A) (A) (A) (A) (A) (A)
                 (A) (A) (A) (A) (A) (A) (A) (A) (A) (A) (A) (A)
                 (A) (A) (A) (A) (A) (A) (A) (A) (A) (A) (A) (A)
                 (A) (A) (A) (A) (A) (A) (A) (A) (A) (A) (A) (A)
                 (A) (A) (A) (A) (A) (A) (A) (A) (A) (A) (A) (A)
                 (A) (A) (A) (A) (A) (A) (A) (A) (A) (A) (A) (A)
                 (A) (A) (A) (A) (A) (A) (A) (A) (A) (A) (A) (A)
                 (A) (A) (A) (A) (A) (A) (A) (A) (A) (A) (A) (A)
                 (A) (A) (A) (A) (A) (A) (A) (A) (A) (A) (A) (A)
                 (A) (A) (A) (A) (A) (A) (A) (A) (A) (A) (A) (A)
                 (A) (A) (A) (A) (A) (A) (A) (A) (A) (A) (A) (A)
                 (A) (A) (A) (A) (A) (A) (A) (A) (A) (A) (A) (A)
                 (A) (A) (A) (A) (A) (A) (A) (A) (A) (A) (A) (A)
                 (A) (A) (A) (A) (A) (A) (A) (A) (A) (A) (A) (A)
                 (A) (A) (A) (A) (A) (A) (A) (A) (A) (A) (A) (A)
                 (A) (A) (A) (A) (A) (A) (A) (A) (A) (A) (A) (A)
                 (A) (A) (A) (A) (A) (A) (A) (A) (A) (A) (A) (A)
                 (A) (A) (A) (A) (A) (A) (A) (A) (A) (A) (A) (A)
                 (A) (A) (A) (A) (A) (A) (A) (A) (A) (A) (A) (A)
                 (A) (A) (A) (A) (A) (A) (A) (A) (A) (A) (A) (A)
                 (A) (A) (A) (A) (A) (A) (A) (A) (A) (A) (A) (A)
                 (A) (A) (A) (A) (A) (A) (A) (A) (A) (A) (A) (A)
                 (A) (A) (A) (A) (A) (A) (A) (A) (A) (A) (A) (A)
                 (A) (A) (A) (A) (A) (A) (A) (A) (A) (A) (A) (A)
                 (A) (A) (A) (A) (A) (A) (A) (A) (A) (A) (A) (A)
                 (A) (A) (A) (A) (A) (A) (A) (A) (A) (A) (A) (A)
                 (A) (A) (A) (A) (A) (A) (A) (A) (A) (A) (A) (A)
                 (A) (A) (A) (A) (A) (A) (A) (A) (A) (A) (A) (A)
                 (A) (A) (A) (A) (A) (A) (A) (A) (A) (A) (A) (A)
                 (A) (A) (A) (A) (A) (A) (A) (A) (A) (A) (A) (A)
                 (A) (A) (A) (A) (A) (A) (A) (A) (A) (A) (A) (A)
                 (A) (A) (A) (A) (A) (A) (A) (A) (A) (A) (A) (A)
                 (A) (A) (A) (A) (A) (A) (A) (A) (A) (A) (A) (A)
                 (A) (A) (A) (A) (A) (A) (A) (A) (A) (A) (A) (A)
                 (A) (A) (A) (A) (A) (A) (A) (A) (A) (A) (A) (A)
                 (A) (A) (A) (A) (A) (A) (A) (A) (A) (A) (A) (A)
                 (A) (A) (A) (A) (A) (A) (A) (A) (A) (A) (A) (A)
                 (A) (A) (A) (A) (A) (A) (A) (A) (A) (A) (A) (A)
                 (A) (A) (A) (A) (A) (A) (A) (A) (A) (A) (A) (A)
                 (A) (A) (A) (A) (A) (A) (A) (A) (A) (A) (A) (A)
                 (A) (A) (A) (A) (A) (A) (A) (A) (A) (A) (A) (A)
                 (A) (A) (A) (A) (A) (A) (A) (A) (A) (A) (A) (A)
                 (A) (A) (A) (A) (A) (A) (A) (A) (A) (A) (A) (A)
                 (A) (A) (A) (A) (A) (A) (A) (A) (A) (A) (A) (A)
                 (A) (A) (A) (A) (A) (A) (A) (A) (A) (A) (A) (A)
                 (A) (A) (A) (A) (A) (A) (A) (A) (A) (A) (A) (A)
                 (A) (A) (A) (A) (A) (A) (A) (A) (A) (A) (A) (A)
                 (A) (A) (A) (A) (A) (A) (A) (A) (A) (A) (A) (A)
                 (A) (A) (A) (A) (A) (A) (A) (A) (A) (A) (A) (A)
                 (A) (A) (A) (A) (A) (A) (A) (A) (A) (A) (A) (A)
                 (A) (A) (A) (A) (A) (A) (A) (A) (A) (A) (A) (A)
                 (A) (A) (A) (A) (A) (A) (A) (A) (A) (A) (A) (A)
                 (A) (A) (A) (A) (A) (A) (A) (A) (A) (A) (A) (A)
                 (A) (A) (A) (A) (A) (A) (A) (A) (A) (A) (A) (A)
                 (A) (A) (A) (A) (A) (A) (A) (A) (A) (A) (A) (A)
                 (A) (A) (A) (A) (A) (A) (A) (A) (A) (A) (A) (A)
                 (A) (A) (A) (A) (A) (A) (A) (A) (A) (A) (A) (A)
                 (A) (A) (A) (A) (A) (A) (A) (A) (A) (A) (A) (A)
                 (A) (A) (A) (A) (A) (A) (A) (A) (A) (A) (A) (A)
                 (A) (A) (A) (A) (A) (A) (A) (A) (A) (A) (A) (A)
                 (A) (A) (A) (A) (A) (A) (A) (A) (A) (A) (A) (A)
                 (A) (A) (A) (A) (A) (A) (A) (A) (A) (A) (A) (A)
                 (A) (A) (A) (A) (A) (A) (A) (A) (A) (A) (A) (A)
                 (A) (A) (A) (A) (A) (A) (A) (A) (A) (A) (A) (A)
                 (A) (A) (A) (A) (A) (A) (A) (A) (A) (A) (A) (A)
                 (A) (A) (A) (A) (A) (A) (A) (A) (A) (A) (A) (A)
                 (A) (A) (A) (A) (A) (A) (A) (A) (A) (A) (A) (A)
                 (A) (A) (A) (A) (A) (A) (A) (A) (A) (A) (A) (A)
                 (A) (A) (A) (A) (A) (A) (A) (A) (A) (A) (A) (A)
                 (A) (A) (A) (A) (A) (A) (A) (A) (A) (A) (A) (A)
                 (A) (A) (A) (A) (A) (A) (A) (A) (A) (A) (A) (A)
                 (A) (A) (A) (A) (A) (A) (A) (A) (A) (A) (A) (A)
                 (A) (A) (A) (A) (A) (A) (A) (A) (A) (A) (A) (A)
                 (A) (A) (A) (A) (A) (A) (A) (A) (A) (A) (A)
 The electronic state is 1-A.
 Alpha  occ. eigenvalues -- -103.58067 -91.17113 -25.71661 -25.71658 -25.71651
 Alpha  occ. eigenvalues --  -25.71647 -25.71528 -19.98570 -15.14269 -15.11959
 Alpha  occ. eigenvalues --  -10.97980 -10.91094 -10.91049 -10.89492 -10.86235
 Alpha  occ. eigenvalues --  -10.86217 -10.85831 -10.84839 -10.83279 -10.81877
 Alpha  occ. eigenvalues --  -10.15565  -8.91604  -7.73246  -7.72770  -7.72753
 Alpha  occ. eigenvalues --   -6.70712  -6.70700  -6.70298  -1.59896  -1.50306
 Alpha  occ. eigenvalues --   -1.50223  -1.47329  -1.45933  -1.29562  -1.17226
 Alpha  occ. eigenvalues --   -1.13530  -1.09966  -1.04747  -0.99626  -0.97215
 Alpha  occ. eigenvalues --   -0.93881  -0.92611  -0.86153  -0.81716  -0.79316
 Alpha  occ. eigenvalues --   -0.77706  -0.77475  -0.75814  -0.75446  -0.71989
 Alpha  occ. eigenvalues --   -0.70016  -0.68792  -0.66897  -0.66596  -0.65463
 Alpha  occ. eigenvalues --   -0.64261  -0.61924  -0.61431  -0.60462  -0.60107
 Alpha  occ. eigenvalues --   -0.59825  -0.59524  -0.59486  -0.58775  -0.57384
 Alpha  occ. eigenvalues --   -0.56742  -0.56669  -0.56161  -0.55767  -0.55300
 Alpha  occ. eigenvalues --   -0.53254  -0.52973  -0.51622  -0.50689  -0.50209
 Alpha  occ. eigenvalues --   -0.47921  -0.47254  -0.45993  -0.45004  -0.44328
 Alpha  occ. eigenvalues --   -0.41656  -0.41530  -0.40000  -0.36893  -0.33679
 Alpha  occ. eigenvalues --   -0.30696
 Alpha virt. eigenvalues --    0.00123   0.01457   0.02079   0.02321   0.02399
 Alpha virt. eigenvalues --    0.03023   0.03340   0.03777   0.04354   0.04503
 Alpha virt. eigenvalues --    0.04704   0.05005   0.05857   0.05934   0.06488
 Alpha virt. eigenvalues --    0.06850   0.07112   0.07186   0.07823   0.08362
 Alpha virt. eigenvalues --    0.08735   0.08936   0.09138   0.09428   0.09910
 Alpha virt. eigenvalues --    0.10266   0.10539   0.10812   0.11100   0.11495
 Alpha virt. eigenvalues --    0.11764   0.11890   0.12307   0.12471   0.12758
 Alpha virt. eigenvalues --    0.12920   0.13086   0.13488   0.13713   0.14096
 Alpha virt. eigenvalues --    0.14513   0.14658   0.14881   0.15238   0.15414
 Alpha virt. eigenvalues --    0.15919   0.16624   0.16790   0.17024   0.17328
 Alpha virt. eigenvalues --    0.17680   0.18096   0.18479   0.18718   0.18920
 Alpha virt. eigenvalues --    0.19078   0.19196   0.19675   0.20018   0.20314
 Alpha virt. eigenvalues --    0.20538   0.20901   0.21437   0.21617   0.22607
 Alpha virt. eigenvalues --    0.22921   0.23014   0.23235   0.23311   0.23468
 Alpha virt. eigenvalues --    0.23541   0.23797   0.24613   0.24773   0.25064
 Alpha virt. eigenvalues --    0.25559   0.25841   0.26255   0.26407   0.26648
 Alpha virt. eigenvalues --    0.26737   0.26989   0.27080   0.27454   0.28004
 Alpha virt. eigenvalues --    0.28358   0.28597   0.28885   0.29169   0.29198
 Alpha virt. eigenvalues --    0.29737   0.29845   0.30424   0.30486   0.30614
 Alpha virt. eigenvalues --    0.30792   0.30922   0.31275   0.31391   0.31745
 Alpha virt. eigenvalues --    0.31916   0.32369   0.32668   0.32836   0.33592
 Alpha virt. eigenvalues --    0.33873   0.33909   0.33997   0.34158   0.34291
 Alpha virt. eigenvalues --    0.34774   0.35051   0.35273   0.35464   0.35884
 Alpha virt. eigenvalues --    0.36154   0.36516   0.36809   0.36972   0.37434
 Alpha virt. eigenvalues --    0.37827   0.38229   0.38532   0.38695   0.38889
 Alpha virt. eigenvalues --    0.39462   0.39643   0.39960   0.40278   0.40573
 Alpha virt. eigenvalues --    0.40749   0.40857   0.40974   0.41308   0.41612
 Alpha virt. eigenvalues --    0.41890   0.42465   0.42687   0.42917   0.43332
 Alpha virt. eigenvalues --    0.43368   0.43700   0.43975   0.44465   0.44546
 Alpha virt. eigenvalues --    0.44652   0.44967   0.45631   0.45768   0.46093
 Alpha virt. eigenvalues --    0.46192   0.46397   0.46823   0.47275   0.47528
 Alpha virt. eigenvalues --    0.47934   0.48068   0.48341   0.48960   0.49085
 Alpha virt. eigenvalues --    0.49388   0.49741   0.50020   0.50198   0.50471
 Alpha virt. eigenvalues --    0.50948   0.51110   0.51281   0.51490   0.51608
 Alpha virt. eigenvalues --    0.52088   0.52502   0.52993   0.53319   0.53650
 Alpha virt. eigenvalues --    0.53932   0.54325   0.54846   0.55078   0.55309
 Alpha virt. eigenvalues --    0.55964   0.56168   0.56494   0.56600   0.57231
 Alpha virt. eigenvalues --    0.57867   0.57984   0.59026   0.59208   0.59537
 Alpha virt. eigenvalues --    0.59963   0.60104   0.60541   0.60621   0.61031
 Alpha virt. eigenvalues --    0.61953   0.62383   0.63015   0.63234   0.63549
 Alpha virt. eigenvalues --    0.63855   0.64126   0.64923   0.65009   0.65649
 Alpha virt. eigenvalues --    0.65888   0.66077   0.66384   0.66971   0.67298
 Alpha virt. eigenvalues --    0.67924   0.68324   0.68702   0.69287   0.70232
 Alpha virt. eigenvalues --    0.70626   0.70841   0.71698   0.71966   0.72016
 Alpha virt. eigenvalues --    0.72542   0.72949   0.73102   0.73841   0.74040
 Alpha virt. eigenvalues --    0.74414   0.74664   0.75106   0.75574   0.76167
 Alpha virt. eigenvalues --    0.76466   0.76743   0.77201   0.77732   0.78082
 Alpha virt. eigenvalues --    0.78439   0.79178   0.79743   0.80081   0.80503
 Alpha virt. eigenvalues --    0.80897   0.80972   0.81455   0.81592   0.82084
 Alpha virt. eigenvalues --    0.82524   0.82586   0.83051   0.83214   0.83646
 Alpha virt. eigenvalues --    0.83927   0.84404   0.84729   0.84984   0.85363
 Alpha virt. eigenvalues --    0.85929   0.86020   0.86246   0.87041   0.87173
 Alpha virt. eigenvalues --    0.87455   0.87907   0.88319   0.88630   0.88813
 Alpha virt. eigenvalues --    0.89542   0.89677   0.90202   0.90471   0.90959
 Alpha virt. eigenvalues --    0.91185   0.91855   0.92011   0.92353   0.92782
 Alpha virt. eigenvalues --    0.93191   0.93694   0.94085   0.94363   0.94801
 Alpha virt. eigenvalues --    0.95142   0.95762   0.96178   0.96400   0.96728
 Alpha virt. eigenvalues --    0.97130   0.97611   0.97814   0.98473   0.98535
 Alpha virt. eigenvalues --    0.98657   0.99036   0.99431   0.99843   1.00003
 Alpha virt. eigenvalues --    1.00307   1.00882   1.00971   1.01596   1.02033
 Alpha virt. eigenvalues --    1.02215   1.02593   1.02750   1.03191   1.03633
 Alpha virt. eigenvalues --    1.04097   1.04556   1.05182   1.05517   1.05670
 Alpha virt. eigenvalues --    1.06076   1.06582   1.06924   1.07000   1.07054
 Alpha virt. eigenvalues --    1.07647   1.07953   1.08816   1.09104   1.09324
 Alpha virt. eigenvalues --    1.09441   1.10171   1.10628   1.10753   1.10949
 Alpha virt. eigenvalues --    1.11287   1.11451   1.12087   1.12412   1.12645
 Alpha virt. eigenvalues --    1.13127   1.13593   1.14316   1.14692   1.14919
 Alpha virt. eigenvalues --    1.15319   1.15792   1.15979   1.16193   1.16608
 Alpha virt. eigenvalues --    1.16761   1.17543   1.17920   1.18159   1.18760
 Alpha virt. eigenvalues --    1.19347   1.20081   1.20385   1.20589   1.20810
 Alpha virt. eigenvalues --    1.21219   1.21687   1.22027   1.22415   1.22920
 Alpha virt. eigenvalues --    1.23374   1.23624   1.23850   1.24183   1.24717
 Alpha virt. eigenvalues --    1.25081   1.25574   1.25963   1.26360   1.26524
 Alpha virt. eigenvalues --    1.27166   1.27388   1.27853   1.28538   1.28787
 Alpha virt. eigenvalues --    1.29587   1.29786   1.30176   1.30554   1.30760
 Alpha virt. eigenvalues --    1.30864   1.31536   1.31685   1.32199   1.32850
 Alpha virt. eigenvalues --    1.33387   1.33781   1.34125   1.34961   1.35122
 Alpha virt. eigenvalues --    1.35417   1.35864   1.36441   1.37122   1.37287
 Alpha virt. eigenvalues --    1.37515   1.37724   1.38188   1.38678   1.39042
 Alpha virt. eigenvalues --    1.39984   1.40444   1.41104   1.41642   1.42033
 Alpha virt. eigenvalues --    1.42112   1.42452   1.42714   1.43470   1.44020
 Alpha virt. eigenvalues --    1.44562   1.44771   1.45863   1.46346   1.46814
 Alpha virt. eigenvalues --    1.47385   1.47773   1.47938   1.48449   1.49509
 Alpha virt. eigenvalues --    1.49685   1.50128   1.50476   1.51213   1.51768
 Alpha virt. eigenvalues --    1.52178   1.52639   1.53526   1.53753   1.54119
 Alpha virt. eigenvalues --    1.54503   1.54984   1.55524   1.55752   1.56413
 Alpha virt. eigenvalues --    1.56807   1.57235   1.57818   1.58062   1.58596
 Alpha virt. eigenvalues --    1.58874   1.59456   1.60265   1.60724   1.61054
 Alpha virt. eigenvalues --    1.61592   1.61794   1.62264   1.62746   1.63315
 Alpha virt. eigenvalues --    1.63717   1.64290   1.64652   1.65304   1.65631
 Alpha virt. eigenvalues --    1.65925   1.66123   1.66932   1.67712   1.67959
 Alpha virt. eigenvalues --    1.68703   1.69121   1.69911   1.70544   1.70830
 Alpha virt. eigenvalues --    1.71138   1.71943   1.72175   1.72715   1.73269
 Alpha virt. eigenvalues --    1.73969   1.74436   1.75234   1.76081   1.76371
 Alpha virt. eigenvalues --    1.76959   1.77341   1.77774   1.77930   1.78379
 Alpha virt. eigenvalues --    1.79007   1.79421   1.79768   1.80054   1.81249
 Alpha virt. eigenvalues --    1.81532   1.82006   1.83129   1.83391   1.83978
 Alpha virt. eigenvalues --    1.84226   1.84929   1.85309   1.85926   1.86374
 Alpha virt. eigenvalues --    1.86687   1.87355   1.87976   1.88332   1.89203
 Alpha virt. eigenvalues --    1.89876   1.90182   1.90624   1.91243   1.92825
 Alpha virt. eigenvalues --    1.92960   1.93732   1.94040   1.94843   1.95054
 Alpha virt. eigenvalues --    1.95382   1.96688   1.96794   1.97706   1.97870
 Alpha virt. eigenvalues --    1.98796   1.99693   1.99743   2.00047   2.01725
 Alpha virt. eigenvalues --    2.02109   2.02863   2.03401   2.03975   2.04453
 Alpha virt. eigenvalues --    2.05209   2.05466   2.06317   2.07030   2.08325
 Alpha virt. eigenvalues --    2.08651   2.09056   2.10055   2.10622   2.11372
 Alpha virt. eigenvalues --    2.11468   2.12515   2.13153   2.14013   2.14739
 Alpha virt. eigenvalues --    2.16104   2.16275   2.17128   2.17479   2.18229
 Alpha virt. eigenvalues --    2.19025   2.19848   2.20180   2.20578   2.21230
 Alpha virt. eigenvalues --    2.21700   2.22439   2.22949   2.23225   2.24107
 Alpha virt. eigenvalues --    2.24705   2.24922   2.25414   2.26038   2.26893
 Alpha virt. eigenvalues --    2.27954   2.29250   2.29733   2.30540   2.30591
 Alpha virt. eigenvalues --    2.31506   2.32395   2.33274   2.34044   2.34730
 Alpha virt. eigenvalues --    2.35096   2.35529   2.36737   2.37227   2.38129
 Alpha virt. eigenvalues --    2.38293   2.38848   2.39477   2.40186   2.40651
 Alpha virt. eigenvalues --    2.41675   2.42177   2.44108   2.44387   2.44459
 Alpha virt. eigenvalues --    2.46660   2.47471   2.47650   2.48850   2.49499
 Alpha virt. eigenvalues --    2.50022   2.51227   2.51276   2.51759   2.52529
 Alpha virt. eigenvalues --    2.53130   2.54082   2.54985   2.55439   2.57057
 Alpha virt. eigenvalues --    2.57378   2.57952   2.58297   2.59077   2.60538
 Alpha virt. eigenvalues --    2.61073   2.61643   2.63180   2.63823   2.64110
 Alpha virt. eigenvalues --    2.65685   2.66123   2.66177   2.67241   2.67900
 Alpha virt. eigenvalues --    2.68956   2.70152   2.71008   2.71857   2.72158
 Alpha virt. eigenvalues --    2.72718   2.73330   2.74965   2.75617   2.76324
 Alpha virt. eigenvalues --    2.76540   2.77158   2.78610   2.80118   2.80960
 Alpha virt. eigenvalues --    2.81510   2.82658   2.83320   2.84159   2.85534
 Alpha virt. eigenvalues --    2.86262   2.86588   2.87191   2.89155   2.89370
 Alpha virt. eigenvalues --    2.90291   2.91657   2.91799   2.92671   2.94053
 Alpha virt. eigenvalues --    2.94203   2.94452   2.95478   2.96461   2.97829
 Alpha virt. eigenvalues --    2.98656   2.99342   3.00286   3.01031   3.01824
 Alpha virt. eigenvalues --    3.02514   3.03268   3.05135   3.06434   3.07135
 Alpha virt. eigenvalues --    3.07412   3.08013   3.08286   3.10405   3.10960
 Alpha virt. eigenvalues --    3.11654   3.12235   3.12705   3.12910   3.13431
 Alpha virt. eigenvalues --    3.13837   3.15131   3.16160   3.16884   3.18124
 Alpha virt. eigenvalues --    3.19852   3.20399   3.20510   3.20738   3.21308
 Alpha virt. eigenvalues --    3.21841   3.22060   3.23365   3.23646   3.24328
 Alpha virt. eigenvalues --    3.24941   3.26681   3.27610   3.28746   3.29812
 Alpha virt. eigenvalues --    3.30023   3.30551   3.31065   3.31865   3.32290
 Alpha virt. eigenvalues --    3.33383   3.33493   3.34101   3.34514   3.34773
 Alpha virt. eigenvalues --    3.35228   3.36290   3.36638   3.37731   3.38198
 Alpha virt. eigenvalues --    3.38953   3.39610   3.40086   3.40885   3.42361
 Alpha virt. eigenvalues --    3.42541   3.44030   3.45528   3.46544   3.46839
 Alpha virt. eigenvalues --    3.47236   3.47870   3.48198   3.48359   3.49105
 Alpha virt. eigenvalues --    3.49529   3.51229   3.51866   3.52703   3.53430
 Alpha virt. eigenvalues --    3.54381   3.54748   3.56763   3.56922   3.57624
 Alpha virt. eigenvalues --    3.58388   3.58763   3.58928   3.59704   3.60584
 Alpha virt. eigenvalues --    3.60767   3.61538   3.61742   3.62269   3.62703
 Alpha virt. eigenvalues --    3.63458   3.63651   3.64349   3.64822   3.65227
 Alpha virt. eigenvalues --    3.66896   3.67268   3.68548   3.69196   3.69783
 Alpha virt. eigenvalues --    3.71560   3.71852   3.72653   3.72905   3.73676
 Alpha virt. eigenvalues --    3.74235   3.74445   3.75450   3.76881   3.77096
 Alpha virt. eigenvalues --    3.77953   3.79431   3.80047   3.80270   3.80847
 Alpha virt. eigenvalues --    3.81239   3.81779   3.82160   3.83581   3.83916
 Alpha virt. eigenvalues --    3.84276   3.84691   3.85130   3.85287   3.85796
 Alpha virt. eigenvalues --    3.86316   3.86443   3.87458   3.88243   3.88362
 Alpha virt. eigenvalues --    3.89915   3.90359   3.91420   3.91993   3.92919
 Alpha virt. eigenvalues --    3.93741   3.94337   3.94882   3.95973   3.96729
 Alpha virt. eigenvalues --    3.97704   3.98858   3.99486   4.00140   4.00425
 Alpha virt. eigenvalues --    4.00762   4.02061   4.02511   4.03298   4.04123
 Alpha virt. eigenvalues --    4.05531   4.06177   4.06664   4.07409   4.07710
 Alpha virt. eigenvalues --    4.08308   4.08599   4.08946   4.10383   4.10810
 Alpha virt. eigenvalues --    4.11261   4.11767   4.13231   4.13684   4.14686
 Alpha virt. eigenvalues --    4.15630   4.16908   4.17529   4.18198   4.18455
 Alpha virt. eigenvalues --    4.19772   4.19967   4.21229   4.21760   4.22301
 Alpha virt. eigenvalues --    4.22506   4.23106   4.23654   4.24355   4.24969
 Alpha virt. eigenvalues --    4.25421   4.26019   4.26863   4.27842   4.28343
 Alpha virt. eigenvalues --    4.28596   4.29276   4.29391   4.29587   4.31110
 Alpha virt. eigenvalues --    4.31969   4.33083   4.33839   4.35373   4.35916
 Alpha virt. eigenvalues --    4.37684   4.38802   4.39394   4.39554   4.40116
 Alpha virt. eigenvalues --    4.41136   4.41378   4.41813   4.42694   4.43885
 Alpha virt. eigenvalues --    4.45204   4.45542   4.47153   4.48023   4.48495
 Alpha virt. eigenvalues --    4.50462   4.50904   4.52161   4.53446   4.54687
 Alpha virt. eigenvalues --    4.56181   4.56725   4.56964   4.57881   4.58891
 Alpha virt. eigenvalues --    4.59915   4.60398   4.62260   4.62855   4.63118
 Alpha virt. eigenvalues --    4.64281   4.65048   4.65698   4.67250   4.68828
 Alpha virt. eigenvalues --    4.69621   4.70151   4.71647   4.72080   4.72546
 Alpha virt. eigenvalues --    4.73506   4.75133   4.75582   4.76104   4.76623
 Alpha virt. eigenvalues --    4.78654   4.80322   4.81509   4.82506   4.83769
 Alpha virt. eigenvalues --    4.83946   4.85258   4.87519   4.88004   4.89006
 Alpha virt. eigenvalues --    4.91250   4.92507   4.92666   4.94202   4.94893
 Alpha virt. eigenvalues --    4.97167   4.97259   4.98784   5.00219   5.00807
 Alpha virt. eigenvalues --    5.01467   5.02541   5.02888   5.04929   5.05905
 Alpha virt. eigenvalues --    5.07405   5.08152   5.09039   5.10868   5.11548
 Alpha virt. eigenvalues --    5.11978   5.12885   5.13248   5.14082   5.14619
 Alpha virt. eigenvalues --    5.15203   5.15735   5.17296   5.19240   5.21038
 Alpha virt. eigenvalues --    5.22724   5.23080   5.25190   5.27713   5.29640
 Alpha virt. eigenvalues --    5.31153   5.31972   5.33813   5.34712   5.36369
 Alpha virt. eigenvalues --    5.38462   5.40148   5.41259   5.43178   5.44291
 Alpha virt. eigenvalues --    5.45301   5.45751   5.46828   5.48308   5.49278
 Alpha virt. eigenvalues --    5.50716   5.51158   5.51571   5.53630   5.54755
 Alpha virt. eigenvalues --    5.57664   5.58126   5.58492   5.60895   5.61328
 Alpha virt. eigenvalues --    5.61661   5.62431   5.65375   5.67305   5.68688
 Alpha virt. eigenvalues --    5.69204   5.70633   5.71850   5.72752   5.76280
 Alpha virt. eigenvalues --    5.76579   5.76767   5.77656   5.80022   5.82401
 Alpha virt. eigenvalues --    5.84493   5.85202   5.86162   5.87651   5.89971
 Alpha virt. eigenvalues --    5.91336   5.95114   5.96300   5.98288   5.98737
 Alpha virt. eigenvalues --    6.00146   6.01237   6.02504   6.04087   6.04653
 Alpha virt. eigenvalues --    6.05392   6.08875   6.11004   6.12661   6.12798
 Alpha virt. eigenvalues --    6.19360   6.19957   6.21737   6.23066   6.24429
 Alpha virt. eigenvalues --    6.25271   6.29061   6.35185   6.36286   6.39548
 Alpha virt. eigenvalues --    6.41453   6.47122   6.49195   6.50006   6.53448
 Alpha virt. eigenvalues --    6.55314   6.57222   6.58650   6.59641   6.62082
 Alpha virt. eigenvalues --    6.62914   6.66297   6.66794   6.67850   6.70886
 Alpha virt. eigenvalues --    6.76850   6.80968   6.82260   6.85466   6.88908
 Alpha virt. eigenvalues --    6.89599   6.91433   7.02628   7.09345   7.11245
 Alpha virt. eigenvalues --    7.19179   7.22956   7.32652   7.45065   7.51954
 Alpha virt. eigenvalues --    7.54477   7.60809   7.78341   7.81299   7.94147
 Alpha virt. eigenvalues --    8.44888   8.51812   8.57847   8.71934   8.74110
 Alpha virt. eigenvalues --    8.75869   8.76213   8.76704   8.78374   8.79603
 Alpha virt. eigenvalues --    8.81561   8.83184   8.83373   8.84157   8.90856
 Alpha virt. eigenvalues --    8.96068   8.97322   8.98214   9.00601   9.04229
 Alpha virt. eigenvalues --    9.07534   9.07857   9.09270   9.11184   9.12224
 Alpha virt. eigenvalues --    9.12416   9.14382   9.17151   9.17615   9.18074
 Alpha virt. eigenvalues --    9.18852   9.20440   9.21869   9.23325   9.26159
 Alpha virt. eigenvalues --    9.28164   9.29436   9.30497   9.30646   9.31642
 Alpha virt. eigenvalues --    9.31887   9.32625   9.34401   9.36873   9.37961
 Alpha virt. eigenvalues --    9.38707   9.39778   9.40737   9.44713   9.46680
 Alpha virt. eigenvalues --    9.46895   9.54933   9.59855   9.60329   9.66250
 Alpha virt. eigenvalues --    9.68911   9.75211   9.75356   9.75992   9.85242
 Alpha virt. eigenvalues --    9.90347  11.31027  15.45061  15.68291  15.83701
 Alpha virt. eigenvalues --   16.23103  16.25068  16.38501  16.60676  17.25415
 Alpha virt. eigenvalues --   17.41206  17.66210  17.86614  18.06171  18.89007
 Alpha virt. eigenvalues --   19.28757  19.48312  20.28364  20.91212  21.42557
          Condensed to atoms (all electrons):
               1          2          3          4          5          6
     1  C    9.420268  -0.255155  -0.627413   0.109149   0.082738   0.006637
     2  N   -0.255155   8.233690   0.342313  -0.070178  -0.552340  -0.099384
     3  C   -0.627413   0.342313   6.297817   0.302252   0.187156  -0.360410
     4  O    0.109149  -0.070178   0.302252   8.880208  -0.190544  -0.020501
     5  N    0.082738  -0.552340   0.187156  -0.190544   7.320180   0.210028
     6  C    0.006637  -0.099384  -0.360410  -0.020501   0.210028   5.701306
     7  C    0.001588  -0.027387   0.015579  -0.010841  -0.075484   0.042688
     8  C   -0.001031   0.004566  -0.001735  -0.000496  -0.010926  -0.025711
     9  C   -1.317483  -0.065993   0.043417   0.021953  -0.079638   0.003616
    10  C    0.068660  -0.040204  -0.075056   0.008173   0.012339  -0.004508
    11  C   -0.026848   0.033865   0.022356   0.002322  -0.007593  -0.001540
    12  C    0.034505  -0.004923   0.012311   0.023961   0.015829   0.000963
    13  C   -0.604558  -0.315957  -0.112229  -0.147522  -0.030791  -0.042996
    14  H    0.022307   0.133720  -0.110071   0.008138   0.159959   0.010238
    15  H   -0.034694   0.079657  -0.063488   0.004164   0.213420   0.017217
    16  H   -0.006031   0.014631   0.010339   0.011411  -0.064223   0.301283
    17  H    0.006494  -0.011940  -0.083423  -0.001550  -0.016129   0.444746
    18  H   -0.002158   0.001432   0.020173   0.003512  -0.043940  -0.032584
    19  H    0.000659  -0.005726  -0.003173   0.000281  -0.006898   0.022560
    20  H    0.000107   0.000370   0.003338   0.000197   0.003054  -0.008139
    21  H    0.000065  -0.000066   0.000797  -0.000136  -0.000458  -0.003082
    22  H    0.000222  -0.000356   0.002574  -0.000234   0.002703  -0.006585
    23  H   -0.775310   0.042634   0.013340   0.002870   0.020914   0.008121
    24  Cl  -0.055428   0.008290   0.004216  -0.005603   0.000912  -0.001196
    25  H   -0.446653  -0.134849   0.024198  -0.146238   0.000158  -0.031318
    26  S   -0.166152   0.021762  -0.022126  -0.000093   0.000135  -0.000948
    27  H   -0.076809   0.013496   0.002782   0.000119  -0.000035   0.000044
    28  F    0.021977  -0.009448   0.002089   0.000028  -0.000887   0.000072
    29  F    0.024951   0.003544   0.001991  -0.000004   0.000133   0.000030
    30  F    0.018531  -0.010139   0.000987  -0.000003  -0.001057  -0.000034
    31  F    0.020258   0.002305   0.001178  -0.000013   0.000109   0.000012
    32  F   -0.003414  -0.001146  -0.000129   0.000003  -0.000078  -0.000007
               7          8          9         10         11         12
     1  C    0.001588  -0.001031  -1.317483   0.068660  -0.026848   0.034505
     2  N   -0.027387   0.004566  -0.065993  -0.040204   0.033865  -0.004923
     3  C    0.015579  -0.001735   0.043417  -0.075056   0.022356   0.012311
     4  O   -0.010841  -0.000496   0.021953   0.008173   0.002322   0.023961
     5  N   -0.075484  -0.010926  -0.079638   0.012339  -0.007593   0.015829
     6  C    0.042688  -0.025711   0.003616  -0.004508  -0.001540   0.000963
     7  C    5.515236   0.127378  -0.001767   0.000887  -0.000242   0.000547
     8  C    0.127378   5.747801   0.000808  -0.000162   0.000042  -0.000015
     9  C   -0.001767   0.000808   9.077495  -0.842599  -0.249450  -0.176191
    10  C    0.000887  -0.000162  -0.842599   9.025067  -0.900251   0.151165
    11  C   -0.000242   0.000042  -0.249450  -0.900251   7.980165  -0.430473
    12  C    0.000547  -0.000015  -0.176191   0.151165  -0.430473   7.065918
    13  C   -0.007159   0.000163   0.043059  -0.331672   0.013569  -0.314794
    14  H    0.004495  -0.000364  -0.013993  -0.018180  -0.011767   0.002197
    15  H   -0.020277   0.004149   0.008972  -0.000683   0.000776   0.000424
    16  H   -0.003814  -0.005219   0.000048  -0.000285  -0.000105  -0.001047
    17  H   -0.016679  -0.009118  -0.002461   0.000284  -0.000175  -0.000330
    18  H    0.412159  -0.019386   0.000663   0.000019  -0.000021   0.000032
    19  H    0.423982  -0.024101  -0.000265  -0.000017   0.000000  -0.000052
    20  H    0.029980   0.374824   0.000001   0.000019  -0.000002  -0.000003
    21  H   -0.030107   0.447008   0.000019  -0.000019   0.000005  -0.000001
    22  H    0.032713   0.373502   0.000015   0.000033  -0.000009   0.000045
    23  H   -0.000213  -0.000057   0.296979  -0.456451   0.054115   0.020011
    24  Cl  -0.000014  -0.000006   0.014447   0.003681  -0.070502  -0.154899
    25  H   -0.000814  -0.000235  -0.073272  -0.076247   0.013491  -0.419607
    26  S    0.000027   0.000005   0.077061  -0.697502   0.062386  -0.032626
    27  H   -0.000003   0.000003   0.079226  -0.258718   0.131799  -0.250542
    28  F   -0.000008   0.000001   0.061837  -0.144046   0.000261   0.006950
    29  F    0.000000  -0.000000  -0.028498  -0.119982   0.061641  -0.006634
    30  F   -0.000007   0.000000   0.059286  -0.134229   0.000396   0.008728
    31  F    0.000000  -0.000000  -0.024226  -0.110234   0.058489  -0.007537
    32  F   -0.000000   0.000000  -0.001578   0.148429  -0.028423  -0.002964
              13         14         15         16         17         18
     1  C   -0.604558   0.022307  -0.034694  -0.006031   0.006494  -0.002158
     2  N   -0.315957   0.133720   0.079657   0.014631  -0.011940   0.001432
     3  C   -0.112229  -0.110071  -0.063488   0.010339  -0.083423   0.020173
     4  O   -0.147522   0.008138   0.004164   0.011411  -0.001550   0.003512
     5  N   -0.030791   0.159959   0.213420  -0.064223  -0.016129  -0.043940
     6  C   -0.042996   0.010238   0.017217   0.301283   0.444746  -0.032584
     7  C   -0.007159   0.004495  -0.020277  -0.003814  -0.016679   0.412159
     8  C    0.000163  -0.000364   0.004149  -0.005219  -0.009118  -0.019386
     9  C    0.043059  -0.013993   0.008972   0.000048  -0.002461   0.000663
    10  C   -0.331672  -0.018180  -0.000683  -0.000285   0.000284   0.000019
    11  C    0.013569  -0.011767   0.000776  -0.000105  -0.000175  -0.000021
    12  C   -0.314794   0.002197   0.000424  -0.001047  -0.000330   0.000032
    13  C    8.411275   0.003443   0.004219   0.003522  -0.002411   0.000013
    14  H    0.003443   0.858009  -0.037864   0.000424   0.000607  -0.000208
    15  H    0.004219  -0.037864   0.760035   0.025639  -0.010671   0.012681
    16  H    0.003522   0.000424   0.025639   0.411520   0.024601   0.014292
    17  H   -0.002411   0.000607  -0.010671   0.024601   0.395709  -0.014516
    18  H    0.000013  -0.000208   0.012681   0.014292  -0.014516   0.398585
    19  H   -0.000361  -0.000569  -0.008425  -0.007856   0.005067  -0.000356
    20  H    0.000169  -0.000048  -0.000189  -0.006652  -0.008850  -0.000544
    21  H   -0.000017   0.000041   0.000540   0.000804   0.000594   0.001271
    22  H   -0.000070  -0.000034  -0.000117  -0.010830  -0.006630  -0.002426
    23  H   -0.059067  -0.028329   0.000319  -0.000077   0.000296   0.000244
    24  Cl   0.111005   0.000629  -0.000189   0.000001  -0.000051  -0.000009
    25  H   -0.040677   0.009809  -0.001533   0.000711  -0.002858  -0.000224
    26  S    0.060981  -0.006380   0.000050  -0.000063  -0.000086  -0.000008
    27  H    0.013294  -0.001327   0.000087  -0.000006  -0.000018   0.000003
    28  F   -0.001072  -0.001785   0.000131  -0.000001   0.000008  -0.000003
    29  F   -0.000197  -0.000201   0.000040   0.000004   0.000002   0.000000
    30  F    0.000288  -0.001264  -0.000061   0.000002   0.000004   0.000002
    31  F   -0.000400  -0.000064  -0.000004   0.000002   0.000005   0.000001
    32  F    0.000983   0.000869  -0.000026  -0.000000  -0.000000  -0.000000
              19         20         21         22         23         24
     1  C    0.000659   0.000107   0.000065   0.000222  -0.775310  -0.055428
     2  N   -0.005726   0.000370  -0.000066  -0.000356   0.042634   0.008290
     3  C   -0.003173   0.003338   0.000797   0.002574   0.013340   0.004216
     4  O    0.000281   0.000197  -0.000136  -0.000234   0.002870  -0.005603
     5  N   -0.006898   0.003054  -0.000458   0.002703   0.020914   0.000912
     6  C    0.022560  -0.008139  -0.003082  -0.006585   0.008121  -0.001196
     7  C    0.423982   0.029980  -0.030107   0.032713  -0.000213  -0.000014
     8  C   -0.024101   0.374824   0.447008   0.373502  -0.000057  -0.000006
     9  C   -0.000265   0.000001   0.000019   0.000015   0.296979   0.014447
    10  C   -0.000017   0.000019  -0.000019   0.000033  -0.456451   0.003681
    11  C    0.000000  -0.000002   0.000005  -0.000009   0.054115  -0.070502
    12  C   -0.000052  -0.000003  -0.000001   0.000045   0.020011  -0.154899
    13  C   -0.000361   0.000169  -0.000017  -0.000070  -0.059067   0.111005
    14  H   -0.000569  -0.000048   0.000041  -0.000034  -0.028329   0.000629
    15  H   -0.008425  -0.000189   0.000540  -0.000117   0.000319  -0.000189
    16  H   -0.007856  -0.006652   0.000804  -0.010830  -0.000077   0.000001
    17  H    0.005067  -0.008850   0.000594  -0.006630   0.000296  -0.000051
    18  H   -0.000356  -0.000544   0.001271  -0.002426   0.000244  -0.000009
    19  H    0.368457   0.000401  -0.004067   0.003087  -0.000118   0.000007
    20  H    0.000401   0.312721  -0.000924   0.022714  -0.000020   0.000001
    21  H   -0.004067  -0.000924   0.312567  -0.001998   0.000002  -0.000000
    22  H    0.003087   0.022714  -0.001998   0.317456   0.000014  -0.000003
    23  H   -0.000118  -0.000020   0.000002   0.000014   1.454912  -0.002355
    24  Cl   0.000007   0.000001  -0.000000  -0.000003  -0.002355  17.593444
    25  H    0.000080   0.000067  -0.000005  -0.000055  -0.034217   0.031437
    26  S   -0.000000   0.000002  -0.000000   0.000001   0.079253  -0.005584
    27  H   -0.000001   0.000000   0.000000   0.000000   0.002871  -0.066292
    28  F    0.000003   0.000000   0.000000  -0.000000  -0.030310   0.000114
    29  F    0.000000   0.000000   0.000000  -0.000000   0.008496  -0.000388
    30  F    0.000002  -0.000000   0.000000  -0.000000  -0.031003   0.000099
    31  F   -0.000001  -0.000000   0.000000   0.000000   0.009298  -0.000444
    32  F    0.000001   0.000000  -0.000000   0.000000  -0.025032   0.000102
              25         26         27         28         29         30
     1  C   -0.446653  -0.166152  -0.076809   0.021977   0.024951   0.018531
     2  N   -0.134849   0.021762   0.013496  -0.009448   0.003544  -0.010139
     3  C    0.024198  -0.022126   0.002782   0.002089   0.001991   0.000987
     4  O   -0.146238  -0.000093   0.000119   0.000028  -0.000004  -0.000003
     5  N    0.000158   0.000135  -0.000035  -0.000887   0.000133  -0.001057
     6  C   -0.031318  -0.000948   0.000044   0.000072   0.000030  -0.000034
     7  C   -0.000814   0.000027  -0.000003  -0.000008   0.000000  -0.000007
     8  C   -0.000235   0.000005   0.000003   0.000001  -0.000000   0.000000
     9  C   -0.073272   0.077061   0.079226   0.061837  -0.028498   0.059286
    10  C   -0.076247  -0.697502  -0.258718  -0.144046  -0.119982  -0.134229
    11  C    0.013491   0.062386   0.131799   0.000261   0.061641   0.000396
    12  C   -0.419607  -0.032626  -0.250542   0.006950  -0.006634   0.008728
    13  C   -0.040677   0.060981   0.013294  -0.001072  -0.000197   0.000288
    14  H    0.009809  -0.006380  -0.001327  -0.001785  -0.000201  -0.001264
    15  H   -0.001533   0.000050   0.000087   0.000131   0.000040  -0.000061
    16  H    0.000711  -0.000063  -0.000006  -0.000001   0.000004   0.000002
    17  H   -0.002858  -0.000086  -0.000018   0.000008   0.000002   0.000004
    18  H   -0.000224  -0.000008   0.000003  -0.000003   0.000000   0.000002
    19  H    0.000080  -0.000000  -0.000001   0.000003   0.000000   0.000002
    20  H    0.000067   0.000002   0.000000   0.000000   0.000000  -0.000000
    21  H   -0.000005  -0.000000   0.000000   0.000000   0.000000   0.000000
    22  H   -0.000055   0.000001   0.000000  -0.000000  -0.000000  -0.000000
    23  H   -0.034217   0.079253   0.002871  -0.030310   0.008496  -0.031003
    24  Cl   0.031437  -0.005584  -0.066292   0.000114  -0.000388   0.000099
    25  H    1.647102  -0.007271  -0.031033  -0.000165   0.000459   0.000049
    26  S   -0.007271  13.891379   0.034181  -0.051786  -0.047186  -0.051021
    27  H   -0.031033   0.034181   0.991835   0.007607  -0.041607   0.007062
    28  F   -0.000165  -0.051786   0.007607   9.771346  -0.017105   0.019031
    29  F    0.000459  -0.047186  -0.041607  -0.017105   9.770336   0.051946
    30  F    0.000049  -0.051021   0.007062   0.019031   0.051946   9.766507
    31  F    0.000513  -0.044695  -0.044075   0.051261   0.016784  -0.017666
    32  F    0.000079   0.151661  -0.016973  -0.094469  -0.094838  -0.094987
              31         32
     1  C    0.020258  -0.003414
     2  N    0.002305  -0.001146
     3  C    0.001178  -0.000129
     4  O   -0.000013   0.000003
     5  N    0.000109  -0.000078
     6  C    0.000012  -0.000007
     7  C    0.000000  -0.000000
     8  C   -0.000000   0.000000
     9  C   -0.024226  -0.001578
    10  C   -0.110234   0.148429
    11  C    0.058489  -0.028423
    12  C   -0.007537  -0.002964
    13  C   -0.000400   0.000983
    14  H   -0.000064   0.000869
    15  H   -0.000004  -0.000026
    16  H    0.000002  -0.000000
    17  H    0.000005  -0.000000
    18  H    0.000001  -0.000000
    19  H   -0.000001   0.000001
    20  H   -0.000000   0.000000
    21  H    0.000000  -0.000000
    22  H    0.000000   0.000000
    23  H    0.009298  -0.025032
    24  Cl  -0.000444   0.000102
    25  H    0.000513   0.000079
    26  S   -0.044695   0.151661
    27  H   -0.044075  -0.016973
    28  F    0.051261  -0.094469
    29  F    0.016784  -0.094838
    30  F   -0.017666  -0.094987
    31  F    9.770267  -0.097294
    32  F   -0.097294   9.681379
 Mulliken charges:
               1
     1  C    0.560023
     2  N   -0.331081
     3  C    0.148052
     4  O   -0.784782
     5  N   -0.148748
     6  C   -0.130615
     7  C   -0.412443
     8  C   -0.981686
     9  C   -0.911487
    10  C    0.792290
    11  C   -0.708276
    12  C    0.459052
    13  C   -0.654031
    14  H    0.017568
    15  H    0.045702
    16  H    0.286974
    17  H    0.309477
    18  H    0.251301
    19  H    0.237401
    20  H    0.277406
    21  H    0.277168
    22  H    0.274270
    23  H    0.427868
    24  Cl  -0.405420
    25  H    0.719119
    26  S    2.754646
    27  H    0.503029
    28  F   -0.591630
    29  F   -0.583717
    30  F   -0.591450
    31  F   -0.583831
    32  F   -0.522148
 Sum of Mulliken charges =  -0.00000
 Mulliken charges with hydrogens summed into heavy atoms:
               1
     1  C    0.560023
     2  N   -0.313513
     3  C    0.148052
     4  O   -0.784782
     5  N   -0.103046
     6  C    0.465836
     7  C    0.076258
     8  C   -0.152842
     9  C   -0.483619
    10  C    0.792290
    11  C   -0.205246
    12  C    0.459052
    13  C    0.065088
    24  Cl  -0.405420
    26  S    2.754646
    28  F   -0.591630
    29  F   -0.583717
    30  F   -0.591450
    31  F   -0.583831
    32  F   -0.522148
 Electronic spatial extent (au):  <R**2>=          10520.4751
 Charge=             -0.0000 electrons
 Dipole moment (field-independent basis, Debye):
    X=             -5.1501    Y=             -3.2872    Z=             -0.8619  Tot=              6.1703
 Quadrupole moment (field-independent basis, Debye-Ang):
   XX=           -123.3067   YY=           -131.9918   ZZ=           -132.1416
   XY=             18.2703   XZ=              3.2049   YZ=              0.7206
 Traceless Quadrupole moment (field-independent basis, Debye-Ang):
   XX=              5.8400   YY=             -2.8451   ZZ=             -2.9949
   XY=             18.2703   XZ=              3.2049   YZ=              0.7206
 Octapole moment (field-independent basis, Debye-Ang**2):
  XXX=            -54.1934  YYY=            -52.1783  ZZZ=              0.9801  XYY=             22.8120
  XXY=            -37.2012  XXZ=             -9.9232  XZZ=             25.9208  YZZ=            -11.5412
  YYZ=             -2.8805  XYZ=             -2.7207
 Hexadecapole moment (field-independent basis, Debye-Ang**3):
 XXXX=          -9836.6429 YYYY=          -2336.1442 ZZZZ=           -306.2988 XXXY=            161.7988
 XXXZ=             28.5321 YYYX=            -86.7159 YYYZ=              5.4799 ZZZX=              2.0541
 ZZZY=              0.7440 XXYY=          -2137.6086 XXZZ=          -1789.1887 YYZZ=           -451.8419
 XXYZ=             12.3867 YYXZ=             12.3286 ZZXY=            -47.6167
 N-N= 2.000436130013D+03 E-N=-8.559508813822D+03  KE= 1.921988558923D+03
 Unable to Open any file for archive entry.
 1\1\GINC-GADI-CPU-CLX-2264\SP\RDSDPBEP86-FC\Aug-CC-pVTZ\C10H12Cl1F5N2O
 1S1\HIO507\09-Sep-2020\0\\# DSDPBEP86/AUG-cc-PVTZ SCF=Tight INT(grid=u
 ltrafine) MaxDisk=60000MB\\CP22_c2.DSDPBEP86_AUG-cc-PVTZ\\0,1\C,0,-5.9
 286419743,1.4199467089,0.3515334142\N,0,-4.7012333765,0.7531887212,0.3
 60255731\C,0,-3.4537066723,1.2828126907,0.0351216639\O,0,-3.2844584977
 ,2.4223218776,-0.3386736204\N,0,-2.4358024631,0.3732090485,0.152504766
 2\C,0,-1.0621254658,0.8171195865,-0.0512339121\C,0,-0.1206670757,-0.37
 696707,-0.1048904808\C,0,1.3240131,0.0600420145,-0.3257606922\C,0,-7.0
 724701868,0.6452797662,0.5758402703\C,0,-8.3081775427,1.2611512814,0.5
 973993595\C,0,-8.4775023079,2.6224656316,0.4067512601\C,0,-7.325361595
 9,3.3639953635,0.1870175277\C,0,-6.058603763,2.7985742413,0.154959807\
 H,0,-4.7552337412,-0.2479610642,0.4726093448\H,0,-2.5667442108,-0.4195
 011013,0.7641340313\H,0,-0.7600056162,1.5117429626,0.7413172028\H,0,-1
 .0311635228,1.3730699919,-0.9895662463\H,0,-0.4413969769,-1.0477241525
 ,-0.9074073986\H,0,-0.1926109378,-0.944248844,0.8307251471\H,0,1.42825
 18422,0.6079313839,-1.2651417863\H,0,1.9951652794,-0.7989997389,-0.365
 4469727\H,0,1.6666872168,0.7136591306,0.4798830046\H,0,-6.9894210667,-
 0.42330085,0.7316570649\Cl,0,-7.4759037931,5.0781374192,-0.0585301882\
 H,0,-5.189923162,3.41192628,-0.0272143493\S,0,-9.7734808973,0.23931560
 2,0.889450972\H,0,-9.4508298994,3.0919793099,0.4253871198\F,0,-9.06311
 15854,-0.5508785474,2.1088463591\F,0,-10.3888824641,1.3005835649,1.936
 680045\F,0,-9.2643450051,-0.9044361955,-0.1339815401\F,0,-10.58962819,
 0.9474200674,-0.3078211058\F,0,-11.071305448,-0.6694750804,1.149004201
 5\\Version=ES64L-G16RevC.01\State=1-A\HF=-1926.7525351\MP2=-1928.74977
 82\RMSD=8.156e-09\PG=C01 [X(C10H12Cl1F5N2O1S1)]\\@
 The archive entry for this job was punched.


 OLD HORSE! OLD HORSE! WHAT BROUGHT YOU HERE?
 FROM SACARAP' TO PORTLAND PIER
 I'VE CARTED STONE THIS MANY A YEAR;
 TILL, KILLED BY BLOWS AND SORE ABUSE,
 THEY SALTED ME DOWN FOR SAILORS' USE.
 THE SAILORS THEY DO ME DESPISE;
 THEY TURN ME OVER AND DAMN MY EYES;
 CUT OFF MY MEAT, AND SCRAPE MY BONES,
 AND PITCH ME OVER TO DAVY JONES.

    SAILORS' COMPLAINT ABOUT THE BEEF
    SERVED ON SHIPBOARD, CIRCA 1835.
 Job cpu time:       1 days  9 hours 58 minutes  6.3 seconds.
 Elapsed time:       0 days  5 hours 40 minutes 31.4 seconds.
 File lengths (MBytes):  RWF=    749 Int=      0 D2E=      0 Chk=     95 Scr=      1
 Normal termination of Gaussian 16 at Wed Sep  9 22:04:06 2020.
