 Entering Gaussian System, Link 0=/apps/gaussian/g09e01/g09/g09
 Initial command:
 /apps/gaussian/g09e01/g09/l1.exe "/jobfs/local/3579199.r-man2/Gau-27710.inp" -scrdir="/jobfs/local/3579199.r-man2/"
 Entering Link 1 = /apps/gaussian/g09e01/g09/l1.exe PID=     27711.
  
 Copyright (c) 1988,1990,1992,1993,1995,1998,2003,2009,2015,
            Gaussian, Inc.  All Rights Reserved.
  
 This is part of the Gaussian(R) 09 program.  It is based on
 the Gaussian(R) 03 system (copyright 2003, Gaussian, Inc.),
 the Gaussian(R) 98 system (copyright 1998, Gaussian, Inc.),
 the Gaussian(R) 94 system (copyright 1995, Gaussian, Inc.),
 the Gaussian 92(TM) system (copyright 1992, Gaussian, Inc.),
 the Gaussian 90(TM) system (copyright 1990, Gaussian, Inc.),
 the Gaussian 88(TM) system (copyright 1988, Gaussian, Inc.),
 the Gaussian 86(TM) system (copyright 1986, Carnegie Mellon
 University), and the Gaussian 82(TM) system (copyright 1983,
 Carnegie Mellon University). Gaussian is a federally registered
 trademark of Gaussian, Inc.
  
 This software contains proprietary and confidential information,
 including trade secrets, belonging to Gaussian, Inc.
  
 This software is provided under written license and may be
 used, copied, transmitted, or stored only in accord with that
 written license.
  
 The following legend is applicable only to US Government
 contracts under FAR:
  
                    RESTRICTED RIGHTS LEGEND
  
 Use, reproduction and disclosure by the US Government is
 subject to restrictions as set forth in subparagraphs (a)
 and (c) of the Commercial Computer Software - Restricted
 Rights clause in FAR 52.227-19.
  
 Gaussian, Inc.
 340 Quinnipiac St., Bldg. 40, Wallingford CT 06492
  
  
 ---------------------------------------------------------------
 Warning -- This program may not be used in any manner that
 competes with the business of Gaussian, Inc. or will provide
 assistance to any competitor of Gaussian, Inc.  The licensee
 of this program is prohibited from giving any competitor of
 Gaussian, Inc. access to this program.  By using this program,
 the user acknowledges that Gaussian, Inc. is engaged in the
 business of creating and licensing software in the field of
 computational chemistry and represents and warrants to the
 licensee that it is not a competitor of Gaussian, Inc. and that
 it will not use this program in any manner prohibited above.
 ---------------------------------------------------------------
  

 Cite this work as:
 Gaussian 09, Revision E.01,
 M. J. Frisch, G. W. Trucks, H. B. Schlegel, G. E. Scuseria, 
 M. A. Robb, J. R. Cheeseman, G. Scalmani, V. Barone, B. Mennucci, 
 G. A. Petersson, H. Nakatsuji, M. Caricato, X. Li, H. P. Hratchian, 
 A. F. Izmaylov, J. Bloino, G. Zheng, J. L. Sonnenberg, M. Hada, 
 M. Ehara, K. Toyota, R. Fukuda, J. Hasegawa, M. Ishida, T. Nakajima, 
 Y. Honda, O. Kitao, H. Nakai, T. Vreven, J. A. Montgomery, Jr., 
 J. E. Peralta, F. Ogliaro, M. Bearpark, J. J. Heyd, E. Brothers, 
 K. N. Kudin, V. N. Staroverov, T. Keith, R. Kobayashi, J. Normand, 
 K. Raghavachari, A. Rendell, J. C. Burant, S. S. Iyengar, J. Tomasi, 
 M. Cossi, N. Rega, J. M. Millam, M. Klene, J. E. Knox, J. B. Cross, 
 V. Bakken, C. Adamo, J. Jaramillo, R. Gomperts, R. E. Stratmann, 
 O. Yazyev, A. J. Austin, R. Cammi, C. Pomelli, J. W. Ochterski, 
 R. L. Martin, K. Morokuma, V. G. Zakrzewski, G. A. Voth, 
 P. Salvador, J. J. Dannenberg, S. Dapprich, A. D. Daniels, 
 O. Farkas, J. B. Foresman, J. V. Ortiz, J. Cioslowski, 
 and D. J. Fox, Gaussian, Inc., Wallingford CT, 2013.
 
 ******************************************
 Gaussian 09:  ES64L-G09RevE.01 30-Nov-2015
                14-Nov-2019 
 ******************************************
 %chk=CP22.M062X_6-311pGd_opt_GD3.chk
 %mem=196608000
 %nproc=4
 Will use up to    4 processors via shared memory.
 ----------------------------------------------------------------------
 # M062X/6-311+G* SCF=Tight INT(grid=ultrafine) OPT IOP(2/17=4) Empiric
 alDispersion=GD3 maxdisk=2684354560
 ----------------------------------------------------------------------
 1/14=-1,18=20,19=15,26=4,38=1/1,3;
 2/9=110,12=2,17=4,18=5,40=1/2;
 3/5=4,6=6,7=11,11=2,16=1,25=1,30=1,71=1,74=-55,75=-5,124=31/1,2,3;
 4//1;
 5/5=2,32=2,38=5/2;
 6/7=2,8=2,9=2,10=2,28=1/1;
 7//1,2,3,16;
 1/14=-1,18=20,19=15,26=4/3(2);
 2/9=110,17=4/2;
 99//99;
 2/9=110,17=4/2;
 3/5=4,6=6,7=11,11=2,16=1,25=1,30=1,71=1,74=-55,75=-5,124=31/1,2,3;
 4/5=5,16=3,69=1/1;
 5/5=2,32=2,38=5/2;
 7//1,2,3,16;
 1/14=-1,18=20,19=15,26=4/3(-5);
 2/9=110,17=4/2;
 6/7=2,8=2,9=2,10=2,19=2,28=1/1;
 99/9=1/99;
 ---------------------------
 CP22.M062X_6-311pGd_opt_GD3
 ---------------------------
 Symbolic Z-matrix:
 Charge =  0 Multiplicity = 1
 C                    -5.94499   1.18453   0.24787 
 N                    -4.68987   0.57204   0.2269 
 C                    -3.45712   1.19426   0.03139 
 O                    -3.3295    2.37973  -0.17731 
 N                    -2.40143   0.32072   0.06943 
 C                    -1.04571   0.85247  -0.00927 
 C                    -0.03939  -0.27788  -0.1649 
 C                     1.38714   0.25418  -0.26018 
 C                    -6.12204   2.57232   0.27676 
 C                    -7.41684   3.05897   0.32364 
 C                    -8.54872   2.2607    0.34335 
 C                    -8.3384    0.89001   0.31364 
 C                    -7.06603   0.34806   0.26593 
 H                    -4.70181  -0.43577   0.18291 
 H                    -2.51514  -0.54533   0.57625 
 H                    -0.81628   1.4548    0.8775 
 H                    -1.00485   1.52421  -0.8681 
 H                    -0.28891  -0.85701  -1.05889 
 H                    -0.11891  -0.96151   0.68878 
 H                     1.50029   0.91939  -1.11933 
 H                     2.10586  -0.55883  -0.37174 
 H                     1.65874   0.81867   0.63495 
 H                    -5.26987   3.23274   0.25367 
 Cl                   -9.70871  -0.17964   0.33506 
 H                    -6.94915  -0.72989   0.24388 
 S                    -7.64448   4.85795   0.36279 
 H                    -9.54735   2.67231   0.37894 
 F                    -6.55669   5.09335  -0.80198 
 F                    -8.81835   4.79857  -0.74657 
 F                    -6.49517   5.04922   1.47788 
 F                    -8.75703   4.75489   1.53144 
 F                    -7.85406   6.4499    0.40004 
 

 GradGradGradGradGradGradGradGradGradGradGradGradGradGradGradGradGradGrad
 Berny optimization.
 Initialization pass.
                           ----------------------------
                           !    Initial Parameters    !
                           ! (Angstroms and Degrees)  !
 --------------------------                            --------------------------
 ! Name  Definition              Value          Derivative Info.                !
 --------------------------------------------------------------------------------
 ! R1    R(1,2)                  1.3967         estimate D2E/DX2                !
 ! R2    R(1,9)                  1.3993         estimate D2E/DX2                !
 ! R3    R(1,13)                 1.3988         estimate D2E/DX2                !
 ! R4    R(2,3)                  1.3947         estimate D2E/DX2                !
 ! R5    R(2,14)                 1.0088         estimate D2E/DX2                !
 ! R6    R(3,4)                  1.2104         estimate D2E/DX2                !
 ! R7    R(3,5)                  1.3708         estimate D2E/DX2                !
 ! R8    R(5,6)                  1.4584         estimate D2E/DX2                !
 ! R9    R(5,15)                 1.0099         estimate D2E/DX2                !
 ! R10   R(6,7)                  1.5214         estimate D2E/DX2                !
 ! R11   R(6,16)                 1.0963         estimate D2E/DX2                !
 ! R12   R(6,17)                 1.0911         estimate D2E/DX2                !
 ! R13   R(7,8)                  1.5255         estimate D2E/DX2                !
 ! R14   R(7,18)                 1.094          estimate D2E/DX2                !
 ! R15   R(7,19)                 1.0966         estimate D2E/DX2                !
 ! R16   R(8,20)                 1.0925         estimate D2E/DX2                !
 ! R17   R(8,21)                 1.0909         estimate D2E/DX2                !
 ! R18   R(8,22)                 1.0926         estimate D2E/DX2                !
 ! R19   R(9,10)                 1.384          estimate D2E/DX2                !
 ! R20   R(9,23)                 1.0784         estimate D2E/DX2                !
 ! R21   R(10,11)                1.3852         estimate D2E/DX2                !
 ! R22   R(10,26)                1.8138         estimate D2E/DX2                !
 ! R23   R(11,12)                1.387          estimate D2E/DX2                !
 ! R24   R(11,27)                1.0807         estimate D2E/DX2                !
 ! R25   R(12,13)                1.3838         estimate D2E/DX2                !
 ! R26   R(12,24)                1.7385         estimate D2E/DX2                !
 ! R27   R(13,25)                1.0845         estimate D2E/DX2                !
 ! R28   R(26,28)                1.611          estimate D2E/DX2                !
 ! R29   R(26,29)                1.6162         estimate D2E/DX2                !
 ! R30   R(26,30)                1.6127         estimate D2E/DX2                !
 ! R31   R(26,31)                1.6168         estimate D2E/DX2                !
 ! R32   R(26,32)                1.6061         estimate D2E/DX2                !
 ! A1    A(2,1,9)              123.2917         estimate D2E/DX2                !
 ! A2    A(2,1,13)             117.266          estimate D2E/DX2                !
 ! A3    A(9,1,13)             119.4309         estimate D2E/DX2                !
 ! A4    A(1,2,3)              126.9232         estimate D2E/DX2                !
 ! A5    A(1,2,14)             115.3462         estimate D2E/DX2                !
 ! A6    A(3,2,14)             116.7462         estimate D2E/DX2                !
 ! A7    A(2,3,4)              123.6628         estimate D2E/DX2                !
 ! A8    A(2,3,5)              113.1123         estimate D2E/DX2                !
 ! A9    A(4,3,5)              123.2097         estimate D2E/DX2                !
 ! A10   A(3,5,6)              118.8207         estimate D2E/DX2                !
 ! A11   A(3,5,15)             118.2758         estimate D2E/DX2                !
 ! A12   A(6,5,15)             116.3878         estimate D2E/DX2                !
 ! A13   A(5,6,7)              110.457          estimate D2E/DX2                !
 ! A14   A(5,6,16)             110.5623         estimate D2E/DX2                !
 ! A15   A(5,6,17)             107.5638         estimate D2E/DX2                !
 ! A16   A(7,6,16)             110.6423         estimate D2E/DX2                !
 ! A17   A(7,6,17)             110.6178         estimate D2E/DX2                !
 ! A18   A(16,6,17)            106.894          estimate D2E/DX2                !
 ! A19   A(6,7,8)              111.4563         estimate D2E/DX2                !
 ! A20   A(6,7,18)             109.0285         estimate D2E/DX2                !
 ! A21   A(6,7,19)             109.6085         estimate D2E/DX2                !
 ! A22   A(8,7,18)             110.2958         estimate D2E/DX2                !
 ! A23   A(8,7,19)             109.5045         estimate D2E/DX2                !
 ! A24   A(18,7,19)            106.8342         estimate D2E/DX2                !
 ! A25   A(7,8,20)             110.9994         estimate D2E/DX2                !
 ! A26   A(7,8,21)             111.257          estimate D2E/DX2                !
 ! A27   A(7,8,22)             111.1921         estimate D2E/DX2                !
 ! A28   A(20,8,21)            107.7672         estimate D2E/DX2                !
 ! A29   A(20,8,22)            107.6967         estimate D2E/DX2                !
 ! A30   A(21,8,22)            107.7619         estimate D2E/DX2                !
 ! A31   A(1,9,10)             117.8904         estimate D2E/DX2                !
 ! A32   A(1,9,23)             120.4605         estimate D2E/DX2                !
 ! A33   A(10,9,23)            121.6467         estimate D2E/DX2                !
 ! A34   A(9,10,11)            124.2147         estimate D2E/DX2                !
 ! A35   A(9,10,26)            117.8333         estimate D2E/DX2                !
 ! A36   A(11,10,26)           117.952          estimate D2E/DX2                !
 ! A37   A(10,11,12)           116.4419         estimate D2E/DX2                !
 ! A38   A(10,11,27)           122.414          estimate D2E/DX2                !
 ! A39   A(12,11,27)           121.1441         estimate D2E/DX2                !
 ! A40   A(11,12,13)           121.8144         estimate D2E/DX2                !
 ! A41   A(11,12,24)           119.2251         estimate D2E/DX2                !
 ! A42   A(13,12,24)           118.9604         estimate D2E/DX2                !
 ! A43   A(1,13,12)            120.2076         estimate D2E/DX2                !
 ! A44   A(1,13,25)            120.5133         estimate D2E/DX2                !
 ! A45   A(12,13,25)           119.2791         estimate D2E/DX2                !
 ! A46   A(10,26,28)            92.5549         estimate D2E/DX2                !
 ! A47   A(10,26,29)            92.2866         estimate D2E/DX2                !
 ! A48   A(10,26,30)            92.4712         estimate D2E/DX2                !
 ! A49   A(10,26,31)            92.2201         estimate D2E/DX2                !
 ! A50   A(28,26,29)            89.9723         estimate D2E/DX2                !
 ! A51   A(28,26,30)            90.0792         estimate D2E/DX2                !
 ! A52   A(28,26,32)            87.7101         estimate D2E/DX2                !
 ! A53   A(29,26,31)            89.6568         estimate D2E/DX2                !
 ! A54   A(29,26,32)            87.5678         estimate D2E/DX2                !
 ! A55   A(30,26,31)            89.8953         estimate D2E/DX2                !
 ! A56   A(30,26,32)            87.6732         estimate D2E/DX2                !
 ! A57   A(31,26,32)            87.5144         estimate D2E/DX2                !
 ! A58   L(10,26,32,28,-1)     180.2651         estimate D2E/DX2                !
 ! A59   L(28,26,31,10,-1)     184.775          estimate D2E/DX2                !
 ! A60   L(29,26,30,10,-1)     184.7579         estimate D2E/DX2                !
 ! A61   L(10,26,32,28,-2)     179.8546         estimate D2E/DX2                !
 ! A62   L(28,26,31,10,-2)     180.1807         estimate D2E/DX2                !
 ! A63   L(29,26,30,10,-2)     180.264          estimate D2E/DX2                !
 ! D1    D(9,1,2,3)            -10.2948         estimate D2E/DX2                !
 ! D2    D(9,1,2,14)          -178.492          estimate D2E/DX2                !
 ! D3    D(13,1,2,3)           170.9443         estimate D2E/DX2                !
 ! D4    D(13,1,2,14)            2.7471         estimate D2E/DX2                !
 ! D5    D(2,1,9,10)          -178.6819         estimate D2E/DX2                !
 ! D6    D(2,1,9,23)             1.867          estimate D2E/DX2                !
 ! D7    D(13,1,9,10)            0.0536         estimate D2E/DX2                !
 ! D8    D(13,1,9,23)         -179.3976         estimate D2E/DX2                !
 ! D9    D(2,1,13,12)          178.7308         estimate D2E/DX2                !
 ! D10   D(2,1,13,25)           -1.2022         estimate D2E/DX2                !
 ! D11   D(9,1,13,12)           -0.0801         estimate D2E/DX2                !
 ! D12   D(9,1,13,25)          179.9869         estimate D2E/DX2                !
 ! D13   D(1,2,3,4)             -1.5833         estimate D2E/DX2                !
 ! D14   D(1,2,3,5)            179.8001         estimate D2E/DX2                !
 ! D15   D(14,2,3,4)           166.47           estimate D2E/DX2                !
 ! D16   D(14,2,3,5)           -12.1465         estimate D2E/DX2                !
 ! D17   D(2,3,5,6)           -174.9518         estimate D2E/DX2                !
 ! D18   D(2,3,5,15)           -24.2625         estimate D2E/DX2                !
 ! D19   D(4,3,5,6)              6.4244         estimate D2E/DX2                !
 ! D20   D(4,3,5,15)           157.1138         estimate D2E/DX2                !
 ! D21   D(3,5,6,7)           -171.3601         estimate D2E/DX2                !
 ! D22   D(3,5,6,16)            65.8339         estimate D2E/DX2                !
 ! D23   D(3,5,6,17)           -50.5439         estimate D2E/DX2                !
 ! D24   D(15,5,6,7)            37.4088         estimate D2E/DX2                !
 ! D25   D(15,5,6,16)          -85.3973         estimate D2E/DX2                !
 ! D26   D(15,5,6,17)          158.2249         estimate D2E/DX2                !
 ! D27   D(5,6,7,8)            179.5698         estimate D2E/DX2                !
 ! D28   D(5,6,7,18)            57.5785         estimate D2E/DX2                !
 ! D29   D(5,6,7,19)           -59.0413         estimate D2E/DX2                !
 ! D30   D(16,6,7,8)           -57.6709         estimate D2E/DX2                !
 ! D31   D(16,6,7,18)         -179.6621         estimate D2E/DX2                !
 ! D32   D(16,6,7,19)           63.7181         estimate D2E/DX2                !
 ! D33   D(17,6,7,8)            60.5923         estimate D2E/DX2                !
 ! D34   D(17,6,7,18)          -61.3989         estimate D2E/DX2                !
 ! D35   D(17,6,7,19)         -178.0187         estimate D2E/DX2                !
 ! D36   D(6,7,8,20)           -59.9929         estimate D2E/DX2                !
 ! D37   D(6,7,8,21)          -179.9961         estimate D2E/DX2                !
 ! D38   D(6,7,8,22)            59.8778         estimate D2E/DX2                !
 ! D39   D(18,7,8,20)           61.2629         estimate D2E/DX2                !
 ! D40   D(18,7,8,21)          -58.7403         estimate D2E/DX2                !
 ! D41   D(18,7,8,22)         -178.8663         estimate D2E/DX2                !
 ! D42   D(19,7,8,20)          178.5576         estimate D2E/DX2                !
 ! D43   D(19,7,8,21)           58.5545         estimate D2E/DX2                !
 ! D44   D(19,7,8,22)          -61.5716         estimate D2E/DX2                !
 ! D45   D(1,9,10,11)           -0.0234         estimate D2E/DX2                !
 ! D46   D(1,9,10,26)          179.937          estimate D2E/DX2                !
 ! D47   D(23,9,10,11)         179.4209         estimate D2E/DX2                !
 ! D48   D(23,9,10,26)          -0.6187         estimate D2E/DX2                !
 ! D49   D(9,10,11,12)           0.0173         estimate D2E/DX2                !
 ! D50   D(9,10,11,27)        -179.9246         estimate D2E/DX2                !
 ! D51   D(26,10,11,12)       -179.943          estimate D2E/DX2                !
 ! D52   D(26,10,11,27)          0.115          estimate D2E/DX2                !
 ! D53   D(9,10,26,28)          44.9142         estimate D2E/DX2                !
 ! D54   D(9,10,26,29)         134.9886         estimate D2E/DX2                !
 ! D55   D(9,10,26,30)         -45.2754         estimate D2E/DX2                !
 ! D56   D(9,10,26,31)        -135.2664         estimate D2E/DX2                !
 ! D57   D(11,10,26,28)       -135.1228         estimate D2E/DX2                !
 ! D58   D(11,10,26,29)        -45.0485         estimate D2E/DX2                !
 ! D59   D(11,10,26,30)        134.6875         estimate D2E/DX2                !
 ! D60   D(11,10,26,31)         44.6965         estimate D2E/DX2                !
 ! D61   D(10,11,12,13)         -0.0432         estimate D2E/DX2                !
 ! D62   D(10,11,12,24)       -179.9745         estimate D2E/DX2                !
 ! D63   D(27,11,12,13)        179.8996         estimate D2E/DX2                !
 ! D64   D(27,11,12,24)         -0.0318         estimate D2E/DX2                !
 ! D65   D(11,12,13,1)           0.0759         estimate D2E/DX2                !
 ! D66   D(11,12,13,25)       -179.9902         estimate D2E/DX2                !
 ! D67   D(24,12,13,1)        -179.9926         estimate D2E/DX2                !
 ! D68   D(24,12,13,25)         -0.0587         estimate D2E/DX2                !
 --------------------------------------------------------------------------------
 Trust Radius=3.00D-01 FncErr=1.00D-07 GrdErr=1.00D-06
 Number of steps in this run=    173 maximum allowed number of steps=    192.
 GradGradGradGradGradGradGradGradGradGradGradGradGradGradGradGradGradGrad

                          Input orientation:                          
 ---------------------------------------------------------------------
 Center     Atomic      Atomic             Coordinates (Angstroms)
 Number     Number       Type             X           Y           Z
 ---------------------------------------------------------------------
      1          6           0       -5.944986    1.184528    0.247873
      2          7           0       -4.689871    0.572036    0.226903
      3          6           0       -3.457116    1.194261    0.031389
      4          8           0       -3.329499    2.379727   -0.177306
      5          7           0       -2.401426    0.320720    0.069432
      6          6           0       -1.045709    0.852469   -0.009272
      7          6           0       -0.039390   -0.277880   -0.164899
      8          6           0        1.387137    0.254183   -0.260183
      9          6           0       -6.122039    2.572322    0.276756
     10          6           0       -7.416839    3.058966    0.323641
     11          6           0       -8.548716    2.260695    0.343346
     12          6           0       -8.338405    0.890009    0.313645
     13          6           0       -7.066028    0.348061    0.265932
     14          1           0       -4.701808   -0.435768    0.182911
     15          1           0       -2.515141   -0.545330    0.576248
     16          1           0       -0.816279    1.454796    0.877500
     17          1           0       -1.004847    1.524215   -0.868099
     18          1           0       -0.288905   -0.857014   -1.058885
     19          1           0       -0.118912   -0.961509    0.688780
     20          1           0        1.500291    0.919393   -1.119334
     21          1           0        2.105859   -0.558831   -0.371739
     22          1           0        1.658740    0.818669    0.634947
     23          1           0       -5.269875    3.232740    0.253671
     24         17           0       -9.708706   -0.179640    0.335056
     25          1           0       -6.949154   -0.729891    0.243880
     26         16           0       -7.644481    4.857951    0.362791
     27          1           0       -9.547347    2.672310    0.378937
     28          9           0       -6.556693    5.093350   -0.801982
     29          9           0       -8.818351    4.798567   -0.746575
     30          9           0       -6.495171    5.049225    1.477877
     31          9           0       -8.757033    4.754885    1.531440
     32          9           0       -7.854060    6.449904    0.400038
 ---------------------------------------------------------------------
                    Distance matrix (angstroms):
                    1          2          3          4          5
     1  C    0.000000
     2  N    1.396746   0.000000
     3  C    2.497290   1.394660   0.000000
     4  O    2.906897   2.298204   1.210441   0.000000
     5  N    3.651687   2.307582   1.370766   2.271939   0.000000
     6  C    4.917245   3.662559   2.435848   2.752534   1.458396
     7  C    6.097957   4.743715   3.726469   4.229402   2.447948
     8  C    7.408352   6.104777   4.943232   5.174114   3.803457
     9  C    1.399341   2.460638   3.010162   2.835762   4.353809
    10  C    2.384452   3.691956   4.386564   4.173567   5.719875
    11  C    2.818982   4.213765   5.211429   5.246472   6.451953
    12  C    2.412368   3.663391   4.898900   5.248755   5.969208
    13  C    1.398835   2.387009   3.714204   4.276187   4.668819
    14  H    2.043298   1.008834   2.056505   3.152776   2.424234
    15  H    3.855395   2.469817   2.051917   3.128414   1.009870
    16  H    5.174274   4.025824   2.785283   2.878261   2.109927
    17  H    5.075997   3.960439   2.632787   2.571595   2.068283
    18  H    6.153597   4.802492   3.928611   4.527569   2.668877
    19  H    6.224388   4.843424   4.027793   4.714004   2.690275
    20  H    7.574411   6.344377   5.096626   5.132920   4.122496
    21  H    8.260710   6.915141   5.846583   6.181913   4.613444
    22  H    7.622357   6.366490   5.165010   5.289536   4.129493
    23  H    2.156613   2.723319   2.736951   2.162968   4.091674
    24  Cl   4.004266   5.075965   6.407980   6.892544   7.329206
    25  H    2.161798   2.607616   3.992724   4.790514   4.670765
    26  S    4.049139   5.207423   5.573731   5.005234   6.939894
    27  H    3.899702   5.294274   6.276650   6.249531   7.529272
    28  F    4.093320   4.998591   5.050226   4.262482   6.387769
    29  F    4.722969   5.987953   6.506850   6.025143   7.867267
    30  F    4.092859   4.986910   5.116918   4.459521   6.411023
    31  F    4.722563   5.978282   6.558759   6.165980   7.886255
    32  F    5.602847   6.677679   6.862273   6.113208   8.210201
                    6          7          8          9         10
     6  C    0.000000
     7  C    1.521377   0.000000
     8  C    2.517865   1.525500   0.000000
     9  C    5.367386   6.731815   7.877169   0.000000
    10  C    6.750611   8.111718   9.258382   1.384025   0.000000
    11  C    7.642156   8.894453  10.154383   2.447510   1.385197
    12  C    7.299938   8.394439   9.763181   2.782771   2.356641
    13  C    6.047677   7.067606   8.470041   2.416314   2.734119
    14  H    3.881179   4.678038   6.143909   3.327833   4.427681
    15  H    2.110902   2.598109   4.070210   4.776941   6.089450
    16  H    1.096266   2.166176   2.755147   5.455351   6.815241
    17  H    1.091099   2.161977   2.775632   5.347418   6.699951
    18  H    2.144009   1.094013   2.163747   6.897082   8.249468
    19  H    2.153311   1.096559   2.155602   6.978199   8.340101
    20  H    2.778279   2.171411   1.092450   7.923456   9.283057
    21  H    3.472108   2.173433   1.090871   8.827400  10.210475
    22  H    2.780325   2.173896   1.092553   7.983992   9.353180
    23  H    4.855759   6.313289   7.311063   1.078364   2.155121
    24  Cl   8.731055   9.682731  11.120263   4.521159   3.967538
    25  H    6.117075   6.936588   8.409294   3.404381   3.818446
    26  S    7.728266   9.191986  10.156421   2.747604   1.813753
    27  H    8.702894   9.969986  11.216895   3.428289   2.166016
    28  F    6.998886   8.469429   9.317484   2.776361   2.479031
    29  F    8.748100  10.157697  11.182128   3.643277   2.477057
    30  F    7.037116   8.529588   9.388506   2.777942   2.478480
    31  F    8.778790  10.208015  11.241459   3.644311   2.476093
    32  F    8.823403  10.327211  11.145517   4.248615   3.419862
                   11         12         13         14         15
    11  C    0.000000
    12  C    1.387045   0.000000
    13  C    2.421265   1.383809   0.000000
    14  H    4.700569   3.872933   2.492151   0.000000
    15  H    6.658231   6.003296   4.648119   2.224462   0.000000
    16  H    7.792649   7.564344   6.376381   4.376531   2.641474
    17  H    7.675933   7.455186   6.277521   4.314357   2.941112
    18  H    8.939286   8.350471   7.009760   4.603609   2.779736
    19  H    9.031252   8.433796   7.082104   4.640608   2.434704
    20  H   10.243098   9.942546   8.696390   6.480612   4.598272
    21  H   11.044503  10.566529   9.238647   6.831334   4.717256
    22  H   10.312935  10.002561   8.745240   6.498810   4.391495
    23  H    3.421069   3.861070   3.398189   3.712904   4.686835
    24  Cl   2.702015   1.738486   2.695736   5.015753   7.206891
    25  H    3.392948   2.135172   1.084493   2.267331   4.450281
    26  S    2.750228   4.028462   4.547867   6.059301   7.453263
    27  H    1.080721   2.154623   3.401742   5.760019   7.735894
    28  F    3.647446   4.699701   4.890566   5.914538   7.073074
    29  F    2.775144   4.078142   4.889051   6.723699   8.368844
    30  F    3.644187   4.695958   4.888316   5.914240   6.924783
    31  F    2.770550   4.073763   4.886830   6.723560   8.244142
    32  F    4.246790   5.581620   6.153979   7.576035   8.801613
                   16         17         18         19         20
    16  H    0.000000
    17  H    1.757126   0.000000
    18  H    3.061401   2.493837   0.000000
    19  H    2.521996   3.063916   1.759020   0.000000
    20  H    3.104915   2.589333   2.522003   3.070649   0.000000
    21  H    3.762204   3.776500   2.509180   2.497290   1.763734
    22  H    2.566945   3.138733   3.077386   2.516343   1.764299
    23  H    4.835780   4.729470   6.577153   6.656836   7.285043
    24  Cl   9.057643   8.950300   9.546442   9.628115  11.356264
    25  H    6.541138   6.453857   6.787656   6.848634   8.716169
    26  S    7.646615   7.530844   9.422657   9.518748  10.066567
    27  H    8.829635   8.709048  10.012103  10.109205  11.285736
    28  F    7.000863   6.600461   8.646271   8.962629   9.079517
    29  F    8.823354   8.472720  10.238876  10.531807  11.030018
    30  F    6.747606   6.933466   8.935130   8.798197   9.366345
    31  F    8.624024   8.734495  10.483910  10.392515  11.267222
    32  F    8.643462   8.531254  10.618430  10.716572  10.972644
                   21         22         23         24         25
    21  H    0.000000
    22  H    1.763757   0.000000
    23  H    8.316766   7.347028   0.000000
    24  Cl  11.841761  11.415139   5.599481   0.000000
    25  H    9.077528   8.754817   4.303780   2.815354   0.000000
    26  S   11.178112  10.145924   2.879578   5.444182   5.632192
    27  H   12.116146  11.361246   4.315847   2.856848   4.282968
    28  F   10.352395   9.371820   2.496432   6.247597   5.929417
    29  F   12.172945  11.292370   4.005495   5.171577   5.919354
    30  F   10.433077   9.224663   2.509910   6.242906   5.926806
    31  F   12.241736  11.170757   4.013713   5.165903   5.916841
    32  F   12.203196  11.057095   4.129113   6.884387   7.238279
                   26         27         28         29         30
    26  S    0.000000
    27  H    2.897962   0.000000
    28  F    1.611021   4.024924   0.000000
    29  F    1.616227   2.513799   2.281460   0.000000
    30  F    1.612735   4.021588   2.281115   3.226171   0.000000
    31  F    1.616829   2.507983   3.225044   2.279259   2.281561
    32  F    1.606121   4.139792   2.228957   2.229684   2.229398
                   31         32
    31  F    0.000000
    32  F    2.229017   0.000000
 Stoichiometry    C10H12ClF5N2OS
 Framework group  C1[X(C10H12ClF5N2OS)]
 Deg. of freedom    90
 Full point group                 C1      NOp   1
 Largest Abelian subgroup         C1      NOp   1
 Largest concise Abelian subgroup C1      NOp   1
                         Standard orientation:                         
 ---------------------------------------------------------------------
 Center     Atomic      Atomic             Coordinates (Angstroms)
 Number     Number       Type             X           Y           Z
 ---------------------------------------------------------------------
      1          6           0       -0.468079    1.140956    0.047375
      2          7           0       -1.863024    1.182483    0.104861
      3          6           0       -2.739656    0.106592   -0.033164
      4          8           0       -2.379969   -1.027921   -0.253787
      5          7           0       -4.057207    0.468551    0.076591
      6          6           0       -5.076327   -0.574587    0.063365
      7          6           0       -6.465507    0.040248   -0.018764
      8          6           0       -7.549854   -1.032445   -0.044686
      9          6           0        0.265400   -0.050745    0.044039
     10          6           0        1.646151    0.038953    0.012303
     11          6           0        2.348687    1.232420   -0.016836
     12          6           0        1.591942    2.394837   -0.012779
     13          6           0        0.208798    2.364763    0.017805
     14          1           0       -2.269135    2.105534    0.076636
     15          1           0       -4.281356    1.308530    0.590429
     16          1           0       -4.987311   -1.211129    0.951446
     17          1           0       -4.885667   -1.210207   -0.802737
     18          1           0       -6.527119    0.663863   -0.915522
     19          1           0       -6.626174    0.702568    0.840281
     20          1           0       -7.427669   -1.691861   -0.907060
     21          1           0       -8.544390   -0.588125   -0.103655
     22          1           0       -7.514297   -1.651792    0.854656
     23          1           0       -0.239552   -1.003494    0.056777
     24         17           0        2.399872    3.933760   -0.048822
     25          1           0       -0.342114    3.298903    0.019651
     26         16           0        2.595347   -1.506596    0.009786
     27          1           0        3.428500    1.268528   -0.042470
     28          9           0        1.636836   -2.177736   -1.097561
     29          9           0        3.576293   -0.977919   -1.160870
     30          9           0        1.691312   -2.145322    1.182673
     31          9           0        3.631032   -0.945838    1.117505
     32          9           0        3.442855   -2.870911    0.009713
 ---------------------------------------------------------------------
 Rotational constants (GHZ):      0.3761615      0.1337126      0.1028779
 Standard basis: 6-311+G(d) (5D, 7F)
 There are   512 symmetry adapted cartesian basis functions of A   symmetry.
 There are   492 symmetry adapted basis functions of A   symmetry.
   492 basis functions,   811 primitive gaussians,   512 cartesian basis functions
    86 alpha electrons       86 beta electrons
       nuclear repulsion energy      2020.8831205598 Hartrees.
 NAtoms=   32 NActive=   32 NUniq=   32 SFac= 1.00D+00 NAtFMM=   60 NAOKFM=F Big=F
 Integral buffers will be    131072 words long.
 Raffenetti 2 integral format.
 Two-electron integral symmetry is turned on.
 Nuclear repulsion after empirical dispersion term =     2020.8814692487 Hartrees.
 One-electron integrals computed using PRISM.
 NBasis=   492 RedAO= T EigKep=  1.20D-06  NBF=   492
 NBsUse=   490 1.00D-06 EigRej=  7.05D-07 NBFU=   490
 ExpMin= 4.05D-02 ExpMax= 1.06D+05 ExpMxC= 3.62D+03 IAcc=3 IRadAn=         5 AccDes= 0.00D+00
 Harris functional with IExCor= 1009 and IRadAn=       5 diagonalized for initial guess.
 HarFok:  IExCor= 1009 AccDes= 0.00D+00 IRadAn=         5 IDoV= 1 UseB2=F ITyADJ=14
 ICtDFT=  3500011 ScaDFX=  1.000000  1.000000  1.000000  1.000000
 FoFCou: FMM=F IPFlag=           0 FMFlag=      100000 FMFlg1=           0
         NFxFlg=           0 DoJE=T BraDBF=F KetDBF=T FulRan=T
         wScrn=  0.000000 ICntrl=     500 IOpCl=  0 I1Cent=   200000004 NGrid=           0
         NMat0=    1 NMatS0=      1 NMatT0=    0 NMatD0=    1 NMtDS0=    0 NMtDT0=    0
 Petite list used in FoFCou.
 Requested convergence on RMS density matrix=1.00D-08 within 128 cycles.
 Requested convergence on MAX density matrix=1.00D-06.
 Requested convergence on             energy=1.00D-06.
 No special actions if energy rises.
 SCF Done:  E(RM062X) =  -1930.41621536     A.U. after   15 cycles
            NFock= 15  Conv=0.57D-08     -V/T= 2.0024

 **********************************************************************

            Population analysis using the SCF density.

 **********************************************************************

 Orbital symmetries:
       Occupied  (A) (A) (A) (A) (A) (A) (A) (A) (A) (A) (A) (A)
                 (A) (A) (A) (A) (A) (A) (A) (A) (A) (A) (A) (A)
                 (A) (A) (A) (A) (A) (A) (A) (A) (A) (A) (A) (A)
                 (A) (A) (A) (A) (A) (A) (A) (A) (A) (A) (A) (A)
                 (A) (A) (A) (A) (A) (A) (A) (A) (A) (A) (A) (A)
                 (A) (A) (A) (A) (A) (A) (A) (A) (A) (A) (A) (A)
                 (A) (A) (A) (A) (A) (A) (A) (A) (A) (A) (A) (A)
                 (A) (A)
       Virtual   (A) (A) (A) (A) (A) (A) (A) (A) (A) (A) (A) (A)
                 (A) (A) (A) (A) (A) (A) (A) (A) (A) (A) (A) (A)
                 (A) (A) (A) (A) (A) (A) (A) (A) (A) (A) (A) (A)
                 (A) (A) (A) (A) (A) (A) (A) (A) (A) (A) (A) (A)
                 (A) (A) (A) (A) (A) (A) (A) (A) (A) (A) (A) (A)
                 (A) (A) (A) (A) (A) (A) (A) (A) (A) (A) (A) (A)
                 (A) (A) (A) (A) (A) (A) (A) (A) (A) (A) (A) (A)
                 (A) (A) (A) (A) (A) (A) (A) (A) (A) (A) (A) (A)
                 (A) (A) (A) (A) (A) (A) (A) (A) (A) (A) (A) (A)
                 (A) (A) (A) (A) (A) (A) (A) (A) (A) (A) (A) (A)
                 (A) (A) (A) (A) (A) (A) (A) (A) (A) (A) (A) (A)
                 (A) (A) (A) (A) (A) (A) (A) (A) (A) (A) (A) (A)
                 (A) (A) (A) (A) (A) (A) (A) (A) (A) (A) (A) (A)
                 (A) (A) (A) (A) (A) (A) (A) (A) (A) (A) (A) (A)
                 (A) (A) (A) (A) (A) (A) (A) (A) (A) (A) (A) (A)
                 (A) (A) (A) (A) (A) (A) (A) (A) (A) (A) (A) (A)
                 (A) (A) (A) (A) (A) (A) (A) (A) (A) (A) (A) (A)
                 (A) (A) (A) (A) (A) (A) (A) (A) (A) (A) (A) (A)
                 (A) (A) (A) (A) (A) (A) (A) (A) (A) (A) (A) (A)
                 (A) (A) (A) (A) (A) (A) (A) (A) (A) (A) (A) (A)
                 (A) (A) (A) (A) (A) (A) (A) (A) (A) (A) (A) (A)
                 (A) (A) (A) (A) (A) (A) (A) (A) (A) (A) (A) (A)
                 (A) (A) (A) (A) (A) (A) (A) (A) (A) (A) (A) (A)
                 (A) (A) (A) (A) (A) (A) (A) (A) (A) (A) (A) (A)
                 (A) (A) (A) (A) (A) (A) (A) (A) (A) (A) (A) (A)
                 (A) (A) (A) (A) (A) (A) (A) (A) (A) (A) (A) (A)
                 (A) (A) (A) (A) (A) (A) (A) (A) (A) (A) (A) (A)
                 (A) (A) (A) (A) (A) (A) (A) (A) (A) (A) (A) (A)
                 (A) (A) (A) (A) (A) (A) (A) (A) (A) (A) (A) (A)
                 (A) (A) (A) (A) (A) (A) (A) (A) (A) (A) (A) (A)
                 (A) (A) (A) (A) (A) (A) (A) (A) (A) (A) (A) (A)
                 (A) (A) (A) (A) (A) (A) (A) (A) (A) (A) (A) (A)
                 (A) (A) (A) (A) (A) (A) (A) (A) (A) (A) (A) (A)
                 (A) (A) (A) (A) (A) (A) (A) (A)
 The electronic state is 1-A.
 Alpha  occ. eigenvalues -- -102.69573 -90.27851 -25.28160 -25.28158 -25.28150
 Alpha  occ. eigenvalues --  -25.28149 -25.28025 -19.61120 -14.81384 -14.79032
 Alpha  occ. eigenvalues --  -10.69855 -10.63776 -10.63515 -10.61751 -10.58673
 Alpha  occ. eigenvalues --  -10.58610 -10.58503 -10.57858 -10.55672 -10.54165
 Alpha  occ. eigenvalues --   -9.83840  -8.60148  -7.56358  -7.55670  -7.55661
 Alpha  occ. eigenvalues --   -6.52578  -6.52569  -6.52135  -1.50132  -1.39995
 Alpha  occ. eigenvalues --   -1.39923  -1.37022  -1.35471  -1.20638  -1.09040
 Alpha  occ. eigenvalues --   -1.05559  -1.02554  -0.97869  -0.93461  -0.90420
 Alpha  occ. eigenvalues --   -0.87731  -0.86205  -0.80277  -0.76827  -0.74856
 Alpha  occ. eigenvalues --   -0.73458  -0.73332  -0.70765  -0.69794  -0.68879
 Alpha  occ. eigenvalues --   -0.65670  -0.64026  -0.62232  -0.62043  -0.61665
 Alpha  occ. eigenvalues --   -0.60578  -0.58012  -0.57978  -0.56680  -0.55600
 Alpha  occ. eigenvalues --   -0.55365  -0.55206  -0.55116  -0.54793  -0.54515
 Alpha  occ. eigenvalues --   -0.53367  -0.52411  -0.52306  -0.51400  -0.51256
 Alpha  occ. eigenvalues --   -0.50445  -0.50321  -0.49025  -0.47730  -0.47625
 Alpha  occ. eigenvalues --   -0.45126  -0.44490  -0.43943  -0.42416  -0.41743
 Alpha  occ. eigenvalues --   -0.40149  -0.39972  -0.37286  -0.34560  -0.33489
 Alpha  occ. eigenvalues --   -0.30238
 Alpha virt. eigenvalues --   -0.02756  -0.01895  -0.01578  -0.00805   0.00780
 Alpha virt. eigenvalues --    0.01613   0.02020   0.02583   0.02832   0.03990
 Alpha virt. eigenvalues --    0.04226   0.04528   0.04874   0.05529   0.05697
 Alpha virt. eigenvalues --    0.06156   0.06333   0.06481   0.06824   0.07402
 Alpha virt. eigenvalues --    0.07801   0.08308   0.08711   0.08985   0.09413
 Alpha virt. eigenvalues --    0.10802   0.11163   0.11567   0.11780   0.12054
 Alpha virt. eigenvalues --    0.12125   0.12285   0.12874   0.12986   0.13558
 Alpha virt. eigenvalues --    0.13921   0.14353   0.15115   0.15528   0.16477
 Alpha virt. eigenvalues --    0.16869   0.17222   0.17800   0.17937   0.18000
 Alpha virt. eigenvalues --    0.18787   0.19161   0.19476   0.19861   0.20175
 Alpha virt. eigenvalues --    0.20682   0.20935   0.21193   0.21906   0.22143
 Alpha virt. eigenvalues --    0.22401   0.22738   0.23191   0.23721   0.24263
 Alpha virt. eigenvalues --    0.24491   0.24940   0.25467   0.25898   0.26131
 Alpha virt. eigenvalues --    0.26260   0.26617   0.26931   0.27441   0.27761
 Alpha virt. eigenvalues --    0.28352   0.28725   0.28970   0.29399   0.29756
 Alpha virt. eigenvalues --    0.30798   0.31085   0.31615   0.31997   0.32401
 Alpha virt. eigenvalues --    0.32571   0.33157   0.33669   0.34151   0.34337
 Alpha virt. eigenvalues --    0.34885   0.35750   0.36258   0.36579   0.36752
 Alpha virt. eigenvalues --    0.37544   0.38019   0.38589   0.39108   0.39893
 Alpha virt. eigenvalues --    0.40327   0.40984   0.42051   0.42458   0.43154
 Alpha virt. eigenvalues --    0.43539   0.44539   0.45365   0.46364   0.46752
 Alpha virt. eigenvalues --    0.47129   0.47439   0.47608   0.48306   0.48959
 Alpha virt. eigenvalues --    0.49391   0.49681   0.50076   0.51137   0.51929
 Alpha virt. eigenvalues --    0.52438   0.53756   0.55624   0.55710   0.57458
 Alpha virt. eigenvalues --    0.58222   0.58660   0.58865   0.59413   0.59491
 Alpha virt. eigenvalues --    0.60729   0.61059   0.62242   0.62993   0.63182
 Alpha virt. eigenvalues --    0.64423   0.64756   0.65814   0.66888   0.67549
 Alpha virt. eigenvalues --    0.67772   0.68779   0.69371   0.69854   0.70130
 Alpha virt. eigenvalues --    0.71207   0.71654   0.71930   0.72265   0.72742
 Alpha virt. eigenvalues --    0.73084   0.74651   0.74879   0.75746   0.75962
 Alpha virt. eigenvalues --    0.76873   0.77236   0.78794   0.80388   0.82218
 Alpha virt. eigenvalues --    0.82950   0.84525   0.85159   0.87027   0.88331
 Alpha virt. eigenvalues --    0.90400   0.90580   0.90797   0.91969   0.92477
 Alpha virt. eigenvalues --    0.93267   0.94010   0.94919   0.95717   0.96575
 Alpha virt. eigenvalues --    0.97980   0.99014   1.00263   1.00560   1.01215
 Alpha virt. eigenvalues --    1.03501   1.04738   1.06111   1.06327   1.06839
 Alpha virt. eigenvalues --    1.07762   1.10077   1.11921   1.14243   1.16747
 Alpha virt. eigenvalues --    1.17128   1.20155   1.20321   1.21098   1.23461
 Alpha virt. eigenvalues --    1.23631   1.24640   1.25459   1.26326   1.27728
 Alpha virt. eigenvalues --    1.28964   1.32968   1.33166   1.34867   1.36276
 Alpha virt. eigenvalues --    1.37088   1.38428   1.38862   1.39335   1.41453
 Alpha virt. eigenvalues --    1.43283   1.44315   1.45410   1.45800   1.48107
 Alpha virt. eigenvalues --    1.49901   1.50828   1.52227   1.52482   1.52668
 Alpha virt. eigenvalues --    1.53663   1.54705   1.56285   1.57325   1.57945
 Alpha virt. eigenvalues --    1.59217   1.60381   1.61864   1.62279   1.63733
 Alpha virt. eigenvalues --    1.65232   1.67159   1.68861   1.69315   1.71534
 Alpha virt. eigenvalues --    1.73789   1.74258   1.74748   1.77263   1.77374
 Alpha virt. eigenvalues --    1.77765   1.81772   1.83328   1.84663   1.88099
 Alpha virt. eigenvalues --    1.88491   1.89782   1.90432   1.90816   1.93539
 Alpha virt. eigenvalues --    1.94614   1.96125   1.98922   2.00723   2.03246
 Alpha virt. eigenvalues --    2.04598   2.05666   2.07428   2.07972   2.09478
 Alpha virt. eigenvalues --    2.11648   2.13889   2.14856   2.20216   2.21483
 Alpha virt. eigenvalues --    2.24440   2.25781   2.27438   2.29526   2.30931
 Alpha virt. eigenvalues --    2.32110   2.33833   2.36585   2.38591   2.40864
 Alpha virt. eigenvalues --    2.43157   2.46029   2.49721   2.52472   2.53144
 Alpha virt. eigenvalues --    2.54409   2.55666   2.58414   2.59181   2.59965
 Alpha virt. eigenvalues --    2.61526   2.63398   2.64852   2.66472   2.71075
 Alpha virt. eigenvalues --    2.71620   2.76465   2.77948   2.81365   2.83267
 Alpha virt. eigenvalues --    2.85161   2.85972   2.90923   2.93059   2.96323
 Alpha virt. eigenvalues --    2.97732   2.99438   3.00993   3.04626   3.10474
 Alpha virt. eigenvalues --    3.10497   3.15091   3.17109   3.21334   3.24050
 Alpha virt. eigenvalues --    3.25498   3.26893   3.27734   3.29851   3.34699
 Alpha virt. eigenvalues --    3.35903   3.39741   3.41426   3.43447   3.45137
 Alpha virt. eigenvalues --    3.54806   3.61052   3.63429   3.67308   3.70596
 Alpha virt. eigenvalues --    3.77193   3.79442   3.79887   3.80360   3.80904
 Alpha virt. eigenvalues --    3.81498   3.83546   3.84101   3.84331   3.84635
 Alpha virt. eigenvalues --    3.85098   3.86260   3.87581   3.89118   3.89665
 Alpha virt. eigenvalues --    3.89845   3.91692   3.92129   3.92487   3.94638
 Alpha virt. eigenvalues --    3.97481   3.98850   3.99812   4.00713   4.02854
 Alpha virt. eigenvalues --    4.04832   4.08098   4.10690   4.28806   4.30679
 Alpha virt. eigenvalues --    4.31427   4.33830   4.38195   4.52465   4.56882
 Alpha virt. eigenvalues --    4.77501   4.86653   5.17673   5.18241   5.41631
 Alpha virt. eigenvalues --    5.89355   6.36116   6.37616   6.39785   6.41764
 Alpha virt. eigenvalues --    6.42932   6.44500   6.48537   6.52612   6.53273
 Alpha virt. eigenvalues --    6.55442   6.56567   6.64321   6.65446   6.66148
 Alpha virt. eigenvalues --    6.71545   8.23498   9.95819  17.52061  17.56794
 Alpha virt. eigenvalues --   17.61536  23.45581  23.56895  23.72129  23.79375
 Alpha virt. eigenvalues --   23.91197  23.92496  23.96066  24.07933  24.10240
 Alpha virt. eigenvalues --   24.19019  25.92683  26.22308  26.72799  35.57473
 Alpha virt. eigenvalues --   35.66827  50.12855  66.90124  66.91834  66.97258
 Alpha virt. eigenvalues --   66.99195  67.07774 189.47225 216.05876
          Condensed to atoms (all electrons):
               1          2          3          4          5          6
     1  C   31.760444  -0.742094  -0.856498  -0.088550  -0.100243  -0.603479
     2  N   -0.742094   8.046101   0.269905  -0.091384  -0.720567  -0.489456
     3  C   -0.856498   0.269905   8.731351   0.563184   0.115128  -1.215462
     4  O   -0.088550  -0.091384   0.563184   8.070892  -0.160269  -0.075250
     5  N   -0.100243  -0.720567   0.115128  -0.160269   7.869957   0.654338
     6  C   -0.603479  -0.489456  -1.215462  -0.075250   0.654338   8.692811
     7  C    0.006895   0.036800   0.198085   0.017163  -0.155773  -0.926012
     8  C   -0.015539  -0.011006  -0.226780  -0.001050   0.001542   0.356316
     9  C   -5.191118   0.392106   0.278182   0.151328  -0.181282  -0.078995
    10  C   -4.125632   0.256017   0.897290   0.019111   0.062752   0.068778
    11  C   -6.658706   0.095842  -0.595789  -0.022096  -0.049060  -0.043795
    12  C   -0.744786  -0.105292  -0.301019   0.041483   0.101587  -0.011036
    13  C   -4.874469   0.122300  -2.018205  -0.090221  -0.319229  -0.313418
    14  H    0.056414   0.216430  -0.014251  -0.004091   0.068598   0.028179
    15  H   -0.031069   0.096702   0.029182  -0.002364   0.224767  -0.093107
    16  H    0.007492   0.008457   0.084648  -0.004640  -0.107445   0.391356
    17  H    0.000794   0.012087   0.055256  -0.002101  -0.041453   0.332161
    18  H    0.004013  -0.000131   0.031772  -0.000127   0.002739  -0.089381
    19  H   -0.003615  -0.001091  -0.019811  -0.000280   0.002507  -0.052179
    20  H   -0.000291  -0.000094  -0.009162  -0.000084  -0.000215  -0.046851
    21  H    0.000034  -0.000005   0.003113   0.000026  -0.001340   0.076906
    22  H    0.000258   0.000046   0.009506  -0.000025   0.000440  -0.045056
    23  H    0.009466  -0.022159   0.077749   0.000811   0.002821   0.005259
    24  Cl   0.013689  -0.014424  -0.058655  -0.000061  -0.000397  -0.001855
    25  H    0.178070  -0.023637   0.009185   0.000048   0.000191   0.000149
    26  S   -0.522686   0.022160  -0.051069  -0.002031  -0.000120   0.004484
    27  H   -0.004264   0.001377   0.003903  -0.000008   0.000020   0.000034
    28  F   -0.225187   0.002340   0.003785   0.000658   0.000164  -0.000121
    29  F    0.140102  -0.000160  -0.001488  -0.000013  -0.000020  -0.000024
    30  F   -0.213461   0.001929   0.004785  -0.000238   0.000145  -0.000084
    31  F    0.128955  -0.000375  -0.002406   0.000034  -0.000015  -0.000027
    32  F   -0.011668  -0.000172  -0.001705   0.000027  -0.000006  -0.000032
               7          8          9         10         11         12
     1  C    0.006895  -0.015539  -5.191118  -4.125632  -6.658706  -0.744786
     2  N    0.036800  -0.011006   0.392106   0.256017   0.095842  -0.105292
     3  C    0.198085  -0.226780   0.278182   0.897290  -0.595789  -0.301019
     4  O    0.017163  -0.001050   0.151328   0.019111  -0.022096   0.041483
     5  N   -0.155773   0.001542  -0.181282   0.062752  -0.049060   0.101587
     6  C   -0.926012   0.356316  -0.078995   0.068778  -0.043795  -0.011036
     7  C    6.365116  -0.169751  -0.018447  -0.013035   0.001877   0.000012
     8  C   -0.169751   6.048457  -0.002260   0.001310  -0.000158  -0.000608
     9  C   -0.018447  -0.002260  17.471172   3.001210  -3.238995  -4.423695
    10  C   -0.013035   0.001310   3.001210  31.201165  -2.690385  -5.706572
    11  C    0.001877  -0.000158  -3.238995  -2.690385  19.818121  -1.613477
    12  C    0.000012  -0.000608  -4.423695  -5.706572  -1.613477  26.360171
    13  C    0.039949  -0.004406  -2.859386 -13.789361   0.053285  -6.403417
    14  H   -0.005429   0.000127   0.128720   0.055527  -0.030034   0.026247
    15  H    0.013298   0.007180   0.027607   0.000102   0.000060  -0.003097
    16  H   -0.074738  -0.005750  -0.000152   0.000524   0.000093  -0.000162
    17  H    0.000588  -0.023243   0.003508   0.000440   0.000097  -0.000088
    18  H    0.445388  -0.051303  -0.000767  -0.000057   0.000003   0.000091
    19  H    0.444345  -0.032649   0.001053   0.000071  -0.000007  -0.000049
    20  H    0.008679   0.392967   0.000011   0.000000   0.000000  -0.000001
    21  H   -0.120250   0.393152   0.000016   0.000000  -0.000000   0.000000
    22  H    0.017402   0.364235  -0.000042  -0.000009  -0.000000   0.000002
    23  H   -0.000440   0.000023   0.361421  -0.031907  -0.037770   0.000392
    24  Cl  -0.000030  -0.000002   0.113109  -0.049314   0.068983  -1.399858
    25  H    0.000021   0.000002  -0.030957   0.077584  -0.045313   0.200800
    26  S    0.000102   0.000010   0.181031  -2.832353   0.813501  -0.162801
    27  H   -0.000000   0.000000  -0.005421  -0.149179   0.311178   0.100814
    28  F   -0.000004   0.000003  -0.149972  -0.049198   0.299962   0.096569
    29  F    0.000001  -0.000000   0.127614   0.410191  -0.333687  -0.192829
    30  F   -0.000024   0.000002  -0.134196  -0.040664   0.278739   0.096608
    31  F    0.000000  -0.000000   0.121478   0.450591  -0.346764  -0.201020
    32  F    0.000000  -0.000000  -0.038704   0.096090   0.023778  -0.024943
              13         14         15         16         17         18
     1  C   -4.874469   0.056414  -0.031069   0.007492   0.000794   0.004013
     2  N    0.122300   0.216430   0.096702   0.008457   0.012087  -0.000131
     3  C   -2.018205  -0.014251   0.029182   0.084648   0.055256   0.031772
     4  O   -0.090221  -0.004091  -0.002364  -0.004640  -0.002101  -0.000127
     5  N   -0.319229   0.068598   0.224767  -0.107445  -0.041453   0.002739
     6  C   -0.313418   0.028179  -0.093107   0.391356   0.332161  -0.089381
     7  C    0.039949  -0.005429   0.013298  -0.074738   0.000588   0.445388
     8  C   -0.004406   0.000127   0.007180  -0.005750  -0.023243  -0.051303
     9  C   -2.859386   0.128720   0.027607  -0.000152   0.003508  -0.000767
    10  C  -13.789361   0.055527   0.000102   0.000524   0.000440  -0.000057
    11  C    0.053285  -0.030034   0.000060   0.000093   0.000097   0.000003
    12  C   -6.403417   0.026247  -0.003097  -0.000162  -0.000088   0.000091
    13  C   35.292797  -0.268815  -0.002476  -0.000091   0.000847   0.000417
    14  H   -0.268815   0.389979   0.000363   0.000347  -0.000013  -0.000017
    15  H   -0.002476   0.000363   0.400189   0.001370   0.002861  -0.000681
    16  H   -0.000091   0.000347   0.001370   0.472175  -0.036757   0.006272
    17  H    0.000847  -0.000013   0.002861  -0.036757   0.422221  -0.007708
    18  H    0.000417  -0.000017  -0.000681   0.006272  -0.007708   0.447638
    19  H   -0.000551   0.000102   0.003940  -0.009386   0.005307  -0.045308
    20  H    0.000005   0.000001  -0.000024  -0.000940   0.003721  -0.008665
    21  H   -0.000006  -0.000000  -0.000024  -0.000101  -0.000222  -0.003307
    22  H    0.000025  -0.000001   0.000051   0.003265  -0.000245   0.006002
    23  H   -0.057286   0.000151  -0.000056   0.000026  -0.000050   0.000000
    24  Cl   0.401975   0.000774   0.000027   0.000001   0.000001   0.000000
    25  H   -0.037390   0.009884   0.000051  -0.000000  -0.000000   0.000000
    26  S    0.986846   0.000488  -0.000011  -0.000048   0.000039   0.000000
    27  H    0.015570   0.000005  -0.000000  -0.000000  -0.000000  -0.000000
    28  F    0.033965   0.000021   0.000000   0.000000   0.000002  -0.000000
    29  F   -0.056604  -0.000000   0.000000   0.000000   0.000000  -0.000000
    30  F    0.023620   0.000017   0.000000   0.000000   0.000001  -0.000000
    31  F   -0.058986  -0.000002  -0.000000  -0.000000   0.000000  -0.000000
    32  F    0.009418  -0.000000  -0.000000  -0.000000   0.000000  -0.000000
              19         20         21         22         23         24
     1  C   -0.003615  -0.000291   0.000034   0.000258   0.009466   0.013689
     2  N   -0.001091  -0.000094  -0.000005   0.000046  -0.022159  -0.014424
     3  C   -0.019811  -0.009162   0.003113   0.009506   0.077749  -0.058655
     4  O   -0.000280  -0.000084   0.000026  -0.000025   0.000811  -0.000061
     5  N    0.002507  -0.000215  -0.001340   0.000440   0.002821  -0.000397
     6  C   -0.052179  -0.046851   0.076906  -0.045056   0.005259  -0.001855
     7  C    0.444345   0.008679  -0.120250   0.017402  -0.000440  -0.000030
     8  C   -0.032649   0.392967   0.393152   0.364235   0.000023  -0.000002
     9  C    0.001053   0.000011   0.000016  -0.000042   0.361421   0.113109
    10  C    0.000071   0.000000   0.000000  -0.000009  -0.031907  -0.049314
    11  C   -0.000007   0.000000  -0.000000  -0.000000  -0.037770   0.068983
    12  C   -0.000049  -0.000001   0.000000   0.000002   0.000392  -1.399858
    13  C   -0.000551   0.000005  -0.000006   0.000025  -0.057286   0.401975
    14  H    0.000102   0.000001  -0.000000  -0.000001   0.000151   0.000774
    15  H    0.003940  -0.000024  -0.000024   0.000051  -0.000056   0.000027
    16  H   -0.009386  -0.000940  -0.000101   0.003265   0.000026   0.000001
    17  H    0.005307   0.003721  -0.000222  -0.000245  -0.000050   0.000001
    18  H   -0.045308  -0.008665  -0.003307   0.006002   0.000000   0.000000
    19  H    0.480325   0.006778  -0.003452  -0.008695  -0.000001   0.000000
    20  H    0.006778   0.451145  -0.024075  -0.035802  -0.000000   0.000000
    21  H   -0.003452  -0.024075   0.434938  -0.025642   0.000000  -0.000000
    22  H   -0.008695  -0.035802  -0.025642   0.453323  -0.000000  -0.000000
    23  H   -0.000001  -0.000000   0.000000  -0.000000   0.337745   0.000008
    24  Cl   0.000000   0.000000  -0.000000  -0.000000   0.000008  17.561415
    25  H   -0.000000  -0.000000   0.000000   0.000000   0.000032  -0.018881
    26  S    0.000000  -0.000000   0.000000   0.000000   0.012057  -0.024458
    27  H    0.000000   0.000000   0.000000  -0.000000  -0.000013  -0.015686
    28  F    0.000000  -0.000000  -0.000000  -0.000000  -0.002967  -0.000491
    29  F   -0.000000   0.000000   0.000000  -0.000000  -0.000720  -0.000025
    30  F    0.000000  -0.000000  -0.000000  -0.000000  -0.000279  -0.000503
    31  F   -0.000000  -0.000000  -0.000000  -0.000000  -0.000502   0.000244
    32  F   -0.000000  -0.000000  -0.000000  -0.000000  -0.000785   0.000205
              25         26         27         28         29         30
     1  C    0.178070  -0.522686  -0.004264  -0.225187   0.140102  -0.213461
     2  N   -0.023637   0.022160   0.001377   0.002340  -0.000160   0.001929
     3  C    0.009185  -0.051069   0.003903   0.003785  -0.001488   0.004785
     4  O    0.000048  -0.002031  -0.000008   0.000658  -0.000013  -0.000238
     5  N    0.000191  -0.000120   0.000020   0.000164  -0.000020   0.000145
     6  C    0.000149   0.004484   0.000034  -0.000121  -0.000024  -0.000084
     7  C    0.000021   0.000102  -0.000000  -0.000004   0.000001  -0.000024
     8  C    0.000002   0.000010   0.000000   0.000003  -0.000000   0.000002
     9  C   -0.030957   0.181031  -0.005421  -0.149972   0.127614  -0.134196
    10  C    0.077584  -2.832353  -0.149179  -0.049198   0.410191  -0.040664
    11  C   -0.045313   0.813501   0.311178   0.299962  -0.333687   0.278739
    12  C    0.200800  -0.162801   0.100814   0.096569  -0.192829   0.096608
    13  C   -0.037390   0.986846   0.015570   0.033965  -0.056604   0.023620
    14  H    0.009884   0.000488   0.000005   0.000021  -0.000000   0.000017
    15  H    0.000051  -0.000011  -0.000000   0.000000   0.000000   0.000000
    16  H   -0.000000  -0.000048  -0.000000   0.000000   0.000000   0.000000
    17  H   -0.000000   0.000039  -0.000000   0.000002   0.000000   0.000001
    18  H    0.000000   0.000000  -0.000000  -0.000000  -0.000000  -0.000000
    19  H   -0.000000   0.000000   0.000000   0.000000  -0.000000   0.000000
    20  H   -0.000000  -0.000000   0.000000  -0.000000   0.000000  -0.000000
    21  H    0.000000   0.000000   0.000000  -0.000000   0.000000  -0.000000
    22  H    0.000000   0.000000  -0.000000  -0.000000  -0.000000  -0.000000
    23  H    0.000032   0.012057  -0.000013  -0.002967  -0.000720  -0.000279
    24  Cl  -0.018881  -0.024458  -0.015686  -0.000491  -0.000025  -0.000503
    25  H    0.426165   0.000562  -0.000205  -0.000004   0.000002  -0.000001
    26  S    0.000562  17.245732   0.050645   0.048721  -0.038776   0.041349
    27  H   -0.000205   0.050645   0.377535   0.000244  -0.001718   0.000288
    28  F   -0.000004   0.048721   0.000244   8.950925  -0.025103  -0.020557
    29  F    0.000002  -0.038776  -0.001718  -0.025103   8.968336  -0.050629
    30  F   -0.000001   0.041349   0.000288  -0.020557  -0.050629   8.952898
    31  F    0.000005  -0.038022  -0.001539  -0.050362  -0.014009  -0.024354
    32  F   -0.000000  -0.234665  -0.001025   0.006940   0.011759   0.009233
              31         32
     1  C    0.128955  -0.011668
     2  N   -0.000375  -0.000172
     3  C   -0.002406  -0.001705
     4  O    0.000034   0.000027
     5  N   -0.000015  -0.000006
     6  C   -0.000027  -0.000032
     7  C    0.000000   0.000000
     8  C   -0.000000  -0.000000
     9  C    0.121478  -0.038704
    10  C    0.450591   0.096090
    11  C   -0.346764   0.023778
    12  C   -0.201020  -0.024943
    13  C   -0.058986   0.009418
    14  H   -0.000002  -0.000000
    15  H   -0.000000  -0.000000
    16  H   -0.000000  -0.000000
    17  H    0.000000   0.000000
    18  H   -0.000000  -0.000000
    19  H   -0.000000  -0.000000
    20  H   -0.000000  -0.000000
    21  H   -0.000000  -0.000000
    22  H   -0.000000  -0.000000
    23  H   -0.000502  -0.000785
    24  Cl   0.000244   0.000205
    25  H    0.000005  -0.000000
    26  S   -0.038022  -0.234665
    27  H   -0.001539  -0.001025
    28  F   -0.050362   0.006940
    29  F   -0.014009   0.011759
    30  F   -0.024354   0.009233
    31  F    8.970897   0.012667
    32  F    0.012667   9.107011
 Mulliken charges:
               1
     1  C   -1.293274
     2  N   -0.358553
     3  C    0.006290
     4  O   -0.319880
     5  N   -0.270263
     6  C   -0.525152
     7  C   -0.111788
     8  C   -1.020822
     9  C   -0.005179
    10  C   -1.121090
    11  C   -0.059481
    12  C    0.269972
    13  C    0.173298
    14  H    0.340278
    15  H    0.325156
    16  H    0.264184
    17  H    0.271949
    18  H    0.263117
    19  H    0.232643
    20  H    0.262897
    21  H    0.270237
    22  H    0.260960
    23  H    0.346973
    24  Cl   0.424208
    25  H    0.253636
    26  S    0.499309
    27  H    0.317445
    28  F    0.079668
    29  F    0.057802
    30  F    0.075374
    31  F    0.053510
    32  F    0.036575
 Sum of Mulliken charges =  -0.00000
 Mulliken charges with hydrogens summed into heavy atoms:
               1
     1  C   -1.293274
     2  N   -0.018275
     3  C    0.006290
     4  O   -0.319880
     5  N    0.054893
     6  C    0.010981
     7  C    0.383973
     8  C   -0.226727
     9  C    0.341794
    10  C   -1.121090
    11  C    0.257964
    12  C    0.269972
    13  C    0.426934
    24  Cl   0.424208
    26  S    0.499309
    28  F    0.079668
    29  F    0.057802
    30  F    0.075374
    31  F    0.053510
    32  F    0.036575
 Electronic spatial extent (au):  <R**2>=           9797.0428
 Charge=              0.0000 electrons
 Dipole moment (field-independent basis, Debye):
    X=             -6.6401    Y=              5.0121    Z=              0.9726  Tot=              8.3760
 Quadrupole moment (field-independent basis, Debye-Ang):
   XX=           -112.0115   YY=           -132.4794   ZZ=           -134.0583
   XY=             -3.7459   XZ=             -3.8130   YZ=              0.6674
 Traceless Quadrupole moment (field-independent basis, Debye-Ang):
   XX=             14.1716   YY=             -6.2964   ZZ=             -7.8753
   XY=             -3.7459   XZ=             -3.8130   YZ=              0.6674
 Octapole moment (field-independent basis, Debye-Ang**2):
  XXX=            -92.1810  YYY=            -29.2151  ZZZ=             -0.5175  XYY=             -6.5421
  XXY=             17.5544  XXZ=             12.4554  XZZ=             17.0494  YZZ=            -19.6446
  YYZ=              2.2887  XYZ=             -4.4024
 Hexadecapole moment (field-independent basis, Debye-Ang**3):
 XXXX=          -8483.4386 YYYY=          -2791.8689 ZZZZ=           -315.4383 XXXY=            -81.0820
 XXXZ=            -48.6344 YYYX=           -167.8072 YYYZ=              3.0912 ZZZX=              0.4254
 ZZZY=              0.4274 XXYY=          -2017.0765 XXZZ=          -1612.0449 YYZZ=           -532.2178
 XXYZ=             22.2663 YYXZ=            -10.2174 ZZXY=            -38.4477
 N-N= 2.020881469249D+03 E-N=-8.603971247053D+03  KE= 1.925796556298D+03
 Calling FoFJK, ICntrl=      2127 FMM=F ISym2X=0 I1Cent= 0 IOpClX= 0 NMat=1 NMatS=1 NMatT=0.
 ***** Axes restored to original set *****
 -------------------------------------------------------------------
 Center     Atomic                   Forces (Hartrees/Bohr)
 Number     Number              X              Y              Z
 -------------------------------------------------------------------
      1        6          -0.000001567    0.000000777   -0.000001251
      2        7          -0.000001226   -0.000000701   -0.000002069
      3        6           0.000000256    0.000001971   -0.000000620
      4        8          -0.000000361   -0.000000577    0.000001525
      5        7          -0.000000780   -0.000001856   -0.000001242
      6        6          -0.000000800   -0.000002101    0.000001537
      7        6           0.000000042   -0.000002170    0.000000153
      8        6          -0.000000874   -0.000003015    0.000002097
      9        6           0.000000830    0.000000352   -0.000000495
     10        6           0.000001006    0.000002103   -0.000000591
     11        6           0.000000397    0.000002086   -0.000001931
     12        6          -0.000000903    0.000002417   -0.000003453
     13        6          -0.000000673    0.000001895   -0.000002959
     14        1          -0.000000835   -0.000000078   -0.000001423
     15        1          -0.000001006   -0.000001279   -0.000000144
     16        1           0.000000221   -0.000003143    0.000002384
     17        1           0.000000306   -0.000001453    0.000001942
     18        1          -0.000001227   -0.000000945   -0.000000286
     19        1          -0.000002434   -0.000003210    0.000000429
     20        1           0.000000535   -0.000002374    0.000002798
     21        1          -0.000001005   -0.000003500    0.000001811
     22        1          -0.000000790   -0.000004267    0.000002911
     23        1           0.000001076    0.000000638    0.000001248
     24       17          -0.000001171    0.000003033   -0.000004845
     25        1          -0.000001586    0.000001493   -0.000003883
     26       16           0.000001505    0.000002210    0.000001257
     27        1           0.000000507    0.000002969   -0.000002208
     28        9           0.000002820    0.000002240    0.000001909
     29        9           0.000002562    0.000003552    0.000000491
     30        9           0.000001305   -0.000000136    0.000001938
     31        9           0.000001098    0.000001186    0.000000386
     32        9           0.000002773    0.000001883    0.000002584
 -------------------------------------------------------------------
 Cartesian Forces:  Max     0.000004845 RMS     0.000001887

 GradGradGradGradGradGradGradGradGradGradGradGradGradGradGradGradGradGrad
 Berny optimization.
 FormGI is forming the generalized inverse of G from B-inverse, IUseBI=4.
 GSVD:  received Info=                   1 from GESDD.
 Internal  Forces:  Max     0.000002113 RMS     0.000000420
 Search for a local minimum.
 Step number   1 out of a maximum of  173
 All quantities printed in internal units (Hartrees-Bohrs-Radians)
 Mixed Optimization -- En-DIIS/RFO-DIIS
 Second derivative matrix not updated -- first step.
 ITU=  0
     Eigenvalues ---    0.00230   0.00429   0.00483   0.00919   0.01378
     Eigenvalues ---    0.01735   0.01762   0.01824   0.01851   0.01922
     Eigenvalues ---    0.01998   0.02078   0.02126   0.02191   0.02208
     Eigenvalues ---    0.02261   0.02272   0.02284   0.02287   0.03719
     Eigenvalues ---    0.04426   0.04929   0.05499   0.05524   0.05552
     Eigenvalues ---    0.08182   0.09076   0.09095   0.09236   0.12078
     Eigenvalues ---    0.12673   0.13571   0.13603   0.13646   0.13658
     Eigenvalues ---    0.14703   0.15851   0.15999   0.16000   0.16000
     Eigenvalues ---    0.16000   0.16000   0.16000   0.16724   0.21889
     Eigenvalues ---    0.21897   0.22056   0.22303   0.23483   0.23508
     Eigenvalues ---    0.23521   0.24994   0.24994   0.25000   0.25000
     Eigenvalues ---    0.25000   0.25000   0.25000   0.25063   0.29843
     Eigenvalues ---    0.30234   0.31630   0.34066   0.34098   0.34353
     Eigenvalues ---    0.34519   0.34531   0.34686   0.34712   0.35457
     Eigenvalues ---    0.35907   0.36193   0.37166   0.42594   0.43167
     Eigenvalues ---    0.45994   0.46164   0.46168   0.46424   0.46517
     Eigenvalues ---    0.47129   0.48097   0.48113   0.48204   0.48393
     Eigenvalues ---    0.48832   0.49144   0.50052   0.50830   0.99747
 RFO step:  Lambda= 0.00000000D+00 EMin= 2.30000000D-03
 Linear search not attempted -- first point.
 Iteration  1 RMS(Cart)=  0.00003115 RMS(Int)=  0.00000000
 Iteration  2 RMS(Cart)=  0.00000000 RMS(Int)=  0.00000000
 Variable       Old X    -DE/DX   Delta X   Delta X   Delta X     New X
                                 (Linear)    (Quad)   (Total)
    R1        2.63947   0.00000   0.00000   0.00000   0.00000   2.63947
    R2        2.64437  -0.00000   0.00000  -0.00000  -0.00000   2.64437
    R3        2.64341  -0.00000   0.00000  -0.00000  -0.00000   2.64341
    R4        2.63553   0.00000   0.00000   0.00000   0.00000   2.63553
    R5        1.90642   0.00000   0.00000   0.00000   0.00000   1.90642
    R6        2.28740  -0.00000   0.00000  -0.00000  -0.00000   2.28740
    R7        2.59037   0.00000   0.00000   0.00000   0.00000   2.59038
    R8        2.75597   0.00000   0.00000   0.00000   0.00000   2.75597
    R9        1.90838   0.00000   0.00000   0.00000   0.00000   1.90838
   R10        2.87499  -0.00000   0.00000  -0.00000  -0.00000   2.87499
   R11        2.07164   0.00000   0.00000   0.00000   0.00000   2.07164
   R12        2.06188  -0.00000   0.00000  -0.00000  -0.00000   2.06188
   R13        2.88278  -0.00000   0.00000  -0.00000  -0.00000   2.88278
   R14        2.06739   0.00000   0.00000   0.00000   0.00000   2.06739
   R15        2.07220   0.00000   0.00000   0.00000   0.00000   2.07220
   R16        2.06443   0.00000   0.00000   0.00000   0.00000   2.06443
   R17        2.06145   0.00000   0.00000   0.00000   0.00000   2.06145
   R18        2.06463   0.00000   0.00000   0.00000   0.00000   2.06463
   R19        2.61543  -0.00000   0.00000  -0.00000  -0.00000   2.61543
   R20        2.03781   0.00000   0.00000   0.00000   0.00000   2.03781
   R21        2.61764   0.00000   0.00000   0.00000   0.00000   2.61764
   R22        3.42750  -0.00000   0.00000  -0.00000  -0.00000   3.42750
   R23        2.62113  -0.00000   0.00000  -0.00000  -0.00000   2.62113
   R24        2.04227  -0.00000   0.00000  -0.00000  -0.00000   2.04227
   R25        2.61502   0.00000   0.00000   0.00000   0.00000   2.61502
   R26        3.28526  -0.00000   0.00000  -0.00000  -0.00000   3.28526
   R27        2.04940  -0.00000   0.00000  -0.00000  -0.00000   2.04940
   R28        3.04439   0.00000   0.00000   0.00000   0.00000   3.04439
   R29        3.05423  -0.00000   0.00000  -0.00000  -0.00000   3.05423
   R30        3.04763  -0.00000   0.00000  -0.00000  -0.00000   3.04763
   R31        3.05536   0.00000   0.00000   0.00000   0.00000   3.05536
   R32        3.03513  -0.00000   0.00000  -0.00000  -0.00000   3.03513
    A1        2.15185  -0.00000   0.00000  -0.00001  -0.00001   2.15184
    A2        2.04668   0.00000   0.00000   0.00001   0.00001   2.04668
    A3        2.08446   0.00000   0.00000   0.00000   0.00000   2.08446
    A4        2.21523  -0.00000   0.00000  -0.00000  -0.00000   2.21522
    A5        2.01317   0.00000   0.00000   0.00001   0.00001   2.01318
    A6        2.03761   0.00000   0.00000   0.00000   0.00000   2.03761
    A7        2.15832  -0.00000   0.00000  -0.00000  -0.00000   2.15832
    A8        1.97418  -0.00000   0.00000  -0.00000  -0.00000   1.97418
    A9        2.15041   0.00000   0.00000   0.00001   0.00001   2.15042
   A10        2.07381   0.00000   0.00000   0.00001   0.00001   2.07382
   A11        2.06430  -0.00000   0.00000  -0.00000  -0.00000   2.06430
   A12        2.03135  -0.00000   0.00000  -0.00001  -0.00001   2.03134
   A13        1.92784  -0.00000   0.00000  -0.00000  -0.00000   1.92783
   A14        1.92968   0.00000   0.00000   0.00000   0.00000   1.92968
   A15        1.87734   0.00000   0.00000   0.00000   0.00000   1.87734
   A16        1.93107  -0.00000   0.00000  -0.00000  -0.00000   1.93107
   A17        1.93064   0.00000   0.00000  -0.00000  -0.00000   1.93064
   A18        1.86565   0.00000   0.00000   0.00000   0.00000   1.86566
   A19        1.94528   0.00000   0.00000   0.00000   0.00000   1.94528
   A20        1.90291  -0.00000   0.00000  -0.00000  -0.00000   1.90290
   A21        1.91303  -0.00000   0.00000  -0.00001  -0.00001   1.91302
   A22        1.92503   0.00000   0.00000   0.00000   0.00000   1.92503
   A23        1.91121  -0.00000   0.00000   0.00000   0.00000   1.91121
   A24        1.86461   0.00000   0.00000   0.00000   0.00000   1.86461
   A25        1.93730   0.00000   0.00000   0.00000   0.00000   1.93731
   A26        1.94180  -0.00000   0.00000  -0.00000  -0.00000   1.94180
   A27        1.94067  -0.00000   0.00000  -0.00000  -0.00000   1.94067
   A28        1.88089  -0.00000   0.00000  -0.00000  -0.00000   1.88089
   A29        1.87966  -0.00000   0.00000   0.00000   0.00000   1.87966
   A30        1.88080  -0.00000   0.00000  -0.00000  -0.00000   1.88080
   A31        2.05758   0.00000   0.00000   0.00000   0.00000   2.05758
   A32        2.10243   0.00000   0.00000   0.00000   0.00000   2.10243
   A33        2.12314  -0.00000   0.00000  -0.00000  -0.00000   2.12314
   A34        2.16796  -0.00000   0.00000  -0.00000  -0.00000   2.16795
   A35        2.05658   0.00000   0.00000   0.00000   0.00000   2.05658
   A36        2.05865   0.00000   0.00000   0.00000   0.00000   2.05865
   A37        2.03229   0.00000   0.00000   0.00000   0.00000   2.03229
   A38        2.13653  -0.00000   0.00000  -0.00000  -0.00000   2.13653
   A39        2.11436  -0.00000   0.00000  -0.00000  -0.00000   2.11436
   A40        2.12606  -0.00000   0.00000  -0.00000  -0.00000   2.12606
   A41        2.08087   0.00000   0.00000   0.00000   0.00000   2.08087
   A42        2.07625  -0.00000   0.00000  -0.00000  -0.00000   2.07625
   A43        2.09802  -0.00000   0.00000  -0.00000  -0.00000   2.09802
   A44        2.10335   0.00000   0.00000   0.00000   0.00000   2.10335
   A45        2.08181  -0.00000   0.00000  -0.00000  -0.00000   2.08181
   A46        1.61539   0.00000   0.00000   0.00000   0.00000   1.61539
   A47        1.61071   0.00000   0.00000   0.00000   0.00000   1.61071
   A48        1.61393  -0.00000   0.00000  -0.00000  -0.00000   1.61393
   A49        1.60954  -0.00000   0.00000  -0.00000  -0.00000   1.60954
   A50        1.57031   0.00000   0.00000   0.00000   0.00000   1.57031
   A51        1.57218  -0.00000   0.00000  -0.00000  -0.00000   1.57218
   A52        1.53083   0.00000   0.00000   0.00000   0.00000   1.53083
   A53        1.56481   0.00000   0.00000   0.00000   0.00000   1.56481
   A54        1.52835   0.00000   0.00000   0.00000   0.00000   1.52835
   A55        1.56897   0.00000   0.00000   0.00000   0.00000   1.56897
   A56        1.53019   0.00000   0.00000   0.00000   0.00000   1.53019
   A57        1.52741   0.00000   0.00000   0.00000   0.00000   1.52741
   A58        3.14622   0.00000   0.00000   0.00000   0.00000   3.14622
   A59        3.22493  -0.00000   0.00000  -0.00000  -0.00000   3.22493
   A60        3.22463  -0.00000   0.00000  -0.00000  -0.00000   3.22463
   A61        3.13906   0.00000   0.00000   0.00000   0.00000   3.13906
   A62        3.14475  -0.00000   0.00000  -0.00000  -0.00000   3.14475
   A63        3.14620  -0.00000   0.00000  -0.00000  -0.00000   3.14620
    D1       -0.17968  -0.00000   0.00000  -0.00000  -0.00000  -0.17968
    D2       -3.11527  -0.00000   0.00000  -0.00003  -0.00003  -3.11530
    D3        2.98354   0.00000   0.00000   0.00000   0.00000   2.98354
    D4        0.04795  -0.00000   0.00000  -0.00002  -0.00002   0.04792
    D5       -3.11859   0.00000   0.00000   0.00001   0.00001  -3.11858
    D6        0.03258  -0.00000   0.00000  -0.00000  -0.00000   0.03258
    D7        0.00093   0.00000   0.00000   0.00000   0.00000   0.00094
    D8       -3.13108  -0.00000   0.00000  -0.00001  -0.00001  -3.13109
    D9        3.11944  -0.00000   0.00000  -0.00001  -0.00001   3.11944
   D10       -0.02098  -0.00000   0.00000  -0.00000  -0.00000  -0.02099
   D11       -0.00140   0.00000   0.00000   0.00000   0.00000  -0.00140
   D12        3.14136   0.00000   0.00000   0.00000   0.00000   3.14137
   D13       -0.02763  -0.00000   0.00000  -0.00001  -0.00001  -0.02764
   D14        3.13810  -0.00000   0.00000  -0.00001  -0.00001   3.13809
   D15        2.90545   0.00000   0.00000   0.00002   0.00002   2.90547
   D16       -0.21200   0.00000   0.00000   0.00001   0.00001  -0.21198
   D17       -3.05349   0.00000   0.00000   0.00001   0.00001  -3.05347
   D18       -0.42346  -0.00000   0.00000   0.00000   0.00000  -0.42346
   D19        0.11213   0.00000   0.00000   0.00001   0.00001   0.11214
   D20        2.74215  -0.00000   0.00000  -0.00000  -0.00000   2.74215
   D21       -2.99080   0.00000   0.00000   0.00003   0.00003  -2.99077
   D22        1.14902   0.00000   0.00000   0.00004   0.00004   1.14905
   D23       -0.88216   0.00000   0.00000   0.00003   0.00003  -0.88213
   D24        0.65291   0.00000   0.00000   0.00004   0.00004   0.65295
   D25       -1.49046   0.00000   0.00000   0.00005   0.00005  -1.49042
   D26        2.76155   0.00000   0.00000   0.00004   0.00004   2.76158
   D27        3.13408   0.00000   0.00000   0.00004   0.00004   3.13412
   D28        1.00493  -0.00000   0.00000   0.00003   0.00003   1.00497
   D29       -1.03046   0.00000   0.00000   0.00003   0.00003  -1.03043
   D30       -1.00655   0.00000   0.00000   0.00004   0.00004  -1.00651
   D31       -3.13570  -0.00000   0.00000   0.00003   0.00003  -3.13566
   D32        1.11209   0.00000   0.00000   0.00004   0.00004   1.11213
   D33        1.05753   0.00000   0.00000   0.00004   0.00004   1.05757
   D34       -1.07161   0.00000   0.00000   0.00003   0.00003  -1.07158
   D35       -3.10701   0.00000   0.00000   0.00004   0.00004  -3.10698
   D36       -1.04707  -0.00000   0.00000  -0.00000  -0.00000  -1.04708
   D37       -3.14152  -0.00000   0.00000  -0.00000  -0.00000  -3.14153
   D38        1.04507   0.00000   0.00000  -0.00000  -0.00000   1.04506
   D39        1.06924  -0.00000   0.00000  -0.00000  -0.00000   1.06924
   D40       -1.02521  -0.00000   0.00000  -0.00000  -0.00000  -1.02522
   D41       -3.12181  -0.00000   0.00000  -0.00000  -0.00000  -3.12181
   D42        3.11642   0.00000   0.00000   0.00000   0.00000   3.11642
   D43        1.02197   0.00000   0.00000   0.00000   0.00000   1.02197
   D44       -1.07463   0.00000   0.00000   0.00000   0.00000  -1.07462
   D45       -0.00041  -0.00000   0.00000  -0.00000  -0.00000  -0.00041
   D46        3.14049  -0.00000   0.00000  -0.00001  -0.00001   3.14048
   D47        3.13149   0.00000   0.00000   0.00001   0.00001   3.13149
   D48       -0.01080   0.00000   0.00000  -0.00000  -0.00000  -0.01080
   D49        0.00030   0.00000   0.00000   0.00000   0.00000   0.00030
   D50       -3.14028  -0.00000   0.00000  -0.00000  -0.00000  -3.14028
   D51       -3.14060   0.00000   0.00000   0.00001   0.00001  -3.14059
   D52        0.00201   0.00000   0.00000   0.00001   0.00001   0.00202
   D53        0.78390   0.00000   0.00000   0.00002   0.00002   0.78392
   D54        2.35600   0.00000   0.00000   0.00002   0.00002   2.35602
   D55       -0.79021   0.00000   0.00000   0.00002   0.00002  -0.79018
   D56       -2.36084   0.00000   0.00000   0.00002   0.00002  -2.36082
   D57       -2.35834  -0.00000   0.00000   0.00001   0.00001  -2.35833
   D58       -0.78624  -0.00000   0.00000   0.00001   0.00001  -0.78623
   D59        2.35074  -0.00000   0.00000   0.00001   0.00001   2.35075
   D60        0.78010  -0.00000   0.00000   0.00001   0.00001   0.78011
   D61       -0.00075   0.00000   0.00000   0.00000   0.00000  -0.00075
   D62       -3.14115  -0.00000   0.00000  -0.00001  -0.00001  -3.14116
   D63        3.13984   0.00000   0.00000   0.00001   0.00001   3.13985
   D64       -0.00055  -0.00000   0.00000  -0.00000  -0.00000  -0.00056
   D65        0.00133  -0.00000   0.00000  -0.00000  -0.00000   0.00132
   D66       -3.14142  -0.00000   0.00000  -0.00001  -0.00001  -3.14143
   D67       -3.14146   0.00000   0.00000   0.00001   0.00001  -3.14146
   D68       -0.00103   0.00000   0.00000   0.00000   0.00000  -0.00102
         Item               Value     Threshold  Converged?
 Maximum Force            0.000002     0.000450     YES
 RMS     Force            0.000000     0.000300     YES
 Maximum Displacement     0.000116     0.001800     YES
 RMS     Displacement     0.000031     0.001200     YES
[...]
 000614,-0.00000128,0.00000055,-0.00000274,0.00000018,-0.00114963,-0.00
 396964,0.00012223,-0.01607703,0.00952637,0.00064849,-0.31369268,0.1056
 3338,0.00979293,0.00095710,-0.00087756,0.00002733,0.00121655,-0.000404
 15,0.00009809,-0.00001143,0.00002551,0.00000530,-0.00000953,0.00001685
 ,0.00000160,0.00000838,0.00000029,0.00000114,0.00000466,0.00000021,-0.
 00000174,-0.00000111,0.00000025,0.00000008,-0.00000102,0.00000029,0.00
 000019,-0.00000034,0.00000060,-0.00000009,0.00000213,-0.00000071,-0.00
 000023,-0.00000015,0.00000059,0.00000012,-0.00039880,0.00064069,0.0000
 1351,0.00095649,-0.00075400,-0.00011563,0.00021669,-0.00008664,0.00000
 326,-0.00386598,-0.00052936,0.00012844,0.32851342,-0.00037239,-0.00137
 297,0.00000175,-0.00012680,0.00032300,-0.00001045,0.00015269,-0.000195
 35,0.00004291,-0.00018449,0.00016300,0.00002841,-0.00008942,0.00009178
 ,0.00000941,0.00003401,0.00001342,-0.00000782,-0.00000093,-0.00000657,
 -0.00000128,-0.00000031,0.00000505,-0.00000046,-0.00340538,-0.00272485
 ,-0.00004276,-0.01637250,0.01188561,0.00065957,0.10547084,-0.09931374,
 -0.00409127,0.02827845,-0.00741251,-0.00098247,-0.00055110,-0.00522878
 ,-0.00015714,-0.00013568,-0.00000916,0.00001178,-0.00000957,-0.0000086
 8,-0.00001036,-0.00000650,-0.00000382,-0.00000152,-0.00000028,-0.00000
 063,-0.00000062,0.00000057,0.00000037,-0.00000038,-0.00000042,0.000000
 98,0.00000058,0.00000039,-0.00000101,0.00000079,-0.00000332,0.00000053
 ,0.00000032,0.00000020,-0.00000089,-0.00000082,-0.00068906,0.00066280,
 -0.00002615,0.00050812,0.00099287,0.00004824,0.00138009,-0.00031272,-0
 .00005418,-0.00543419,-0.00019760,0.00012290,-0.11167540,0.10553019,0.
 00000113,-0.00000765,-0.00122556,-0.00001747,-0.00002535,-0.00049680,-
 0.00005049,-0.00007742,-0.00007098,-0.00010627,0.00006175,-0.00006659,
 0.00000968,-0.00000118,0.00006768,0.00000237,-0.00000371,0.00001478,-0
 .00000048,-0.00000112,0.00000082,0.00000019,0.00000060,0.00000133,0.00
 004581,0.00005239,0.00585646,0.00032858,-0.00008406,0.00078318,0.00975
 166,-0.00411503,-0.03239227,0.00052247,-0.00014737,0.00252211,0.000157
 06,-0.00021187,0.00561207,-0.00000697,-0.00002137,0.00007458,0.0000129
 2,0.00000773,0.00002326,0.00000145,-0.00000372,-0.00000612,-0.00000363
 ,0.00000705,-0.00000490,0.00000036,-0.00000216,-0.00000117,-0.00000014
 ,0.00000224,-0.00000131,0.00000065,0.00000077,-0.00000056,-0.00000028,
 0.00000007,0.00000030,-0.00000094,-0.00000083,-0.00000081,0.00008290,0
 .00000004,0.00080082,-0.00008014,0.00009335,-0.00269897,0.00003127,-0.
 00001567,0.00030629,0.00006116,-0.00000223,0.00101670,-0.01056664,0.00
 459486,0.02358252,0.00043135,0.00052606,-0.00077116,0.00163760,0.00000
 885,-0.00029028,-0.00144173,-0.00240622,0.00046272,0.00028182,0.001637
 76,-0.00047793,0.00020196,0.00039111,-0.00005892,-0.00004490,-0.000082
 14,0.00003927,0.00003560,0.00000652,0.00000103,-0.00000361,-0.00000692
 ,0.00000760,-0.00203122,-0.00104842,-0.00110704,-0.00750941,0.00433039
 ,0.00974898,0.00252190,-0.00276225,0.00056925,-0.00034687,0.00035346,-
 0.00060867,0.00026112,-0.00020834,0.00014766,0.00004088,-0.00001005,0.
 00008766,-0.00006631,0.00003113,-0.00001595,0.00002985,-0.00000724,0.0
 0001862,0.00004283,-0.00001320,-0.00002923,-0.00000511,0.00000091,0.00
 000999,-0.00000776,0.00002035,-0.00001729,0.00001078,-0.00000055,-0.00
 001545,-0.00000479,0.00001245,0.00000076,0.00000630,-0.00000698,0.0000
 0561,0.00110579,-0.00002919,0.00090482,-0.00006712,-0.00043242,-0.0000
 7439,0.00015464,0.00000125,0.00008908,-0.12132341,-0.02232958,0.065529
 22,0.00032094,0.00069987,0.00014505,0.17590168,-0.00203693,0.00280305,
 -0.00017227,0.00251503,-0.00022537,-0.00017177,-0.00261340,-0.00103220
 ,0.00027162,0.00093377,0.00078499,-0.00022832,0.00104886,-0.00026138,-
 0.00014715,-0.00037742,-0.00020151,0.00006912,0.00004027,0.00008391,0.
 00000992,0.00000081,-0.00005848,0.00000288,0.00090049,-0.00546569,0.00
 280784,-0.02144325,-0.00816767,0.01879748,0.00451116,-0.00273442,0.002
 05732,0.00055909,-0.00073965,-0.00155988,-0.00102341,-0.00093875,0.000
 33422,0.00001388,0.00005286,0.00000297,-0.00006297,0.00010458,0.000012
 88,0.00009005,0.00003557,0.00002927,0.00002313,0.00001055,-0.00000804,
 -0.00001151,-0.00000061,0.00001087,-0.00000406,0.00000168,-0.00001357,
 -0.00000079,0.00001267,-0.00001404,0.00003725,-0.00000381,-0.00000340,
 0.00000191,0.00000881,0.00001191,-0.00088078,-0.00224334,0.00054987,-0
 .00082287,-0.00102146,-0.00011279,0.00000055,-0.00008584,-0.00002463,-
 0.02301804,-0.07894661,0.02748241,0.00000384,0.00006022,0.00042016,0.0
 1433903,0.09315303,0.00057887,-0.00064340,0.00014492,-0.00153132,0.000
 07427,0.00032203,0.00152670,0.00149449,-0.00049479,-0.00044431,-0.0010
 5597,0.00061952,-0.00040418,-0.00009214,0.00011567,0.00011935,0.000092
 10,-0.00009532,-0.00002711,-0.00003094,-0.00000606,-0.00000027,0.00002
 286,-0.00001459,-0.00022366,0.00270668,0.00040781,0.01529198,-0.004440
 78,-0.00589205,-0.00333603,0.00483880,-0.00053746,0.00094345,-0.000358
 68,0.00040331,-0.00022521,0.00038620,-0.00003835,-0.00006028,0.0000047
 5,-0.00010997,0.00005175,-0.00006503,-0.00003240,-0.00002497,-0.000002
 80,0.00000119,-0.00003294,-0.00000089,0.00001617,0.00000309,0.00001167
 ,-0.00000042,0.00000473,-0.00001981,0.00001697,-0.00000771,-0.00000922
 ,0.00001431,-0.00000991,-0.00000406,0.00000014,0.00000147,0.00000349,0
 .00000043,0.00008726,0.00133291,-0.00142441,0.00037346,0.00079143,0.00
 011023,-0.00006454,0.00005919,-0.00006734,0.06524789,0.02580733,-0.133
 63254,-0.00011873,-0.00030446,-0.00037783,-0.10256106,-0.01992251,0.18
 780036,-0.00046715,-0.00040439,0.00080866,-0.00021807,0.00057587,0.000
 21971,0.00104608,-0.00077036,0.00002680,-0.00055877,0.00056758,0.00004
 880,-0.00068350,0.00047604,0.00011261,0.00024231,0.00008950,-0.0000644
 8,-0.00000713,-0.00006143,-0.00001146,-0.00000544,0.00004152,-0.000000
 71,0.00237380,0.00431779,-0.00118288,-0.01298960,-0.00580751,-0.013926
 12,-0.00279151,0.00199481,0.00053331,0.00033551,-0.00038031,0.00097578
 ,0.00002400,0.00055273,-0.00024630,-0.00013342,0.00002308,-0.00000374,
 0.00001118,-0.00007627,-0.00004175,-0.00003956,-0.00003093,0.00000411,
 0.00000246,-0.00002268,-0.00001135,0.00000418,0.00000797,0.00000519,-0
 .00000231,0.00000914,-0.00000118,0.00000632,-0.00001389,-0.00000118,-0
 .00003472,0.00001420,0.00000297,0.00000650,-0.00001091,0.00000122,0.00
 070552,-0.00063872,-0.00034471,0.00078108,0.00073384,0.00004031,0.0001
 0650,0.00003607,-0.00011190,-0.13233565,0.00905325,-0.06623693,0.00106
 910,0.00079636,-0.00114373,-0.04280025,-0.00267520,-0.01008643,0.18329
 210,-0.00110868,-0.00063753,-0.00111276,0.00216666,-0.00033006,-0.0003
 1580,-0.00226454,-0.00086470,0.00025289,0.00071869,0.00059264,-0.00017
 829,0.00094131,-0.00027018,-0.00012850,-0.00033139,-0.00016300,0.00005
 612,0.00002984,0.00007645,0.00000800,0.00000199,-0.00005184,0.00000288
 ,-0.00287538,-0.00266423,0.00184044,0.02125451,-0.00402022,0.01469693,
 0.00018515,-0.00520949,0.00292184,0.00075976,0.00255975,0.00014772,0.0
 0171985,-0.00063252,0.00012791,0.00006447,0.00003980,0.00000122,-0.000
 05412,0.00009704,0.00001662,0.00007855,0.00003271,0.00002212,0.0000189
 0,0.00001326,-0.00000470,-0.00000964,-0.00000058,0.00000787,-0.0000024
 4,-0.00000220,-0.00000913,-0.00000203,0.00001167,-0.00000918,0.0000352
 3,-0.00000633,-0.00000338,-0.00000061,0.00000987,0.00000937,-0.0001381
 9,-0.00013504,0.00044549,-0.00056447,-0.00052525,0.00002578,0.00010043
 ,-0.00005585,-0.00007689,0.01007823,-0.07058730,0.00941424,0.00123423,
 -0.00161596,0.00003013,-0.01050922,0.00671670,-0.00124146,0.00860750,0
 .09146275,-0.00085638,-0.00062574,0.00025255,-0.00060238,0.00057156,0.
 00023271,0.00105787,0.00004582,-0.00016022,-0.00042957,-0.00001463,0.0
 0024065,-0.00051044,0.00022000,0.00012111,0.00017009,0.00008071,-0.000
 07893,-0.00001189,-0.00004583,-0.00000846,-0.00000409,0.00003112,-0.00
 000621,0.00158918,0.00515907,-0.00059252,-0.01345404,-0.00795492,-0.00
 454362,-0.00055249,0.00279184,0.00026663,-0.00026007,-0.00036218,0.000
 30910,0.00006511,0.00041876,-0.00007658,-0.00014167,0.00001301,-0.0000
 3523,0.00002348,-0.00006280,-0.00003950,-0.00002805,-0.00001706,0.0000
 0549,-0.00001247,-0.00001521,-0.00000201,0.00000347,0.00001182,0.00000
 397,0.00000070,-0.00000278,0.00000658,0.00000103,-0.00001216,0.0000045
 3,-0.00002233,0.00000659,0.00000100,0.00000524,-0.00000382,0.00000224,
 0.00039410,-0.00021896,-0.00043987,0.00049559,0.00052347,0.00002252,0.
 00001784,0.00006497,-0.00006173,-0.06603685,0.00764461,-0.12342920,-0.
 00020360,0.00101108,-0.00127468,0.01237299,0.00148435,0.00884213,0.100
 64505,0.00690743,0.17455903,0.00043410,0.00053419,0.00081792,0.0016096
 4,-0.00011593,-0.00007411,-0.00139840,-0.00201823,0.00021848,0.0003327
 9,0.00139677,0.00015081,0.00029964,0.00028186,0.00001625,-0.00010271,-
 0.00011005,-0.00005609,0.00004090,0.00001514,0.00000586,-0.00000484,-0
 .00000874,-0.00000885,-0.00192478,-0.00130272,0.00132359,-0.00885740,0
 .00488926,-0.00944454,0.00268478,-0.00298666,-0.00085608,-0.00036294,0
 .00034013,0.00062026,0.00026617,-0.00021697,-0.00019428,0.00002725,-0.
 00001064,-0.00003045,-0.00006158,-0.00000205,-0.00008126,0.00006622,0.
 00000555,0.00004700,0.00002811,-0.00001360,-0.00001912,-0.00000910,0.0
 0001867,0.00001882,-0.00000611,0.00000268,-0.00000955,0.00000510,-0.00
 000655,-0.00000854,-0.00000313,0.00001228,0.00000074,0.00001385,-0.000
 00140,0.00001400,0.00111660,-0.00011696,-0.00109748,-0.00008496,-0.000
 47525,0.00007633,0.00015009,0.00000052,-0.00009064,-0.12658783,-0.0205
 1517,-0.06541976,0.00031721,0.00072504,-0.00015141,0.00722119,0.000043
 80,0.00909896,-0.00008678,0.00048274,-0.00421777,0.18495875,-0.0019395
 9,0.00280870,0.00025780,0.00243109,-0.00025567,-0.00010029,-0.00256450
 ,-0.00095966,0.00017694,0.00091809,0.00069284,-0.00009452,0.00105239,-
 0.00028592,-0.00012883,-0.00038338,-0.00020331,0.00004280,0.00004022,0
 .00008336,0.00001277,0.00000036,-0.00005816,-0.00000248,0.00071729,-0.
 00519551,-0.00295867,-0.02182270,-0.00775455,-0.01767566,0.00426001,-0
 .00239941,-0.00239773,0.00072130,-0.00084416,0.00146025,-0.00108385,-0
 .00090863,-0.00029573,0.00001777,0.00004994,0.00000013,-0.00005416,0.0
 0010186,0.00001035,0.00009287,0.00003669,0.00003369,0.00001794,0.00001
 421,-0.00000569,-0.00001242,0.00000515,0.00001256,-0.00000326,-0.00000
 386,-0.00001112,-0.00000190,0.00001085,-0.00001166,0.00003719,-0.00000
 401,-0.00000348,0.00000298,0.00001051,0.00001412,-0.00091823,-0.002044
 54,-0.00037609,-0.00080494,-0.00099241,0.00012833,-0.00000173,-0.00008
 413,0.00003776,-0.02155652,-0.07703829,-0.02407129,-0.00002423,0.00006
 249,-0.00039368,0.00068759,0.00888618,0.00509069,-0.00269355,0.0085770
 2,-0.00154089,0.01096962,0.09164931,-0.00066105,0.00069706,0.00029255,
 0.00137973,-0.00022949,0.00008418,-0.00140086,-0.00076749,-0.00007872,
 0.00055449,0.00055493,0.00037231,0.00054953,-0.00009010,0.00000175,-0.
 00020238,-0.00012127,-0.00006835,0.00002996,0.00004195,0.00000660,-0.0
 0000214,-0.00002417,-0.00001248,0.00043029,-0.00290321,0.00008236,-0.0
 1604516,0.00405379,-0.00514162,0.00331590,-0.00475580,-0.00095379,-0.0
 0086771,0.00028241,0.00047065,0.00015220,-0.00039813,-0.00011420,0.000
 03502,-0.00000019,-0.00009149,-0.00003652,0.00001631,-0.00006284,0.000
 07803,0.00002439,0.00003993,0.00000132,0.00000223,0.00000382,-0.000007
 89,0.00001906,0.00001525,-0.00000206,-0.00001246,-0.00000049,-0.000002
 20,-0.00000267,-0.00000140,0.00001283,0.00000279,-0.00000154,0.0000101
 1,0.00000745,0.00001440,-0.00023749,-0.00124245,-0.00137783,-0.0003968
 9,-0.00081134,0.00011170,0.00005591,-0.00005832,-0.00004918,-0.0650888
 5,-0.02226924,-0.12778736,0.00007737,0.00028217,-0.00037404,-0.0118858
 6,-0.00307342,-0.04343726,-0.00457353,0.00078638,-0.00074382,0.1019909
 2,0.01534995,0.17734781,-0.00052116,-0.00036282,-0.00093817,-0.0001700
 0,0.00058399,-0.00011764,0.00100133,-0.00078414,0.00007351,-0.00052619
 ,0.00056922,0.00002476,-0.00065691,0.00044927,0.00007914,0.00023489,0.
 00008587,-0.00004660,-0.00000632,-0.00006001,-0.00000325,-0.00000521,0
 .00003956,0.00000110,0.00236549,0.00397060,0.00119695,-0.01152961,-0.0
 0593428,0.01410667,-0.00280387,0.00185218,-0.00026713,0.00031822,-0.00
 032829,-0.00093450,0.00003292,0.00051752,0.00026204,-0.00013327,0.0000
 2551,0.00000966,0.00000836,-0.00006871,-0.00002466,-0.00003808,-0.0000
 3181,0.00000007,0.00000279,-0.00001987,-0.00001120,0.00000465,0.000003
 87,0.00000185,-0.00000251,0.00001305,-0.00000530,0.00000704,-0.0000105
 1,-0.00000317,-0.00003302,0.00001369,0.00000432,0.00000538,-0.00001322
 ,-0.00000112,0.00073236,-0.00062315,0.00023296,0.00075099,0.00070726,-
 0.00006838,0.00011406,0.00002983,0.00009490,-0.12526786,0.00632291,0.0
 6652701,0.00119400,0.00070862,0.00097960,0.00038511,-0.00278395,0.0043
 7914,0.00762985,-0.00047417,-0.01241911,-0.04276730,-0.00315779,0.0125
 1833,0.17257695,-0.00104880,-0.00069187,0.00106935,0.00212804,-0.00035
 880,0.00002072,-0.00222666,-0.00081901,0.00019206,0.00072645,0.0005574
 6,-0.00009740,0.00092170,-0.00027235,-0.00014715,-0.00033107,-0.000163
 96,0.00003816,0.00003025,0.00007540,0.00000745,0.00000171,-0.00005096,
 0.00000107,-0.00289162,-0.00237568,-0.00167791,0.01995635,-0.00381165,
 -0.01565475,-0.00004794,-0.00505668,-0.00322645,0.00073745,0.00256026,
 -0.00008193,0.00172382,-0.00059568,-0.00027705,0.00007193,0.00004053,0
 .00003564,-0.00005320,0.00009372,0.00001030,0.00007770,0.00003265,0.00
 002515,0.00002057,0.00001200,-0.00000443,-0.00000961,0.00000074,0.0000
 0897,-0.00000289,-0.00000308,-0.00000811,-0.00000229,0.00001074,-0.000
 00856,0.00003451,-0.00000614,-0.00000322,0.00000022,0.00001004,0.00001
 030,-0.00016869,-0.00012450,-0.00038177,-0.00054840,-0.00050459,-0.000
 01631,0.00010813,-0.00005819,0.00008690,0.00717126,-0.07022596,-0.0078
 5326,0.00125609,-0.00168639,-0.00016178,0.00030645,0.00854360,-0.00042
 361,-0.00083723,0.00859216,0.00236717,-0.00999510,0.00673583,0.0017987
 4,0.01187412,0.09273330,0.00090327,0.00060095,0.00037483,0.00061654,-0
 .00067957,0.00018738,-0.00115020,0.00022297,-0.00008046,0.00050181,-0.
 00015194,0.00010043,0.00062404,-0.00029093,-0.00004245,-0.00022043,-0.
 00010710,0.00000598,0.00001416,0.00005642,-0.00000217,0.00000321,-0.00
 003486,-0.00000816,-0.00186023,-0.00548406,-0.00074420,0.01467449,0.00
 837935,-0.00646988,0.00069287,-0.00308970,0.00005293,0.00029407,0.0004
 6480,0.00033247,-0.00002479,-0.00047339,-0.00013859,0.00014246,-0.0000
 1653,-0.00004640,-0.00001968,0.00004892,-0.00001397,0.00005327,0.00003
 197,0.00001426,-0.00000109,0.00001248,0.00001018,-0.00000593,0.0000048
 0,0.00000604,0.00000025,-0.00001570,0.00000440,-0.00000634,0.00000461,
 0.00000250,0.00002530,-0.00000754,-0.00000393,0.00000088,0.00001208,0.
 00000653,-0.00046517,0.00027754,-0.00039964,-0.00055799,-0.00058495,0.
 00003701,-0.00002282,-0.00006603,-0.00006067,0.06622719,-0.00607669,-0
 .13115394,0.00011365,-0.00112578,-0.00139308,0.00414648,0.00204916,-0.
 00116088,0.00960805,-0.00028236,-0.04399054,-0.01006614,-0.00126609,0.
 00890792,-0.09994336,-0.01082315,0.18474891,0.00021315,-0.00039392,-0.
 00006084,0.00029451,0.00008592,-0.00001119,-0.00006595,-0.00082539,0.0
 0010347,-0.00005844,0.00059178,-0.00003359,-0.00014246,0.00024964,0.00
 003631,0.00005646,0.00000119,-0.00002420,0.00000931,-0.00001638,-0.000
 00131,-0.00000274,0.00001051,0.00000066,-0.00033827,-0.00081960,0.0000
 3830,0.00327381,0.00038711,0.00000361,-0.00064747,0.00077496,0.0000325
 6,-0.00001891,0.00033282,-0.00001023,0.00032102,0.00007074,-0.00000115
 ,-0.00000228,-0.00001263,0.00000174,-0.00001417,-0.00002089,-0.0000276
 1,0.00000137,-0.00000974,0.00000952,0.00000845,-0.00000886,-0.00000861
 ,-0.00000061,0.00000437,0.00000487,-0.00000275,0.00000631,-0.00000488,
 0.00000420,-0.00000488,-0.00000397,-0.00001222,0.00000840,0.00000141,0
 .00000482,-0.00000520,0.00000257,0.00032545,-0.00034423,-0.00004008,0.
 00024532,0.00017563,0.00000060,0.00004706,0.00001242,-0.00000186,-0.06
 457288,0.01709339,0.00046608,0.00020853,0.00030247,-0.00000574,-0.0149
 3886,0.03269167,0.02145058,-0.00448261,-0.03014317,-0.01707853,-0.0173
 1453,0.03505604,-0.01978138,-0.00290307,-0.02898326,0.01570218,0.10050
 474,-0.00140955,0.00073000,0.00004694,0.00182414,-0.00026198,-0.000071
 65,-0.00194725,-0.00003059,0.00006270,0.00073987,0.00003107,-0.0000498
 7,0.00096162,-0.00043692,-0.00013969,-0.00036294,-0.00016327,0.0000654
 5,0.00002232,0.00007864,0.00000765,0.00000217,-0.00005687,0.00000116,-
 0.00017361,-0.00050666,-0.00004151,0.00045456,0.00033122,-0.00004466,0
 .00011002,-0.00030609,0.00000283,0.00064515,0.00095080,-0.00002586,0.0
 0031915,-0.00036114,-0.00001951,0.00001216,0.00004548,0.00000338,-0.00
 003238,0.00009819,0.00003481,0.00007209,0.00003698,0.00002082,0.000006
 48,0.00001572,-0.00000069,-0.00000851,-0.00000056,0.00000648,0.0000003
 5,-0.00000552,-0.00000695,-0.00000595,0.00001348,-0.00000957,0.0000410
 1,-0.00001037,-0.00000419,-0.00000211,0.00001211,0.00001131,-0.0004354
 0,0.00016289,0.00005166,-0.00050898,-0.00053952,0.00000734,0.00002776,
 -0.00007385,0.00000233,0.01754788,-0.19297122,-0.00318173,0.00027807,0
 .00029930,0.00000506,0.01649952,-0.01913160,-0.01410109,-0.01347385,-0
 .03100955,-0.01847642,0.01817779,-0.02069273,0.01284017,-0.01311437,-0
 .03319295,0.01841034,-0.02626723,0.29694549,-0.00000851,0.00001218,0.0
 0036796,-0.00000751,-0.00004000,0.00003913,-0.00001424,0.00014476,-0.0
 0013768,0.00004177,-0.00010391,0.00019747,0.00004650,-0.00004170,0.000
 01750,-0.00002547,-0.00000938,-0.00004005,0.00000144,0.00000324,0.0000
 0048,-0.00000059,-0.00000081,-0.00000519,0.00000886,0.00000659,0.00006
 520,-0.00001472,-0.00005081,0.00252329,0.00001512,-0.00002933,-0.00015
 824,0.00002347,-0.00000002,0.00046136,-0.00001943,0.00000365,-0.000458
 55,-0.00000276,0.00000425,-0.00003102,0.00000202,-0.00000898,-0.000020
 42,0.00001178,0.00000515,0.00000894,-0.00000441,-0.00000017,0.00000363
 ,-0.00000069,0.00000633,0.00000355,0.00000004,-0.00000706,0.00000386,-
 0.00000224,-0.00000265,0.00000267,0.00000129,-0.00000050,-0.00000067,0
 .00000216,0.00000297,0.00000357,-0.00001145,0.00003552,-0.00031491,-0.
 00001750,-0.00001583,-0.00002175,-0.00000175,-0.00000068,-0.00003337,0
 .00044572,-0.00307820,-0.06156232,-0.00000959,0.00000319,-0.00027723,0
 .02362649,-0.03095245,-0.01149351,-0.01504419,-0.03435895,-0.00938712,
 -0.02257385,0.02870576,-0.00745485,0.01429158,0.03517490,-0.00908278,-
 0.00075932,0.00459296,0.09678103\\0.00000156,-0.00000082,0.00000125,0.
 00000122,0.00000070,0.00000207,-0.00000026,-0.00000200,0.00000063,0.00
 000036,0.00000058,-0.00000153,0.00000078,0.00000186,0.00000124,0.00000
 081,0.00000210,-0.00000154,-0.00000004,0.00000217,-0.00000015,0.000000
 87,0.00000301,-0.00000210,-0.00000085,-0.00000032,0.00000050,-0.000001
 01,-0.00000212,0.00000059,-0.00000040,-0.00000211,0.00000193,0.0000009
 2,-0.00000238,0.00000345,0.00000068,-0.00000189,0.00000296,0.00000083,
 0.00000008,0.00000142,0.00000101,0.00000128,0.00000014,-0.00000022,0.0
 0000314,-0.00000238,-0.00000031,0.00000145,-0.00000194,0.00000123,0.00
 000095,0.00000029,0.00000243,0.00000321,-0.00000043,-0.00000053,0.0000
 0237,-0.00000280,0.00000100,0.00000350,-0.00000181,0.00000079,0.000004
 27,-0.00000291,-0.00000107,-0.00000063,-0.00000125,0.00000117,-0.00000
 304,0.00000485,0.00000159,-0.00000149,0.00000388,-0.00000152,-0.000002
 21,-0.00000126,-0.00000050,-0.00000297,0.00000221,-0.00000281,-0.00000
 224,-0.00000191,-0.00000256,-0.00000355,-0.00000049,-0.00000130,0.0000
 0014,-0.00000193,-0.00000110,-0.00000119,-0.00000038,-0.00000277,-0.00
 000188,-0.00000258\\\@


 TOM, TOM, THE BURGLAR'S SON
 STOLE A MACHINE AND AWAY HE RUN
 THE JOB WAS NEAT, BUT TOM GOT BEAT
 BY THE TIME HE GOT HOME IT WAS OBSOLETE.
 Job cpu time:       0 days  5 hours 56 minutes 26.4 seconds.
 File lengths (MBytes):  RWF=    830 Int=      0 D2E=      0 Chk=     18 Scr=      1
 Normal termination of Gaussian 09 at Thu Nov 14 11:08:56 2019.
pbs_rusage has been removed.
Please contact help@nci.org.au if you require this functionality.
