 Entering Gaussian System, Link 0=/apps/gaussian/g16c01/g16/g16
 Initial command:
 /apps/gaussian/g16c01/g16/l1.exe "/jobfs/11080175.gadi-pbs/Gau-442598.inp" -scrdir="/jobfs/11080175.gadi-pbs/"
 Entering Link 1 = /apps/gaussian/g16c01/g16/l1.exe PID=    442599.
  
 Copyright (c) 1988-2019, Gaussian, Inc.  All Rights Reserved.
  
 This is part of the Gaussian(R) 16 program.  It is based on
 the Gaussian(R) 09 system (copyright 2009, Gaussian, Inc.),
 the Gaussian(R) 03 system (copyright 2003, Gaussian, Inc.),
 the Gaussian(R) 98 system (copyright 1998, Gaussian, Inc.),
 the Gaussian(R) 94 system (copyright 1995, Gaussian, Inc.),
 the Gaussian 92(TM) system (copyright 1992, Gaussian, Inc.),
 the Gaussian 90(TM) system (copyright 1990, Gaussian, Inc.),
 the Gaussian 88(TM) system (copyright 1988, Gaussian, Inc.),
 the Gaussian 86(TM) system (copyright 1986, Carnegie Mellon
 University), and the Gaussian 82(TM) system (copyright 1983,
 Carnegie Mellon University). Gaussian is a federally registered
 trademark of Gaussian, Inc.
  
 This software contains proprietary and confidential information,
 including trade secrets, belonging to Gaussian, Inc.
  
 This software is provided under written license and may be
 used, copied, transmitted, or stored only in accord with that
 written license.
  
 The following legend is applicable only to US Government
 contracts under FAR:
  
                    RESTRICTED RIGHTS LEGEND
  
 Use, reproduction and disclosure by the US Government is
 subject to restrictions as set forth in subparagraphs (a)
 and (c) of the Commercial Computer Software - Restricted
 Rights clause in FAR 52.227-19.
  
 Gaussian, Inc.
 340 Quinnipiac St., Bldg. 40, Wallingford CT 06492
  
  
 ---------------------------------------------------------------
 Warning -- This program may not be used in any manner that
 competes with the business of Gaussian, Inc. or will provide
 assistance to any competitor of Gaussian, Inc.  The licensee
 of this program is prohibited from giving any competitor of
 Gaussian, Inc. access to this program.  By using this program,
 the user acknowledges that Gaussian, Inc. is engaged in the
 business of creating and licensing software in the field of
 computational chemistry and represents and warrants to the
 licensee that it is not a competitor of Gaussian, Inc. and that
 it will not use this program in any manner prohibited above.
 ---------------------------------------------------------------
  

 Cite this work as:
 Gaussian 16, Revision C.01,
 M. J. Frisch, G. W. Trucks, H. B. Schlegel, G. E. Scuseria, 
 M. A. Robb, J. R. Cheeseman, G. Scalmani, V. Barone, 
 G. A. Petersson, H. Nakatsuji, X. Li, M. Caricato, A. V. Marenich, 
 J. Bloino, B. G. Janesko, R. Gomperts, B. Mennucci, H. P. Hratchian, 
 J. V. Ortiz, A. F. Izmaylov, J. L. Sonnenberg, D. Williams-Young, 
 F. Ding, F. Lipparini, F. Egidi, J. Goings, B. Peng, A. Petrone, 
 T. Henderson, D. Ranasinghe, V. G. Zakrzewski, J. Gao, N. Rega, 
 G. Zheng, W. Liang, M. Hada, M. Ehara, K. Toyota, R. Fukuda, 
 J. Hasegawa, M. Ishida, T. Nakajima, Y. Honda, O. Kitao, H. Nakai, 
 T. Vreven, K. Throssell, J. A. Montgomery, Jr., J. E. Peralta, 
 F. Ogliaro, M. J. Bearpark, J. J. Heyd, E. N. Brothers, K. N. Kudin, 
 V. N. Staroverov, T. A. Keith, R. Kobayashi, J. Normand, 
 K. Raghavachari, A. P. Rendell, J. C. Burant, S. S. Iyengar, 
 J. Tomasi, M. Cossi, J. M. Millam, M. Klene, C. Adamo, R. Cammi, 
 J. W. Ochterski, R. L. Martin, K. Morokuma, O. Farkas, 
 J. B. Foresman, and D. J. Fox, Gaussian, Inc., Wallingford CT, 2019.
 
 ******************************************
 Gaussian 16:  ES64L-G16RevC.01  3-Jul-2019
                 9-Sep-2020 
 ******************************************
 %NprocShared=6
 Will use up to    6 processors via shared memory.
 %Mem=192000MB
 %chk=CP22.DSDPBEP86_AUG-cc-PVTZ.chk
 ---------------------------------------------------------------------
 # DSDPBEP86/AUG-cc-PVTZ SCF=Tight INT(grid=ultrafine) MaxDisk=60000MB
 ---------------------------------------------------------------------
 1/38=1,172=1/1;
 2/12=2,17=6,18=5,40=1/2;
 3/5=16,6=1,7=10,11=9,25=1,30=1,74=-77,75=-5/1,2,3;
 4//1;
 5/5=2,32=2,38=5/2;
 8/10=1/1;
 9/16=-3/6;
 6/7=2,8=2,9=2,10=2/1;
 99/5=1,9=1/99;
 --------------------------
 CP22.DSDPBEP86_AUG-cc-PVTZ
 --------------------------
 Symbolic Z-matrix:
 Charge =  0 Multiplicity = 1
 C                    -5.94499   1.18453   0.24787 
 N                    -4.68987   0.57204   0.2269 
 C                    -3.45712   1.19426   0.03139 
 O                    -3.3295    2.37973  -0.17731 
 N                    -2.40143   0.32072   0.06943 
 C                    -1.04571   0.85247  -0.00927 
 C                    -0.03939  -0.27788  -0.1649 
 C                     1.38714   0.25418  -0.26018 
 C                    -6.12204   2.57232   0.27676 
 C                    -7.41684   3.05897   0.32364 
 C                    -8.54872   2.2607    0.34335 
 C                    -8.3384    0.89001   0.31364 
 C                    -7.06603   0.34806   0.26593 
 H                    -4.70181  -0.43577   0.18291 
 H                    -2.51514  -0.54533   0.57625 
 H                    -0.81628   1.4548    0.8775 
 H                    -1.00485   1.52421  -0.8681 
 H                    -0.28891  -0.85701  -1.05889 
 H                    -0.11891  -0.96151   0.68878 
 H                     1.50029   0.91939  -1.11933 
 H                     2.10586  -0.55883  -0.37174 
 H                     1.65874   0.81867   0.63495 
 H                    -5.26987   3.23274   0.25367 
 Cl                   -9.70871  -0.17964   0.33506 
 H                    -6.94915  -0.72989   0.24388 
 S                    -7.64448   4.85795   0.36279 
 H                    -9.54735   2.67231   0.37894 
 F                    -6.55669   5.09335  -0.80198 
 F                    -8.81835   4.79857  -0.74657 
 F                    -6.49517   5.04922   1.47788 
 F                    -8.75703   4.75489   1.53144 
 F                    -7.85406   6.4499    0.40004 
 
                          Input orientation:                          
 ---------------------------------------------------------------------
 Center     Atomic      Atomic             Coordinates (Angstroms)
 Number     Number       Type             X           Y           Z
 ---------------------------------------------------------------------
      1          6           0       -5.944986    1.184528    0.247873
      2          7           0       -4.689871    0.572036    0.226903
      3          6           0       -3.457116    1.194261    0.031389
      4          8           0       -3.329499    2.379727   -0.177306
      5          7           0       -2.401426    0.320720    0.069432
      6          6           0       -1.045709    0.852469   -0.009272
      7          6           0       -0.039390   -0.277880   -0.164899
      8          6           0        1.387137    0.254183   -0.260183
      9          6           0       -6.122039    2.572322    0.276756
     10          6           0       -7.416839    3.058966    0.323641
     11          6           0       -8.548716    2.260695    0.343346
     12          6           0       -8.338405    0.890009    0.313645
     13          6           0       -7.066028    0.348061    0.265932
     14          1           0       -4.701808   -0.435768    0.182911
     15          1           0       -2.515141   -0.545330    0.576248
     16          1           0       -0.816279    1.454796    0.877500
     17          1           0       -1.004847    1.524215   -0.868099
     18          1           0       -0.288905   -0.857014   -1.058885
     19          1           0       -0.118912   -0.961509    0.688780
     20          1           0        1.500291    0.919393   -1.119334
     21          1           0        2.105859   -0.558831   -0.371739
     22          1           0        1.658740    0.818669    0.634947
     23          1           0       -5.269875    3.232740    0.253671
     24         17           0       -9.708706   -0.179640    0.335056
     25          1           0       -6.949154   -0.729891    0.243880
     26         16           0       -7.644481    4.857951    0.362791
     27          1           0       -9.547347    2.672310    0.378937
     28          9           0       -6.556693    5.093350   -0.801982
     29          9           0       -8.818351    4.798567   -0.746575
     30          9           0       -6.495171    5.049225    1.477877
     31          9           0       -8.757033    4.754885    1.531440
     32          9           0       -7.854060    6.449904    0.400038
 ---------------------------------------------------------------------
                    Distance matrix (angstroms):
                    1          2          3          4          5
     1  C    0.000000
     2  N    1.396746   0.000000
     3  C    2.497290   1.394660   0.000000
     4  O    2.906897   2.298204   1.210441   0.000000
     5  N    3.651687   2.307582   1.370766   2.271939   0.000000
     6  C    4.917245   3.662559   2.435848   2.752534   1.458396
     7  C    6.097957   4.743715   3.726469   4.229402   2.447948
     8  C    7.408352   6.104777   4.943232   5.174114   3.803457
     9  C    1.399341   2.460638   3.010162   2.835762   4.353809
    10  C    2.384452   3.691956   4.386564   4.173567   5.719875
    11  C    2.818982   4.213765   5.211429   5.246472   6.451953
    12  C    2.412368   3.663391   4.898900   5.248755   5.969208
    13  C    1.398835   2.387009   3.714204   4.276187   4.668819
    14  H    2.043298   1.008834   2.056505   3.152776   2.424234
    15  H    3.855395   2.469817   2.051917   3.128414   1.009870
    16  H    5.174274   4.025824   2.785283   2.878261   2.109927
    17  H    5.075997   3.960439   2.632787   2.571595   2.068283
    18  H    6.153597   4.802492   3.928611   4.527569   2.668877
    19  H    6.224388   4.843424   4.027793   4.714004   2.690275
    20  H    7.574411   6.344377   5.096626   5.132920   4.122496
    21  H    8.260710   6.915141   5.846583   6.181913   4.613444
    22  H    7.622357   6.366490   5.165010   5.289536   4.129493
    23  H    2.156613   2.723319   2.736951   2.162968   4.091674
    24  Cl   4.004266   5.075965   6.407980   6.892544   7.329206
    25  H    2.161798   2.607616   3.992724   4.790514   4.670765
    26  S    4.049139   5.207423   5.573731   5.005234   6.939894
    27  H    3.899702   5.294274   6.276650   6.249531   7.529272
    28  F    4.093320   4.998591   5.050226   4.262482   6.387769
    29  F    4.722969   5.987953   6.506850   6.025143   7.867267
    30  F    4.092859   4.986910   5.116918   4.459521   6.411023
    31  F    4.722563   5.978282   6.558759   6.165980   7.886255
    32  F    5.602847   6.677679   6.862273   6.113208   8.210201
                    6          7          8          9         10
     6  C    0.000000
     7  C    1.521377   0.000000
     8  C    2.517865   1.525500   0.000000
     9  C    5.367386   6.731815   7.877169   0.000000
    10  C    6.750611   8.111718   9.258382   1.384025   0.000000
    11  C    7.642156   8.894453  10.154383   2.447510   1.385197
    12  C    7.299938   8.394439   9.763181   2.782771   2.356641
    13  C    6.047677   7.067606   8.470041   2.416314   2.734119
    14  H    3.881179   4.678038   6.143909   3.327833   4.427681
    15  H    2.110902   2.598109   4.070210   4.776941   6.089450
    16  H    1.096266   2.166176   2.755147   5.455351   6.815241
    17  H    1.091099   2.161977   2.775632   5.347418   6.699951
    18  H    2.144009   1.094013   2.163747   6.897082   8.249468
    19  H    2.153311   1.096559   2.155602   6.978199   8.340101
    20  H    2.778279   2.171411   1.092450   7.923456   9.283057
    21  H    3.472108   2.173433   1.090871   8.827400  10.210475
    22  H    2.780325   2.173896   1.092553   7.983992   9.353180
    23  H    4.855759   6.313289   7.311063   1.078364   2.155121
    24  Cl   8.731055   9.682731  11.120263   4.521159   3.967538
    25  H    6.117075   6.936588   8.409294   3.404381   3.818446
    26  S    7.728266   9.191986  10.156421   2.747604   1.813753
    27  H    8.702894   9.969986  11.216895   3.428289   2.166016
    28  F    6.998886   8.469429   9.317484   2.776361   2.479031
    29  F    8.748100  10.157697  11.182128   3.643277   2.477057
    30  F    7.037116   8.529588   9.388506   2.777942   2.478480
    31  F    8.778790  10.208015  11.241459   3.644311   2.476093
    32  F    8.823403  10.327211  11.145517   4.248615   3.419862
                   11         12         13         14         15
    11  C    0.000000
    12  C    1.387045   0.000000
    13  C    2.421265   1.383809   0.000000
    14  H    4.700569   3.872933   2.492151   0.000000
    15  H    6.658231   6.003296   4.648119   2.224462   0.000000
    16  H    7.792649   7.564344   6.376381   4.376531   2.641474
    17  H    7.675933   7.455186   6.277521   4.314357   2.941112
    18  H    8.939286   8.350471   7.009760   4.603609   2.779736
    19  H    9.031252   8.433796   7.082104   4.640608   2.434704
    20  H   10.243098   9.942546   8.696390   6.480612   4.598272
    21  H   11.044503  10.566529   9.238647   6.831334   4.717256
    22  H   10.312935  10.002561   8.745240   6.498810   4.391495
    23  H    3.421069   3.861070   3.398189   3.712904   4.686835
    24  Cl   2.702015   1.738486   2.695736   5.015753   7.206891
    25  H    3.392948   2.135172   1.084493   2.267331   4.450281
    26  S    2.750228   4.028462   4.547867   6.059301   7.453263
    27  H    1.080721   2.154623   3.401742   5.760019   7.735894
    28  F    3.647446   4.699701   4.890566   5.914538   7.073074
    29  F    2.775144   4.078142   4.889051   6.723699   8.368844
    30  F    3.644187   4.695958   4.888316   5.914240   6.924783
    31  F    2.770550   4.073763   4.886830   6.723560   8.244142
    32  F    4.246790   5.581620   6.153979   7.576035   8.801613
                   16         17         18         19         20
    16  H    0.000000
    17  H    1.757126   0.000000
    18  H    3.061401   2.493837   0.000000
    19  H    2.521996   3.063916   1.759020   0.000000
    20  H    3.104915   2.589333   2.522003   3.070649   0.000000
    21  H    3.762204   3.776500   2.509180   2.497290   1.763734
    22  H    2.566945   3.138733   3.077386   2.516343   1.764299
    23  H    4.835780   4.729470   6.577153   6.656836   7.285043
    24  Cl   9.057643   8.950300   9.546442   9.628115  11.356264
    25  H    6.541138   6.453857   6.787656   6.848634   8.716169
    26  S    7.646615   7.530844   9.422657   9.518748  10.066567
    27  H    8.829635   8.709048  10.012103  10.109205  11.285736
    28  F    7.000863   6.600461   8.646271   8.962629   9.079517
    29  F    8.823354   8.472720  10.238876  10.531807  11.030018
    30  F    6.747606   6.933466   8.935130   8.798197   9.366345
    31  F    8.624024   8.734495  10.483910  10.392515  11.267222
    32  F    8.643462   8.531254  10.618430  10.716572  10.972644
                   21         22         23         24         25
    21  H    0.000000
    22  H    1.763757   0.000000
    23  H    8.316766   7.347028   0.000000
    24  Cl  11.841761  11.415139   5.599481   0.000000
    25  H    9.077528   8.754817   4.303780   2.815354   0.000000
    26  S   11.178112  10.145924   2.879578   5.444182   5.632192
    27  H   12.116146  11.361246   4.315847   2.856848   4.282968
    28  F   10.352395   9.371820   2.496432   6.247597   5.929417
    29  F   12.172945  11.292370   4.005495   5.171577   5.919354
    30  F   10.433077   9.224663   2.509910   6.242906   5.926806
    31  F   12.241736  11.170757   4.013713   5.165903   5.916841
    32  F   12.203196  11.057095   4.129113   6.884387   7.238279
                   26         27         28         29         30
    26  S    0.000000
    27  H    2.897962   0.000000
    28  F    1.611021   4.024924   0.000000
    29  F    1.616227   2.513799   2.281460   0.000000
    30  F    1.612735   4.021588   2.281115   3.226171   0.000000
    31  F    1.616829   2.507983   3.225044   2.279259   2.281561
    32  F    1.606121   4.139792   2.228957   2.229684   2.229398
                   31         32
    31  F    0.000000
    32  F    2.229017   0.000000
 Stoichiometry    C10H12ClF5N2OS
 Framework group  C1[X(C10H12ClF5N2OS)]
 Deg. of freedom    90
 Full point group                 C1      NOp   1
 Largest Abelian subgroup         C1      NOp   1
 Largest concise Abelian subgroup C1      NOp   1
                         Standard orientation:                         
 ---------------------------------------------------------------------
 Center     Atomic      Atomic             Coordinates (Angstroms)
 Number     Number       Type             X           Y           Z
 ---------------------------------------------------------------------
      1          6           0       -0.468079    1.140956    0.047375
      2          7           0       -1.863024    1.182483    0.104861
      3          6           0       -2.739656    0.106592   -0.033164
      4          8           0       -2.379969   -1.027921   -0.253787
      5          7           0       -4.057207    0.468551    0.076591
      6          6           0       -5.076327   -0.574587    0.063365
      7          6           0       -6.465507    0.040248   -0.018764
      8          6           0       -7.549854   -1.032445   -0.044686
      9          6           0        0.265400   -0.050745    0.044039
     10          6           0        1.646151    0.038953    0.012303
     11          6           0        2.348687    1.232420   -0.016836
     12          6           0        1.591942    2.394837   -0.012779
     13          6           0        0.208798    2.364763    0.017805
     14          1           0       -2.269135    2.105534    0.076636
     15          1           0       -4.281356    1.308530    0.590429
     16          1           0       -4.987311   -1.211129    0.951446
     17          1           0       -4.885667   -1.210207   -0.802737
     18          1           0       -6.527119    0.663863   -0.915522
     19          1           0       -6.626174    0.702568    0.840281
     20          1           0       -7.427669   -1.691861   -0.907060
     21          1           0       -8.544390   -0.588125   -0.103655
     22          1           0       -7.514297   -1.651792    0.854656
     23          1           0       -0.239552   -1.003494    0.056777
     24         17           0        2.399872    3.933760   -0.048822
     25          1           0       -0.342114    3.298903    0.019651
     26         16           0        2.595347   -1.506596    0.009786
     27          1           0        3.428500    1.268528   -0.042470
     28          9           0        1.636836   -2.177736   -1.097561
     29          9           0        3.576293   -0.977919   -1.160870
     30          9           0        1.691312   -2.145322    1.182673
     31          9           0        3.631032   -0.945838    1.117505
     32          9           0        3.442855   -2.870911    0.009713
 ---------------------------------------------------------------------
 Rotational constants (GHZ):           0.3761615           0.1337126           0.1028779
 Standard basis: Aug-CC-pVTZ (5D, 7F)
 There are  1408 symmetry adapted cartesian basis functions of A   symmetry.
 There are  1204 symmetry adapted basis functions of A   symmetry.
  1204 basis functions,  1848 primitive gaussians,  1408 cartesian basis functions
    86 alpha electrons       86 beta electrons
       nuclear repulsion energy      2020.8831294579 Hartrees.
 NAtoms=   32 NActive=   32 NUniq=   32 SFac= 1.00D+00 NAtFMM=   60 NAOKFM=F Big=F
 Integral buffers will be    131072 words long.
 Regular integral format.
 Two-electron integral symmetry is turned on.
 Nuclear repulsion after empirical dispersion term =     2020.8564927727 Hartrees.
 One-electron integrals computed using PRISM.
 NBasis=  1204 RedAO= T EigKep=  1.12D-06  NBF=  1204
 NBsUse=  1202 1.00D-06 EigRej=  5.37D-07 NBFU=  1202
 ExpMin= 2.53D-02 ExpMax= 4.56D+05 ExpMxC= 1.44D+03 IAcc=3 IRadAn=         5 AccDes= 0.00D+00
 Harris functional with IExCor= 1004 and IRadAn=       5 diagonalized for initial guess.
 HarFok:  IExCor= 1004 AccDes= 0.00D+00 IRadAn=         5 IDoV= 1 UseB2=F ITyADJ=14
 ICtDFT=  3500011 ScaDFX=  1.000000  1.000000  1.000000  1.000000
 FoFCou: FMM=F IPFlag=           0 FMFlag=      100000 FMFlg1=           0
         NFxFlg=           0 DoJE=T BraDBF=F KetDBF=T FulRan=T
         wScrn=  0.000000 ICntrl=       500 IOpCl=  0 I1Cent=   200000004 NGrid=           0
         NMat0=    1 NMatS0=      1 NMatT0=    0 NMatD0=    1 NMtDS0=    0 NMtDT0=    0
 Petite list used in FoFCou.
 Requested convergence on RMS density matrix=1.00D-08 within 128 cycles.
 Requested convergence on MAX density matrix=1.00D-06.
 Requested convergence on             energy=1.00D-06.
 No special actions if energy rises.
 SCF Done:  E(RDSDPBEP86) =  -1926.75193384     A.U. after   14 cycles
            NFock= 14  Conv=0.27D-08     -V/T= 2.0025
 DoSCS=T DFT=T ScalE2(SS,OS)=  0.220000  0.520000
 ExpMin= 2.53D-02 ExpMax= 4.56D+05 ExpMxC= 1.44D+03 IAcc=3 IRadAn=         5 AccDes= 0.00D+00
 HarFok:  IExCor=  205 AccDes= 0.00D+00 IRadAn=         5 IDoV=-2 UseB2=F ITyADJ=14
 ICtDFT= 12500011 ScaDFX=  1.000000  1.000000  1.000000  1.000000
 GSVD:  LWork=       -1008 too small for GESVD, short by        4340 words or        4340 for optimal perf.
 Range of M.O.s used for correlation:    29  1202
 NBasis=  1204 NAE=    86 NBE=    86 NFC=    28 NFV=     0
 NROrb=   1174 NOA=    58 NOB=    58 NVA=  1116 NVB=  1116

 **** Warning!!: The largest alpha MO coefficient is  0.14689170D+03

 DoSCS=T DFT=T ScalE2(SS,OS)=  0.220000  0.520000
 Fully direct method using O(OVN) memory.
 JobTyp=1 Pass  1:  I=   1 to  58 NPSUse=  6 ParTrn=T ParDer=T DoDerP=F.
 Spin components of T(2) and E(2):
     alpha-alpha T2 =       0.2011791070D+00 E2=     -0.1307632094D+00
     alpha-beta  T2 =       0.1033647995D+01 E2=     -0.1735789964D+01
     beta-beta   T2 =       0.2011791070D+00 E2=     -0.1307632094D+00
 E2(DSDPBEP86) =    -0.1997316382D+01 E(DSDPBEP86) =    -0.19287492502267D+04

 **********************************************************************

            Population analysis using the SCF Density.

 **********************************************************************

 Orbital symmetries:
       Occupied  (A) (A) (A) (A) (A) (A) (A) (A) (A) (A) (A) (A)
                 (A) (A) (A) (A) (A) (A) (A) (A) (A) (A) (A) (A)
                 (A) (A) (A) (A) (A) (A) (A) (A) (A) (A) (A) (A)
                 (A) (A) (A) (A) (A) (A) (A) (A) (A) (A) (A) (A)
                 (A) (A) (A) (A) (A) (A) (A) (A) (A) (A) (A) (A)
                 (A) (A) (A) (A) (A) (A) (A) (A) (A) (A) (A) (A)
                 (A) (A) (A) (A) (A) (A) (A) (A) (A) (A) (A) (A)
                 (A) (A)
       Virtual   (A) (A) (A) (A) (A) (A) (A) (A) (A) (A) (A) (A)
                 (A) (A) (A) (A) (A) (A) (A) (A) (A) (A) (A) (A)
                 (A) (A) (A) (A) (A) (A) (A) (A) (A) (A) (A) (A)
                 (A) (A) (A) (A) (A) (A) (A) (A) (A) (A) (A) (A)
                 (A) (A) (A) (A) (A) (A) (A) (A) (A) (A) (A) (A)
                 (A) (A) (A) (A) (A) (A) (A) (A) (A) (A) (A) (A)
                 (A) (A) (A) (A) (A) (A) (A) (A) (A) (A) (A) (A)
                 (A) (A) (A) (A) (A) (A) (A) (A) (A) (A) (A) (A)
                 (A) (A) (A) (A) (A) (A) (A) (A) (A) (A) (A) (A)
                 (A) (A) (A) (A) (A) (A) (A) (A) (A) (A) (A) (A)
                 (A) (A) (A) (A) (A) (A) (A) (A) (A) (A) (A) (A)
                 (A) (A) (A) (A) (A) (A) (A) (A) (A) (A) (A) (A)
                 (A) (A) (A) (A) (A) (A) (A) (A) (A) (A) (A) (A)
                 (A) (A) (A) (A) (A) (A) (A) (A) (A) (A) (A) (A)
                 (A) (A) (A) (A) (A) (A) (A) (A) (A) (A) (A) (A)
                 (A) (A) (A) (A) (A) (A) (A) (A) (A) (A) (A) (A)
                 (A) (A) (A) (A) (A) (A) (A) (A) (A) (A) (A) (A)
                 (A) (A) (A) (A) (A) (A) (A) (A) (A) (A) (A) (A)
                 (A) (A) (A) (A) (A) (A) (A) (A) (A) (A) (A) (A)
                 (A) (A) (A) (A) (A) (A) (A) (A) (A) (A) (A) (A)
                 (A) (A) (A) (A) (A) (A) (A) (A) (A) (A) (A) (A)
                 (A) (A) (A) (A) (A) (A) (A) (A) (A) (A) (A) (A)
                 (A) (A) (A) (A) (A) (A) (A) (A) (A) (A) (A) (A)
                 (A) (A) (A) (A) (A) (A) (A) (A) (A) (A) (A) (A)
                 (A) (A) (A) (A) (A) (A) (A) (A) (A) (A) (A) (A)
                 (A) (A) (A) (A) (A) (A) (A) (A) (A) (A) (A) (A)
                 (A) (A) (A) (A) (A) (A) (A) (A) (A) (A) (A) (A)
                 (A) (A) (A) (A) (A) (A) (A) (A) (A) (A) (A) (A)
                 (A) (A) (A) (A) (A) (A) (A) (A) (A) (A) (A) (A)
                 (A) (A) (A) (A) (A) (A) (A) (A) (A) (A) (A) (A)
                 (A) (A) (A) (A) (A) (A) (A) (A) (A) (A) (A) (A)
                 (A) (A) (A) (A) (A) (A) (A) (A) (A) (A) (A) (A)
                 (A) (A) (A) (A) (A) (A) (A) (A) (A) (A) (A) (A)
                 (A) (A) (A) (A) (A) (A) (A) (A) (A) (A) (A) (A)
                 (A) (A) (A) (A) (A) (A) (A) (A) (A) (A) (A) (A)
                 (A) (A) (A) (A) (A) (A) (A) (A) (A) (A) (A) (A)
                 (A) (A) (A) (A) (A) (A) (A) (A) (A) (A) (A) (A)
                 (A) (A) (A) (A) (A) (A) (A) (A) (A) (A) (A) (A)
                 (A) (A) (A) (A) (A) (A) (A) (A) (A) (A) (A) (A)
                 (A) (A) (A) (A) (A) (A) (A) (A) (A) (A) (A) (A)
                 (A) (A) (A) (A) (A) (A) (A) (A) (A) (A) (A) (A)
                 (A) (A) (A) (A) (A) (A) (A) (A) (A) (A) (A) (A)
                 (A) (A) (A) (A) (A) (A) (A) (A) (A) (A) (A) (A)
                 (A) (A) (A) (A) (A) (A) (A) (A) (A) (A) (A) (A)
                 (A) (A) (A) (A) (A) (A) (A) (A) (A) (A) (A) (A)
                 (A) (A) (A) (A) (A) (A) (A) (A) (A) (A) (A) (A)
                 (A) (A) (A) (A) (A) (A) (A) (A) (A) (A) (A) (A)
                 (A) (A) (A) (A) (A) (A) (A) (A) (A) (A) (A) (A)
                 (A) (A) (A) (A) (A) (A) (A) (A) (A) (A) (A) (A)
                 (A) (A) (A) (A) (A) (A) (A) (A) (A) (A) (A) (A)
                 (A) (A) (A) (A) (A) (A) (A) (A) (A) (A) (A) (A)
                 (A) (A) (A) (A) (A) (A) (A) (A) (A) (A) (A) (A)
                 (A) (A) (A) (A) (A) (A) (A) (A) (A) (A) (A) (A)
                 (A) (A) (A) (A) (A) (A) (A) (A) (A) (A) (A) (A)
                 (A) (A) (A) (A) (A) (A) (A) (A) (A) (A) (A) (A)
                 (A) (A) (A) (A) (A) (A) (A) (A) (A) (A) (A) (A)
                 (A) (A) (A) (A) (A) (A) (A) (A) (A) (A) (A) (A)
                 (A) (A) (A) (A) (A) (A) (A) (A) (A) (A) (A) (A)
                 (A) (A) (A) (A) (A) (A) (A) (A) (A) (A) (A) (A)
                 (A) (A) (A) (A) (A) (A) (A) (A) (A) (A) (A) (A)
                 (A) (A) (A) (A) (A) (A) (A) (A) (A) (A) (A) (A)
                 (A) (A) (A) (A) (A) (A) (A) (A) (A) (A) (A) (A)
                 (A) (A) (A) (A) (A) (A) (A) (A) (A) (A) (A) (A)
                 (A) (A) (A) (A) (A) (A) (A) (A) (A) (A) (A) (A)
                 (A) (A) (A) (A) (A) (A) (A) (A) (A) (A) (A) (A)
                 (A) (A) (A) (A) (A) (A) (A) (A) (A) (A) (A) (A)
                 (A) (A) (A) (A) (A) (A) (A) (A) (A) (A) (A) (A)
                 (A) (A) (A) (A) (A) (A) (A) (A) (A) (A) (A) (A)
                 (A) (A) (A) (A) (A) (A) (A) (A) (A) (A) (A) (A)
                 (A) (A) (A) (A) (A) (A) (A) (A) (A) (A) (A) (A)
                 (A) (A) (A) (A) (A) (A) (A) (A) (A) (A) (A) (A)
                 (A) (A) (A) (A) (A) (A) (A) (A) (A) (A) (A) (A)
                 (A) (A) (A) (A) (A) (A) (A) (A) (A) (A) (A) (A)
                 (A) (A) (A) (A) (A) (A) (A) (A) (A) (A) (A) (A)
                 (A) (A) (A) (A) (A) (A) (A) (A) (A) (A) (A) (A)
                 (A) (A) (A) (A) (A) (A) (A) (A) (A) (A) (A) (A)
                 (A) (A) (A) (A) (A) (A) (A) (A) (A) (A) (A) (A)
                 (A) (A) (A) (A) (A) (A) (A) (A) (A) (A) (A) (A)
                 (A) (A) (A) (A) (A) (A) (A) (A) (A) (A) (A) (A)
                 (A) (A) (A) (A) (A) (A) (A) (A) (A) (A) (A) (A)
                 (A) (A) (A) (A) (A) (A) (A) (A) (A) (A) (A) (A)
                 (A) (A) (A) (A) (A) (A) (A) (A) (A) (A) (A) (A)
                 (A) (A) (A) (A) (A) (A) (A) (A) (A) (A) (A) (A)
                 (A) (A) (A) (A) (A) (A) (A) (A) (A) (A) (A) (A)
                 (A) (A) (A) (A) (A) (A) (A) (A) (A) (A) (A) (A)
                 (A) (A) (A) (A) (A) (A) (A) (A) (A) (A) (A) (A)
                 (A) (A) (A) (A) (A) (A) (A) (A) (A) (A) (A) (A)
                 (A) (A) (A) (A) (A) (A) (A) (A) (A) (A) (A) (A)
                 (A) (A) (A) (A) (A) (A) (A) (A) (A) (A) (A) (A)
                 (A) (A) (A) (A) (A) (A) (A) (A) (A) (A) (A) (A)
                 (A) (A) (A) (A) (A) (A) (A) (A) (A) (A) (A) (A)
                 (A) (A) (A) (A) (A) (A) (A) (A) (A) (A) (A) (A)
                 (A) (A) (A) (A) (A) (A) (A) (A) (A) (A) (A) (A)
 The electronic state is 1-A.
 Alpha  occ. eigenvalues -- -103.58742 -91.16361 -25.70899 -25.70895 -25.70891
 Alpha  occ. eigenvalues --  -25.70884 -25.70777 -19.98554 -15.14253 -15.11927
 Alpha  occ. eigenvalues --  -10.97939 -10.91441 -10.91040 -10.89103 -10.86172
 Alpha  occ. eigenvalues --  -10.85950 -10.85795 -10.85103 -10.83244 -10.81832
 Alpha  occ. eigenvalues --  -10.16237  -8.90850  -7.73919  -7.73441  -7.73429
 Alpha  occ. eigenvalues --   -6.69957  -6.69945  -6.69548  -1.59157  -1.49547
 Alpha  occ. eigenvalues --   -1.49490  -1.46579  -1.45171  -1.29565  -1.17204
 Alpha  occ. eigenvalues --   -1.13506  -1.10133  -1.04706  -0.99413  -0.97129
 Alpha  occ. eigenvalues --   -0.93812  -0.92485  -0.86089  -0.81217  -0.79925
 Alpha  occ. eigenvalues --   -0.76964  -0.76942  -0.75446  -0.73627  -0.73418
 Alpha  occ. eigenvalues --   -0.69613  -0.68107  -0.66156  -0.65843  -0.65510
 Alpha  occ. eigenvalues --   -0.64304  -0.61336  -0.61153  -0.60431  -0.59338
 Alpha  occ. eigenvalues --   -0.59075  -0.58909  -0.58776  -0.58558  -0.57307
 Alpha  occ. eigenvalues --   -0.56708  -0.56044  -0.55666  -0.54986  -0.54868
 Alpha  occ. eigenvalues --   -0.53323  -0.52996  -0.51667  -0.50661  -0.50276
 Alpha  occ. eigenvalues --   -0.47673  -0.47194  -0.46042  -0.44957  -0.44276
 Alpha  occ. eigenvalues --   -0.42215  -0.41784  -0.40001  -0.36815  -0.33950
 Alpha  occ. eigenvalues --   -0.30654
 Alpha virt. eigenvalues --   -0.00019   0.01424   0.01810   0.02368   0.02437
 Alpha virt. eigenvalues --    0.03076   0.03233   0.04046   0.04400   0.04490
 Alpha virt. eigenvalues --    0.04692   0.05055   0.05370   0.06509   0.06610
 Alpha virt. eigenvalues --    0.06947   0.07049   0.07422   0.07663   0.08208
 Alpha virt. eigenvalues --    0.08842   0.09097   0.09239   0.09575   0.09764
 Alpha virt. eigenvalues --    0.10127   0.10463   0.10689   0.11139   0.11283
 Alpha virt. eigenvalues --    0.11553   0.11790   0.12127   0.12354   0.12826
 Alpha virt. eigenvalues --    0.13032   0.13461   0.13561   0.13575   0.14038
 Alpha virt. eigenvalues --    0.14486   0.14833   0.14921   0.15237   0.15610
 Alpha virt. eigenvalues --    0.15983   0.16104   0.16373   0.17034   0.17549
 Alpha virt. eigenvalues --    0.17775   0.18147   0.18436   0.18762   0.18903
 Alpha virt. eigenvalues --    0.19208   0.19438   0.19613   0.20040   0.20567
 Alpha virt. eigenvalues --    0.20731   0.21195   0.21618   0.21835   0.22270
 Alpha virt. eigenvalues --    0.22381   0.22562   0.23110   0.23211   0.23699
 Alpha virt. eigenvalues --    0.23819   0.23936   0.24091   0.24682   0.25222
 Alpha virt. eigenvalues --    0.25542   0.25851   0.26027   0.26086   0.26465
 Alpha virt. eigenvalues --    0.26656   0.27140   0.27405   0.27957   0.28196
 Alpha virt. eigenvalues --    0.28476   0.28610   0.28966   0.29080   0.29365
 Alpha virt. eigenvalues --    0.29793   0.30189   0.30339   0.30429   0.30585
 Alpha virt. eigenvalues --    0.30900   0.31098   0.31306   0.31541   0.31944
 Alpha virt. eigenvalues --    0.32117   0.32224   0.32968   0.33072   0.33319
 Alpha virt. eigenvalues --    0.33443   0.33842   0.34007   0.34673   0.34974
 Alpha virt. eigenvalues --    0.35104   0.35282   0.35575   0.35871   0.36068
 Alpha virt. eigenvalues --    0.36322   0.36514   0.36757   0.37155   0.37598
 Alpha virt. eigenvalues --    0.37818   0.38141   0.38369   0.38503   0.38765
 Alpha virt. eigenvalues --    0.39046   0.39329   0.39875   0.40034   0.40298
 Alpha virt. eigenvalues --    0.40566   0.40689   0.41479   0.41494   0.41736
 Alpha virt. eigenvalues --    0.42096   0.42201   0.42732   0.42985   0.43163
 Alpha virt. eigenvalues --    0.43538   0.44005   0.44266   0.44479   0.44529
 Alpha virt. eigenvalues --    0.44883   0.45391   0.45829   0.45910   0.46297
 Alpha virt. eigenvalues --    0.46437   0.46712   0.46836   0.47040   0.47497
 Alpha virt. eigenvalues --    0.47534   0.48081   0.48215   0.48855   0.49039
 Alpha virt. eigenvalues --    0.49383   0.49584   0.49919   0.50133   0.50523
 Alpha virt. eigenvalues --    0.50808   0.50928   0.51135   0.51582   0.51643
 Alpha virt. eigenvalues --    0.52146   0.52271   0.52799   0.52946   0.53142
 Alpha virt. eigenvalues --    0.53788   0.54273   0.54554   0.54799   0.55381
 Alpha virt. eigenvalues --    0.55587   0.56053   0.56423   0.56859   0.57350
 Alpha virt. eigenvalues --    0.57794   0.58237   0.58442   0.58681   0.59143
 Alpha virt. eigenvalues --    0.59374   0.59550   0.60167   0.60978   0.61087
 Alpha virt. eigenvalues --    0.61670   0.62337   0.62557   0.63044   0.63433
 Alpha virt. eigenvalues --    0.63872   0.64225   0.64627   0.65111   0.65268
 Alpha virt. eigenvalues --    0.65851   0.66113   0.66728   0.67130   0.67425
 Alpha virt. eigenvalues --    0.67726   0.68133   0.68801   0.69363   0.70015
 Alpha virt. eigenvalues --    0.70351   0.71113   0.71408   0.71603   0.71865
 Alpha virt. eigenvalues --    0.72193   0.72684   0.72857   0.73428   0.73551
 Alpha virt. eigenvalues --    0.74043   0.74506   0.74671   0.75494   0.75706
 Alpha virt. eigenvalues --    0.76436   0.76469   0.76888   0.77561   0.78038
 Alpha virt. eigenvalues --    0.78348   0.79078   0.79311   0.79665   0.79841
 Alpha virt. eigenvalues --    0.80337   0.81224   0.81265   0.81818   0.82038
 Alpha virt. eigenvalues --    0.82180   0.82374   0.82615   0.83373   0.83579
 Alpha virt. eigenvalues --    0.83742   0.84477   0.84750   0.84958   0.85107
 Alpha virt. eigenvalues --    0.85307   0.85594   0.85731   0.86372   0.86713
 Alpha virt. eigenvalues --    0.87130   0.87374   0.87857   0.88507   0.88690
 Alpha virt. eigenvalues --    0.89464   0.89883   0.90209   0.90653   0.90806
 Alpha virt. eigenvalues --    0.91150   0.91388   0.91966   0.92490   0.92600
 Alpha virt. eigenvalues --    0.93046   0.93443   0.93786   0.94345   0.94741
 Alpha virt. eigenvalues --    0.94875   0.95285   0.96000   0.96136   0.96512
 Alpha virt. eigenvalues --    0.97026   0.97084   0.97481   0.97720   0.98315
 Alpha virt. eigenvalues --    0.98832   0.99148   0.99461   0.99915   1.00050
 Alpha virt. eigenvalues --    1.00250   1.00960   1.01095   1.01306   1.01775
 Alpha virt. eigenvalues --    1.02462   1.03065   1.03157   1.03408   1.03918
 Alpha virt. eigenvalues --    1.03973   1.04690   1.04764   1.05310   1.05636
 Alpha virt. eigenvalues --    1.05950   1.06180   1.06853   1.07218   1.07413
 Alpha virt. eigenvalues --    1.07436   1.08244   1.08795   1.08962   1.09217
 Alpha virt. eigenvalues --    1.09568   1.09961   1.10260   1.10625   1.11101
 Alpha virt. eigenvalues --    1.11295   1.11698   1.11816   1.12474   1.12898
 Alpha virt. eigenvalues --    1.13055   1.13553   1.14097   1.14362   1.14834
 Alpha virt. eigenvalues --    1.14859   1.15692   1.15880   1.16126   1.16543
 Alpha virt. eigenvalues --    1.17076   1.17203   1.17351   1.18001   1.18395
 Alpha virt. eigenvalues --    1.19010   1.19526   1.19709   1.20320   1.20706
 Alpha virt. eigenvalues --    1.20955   1.21330   1.21681   1.22539   1.22693
 Alpha virt. eigenvalues --    1.22778   1.23303   1.24158   1.24338   1.24695
 Alpha virt. eigenvalues --    1.25303   1.25463   1.26155   1.26477   1.26801
 Alpha virt. eigenvalues --    1.27040   1.27378   1.27682   1.28168   1.29042
 Alpha virt. eigenvalues --    1.29258   1.29590   1.29920   1.30044   1.30642
 Alpha virt. eigenvalues --    1.30849   1.31383   1.31916   1.32339   1.32501
 Alpha virt. eigenvalues --    1.32689   1.33047   1.33811   1.34512   1.35028
 Alpha virt. eigenvalues --    1.35332   1.35839   1.36669   1.36966   1.37103
 Alpha virt. eigenvalues --    1.37690   1.37961   1.38301   1.38370   1.39218
 Alpha virt. eigenvalues --    1.39524   1.40128   1.41096   1.41451   1.41603
 Alpha virt. eigenvalues --    1.41878   1.42554   1.42943   1.44093   1.44395
 Alpha virt. eigenvalues --    1.44973   1.45125   1.45530   1.45984   1.46475
 Alpha virt. eigenvalues --    1.46939   1.47143   1.48054   1.48360   1.48921
 Alpha virt. eigenvalues --    1.49347   1.50207   1.50476   1.51087   1.51420
 Alpha virt. eigenvalues --    1.51794   1.52046   1.52887   1.53340   1.54397
 Alpha virt. eigenvalues --    1.54711   1.55152   1.55784   1.56007   1.56226
 Alpha virt. eigenvalues --    1.56493   1.57234   1.57809   1.58375   1.58713
 Alpha virt. eigenvalues --    1.59025   1.59465   1.60024   1.60375   1.61113
 Alpha virt. eigenvalues --    1.61568   1.61677   1.62054   1.62341   1.62458
 Alpha virt. eigenvalues --    1.63142   1.64002   1.64516   1.65113   1.65454
 Alpha virt. eigenvalues --    1.65908   1.66588   1.66844   1.67565   1.67677
 Alpha virt. eigenvalues --    1.68421   1.68940   1.69308   1.70059   1.70359
 Alpha virt. eigenvalues --    1.71236   1.71271   1.72663   1.73088   1.73477
 Alpha virt. eigenvalues --    1.74012   1.74427   1.74613   1.75159   1.75574
 Alpha virt. eigenvalues --    1.76292   1.76494   1.77331   1.77989   1.78266
 Alpha virt. eigenvalues --    1.78483   1.78903   1.79696   1.80144   1.81027
 Alpha virt. eigenvalues --    1.81566   1.81801   1.82419   1.83251   1.83856
 Alpha virt. eigenvalues --    1.84091   1.84982   1.85797   1.85880   1.86213
 Alpha virt. eigenvalues --    1.86539   1.87363   1.87888   1.88455   1.88986
 Alpha virt. eigenvalues --    1.89543   1.89733   1.90461   1.91705   1.91908
 Alpha virt. eigenvalues --    1.92211   1.93142   1.93499   1.93939   1.94311
 Alpha virt. eigenvalues --    1.94601   1.95165   1.95872   1.96913   1.97300
 Alpha virt. eigenvalues --    1.98532   1.98777   1.99404   2.00022   2.00400
 Alpha virt. eigenvalues --    2.01400   2.01942   2.02418   2.03113   2.03523
 Alpha virt. eigenvalues --    2.04940   2.05371   2.05454   2.06635   2.07020
 Alpha virt. eigenvalues --    2.08071   2.08697   2.09161   2.09674   2.10840
 Alpha virt. eigenvalues --    2.11808   2.12465   2.13996   2.14619   2.14996
 Alpha virt. eigenvalues --    2.16136   2.16480   2.16614   2.17334   2.17725
 Alpha virt. eigenvalues --    2.18418   2.19280   2.19844   2.20354   2.21418
 Alpha virt. eigenvalues --    2.21569   2.21902   2.22308   2.23037   2.23333
 Alpha virt. eigenvalues --    2.24108   2.24954   2.25211   2.25746   2.27068
 Alpha virt. eigenvalues --    2.27834   2.28121   2.29390   2.29788   2.30999
 Alpha virt. eigenvalues --    2.31298   2.32407   2.33653   2.33844   2.34934
 Alpha virt. eigenvalues --    2.35252   2.35417   2.36275   2.37170   2.37666
 Alpha virt. eigenvalues --    2.38374   2.38815   2.39400   2.39491   2.40539
 Alpha virt. eigenvalues --    2.40914   2.42165   2.42834   2.43908   2.44630
 Alpha virt. eigenvalues --    2.45460   2.46070   2.47067   2.48416   2.48670
 Alpha virt. eigenvalues --    2.48954   2.50239   2.50326   2.51006   2.52907
 Alpha virt. eigenvalues --    2.53036   2.53406   2.54796   2.55346   2.56535
 Alpha virt. eigenvalues --    2.56987   2.57837   2.58729   2.58903   2.59495
 Alpha virt. eigenvalues --    2.60819   2.61579   2.61982   2.63248   2.64300
 Alpha virt. eigenvalues --    2.64735   2.65131   2.66031   2.66401   2.66721
 Alpha virt. eigenvalues --    2.67525   2.68278   2.70135   2.71098   2.72160
 Alpha virt. eigenvalues --    2.72908   2.73740   2.73859   2.75189   2.76356
 Alpha virt. eigenvalues --    2.76627   2.77260   2.78322   2.78491   2.79062
 Alpha virt. eigenvalues --    2.81037   2.81478   2.82752   2.84048   2.84573
 Alpha virt. eigenvalues --    2.84952   2.87199   2.87756   2.89132   2.89780
 Alpha virt. eigenvalues --    2.90305   2.90964   2.91753   2.92707   2.93302
 Alpha virt. eigenvalues --    2.93988   2.94771   2.95059   2.96333   2.97342
 Alpha virt. eigenvalues --    2.99221   2.99456   2.99884   3.00444   3.00622
 Alpha virt. eigenvalues --    3.01503   3.02948   3.04194   3.05447   3.06688
 Alpha virt. eigenvalues --    3.07569   3.07873   3.09033   3.09169   3.11081
 Alpha virt. eigenvalues --    3.11255   3.12139   3.12288   3.13252   3.13511
 Alpha virt. eigenvalues --    3.13878   3.14667   3.14948   3.16300   3.17191
 Alpha virt. eigenvalues --    3.17943   3.19136   3.19765   3.20433   3.21608
 Alpha virt. eigenvalues --    3.22032   3.22270   3.22870   3.23140   3.24195
 Alpha virt. eigenvalues --    3.25107   3.25965   3.26651   3.27675   3.29025
 Alpha virt. eigenvalues --    3.29410   3.29866   3.30898   3.31777   3.31994
 Alpha virt. eigenvalues --    3.32731   3.33187   3.34288   3.34684   3.34880
 Alpha virt. eigenvalues --    3.35059   3.35335   3.36265   3.36774   3.37204
 Alpha virt. eigenvalues --    3.38741   3.39371   3.39867   3.40592   3.41219
 Alpha virt. eigenvalues --    3.41758   3.42344   3.44006   3.46316   3.46403
 Alpha virt. eigenvalues --    3.47293   3.48245   3.48692   3.48957   3.49428
 Alpha virt. eigenvalues --    3.49973   3.50125   3.50723   3.51209   3.52683
 Alpha virt. eigenvalues --    3.53237   3.55419   3.55734   3.56480   3.57661
 Alpha virt. eigenvalues --    3.58314   3.59194   3.59539   3.60164   3.60390
 Alpha virt. eigenvalues --    3.61315   3.61512   3.61778   3.61991   3.62839
 Alpha virt. eigenvalues --    3.63096   3.63674   3.64009   3.64922   3.65500
 Alpha virt. eigenvalues --    3.65893   3.66830   3.67899   3.68635   3.69569
 Alpha virt. eigenvalues --    3.69977   3.71777   3.72484   3.72938   3.73079
 Alpha virt. eigenvalues --    3.74012   3.74356   3.75285   3.75526   3.76478
 Alpha virt. eigenvalues --    3.77395   3.78206   3.79127   3.79565   3.80862
 Alpha virt. eigenvalues --    3.81226   3.82023   3.82248   3.82746   3.82964
 Alpha virt. eigenvalues --    3.83735   3.84404   3.84765   3.85070   3.85466
 Alpha virt. eigenvalues --    3.85935   3.86233   3.86577   3.87690   3.88145
 Alpha virt. eigenvalues --    3.89232   3.89801   3.90193   3.90504   3.91626
 Alpha virt. eigenvalues --    3.93180   3.93789   3.94231   3.95335   3.96447
 Alpha virt. eigenvalues --    3.97205   3.98166   3.99095   4.00200   4.00676
 Alpha virt. eigenvalues --    4.01373   4.02390   4.02617   4.03500   4.04092
 Alpha virt. eigenvalues --    4.05439   4.05584   4.06171   4.06449   4.07060
 Alpha virt. eigenvalues --    4.07630   4.08183   4.08663   4.09310   4.09775
 Alpha virt. eigenvalues --    4.11087   4.11482   4.11794   4.13585   4.13988
 Alpha virt. eigenvalues --    4.15361   4.15931   4.16765   4.17293   4.18581
 Alpha virt. eigenvalues --    4.19741   4.20125   4.20512   4.21037   4.21401
 Alpha virt. eigenvalues --    4.22057   4.22978   4.23409   4.24283   4.24595
 Alpha virt. eigenvalues --    4.25295   4.25819   4.26296   4.26694   4.27572
 Alpha virt. eigenvalues --    4.28054   4.28956   4.29357   4.29805   4.31052
 Alpha virt. eigenvalues --    4.31943   4.32450   4.33182   4.34240   4.35040
 Alpha virt. eigenvalues --    4.36283   4.36644   4.37506   4.38269   4.40156
 Alpha virt. eigenvalues --    4.40424   4.41129   4.42000   4.43355   4.43819
 Alpha virt. eigenvalues --    4.44428   4.45505   4.46600   4.47810   4.49085
 Alpha virt. eigenvalues --    4.50417   4.50700   4.51555   4.53105   4.53616
 Alpha virt. eigenvalues --    4.53794   4.55617   4.56624   4.57681   4.58617
 Alpha virt. eigenvalues --    4.59175   4.60228   4.61331   4.61732   4.62586
 Alpha virt. eigenvalues --    4.63260   4.64863   4.65508   4.66405   4.67175
 Alpha virt. eigenvalues --    4.68378   4.69410   4.70950   4.71801   4.72616
 Alpha virt. eigenvalues --    4.73537   4.74887   4.75114   4.75801   4.76839
 Alpha virt. eigenvalues --    4.77936   4.78629   4.81199   4.81786   4.83040
 Alpha virt. eigenvalues --    4.83329   4.83880   4.84822   4.87713   4.88018
 Alpha virt. eigenvalues --    4.89594   4.90538   4.91471   4.93066   4.94109
 Alpha virt. eigenvalues --    4.94583   4.96927   4.97475   4.99223   4.99487
 Alpha virt. eigenvalues --    5.00197   5.01098   5.03644   5.04805   5.05697
 Alpha virt. eigenvalues --    5.06383   5.07114   5.08117   5.09653   5.11057
 Alpha virt. eigenvalues --    5.12309   5.12536   5.13025   5.13588   5.14254
 Alpha virt. eigenvalues --    5.14705   5.15906   5.16790   5.17482   5.18325
 Alpha virt. eigenvalues --    5.21657   5.22837   5.23211   5.24733   5.27654
 Alpha virt. eigenvalues --    5.29320   5.30828   5.31950   5.34009   5.34950
 Alpha virt. eigenvalues --    5.36622   5.37521   5.39773   5.40181   5.42951
 Alpha virt. eigenvalues --    5.44346   5.44793   5.46881   5.47982   5.48283
 Alpha virt. eigenvalues --    5.50032   5.51003   5.52182   5.52572   5.53706
 Alpha virt. eigenvalues --    5.54211   5.57685   5.58635   5.58837   5.60789
 Alpha virt. eigenvalues --    5.61623   5.62168   5.63368   5.65953   5.68046
 Alpha virt. eigenvalues --    5.68574   5.70189   5.70819   5.72066   5.73226
 Alpha virt. eigenvalues --    5.76282   5.77442   5.77946   5.78372   5.79567
 Alpha virt. eigenvalues --    5.82360   5.85017   5.85524   5.87012   5.87650
 Alpha virt. eigenvalues --    5.90818   5.93095   5.96281   5.97322   5.97359
 Alpha virt. eigenvalues --    5.98707   5.99806   6.01644   6.02565   6.03986
 Alpha virt. eigenvalues --    6.04598   6.05658   6.08310   6.11079   6.12735
 Alpha virt. eigenvalues --    6.14082   6.19078   6.20525   6.22011   6.22352
 Alpha virt. eigenvalues --    6.24752   6.28255   6.30238   6.35731   6.37250
 Alpha virt. eigenvalues --    6.39695   6.41600   6.46894   6.49378   6.50479
 Alpha virt. eigenvalues --    6.52899   6.56252   6.58182   6.58791   6.59120
 Alpha virt. eigenvalues --    6.61497   6.63407   6.66450   6.67576   6.70032
 Alpha virt. eigenvalues --    6.71893   6.77391   6.80892   6.82668   6.85576
 Alpha virt. eigenvalues --    6.89268   6.90559   6.91680   7.03398   7.10078
 Alpha virt. eigenvalues --    7.11609   7.18936   7.23797   7.32743   7.45021
 Alpha virt. eigenvalues --    7.52472   7.53851   7.61180   7.78285   7.81111
 Alpha virt. eigenvalues --    7.93917   8.41267   8.53519   8.58759   8.72699
 Alpha virt. eigenvalues --    8.75171   8.76642   8.77220   8.78884   8.79197
 Alpha virt. eigenvalues --    8.80532   8.82423   8.84317   8.84904   8.85215
 Alpha virt. eigenvalues --    8.92904   8.96903   8.97840   8.99205   9.01630
 Alpha virt. eigenvalues --    9.05178   9.08437   9.08611   9.10676   9.12026
 Alpha virt. eigenvalues --    9.13107   9.13408   9.15173   9.18518   9.18542
 Alpha virt. eigenvalues --    9.19118   9.19685   9.21189   9.22702   9.24221
 Alpha virt. eigenvalues --    9.27070   9.29649   9.30285   9.31361   9.31714
 Alpha virt. eigenvalues --    9.32661   9.32956   9.33749   9.36077   9.38184
 Alpha virt. eigenvalues --    9.39460   9.40032   9.40784   9.42005   9.45747
 Alpha virt. eigenvalues --    9.47237   9.48385   9.55915   9.60852   9.61006
 Alpha virt. eigenvalues --    9.67072   9.70338   9.76121   9.76250   9.77357
 Alpha virt. eigenvalues --    9.86409   9.91782  11.32925  15.49500  15.69362
 Alpha virt. eigenvalues --   15.82232  16.19338  16.39101  16.41272  16.58916
 Alpha virt. eigenvalues --   17.21476  17.38262  17.65437  17.90035  18.06171
 Alpha virt. eigenvalues --   18.87398  19.22821  19.51891  20.44200  20.93468
 Alpha virt. eigenvalues --   21.42357
          Condensed to atoms (all electrons):
               1          2          3          4          5          6
     1  C    9.639098  -0.166934  -0.897412   0.152542  -0.017821  -0.118327
     2  N   -0.166934   8.637377   0.295232  -0.018795  -0.443152  -0.231280
     3  C   -0.897412   0.295232   6.544232   0.252267   0.240215  -0.198870
     4  O    0.152542  -0.018795   0.252267   8.932196  -0.234147  -0.071758
     5  N   -0.017821  -0.443152   0.240215  -0.234147   7.473020   0.200188
     6  C   -0.118327  -0.231280  -0.198870  -0.071758   0.200188   5.803422
     7  C   -0.027794  -0.051607   0.044576  -0.011151  -0.131712   0.090901
     8  C   -0.000069   0.004555  -0.004781   0.000999  -0.008769  -0.027085
     9  C   -1.051443  -0.508511  -0.245868  -0.161853  -0.084967  -0.036480
    10  C    0.406420   0.228223   0.101420   0.028708   0.059158   0.012414
    11  C    0.008870  -0.100095  -0.065009   0.009433  -0.026412  -0.009739
    12  C   -0.476061   0.311179   0.143968  -0.002572   0.047744   0.015272
    13  C   -0.772056  -0.520256  -0.031775   0.019463  -0.134452  -0.013762
    14  H    0.108322   0.186625  -0.094121   0.015793   0.151286   0.002604
    15  H   -0.048926   0.070373  -0.040549   0.006780   0.188016   0.014483
    16  H   -0.019394   0.014775   0.008226   0.013675  -0.075535   0.306475
    17  H    0.001648  -0.009902  -0.083170  -0.002723  -0.013474   0.439420
    18  H   -0.005353  -0.001781   0.022118   0.003354  -0.053318  -0.028967
    19  H   -0.002194  -0.012090   0.000477  -0.000349  -0.011072   0.032077
    20  H   -0.000044   0.000542   0.003423   0.000101   0.004320  -0.007974
    21  H    0.000023  -0.000508   0.001068  -0.000173  -0.001195  -0.002453
    22  H    0.000548   0.000301   0.002602  -0.000047   0.002920  -0.007061
    23  H   -0.399410  -0.187350  -0.105085  -0.138569   0.003079  -0.022867
    24  Cl   0.014455  -0.044914  -0.010321  -0.000020  -0.002798  -0.000322
    25  H   -0.616941  -0.070089  -0.013460   0.001244  -0.030481  -0.004978
    26  S   -0.123843  -0.009269  -0.041085   0.001945   0.002031  -0.002540
    27  H   -0.045597   0.012974   0.001458   0.000028  -0.000371  -0.000266
    28  F   -0.002614  -0.004878   0.001163  -0.001322  -0.001060  -0.000414
    29  F    0.012826  -0.006762  -0.000902   0.000079  -0.000258  -0.000027
    30  F   -0.011085   0.008175   0.009377  -0.001048   0.000526   0.000225
    31  F    0.015043  -0.002354   0.000832   0.000093   0.000022   0.000086
    32  F    0.004299   0.002298   0.003605   0.000009   0.000017   0.000075
               7          8          9         10         11         12
     1  C   -0.027794  -0.000069  -1.051443   0.406420   0.008870  -0.476061
     2  N   -0.051607   0.004555  -0.508511   0.228223  -0.100095   0.311179
     3  C    0.044576  -0.004781  -0.245868   0.101420  -0.065009   0.143968
     4  O   -0.011151   0.000999  -0.161853   0.028708   0.009433  -0.002572
     5  N   -0.131712  -0.008769  -0.084967   0.059158  -0.026412   0.047744
     6  C    0.090901  -0.027085  -0.036480   0.012414  -0.009739   0.015272
     7  C    5.522365   0.118724   0.001857  -0.000392  -0.000204   0.000702
     8  C    0.118724   5.754965   0.000777  -0.000178   0.000038  -0.000060
     9  C    0.001857   0.000777  10.393652  -2.220344   0.239733  -0.275955
    10  C   -0.000392  -0.000178  -2.220344  10.849757  -1.712579   0.443821
    11  C   -0.000204   0.000038   0.239733  -1.712579   8.303817  -0.532328
    12  C    0.000702  -0.000060  -0.275955   0.443821  -0.532328   7.006846
    13  C    0.004340   0.000064   0.227376  -0.721215   0.214978  -0.406457
    14  H    0.002452  -0.000409  -0.026578   0.006301  -0.000695  -0.010625
    15  H   -0.015380   0.003442   0.001675   0.002449  -0.000877   0.002908
    16  H    0.003475  -0.003751   0.005437  -0.000927  -0.000548   0.000546
    17  H   -0.019624  -0.006397  -0.002709  -0.000264  -0.000545   0.000732
    18  H    0.421337  -0.019524   0.000443   0.000088  -0.000066   0.000202
    19  H    0.428096  -0.024141  -0.000280  -0.000027  -0.000015   0.000025
    20  H    0.029405   0.374308   0.000263  -0.000019   0.000010  -0.000011
    21  H   -0.030601   0.446227   0.000017  -0.000008  -0.000003   0.000008
    22  H    0.033873   0.371426  -0.000046   0.000045   0.000014  -0.000015
    23  H   -0.000943  -0.000021   0.082523  -0.578875   0.055920  -0.028550
    24  Cl  -0.000012   0.000001   0.054284  -0.083580   0.005012  -0.178395
    25  H   -0.000266  -0.000017   0.032200  -0.053645  -0.026951  -0.225856
    26  S    0.000066  -0.000006   0.150863  -0.847503   0.122616  -0.044035
    27  H   -0.000004   0.000002   0.075201  -0.394467   0.239378  -0.280763
    28  F   -0.000014  -0.000003   0.072592  -0.227446   0.035159  -0.002665
    29  F   -0.000000   0.000000   0.020399  -0.193455   0.078724  -0.002211
    30  F    0.000005  -0.000004   0.056937  -0.182349   0.016641   0.005267
    31  F    0.000003   0.000000   0.011277  -0.158188   0.059831  -0.000669
    32  F   -0.000003  -0.000000  -0.045929   0.273691  -0.079446   0.000363
              13         14         15         16         17         18
     1  C   -0.772056   0.108322  -0.048926  -0.019394   0.001648  -0.005353
     2  N   -0.520256   0.186625   0.070373   0.014775  -0.009902  -0.001781
     3  C   -0.031775  -0.094121  -0.040549   0.008226  -0.083170   0.022118
     4  O    0.019463   0.015793   0.006780   0.013675  -0.002723   0.003354
     5  N   -0.134452   0.151286   0.188016  -0.075535  -0.013474  -0.053318
     6  C   -0.013762   0.002604   0.014483   0.306475   0.439420  -0.028967
     7  C    0.004340   0.002452  -0.015380   0.003475  -0.019624   0.421337
     8  C    0.000064  -0.000409   0.003442  -0.003751  -0.006397  -0.019524
     9  C    0.227376  -0.026578   0.001675   0.005437  -0.002709   0.000443
    10  C   -0.721215   0.006301   0.002449  -0.000927  -0.000264   0.000088
    11  C    0.214978  -0.000695  -0.000877  -0.000548  -0.000545  -0.000066
    12  C   -0.406457  -0.010625   0.002908   0.000546   0.000732   0.000202
    13  C    8.516169  -0.057338   0.005369   0.001552  -0.000412   0.000913
    14  H   -0.057338   0.847940  -0.034033  -0.001326   0.000372  -0.000580
    15  H    0.005369  -0.034033   0.769282   0.028094  -0.010890   0.014121
    16  H    0.001552  -0.001326   0.028094   0.415204   0.029378   0.014195
    17  H   -0.000412   0.000372  -0.010890   0.029378   0.398172  -0.014071
    18  H    0.000913  -0.000580   0.014121   0.014195  -0.014071   0.397109
    19  H    0.000133  -0.000238  -0.008754  -0.006764   0.004153   0.000191
    20  H   -0.000007  -0.000066  -0.000119  -0.007438  -0.009653  -0.000881
    21  H   -0.000047   0.000041   0.000392   0.000462   0.000564   0.001103
    22  H    0.000002   0.000024  -0.000131  -0.011361  -0.006913  -0.002523
    23  H   -0.086239  -0.000862   0.000744   0.000307  -0.003303  -0.000164
    24  Cl   0.136530  -0.000010  -0.000149  -0.000013  -0.000014  -0.000007
    25  H    0.201870  -0.112333  -0.002209  -0.000242   0.000346   0.000046
    26  S    0.107357  -0.000228  -0.000095  -0.000235  -0.000334  -0.000009
    27  H    0.014416   0.001114  -0.000073  -0.000018  -0.000023  -0.000001
    28  F    0.006364  -0.000071   0.000065  -0.000016  -0.000027   0.000009
    29  F    0.006319  -0.000072   0.000031  -0.000006  -0.000008   0.000000
    30  F   -0.004868   0.000192  -0.000030   0.000045   0.000038   0.000003
    31  F    0.000894   0.000097  -0.000029  -0.000002   0.000010  -0.000000
    32  F   -0.005026  -0.000005   0.000003   0.000020   0.000025   0.000000
              19         20         21         22         23         24
     1  C   -0.002194  -0.000044   0.000023   0.000548  -0.399410   0.014455
     2  N   -0.012090   0.000542  -0.000508   0.000301  -0.187350  -0.044914
     3  C    0.000477   0.003423   0.001068   0.002602  -0.105085  -0.010321
     4  O   -0.000349   0.000101  -0.000173  -0.000047  -0.138569  -0.000020
     5  N   -0.011072   0.004320  -0.001195   0.002920   0.003079  -0.002798
     6  C    0.032077  -0.007974  -0.002453  -0.007061  -0.022867  -0.000322
     7  C    0.428096   0.029405  -0.030601   0.033873  -0.000943  -0.000012
     8  C   -0.024141   0.374308   0.446227   0.371426  -0.000021   0.000001
     9  C   -0.000280   0.000263   0.000017  -0.000046   0.082523   0.054284
    10  C   -0.000027  -0.000019  -0.000008   0.000045  -0.578875  -0.083580
    11  C   -0.000015   0.000010  -0.000003   0.000014   0.055920   0.005012
    12  C    0.000025  -0.000011   0.000008  -0.000015  -0.028550  -0.178395
    13  C    0.000133  -0.000007  -0.000047   0.000002  -0.086239   0.136530
    14  H   -0.000238  -0.000066   0.000041   0.000024  -0.000862  -0.000010
    15  H   -0.008754  -0.000119   0.000392  -0.000131   0.000744  -0.000149
    16  H   -0.006764  -0.007438   0.000462  -0.011361   0.000307  -0.000013
    17  H    0.004153  -0.009653   0.000564  -0.006913  -0.003303  -0.000014
    18  H    0.000191  -0.000881   0.001103  -0.002523  -0.000164  -0.000007
    19  H    0.368878   0.000352  -0.003684   0.003000  -0.000123   0.000004
    20  H    0.000352   0.313446  -0.000705   0.022862   0.000157   0.000000
    21  H   -0.003684  -0.000705   0.313257  -0.001738   0.000008  -0.000000
    22  H    0.003000   0.022862  -0.001738   0.316295   0.000024  -0.000000
    23  H   -0.000123   0.000157   0.000008   0.000024   1.784670  -0.001883
    24  Cl   0.000004   0.000000  -0.000000  -0.000000  -0.001883  17.598046
    25  H   -0.000054  -0.000016  -0.000004   0.000006  -0.020318  -0.024013
    26  S   -0.000003   0.000005  -0.000001   0.000005   0.056227  -0.001595
    27  H   -0.000001   0.000001  -0.000000   0.000001  -0.008274  -0.040080
    28  F   -0.000003  -0.000002  -0.000000  -0.000001  -0.008519   0.000374
    29  F   -0.000001   0.000000  -0.000000   0.000000   0.008516  -0.000432
    30  F    0.000007  -0.000002  -0.000000  -0.000002  -0.029867   0.000250
    31  F    0.000001   0.000000   0.000000   0.000000   0.008760  -0.000578
    32  F   -0.000000  -0.000000   0.000000  -0.000000  -0.022966  -0.000152
              25         26         27         28         29         30
     1  C   -0.616941  -0.123843  -0.045597  -0.002614   0.012826  -0.011085
     2  N   -0.070089  -0.009269   0.012974  -0.004878  -0.006762   0.008175
     3  C   -0.013460  -0.041085   0.001458   0.001163  -0.000902   0.009377
     4  O    0.001244   0.001945   0.000028  -0.001322   0.000079  -0.001048
     5  N   -0.030481   0.002031  -0.000371  -0.001060  -0.000258   0.000526
     6  C   -0.004978  -0.002540  -0.000266  -0.000414  -0.000027   0.000225
     7  C   -0.000266   0.000066  -0.000004  -0.000014  -0.000000   0.000005
     8  C   -0.000017  -0.000006   0.000002  -0.000003   0.000000  -0.000004
     9  C    0.032200   0.150863   0.075201   0.072592   0.020399   0.056937
    10  C   -0.053645  -0.847503  -0.394467  -0.227446  -0.193455  -0.182349
    11  C   -0.026951   0.122616   0.239378   0.035159   0.078724   0.016641
    12  C   -0.225856  -0.044035  -0.280763  -0.002665  -0.002211   0.005267
    13  C    0.201870   0.107357   0.014416   0.006364   0.006319  -0.004868
    14  H   -0.112333  -0.000228   0.001114  -0.000071  -0.000072   0.000192
    15  H   -0.002209  -0.000095  -0.000073   0.000065   0.000031  -0.000030
    16  H   -0.000242  -0.000235  -0.000018  -0.000016  -0.000006   0.000045
    17  H    0.000346  -0.000334  -0.000023  -0.000027  -0.000008   0.000038
    18  H    0.000046  -0.000009  -0.000001   0.000009   0.000000   0.000003
    19  H   -0.000054  -0.000003  -0.000001  -0.000003  -0.000001   0.000007
    20  H   -0.000016   0.000005   0.000001  -0.000002   0.000000  -0.000002
    21  H   -0.000004  -0.000001  -0.000000  -0.000000  -0.000000  -0.000000
    22  H    0.000006   0.000005   0.000001  -0.000001   0.000000  -0.000002
    23  H   -0.020318   0.056227  -0.008274  -0.008519   0.008516  -0.029867
    24  Cl  -0.024013  -0.001595  -0.040080   0.000374  -0.000432   0.000250
    25  H    1.506778  -0.006864  -0.031251  -0.000040   0.000415  -0.000460
    26  S   -0.006864  13.830555   0.043505   0.000902  -0.029028  -0.006672
    27  H   -0.031251   0.043505   0.968182   0.009397  -0.037624   0.010053
    28  F   -0.000040   0.000902   0.009397   9.759415  -0.015848   0.015075
    29  F    0.000415  -0.029028  -0.037624  -0.015848   9.777014   0.053168
    30  F   -0.000460  -0.006672   0.010053   0.015075   0.053168   9.768035
    31  F    0.000313  -0.040241  -0.039979   0.052654   0.017616  -0.014845
    32  F    0.000087   0.121903  -0.019161  -0.105437  -0.099999  -0.105219
              31         32
     1  C    0.015043   0.004299
     2  N   -0.002354   0.002298
     3  C    0.000832   0.003605
     4  O    0.000093   0.000009
     5  N    0.000022   0.000017
     6  C    0.000086   0.000075
     7  C    0.000003  -0.000003
     8  C    0.000000  -0.000000
     9  C    0.011277  -0.045929
    10  C   -0.158188   0.273691
    11  C    0.059831  -0.079446
    12  C   -0.000669   0.000363
    13  C    0.000894  -0.005026
    14  H    0.000097  -0.000005
    15  H   -0.000029   0.000003
    16  H   -0.000002   0.000020
    17  H    0.000010   0.000025
    18  H   -0.000000   0.000000
    19  H    0.000001  -0.000000
    20  H    0.000000  -0.000000
    21  H    0.000000   0.000000
    22  H    0.000000  -0.000000
    23  H    0.008760  -0.022966
    24  Cl  -0.000578  -0.000152
    25  H    0.000313   0.000087
    26  S   -0.040241   0.121903
    27  H   -0.039979  -0.019161
    28  F    0.052654  -0.105437
    29  F    0.017616  -0.099999
    30  F   -0.014845  -0.105219
    31  F    9.779472  -0.101850
    32  F   -0.101850   9.703582
 Mulliken charges:
               1
     1  C    0.439226
     2  N   -0.382103
     3  C    0.156147
     4  O   -0.794185
     5  N   -0.101546
     6  C   -0.132470
     7  C   -0.412468
     8  C   -0.980312
     9  C   -0.766542
    10  C    0.962965
    11  C   -0.834662
    12  C    0.487649
    13  C   -0.710195
    14  H    0.016427
    15  H    0.054021
    16  H    0.285711
    17  H    0.309600
    18  H    0.252014
    19  H    0.232400
    20  H    0.277742
    21  H    0.277952
    22  H    0.275891
    23  H    0.643252
    24  Cl  -0.419669
    25  H    0.497185
    26  S    2.715607
    27  H    0.522247
    28  F   -0.582789
    29  F   -0.588476
    30  F   -0.587568
    31  F   -0.588268
    32  F   -0.524784
 Sum of Mulliken charges =  -0.00000
 Mulliken charges with hydrogens summed into heavy atoms:
               1
     1  C    0.439226
     2  N   -0.365677
     3  C    0.156147
     4  O   -0.794185
     5  N   -0.047525
     6  C    0.462841
     7  C    0.071946
     8  C   -0.148728
     9  C   -0.123290
    10  C    0.962965
    11  C   -0.312415
    12  C    0.487649
    13  C   -0.213009
    24  Cl  -0.419669
    26  S    2.715607
    28  F   -0.582789
    29  F   -0.588476
    30  F   -0.587568
    31  F   -0.588268
    32  F   -0.524784
 Electronic spatial extent (au):  <R**2>=           9794.9308
 Charge=             -0.0000 electrons
 Dipole moment (field-independent basis, Debye):
    X=             -6.3298    Y=              4.6618    Z=              0.9555  Tot=              7.9191
 Quadrupole moment (field-independent basis, Debye-Ang):
   XX=           -111.5666   YY=           -132.0450   ZZ=           -132.0970
   XY=             -4.7765   XZ=             -3.6980   YZ=              0.5876
 Traceless Quadrupole moment (field-independent basis, Debye-Ang):
   XX=             13.6696   YY=             -6.8088   ZZ=             -6.8608
   XY=             -4.7765   XZ=             -3.6980   YZ=              0.5876
 Octapole moment (field-independent basis, Debye-Ang**2):
  XXX=            -75.1078  YYY=            -40.0354  ZZZ=             -0.4165  XYY=             -5.1980
  XXY=             14.1413  XXZ=             11.9573  XZZ=             18.9241  YZZ=            -21.0187
  YYZ=              2.2530  XYZ=             -3.9944
 Hexadecapole moment (field-independent basis, Debye-Ang**3):
 XXXX=          -8464.9957 YYYY=          -2781.9848 ZZZZ=           -307.4668 XXXY=           -108.0300
 XXXZ=            -46.2310 YYYX=           -191.9102 YYYZ=              3.1850 ZZZX=              0.2954
 ZZZY=              0.3565 XXYY=          -2004.5424 XXZZ=          -1592.2088 YYZZ=           -525.9876
 XXYZ=             21.0013 YYXZ=             -9.8115 ZZXY=            -43.5635
 N-N= 2.020856492773D+03 E-N=-8.600724074349D+03  KE= 1.921988494960D+03
 Unable to Open any file for archive entry.
 1\1\GINC-GADI-CPU-CLX-0234\SP\RDSDPBEP86-FC\Aug-CC-pVTZ\C10H12Cl1F5N2O
 1S1\HIO507\09-Sep-2020\0\\# DSDPBEP86/AUG-cc-PVTZ SCF=Tight INT(grid=u
 ltrafine) MaxDisk=60000MB\\CP22.DSDPBEP86_AUG-cc-PVTZ\\0,1\C,0,-5.9449
 858374,1.1845279443,0.2478725437\N,0,-4.6898709366,0.5720356328,0.2269
 034803\C,0,-3.4571155953,1.1942612069,0.0313888362\O,0,-3.3294990904,2
 .3797267246,-0.1773056887\N,0,-2.4014264383,0.3207204343,0.0694317654\
 C,0,-1.0457093923,0.8524693639,-0.0092716588\C,0,-0.0393904459,-0.2778
 803414,-0.1648991048\C,0,1.3871365511,0.2541829455,-0.2601830571\C,0,-
 6.1220392974,2.57232247,0.2767562977\C,0,-7.4168389174,3.0589661629,0.
 3236412747\C,0,-8.5487156523,2.260695285,0.3433463984\C,0,-8.338404822
 8,0.8900092109,0.3136447808\C,0,-7.0660280204,0.3480608181,0.265932487
 \H,0,-4.7018083567,-0.4357678041,0.1829105246\H,0,-2.515141203,-0.5453
 296537,0.5762482058\H,0,-0.8162789209,1.4547957722,0.8774995276\H,0,-1
 .0048474694,1.5242145698,-0.8680994785\H,0,-0.2889054464,-0.8570141514
 ,-1.0588853113\H,0,-0.1189121126,-0.9615093937,0.6887801975\H,0,1.5002
 908474,0.9193927323,-1.1193337131\H,0,2.105859352,-0.5588307932,-0.371
 738802\H,0,1.6587403017,0.8186691137,0.6349470091\H,0,-5.2698746932,3.
 2327400721,0.2536706737\Cl,0,-9.7087063898,-0.1796398148,0.3350564792\
 H,0,-6.9491539972,-0.7298908571,0.2438804575\S,0,-7.6444805064,4.85795
 0697,0.3627905896\H,0,-9.5473466163,2.6723101731,0.3789373653\F,0,-6.5
 566931056,5.0933501664,-0.8019815006\F,0,-8.8183506377,4.7985674347,-0
 .746574993\F,0,-6.4951710465,5.0492249723,1.4778767696\F,0,-8.75703252
 6,4.754885352,1.5314398684\F,0,-7.8540595781,6.4499035543,0.4000377758
 \\Version=ES64L-G16RevC.01\State=1-A\HF=-1926.7519338\MP2=-1928.749250
 2\RMSD=2.683e-09\PG=C01 [X(C10H12Cl1F5N2O1S1)]\\@
 The archive entry for this job was punched.


 EVERY WORD THAT YOU WRITE IS A BLOW THAT SMITES THE DEVIL.
     -- ST. BERNARD OF CLAIRVAUX
 Job cpu time:       1 days  7 hours 30 minutes 59.6 seconds.
 Elapsed time:       0 days  5 hours 16 minutes  2.3 seconds.
 File lengths (MBytes):  RWF=    749 Int=      0 D2E=      0 Chk=     95 Scr=      1
 Normal termination of Gaussian 16 at Wed Sep  9 21:39:37 2020.
