 Entering Gaussian System, Link 0=/apps/gaussian/g09e01/g09/g09
 Initial command:
 /apps/gaussian/g09e01/g09/l1.exe "/jobfs/local/3595031.r-man2/Gau-48026.inp" -scrdir="/jobfs/local/3595031.r-man2/"
 Entering Link 1 = /apps/gaussian/g09e01/g09/l1.exe PID=     48027.
  
 Copyright (c) 1988,1990,1992,1993,1995,1998,2003,2009,2015,
            Gaussian, Inc.  All Rights Reserved.
  
 This is part of the Gaussian(R) 09 program.  It is based on
 the Gaussian(R) 03 system (copyright 2003, Gaussian, Inc.),
 the Gaussian(R) 98 system (copyright 1998, Gaussian, Inc.),
 the Gaussian(R) 94 system (copyright 1995, Gaussian, Inc.),
 the Gaussian 92(TM) system (copyright 1992, Gaussian, Inc.),
 the Gaussian 90(TM) system (copyright 1990, Gaussian, Inc.),
 the Gaussian 88(TM) system (copyright 1988, Gaussian, Inc.),
 the Gaussian 86(TM) system (copyright 1986, Carnegie Mellon
 University), and the Gaussian 82(TM) system (copyright 1983,
 Carnegie Mellon University). Gaussian is a federally registered
 trademark of Gaussian, Inc.
  
 This software contains proprietary and confidential information,
 including trade secrets, belonging to Gaussian, Inc.
  
 This software is provided under written license and may be
 used, copied, transmitted, or stored only in accord with that
 written license.
  
 The following legend is applicable only to US Government
 contracts under FAR:
  
                    RESTRICTED RIGHTS LEGEND
  
 Use, reproduction and disclosure by the US Government is
 subject to restrictions as set forth in subparagraphs (a)
 and (c) of the Commercial Computer Software - Restricted
 Rights clause in FAR 52.227-19.
  
 Gaussian, Inc.
 340 Quinnipiac St., Bldg. 40, Wallingford CT 06492
  
  
 ---------------------------------------------------------------
 Warning -- This program may not be used in any manner that
 competes with the business of Gaussian, Inc. or will provide
 assistance to any competitor of Gaussian, Inc.  The licensee
 of this program is prohibited from giving any competitor of
 Gaussian, Inc. access to this program.  By using this program,
 the user acknowledges that Gaussian, Inc. is engaged in the
 business of creating and licensing software in the field of
 computational chemistry and represents and warrants to the
 licensee that it is not a competitor of Gaussian, Inc. and that
 it will not use this program in any manner prohibited above.
 ---------------------------------------------------------------
  

 Cite this work as:
 Gaussian 09, Revision E.01,
 M. J. Frisch, G. W. Trucks, H. B. Schlegel, G. E. Scuseria, 
 M. A. Robb, J. R. Cheeseman, G. Scalmani, V. Barone, B. Mennucci, 
 G. A. Petersson, H. Nakatsuji, M. Caricato, X. Li, H. P. Hratchian, 
 A. F. Izmaylov, J. Bloino, G. Zheng, J. L. Sonnenberg, M. Hada, 
 M. Ehara, K. Toyota, R. Fukuda, J. Hasegawa, M. Ishida, T. Nakajima, 
 Y. Honda, O. Kitao, H. Nakai, T. Vreven, J. A. Montgomery, Jr., 
 J. E. Peralta, F. Ogliaro, M. Bearpark, J. J. Heyd, E. Brothers, 
 K. N. Kudin, V. N. Staroverov, T. Keith, R. Kobayashi, J. Normand, 
 K. Raghavachari, A. Rendell, J. C. Burant, S. S. Iyengar, J. Tomasi, 
 M. Cossi, N. Rega, J. M. Millam, M. Klene, J. E. Knox, J. B. Cross, 
 V. Bakken, C. Adamo, J. Jaramillo, R. Gomperts, R. E. Stratmann, 
 O. Yazyev, A. J. Austin, R. Cammi, C. Pomelli, J. W. Ochterski, 
 R. L. Martin, K. Morokuma, V. G. Zakrzewski, G. A. Voth, 
 P. Salvador, J. J. Dannenberg, S. Dapprich, A. D. Daniels, 
 O. Farkas, J. B. Foresman, J. V. Ortiz, J. Cioslowski, 
 and D. J. Fox, Gaussian, Inc., Wallingford CT, 2013.
 
 ******************************************
 Gaussian 09:  ES64L-G09RevE.01 30-Nov-2015
                14-Nov-2019 
 ******************************************
 %chk=CP19_carboxy.M062X_6-311pGd_opt_water_GD3.chk
 %mem=196608000
 %nproc=8
 Will use up to    8 processors via shared memory.
 ----------------------------------------------------------------------
 # M062X/6-311+G* SCF=Tight INT(grid=ultrafine) OPT IOP(2/17=4) Empiric
 alDispersion=GD3 SCRF=(SMD,Solvent=h2o) maxdisk=2684354560
 ----------------------------------------------------------------------
 1/14=-1,18=20,19=15,26=4,38=1/1,3;
 2/9=110,12=2,17=4,18=5,40=1/2;
 3/5=4,6=6,7=11,11=2,16=1,25=1,30=1,70=32201,71=1,72=1,74=-55,75=-5,124=31/1,2,3;
 4//1;
 5/5=2,32=2,38=5,53=1/2;
 6/7=2,8=2,9=2,10=2,28=1/1;
 7//1,2,3,16;
 1/14=-1,18=20,19=15,26=4/3(2);
 2/9=110,17=4/2;
 99//99;
 2/9=110,17=4/2;
 3/5=4,6=6,7=11,11=2,16=1,25=1,30=1,70=32205,71=1,72=1,74=-55,75=-5,124=31/1,2,3;
 4/5=5,16=3,69=1/1;
 5/5=2,32=2,38=5,53=1/2;
 7//1,2,3,16;
 1/14=-1,18=20,19=15,26=4/3(-5);
 2/9=110,17=4/2;
 6/7=2,8=2,9=2,10=2,19=2,28=1/1;
 99/9=1/99;
 -----------------------------------------
 CP19_carboxy.M062X_6-311pGd_opt_water_GD3
 -----------------------------------------
 Symbolic Z-matrix:
 Charge = -1 Multiplicity = 1
 C                    -6.31359   1.15206  -0.04312 
 N                    -5.04849   0.58761  -0.03557 
 C                    -3.83263   1.23985   0.06638 
 O                    -3.727     2.46582   0.19705 
 N                    -2.76873   0.41819   0.0223 
 C                    -1.415     0.94666   0.10906 
 C                    -0.40287  -0.18536   0.03057 
 C                     1.02263   0.34427   0.12543 
 C                    -6.56623   2.52857  -0.1391 
 C                    -7.87554   2.97943  -0.15211 
 C                    -8.9626    2.11057  -0.07694 
 C                    -8.69994   0.74305   0.00986 
 C                    -7.40383   0.26846   0.02728 
 H                    -5.022    -0.44214  -0.0256 
 H                    -2.88989  -0.58332  -0.15258 
 H                    -1.29391   1.49279   1.0495 
 H                    -1.24193   1.66041  -0.70282 
 H                    -0.53988  -0.72812  -0.90995 
 H                    -0.59425  -0.89807   0.83889 
 H                     1.23663   1.04337  -0.68729 
 H                     1.7496   -0.468     0.06709 
 H                     1.18419   0.87035   1.07 
 H                    -5.75696   3.23762  -0.20683 
 Cl                   -8.1245    4.70511  -0.27484 
 C                    -10.37399   2.6058   -0.08703 
 H                    -9.52256   0.04141   0.06816 
 H                    -7.21997  -0.79745   0.09791 
 F                    -11.25775   1.60204   0.00476 
 F                    -10.64014   3.44094   0.93579 
 F                    -10.68238   3.28125  -1.2112 
 O                    -5.0691   -2.25645   0.09059 
 O                    -2.91808  -2.44468  -0.45536 
 C                    -4.02537  -2.93877  -0.12323 
 C                    -4.15136  -4.44969   0.03648 
 C                    -2.86018  -5.22831  -0.15995 
 H                    -4.91664  -4.78017  -0.67283 
 H                    -4.5702   -4.63267   1.03037 
 H                    -2.45497  -5.07978  -1.16278 
 H                    -3.03295  -6.29808  -0.02378 
 H                    -2.0974   -4.91809   0.55716 
 
 Add virtual bond connecting atoms O31        and H14        Dist= 3.44D+00.
 Add virtual bond connecting atoms O32        and H15        Dist= 3.56D+00.

 GradGradGradGradGradGradGradGradGradGradGradGradGradGradGradGradGradGrad
 Berny optimization.
 Initialization pass.
                           ----------------------------
                           !    Initial Parameters    !
                           ! (Angstroms and Degrees)  !
 --------------------------                            --------------------------
 ! Name  Definition              Value          Derivative Info.                !
 --------------------------------------------------------------------------------
 ! R1    R(1,2)                  1.3853         estimate D2E/DX2                !
 ! R2    R(1,9)                  1.4028         estimate D2E/DX2                !
 ! R3    R(1,13)                 1.4051         estimate D2E/DX2                !
 ! R4    R(2,3)                  1.3835         estimate D2E/DX2                !
 ! R5    R(2,14)                 1.0301         estimate D2E/DX2                !
 ! R6    R(3,4)                  1.2374         estimate D2E/DX2                !
 ! R7    R(3,5)                  1.345          estimate D2E/DX2                !
 ! R8    R(5,6)                  1.4558         estimate D2E/DX2                !
 ! R9    R(5,15)                 1.0239         estimate D2E/DX2                !
 ! R10   R(6,7)                  1.5205         estimate D2E/DX2                !
 ! R11   R(6,16)                 1.0942         estimate D2E/DX2                !
 ! R12   R(6,17)                 1.0948         estimate D2E/DX2                !
 ! R13   R(7,8)                  1.5237         estimate D2E/DX2                !
 ! R14   R(7,18)                 1.0945         estimate D2E/DX2                !
 ! R15   R(7,19)                 1.0945         estimate D2E/DX2                !
 ! R16   R(8,20)                 1.0932         estimate D2E/DX2                !
 ! R17   R(8,21)                 1.0916         estimate D2E/DX2                !
 ! R18   R(8,22)                 1.0932         estimate D2E/DX2                !
 ! R19   R(9,10)                 1.3848         estimate D2E/DX2                !
 ! R20   R(9,23)                 1.0781         estimate D2E/DX2                !
 ! R21   R(10,11)                1.3937         estimate D2E/DX2                !
 ! R22   R(10,24)                1.7479         estimate D2E/DX2                !
 ! R23   R(11,12)                1.3952         estimate D2E/DX2                !
 ! R24   R(11,25)                1.4958         estimate D2E/DX2                !
 ! R25   R(12,13)                1.3804         estimate D2E/DX2                !
 ! R26   R(12,26)                1.0828         estimate D2E/DX2                !
 ! R27   R(13,27)                1.084          estimate D2E/DX2                !
 ! R28   R(14,31)                1.8186         estimate D2E/DX2                !
 ! R29   R(15,32)                1.886          estimate D2E/DX2                !
 ! R30   R(25,28)                1.3405         estimate D2E/DX2                !
 ! R31   R(25,29)                1.347          estimate D2E/DX2                !
 ! R32   R(25,30)                1.3473         estimate D2E/DX2                !
 ! R33   R(31,33)                1.2652         estimate D2E/DX2                !
 ! R34   R(32,33)                1.2572         estimate D2E/DX2                !
 ! R35   R(33,34)                1.5246         estimate D2E/DX2                !
 ! R36   R(34,35)                1.5205         estimate D2E/DX2                !
 ! R37   R(34,36)                1.0945         estimate D2E/DX2                !
 ! R38   R(34,37)                1.0939         estimate D2E/DX2                !
 ! R39   R(35,38)                1.0918         estimate D2E/DX2                !
 ! R40   R(35,39)                1.0921         estimate D2E/DX2                !
 ! R41   R(35,40)                1.0919         estimate D2E/DX2                !
 ! A1    A(2,1,9)              124.3785         estimate D2E/DX2                !
 ! A2    A(2,1,13)             116.8771         estimate D2E/DX2                !
 ! A3    A(9,1,13)             118.7344         estimate D2E/DX2                !
 ! A4    A(1,2,3)              127.6516         estimate D2E/DX2                !
 ! A5    A(1,2,14)             115.5202         estimate D2E/DX2                !
 ! A6    A(3,2,14)             116.6123         estimate D2E/DX2                !
 ! A7    A(2,3,4)              123.3584         estimate D2E/DX2                !
 ! A8    A(2,3,5)              113.8746         estimate D2E/DX2                !
 ! A9    A(4,3,5)              122.7647         estimate D2E/DX2                !
 ! A10   A(3,5,6)              120.7859         estimate D2E/DX2                !
 ! A11   A(3,5,15)             120.6357         estimate D2E/DX2                !
 ! A12   A(6,5,15)             118.3786         estimate D2E/DX2                !
 ! A13   A(5,6,7)              110.2206         estimate D2E/DX2                !
 ! A14   A(5,6,16)             109.5905         estimate D2E/DX2                !
 ! A15   A(5,6,17)             109.845          estimate D2E/DX2                !
 ! A16   A(7,6,16)             110.0151         estimate D2E/DX2                !
 ! A17   A(7,6,17)             109.9904         estimate D2E/DX2                !
 ! A18   A(16,6,17)            107.1264         estimate D2E/DX2                !
 ! A19   A(6,7,8)              111.1466         estimate D2E/DX2                !
 ! A20   A(6,7,18)             109.2822         estimate D2E/DX2                !
 ! A21   A(6,7,19)             109.285          estimate D2E/DX2                !
 ! A22   A(8,7,18)             110.0594         estimate D2E/DX2                !
 ! A23   A(8,7,19)             110.1181         estimate D2E/DX2                !
 ! A24   A(18,7,19)            106.847          estimate D2E/DX2                !
 ! A25   A(7,8,20)             111.0486         estimate D2E/DX2                !
 ! A26   A(7,8,21)             111.1657         estimate D2E/DX2                !
 ! A27   A(7,8,22)             111.0594         estimate D2E/DX2                !
 ! A28   A(20,8,21)            107.8032         estimate D2E/DX2                !
 ! A29   A(20,8,22)            107.7999         estimate D2E/DX2                !
 ! A30   A(21,8,22)            107.8082         estimate D2E/DX2                !
 ! A31   A(1,9,10)             119.3663         estimate D2E/DX2                !
 ! A32   A(1,9,23)             120.9628         estimate D2E/DX2                !
 ! A33   A(10,9,23)            119.6704         estimate D2E/DX2                !
 ! A34   A(9,10,11)            122.2761         estimate D2E/DX2                !
 ! A35   A(9,10,24)            117.1788         estimate D2E/DX2                !
 ! A36   A(11,10,24)           120.5446         estimate D2E/DX2                !
 ! A37   A(10,11,12)           117.8769         estimate D2E/DX2                !
 ! A38   A(10,11,25)           121.9534         estimate D2E/DX2                !
 ! A39   A(12,11,25)           120.1698         estimate D2E/DX2                !
 ! A40   A(11,12,13)           120.9661         estimate D2E/DX2                !
 ! A41   A(11,12,26)           119.7001         estimate D2E/DX2                !
 ! A42   A(13,12,26)           119.3334         estimate D2E/DX2                !
 ! A43   A(1,13,12)            120.7783         estimate D2E/DX2                !
 ! A44   A(1,13,27)            119.3423         estimate D2E/DX2                !
 ! A45   A(12,13,27)           119.8793         estimate D2E/DX2                !
 ! A46   A(11,25,28)           111.944          estimate D2E/DX2                !
 ! A47   A(11,25,29)           112.742          estimate D2E/DX2                !
 ! A48   A(11,25,30)           112.8058         estimate D2E/DX2                !
 ! A49   A(28,25,29)           106.3786         estimate D2E/DX2                !
 ! A50   A(28,25,30)           106.3577         estimate D2E/DX2                !
 ! A51   A(29,25,30)           106.1126         estimate D2E/DX2                !
 ! A52   A(14,31,33)           120.3889         estimate D2E/DX2                !
 ! A53   A(15,32,33)           111.0156         estimate D2E/DX2                !
 ! A54   A(31,33,32)           124.0077         estimate D2E/DX2                !
 ! A55   A(31,33,34)           116.6544         estimate D2E/DX2                !
 ! A56   A(32,33,34)           119.3378         estimate D2E/DX2                !
 ! A57   A(33,34,35)           115.0742         estimate D2E/DX2                !
 ! A58   A(33,34,36)           106.8061         estimate D2E/DX2                !
 ! A59   A(33,34,37)           107.0127         estimate D2E/DX2                !
 ! A60   A(35,34,36)           110.8173         estimate D2E/DX2                !
 ! A61   A(35,34,37)           110.9061         estimate D2E/DX2                !
 ! A62   A(36,34,37)           105.6985         estimate D2E/DX2                !
 ! A63   A(34,35,38)           111.3567         estimate D2E/DX2                !
 ! A64   A(34,35,39)           110.5574         estimate D2E/DX2                !
 ! A65   A(34,35,40)           111.2769         estimate D2E/DX2                !
 ! A66   A(38,35,39)           107.8486         estimate D2E/DX2                !
 ! A67   A(38,35,40)           107.7765         estimate D2E/DX2                !
 ! A68   A(39,35,40)           107.8728         estimate D2E/DX2                !
 ! A69   L(2,14,31,5,-1)       182.8455         estimate D2E/DX2                !
 ! A70   L(5,15,32,7,-1)       174.0363         estimate D2E/DX2                !
 ! A71   L(2,14,31,5,-2)       176.563          estimate D2E/DX2                !
 ! A72   L(5,15,32,7,-2)       179.6027         estimate D2E/DX2                !
 ! D1    D(9,1,2,3)              9.6396         estimate D2E/DX2                !
 ! D2    D(9,1,2,14)          -175.924          estimate D2E/DX2                !
 ! D3    D(13,1,2,3)          -171.5229         estimate D2E/DX2                !
 ! D4    D(13,1,2,14)            2.9135         estimate D2E/DX2                !
 ! D5    D(2,1,9,10)           179.2828         estimate D2E/DX2                !
 ! D6    D(2,1,9,23)            -0.4596         estimate D2E/DX2                !
 ! D7    D(13,1,9,10)            0.4654         estimate D2E/DX2                !
 ! D8    D(13,1,9,23)         -179.277          estimate D2E/DX2                !
 ! D9    D(2,1,13,12)         -179.2523         estimate D2E/DX2                !
 ! D10   D(2,1,13,27)            0.8658         estimate D2E/DX2                !
 ! D11   D(9,1,13,12)           -0.3465         estimate D2E/DX2                !
 ! D12   D(9,1,13,27)          179.7716         estimate D2E/DX2                !
 ! D13   D(1,2,3,4)              1.6088         estimate D2E/DX2                !
 ! D14   D(1,2,3,5)           -178.9356         estimate D2E/DX2                !
 ! D15   D(14,2,3,4)          -172.7753         estimate D2E/DX2                !
 ! D16   D(14,2,3,5)             6.6804         estimate D2E/DX2                !
 ! D17   D(1,2,31,33)          167.6968         estimate D2E/DX2                !
 ! D18   D(3,2,31,33)          -19.2534         estimate D2E/DX2                !
 ! D19   D(2,3,5,6)            179.6433         estimate D2E/DX2                !
 ! D20   D(2,3,5,15)             4.863          estimate D2E/DX2                !
 ! D21   D(4,3,5,6)             -0.8974         estimate D2E/DX2                !
 ! D22   D(4,3,5,15)          -175.6777         estimate D2E/DX2                !
 ! D23   D(3,5,6,7)           -179.8101         estimate D2E/DX2                !
 ! D24   D(3,5,6,16)            58.9751         estimate D2E/DX2                !
 ! D25   D(3,5,6,17)           -58.4608         estimate D2E/DX2                !
 ! D26   D(15,5,6,7)            -4.9143         estimate D2E/DX2                !
 ! D27   D(15,5,6,16)         -126.1292         estimate D2E/DX2                !
 ! D28   D(15,5,6,17)          116.4349         estimate D2E/DX2                !
 ! D29   D(3,5,32,33)          -25.4227         estimate D2E/DX2                !
 ! D30   D(6,5,32,33)          159.3856         estimate D2E/DX2                !
 ! D31   D(5,6,7,8)           -179.7581         estimate D2E/DX2                !
 ! D32   D(5,6,7,18)            58.578          estimate D2E/DX2                !
 ! D33   D(5,6,7,19)           -58.0187         estimate D2E/DX2                !
 ! D34   D(16,6,7,8)           -58.7968         estimate D2E/DX2                !
 ! D35   D(16,6,7,18)          179.5392         estimate D2E/DX2                !
 ! D36   D(16,6,7,19)           62.9426         estimate D2E/DX2                !
 ! D37   D(17,6,7,8)            58.9793         estimate D2E/DX2                !
 ! D38   D(17,6,7,18)          -62.6846         estimate D2E/DX2                !
 ! D39   D(17,6,7,19)         -179.2813         estimate D2E/DX2                !
 ! D40   D(6,7,8,20)           -59.8651         estimate D2E/DX2                !
 ! D41   D(6,7,8,21)          -179.8856         estimate D2E/DX2                !
 ! D42   D(6,7,8,22)            60.0803         estimate D2E/DX2                !
 ! D43   D(18,7,8,20)           61.3444         estimate D2E/DX2                !
 ! D44   D(18,7,8,21)          -58.6762         estimate D2E/DX2                !
 ! D45   D(18,7,8,22)         -178.7102         estimate D2E/DX2                !
 ! D46   D(19,7,8,20)          178.8823         estimate D2E/DX2                !
 ! D47   D(19,7,8,21)           58.8618         estimate D2E/DX2                !
 ! D48   D(19,7,8,22)          -61.1723         estimate D2E/DX2                !
 ! D49   D(1,9,10,11)           -0.2011         estimate D2E/DX2                !
 ! D50   D(1,9,10,24)         -179.9491         estimate D2E/DX2                !
 ! D51   D(23,9,10,11)         179.5447         estimate D2E/DX2                !
 ! D52   D(23,9,10,24)          -0.2033         estimate D2E/DX2                !
 ! D53   D(9,10,11,12)          -0.1911         estimate D2E/DX2                !
 ! D54   D(9,10,11,25)         179.7944         estimate D2E/DX2                !
 ! D55   D(24,10,11,12)        179.5486         estimate D2E/DX2                !
 ! D56   D(24,10,11,25)         -0.4659         estimate D2E/DX2                !
 ! D57   D(10,11,12,13)          0.3159         estimate D2E/DX2                !
 ! D58   D(10,11,12,26)       -179.9073         estimate D2E/DX2                !
 ! D59   D(25,11,12,13)       -179.67           estimate D2E/DX2                !
 ! D60   D(25,11,12,26)          0.1069         estimate D2E/DX2                !
 ! D61   D(10,11,25,28)       -179.4965         estimate D2E/DX2                !
 ! D62   D(10,11,25,29)        -59.5947         estimate D2E/DX2                !
 ! D63   D(10,11,25,30)         60.5837         estimate D2E/DX2                !
 ! D64   D(12,11,25,28)          0.4887         estimate D2E/DX2                !
 ! D65   D(12,11,25,29)        120.3905         estimate D2E/DX2                !
 ! D66   D(12,11,25,30)       -119.4311         estimate D2E/DX2                !
 ! D67   D(11,12,13,1)          -0.049          estimate D2E/DX2                !
 ! D68   D(11,12,13,27)        179.8322         estimate D2E/DX2                !
 ! D69   D(26,12,13,1)        -179.8267         estimate D2E/DX2                !
 ! D70   D(26,12,13,27)          0.0546         estimate D2E/DX2                !
 ! D71   D(14,31,33,32)         -1.8651         estimate D2E/DX2                !
 ! D72   D(14,31,33,34)        178.2903         estimate D2E/DX2                !
 ! D73   D(15,32,33,31)         14.949          estimate D2E/DX2                !
 ! D74   D(15,32,33,34)       -165.2103         estimate D2E/DX2                !
 ! D75   D(31,33,34,35)       -177.0455         estimate D2E/DX2                !
 ! D76   D(31,33,34,36)         59.5058         estimate D2E/DX2                !
 ! D77   D(31,33,34,37)        -53.3241         estimate D2E/DX2                !
 ! D78   D(32,33,34,35)          3.1023         estimate D2E/DX2                !
 ! D79   D(32,33,34,36)       -120.3464         estimate D2E/DX2                !
 ! D80   D(32,33,34,37)        126.8237         estimate D2E/DX2                !
 ! D81   D(33,34,35,38)        -60.4473         estimate D2E/DX2                !
 ! D82   D(33,34,35,39)        179.6764         estimate D2E/DX2                !
 ! D83   D(33,34,35,40)         59.8221         estimate D2E/DX2                !
 ! D84   D(36,34,35,38)         60.8452         estimate D2E/DX2                !
 ! D85   D(36,34,35,39)        -59.0311         estimate D2E/DX2                !
 ! D86   D(36,34,35,40)       -178.8854         estimate D2E/DX2                !
 ! D87   D(37,34,35,38)        177.917          estimate D2E/DX2                !
 ! D88   D(37,34,35,39)         58.0408         estimate D2E/DX2                !
 ! D89   D(37,34,35,40)        -61.8136         estimate D2E/DX2                !
 --------------------------------------------------------------------------------
 Trust Radius=3.00D-01 FncErr=1.00D-07 GrdErr=1.00D-06
 Number of steps in this run=    212 maximum allowed number of steps=    240.
 GradGradGradGradGradGradGradGradGradGradGradGradGradGradGradGradGradGrad

                          Input orientation:                          
 ---------------------------------------------------------------------
 Center     Atomic      Atomic             Coordinates (Angstroms)
 Number     Number       Type             X           Y           Z
 ---------------------------------------------------------------------
      1          6           0       -6.313586    1.152058   -0.043119
      2          7           0       -5.048490    0.587607   -0.035565
      3          6           0       -3.832631    1.239851    0.066385
      4          8           0       -3.726996    2.465818    0.197051
      5          7           0       -2.768735    0.418191    0.022298
      6          6           0       -1.415002    0.946663    0.109055
      7          6           0       -0.402867   -0.185357    0.030566
      8          6           0        1.022630    0.344275    0.125428
      9          6           0       -6.566227    2.528572   -0.139104
     10          6           0       -7.875536    2.979428   -0.152109
     11          6           0       -8.962605    2.110572   -0.076937
     12          6           0       -8.699944    0.743045    0.009860
     13          6           0       -7.403832    0.268463    0.027280
     14          1           0       -5.022004   -0.442141   -0.025598
     15          1           0       -2.889887   -0.583318   -0.152576
     16          1           0       -1.293909    1.492786    1.049501
     17          1           0       -1.241931    1.660409   -0.702815
     18          1           0       -0.539878   -0.728121   -0.909949
     19          1           0       -0.594248   -0.898066    0.838891
     20          1           0        1.236635    1.043370   -0.687286
     21          1           0        1.749602   -0.467996    0.067089
     22          1           0        1.184189    0.870347    1.070002
     23          1           0       -5.756965    3.237617   -0.206831
     24         17           0       -8.124497    4.705105   -0.274844
     25          6           0      -10.373986    2.605796   -0.087029
     26          1           0       -9.522562    0.041408    0.068157
     27          1           0       -7.219967   -0.797446    0.097912
     28          9           0      -11.257746    1.602039    0.004765
     29          9           0      -10.640137    3.440937    0.935793
     30          9           0      -10.682380    3.281247   -1.211197
     31          8           0       -5.069098   -2.256450    0.090592
     32          8           0       -2.918081   -2.444681   -0.455358
     33          6           0       -4.025368   -2.938768   -0.123230
     34          6           0       -4.151357   -4.449690    0.036478
     35          6           0       -2.860184   -5.228314   -0.159951
     36          1           0       -4.916637   -4.780175   -0.672833
     37          1           0       -4.570196   -4.632667    1.030366
     38          1           0       -2.454968   -5.079781   -1.162776
     39          1           0       -3.032954   -6.298079   -0.023780
     40          1           0       -2.097396   -4.918093    0.557156
 ---------------------------------------------------------------------
                    Distance matrix (angstroms):
                    1          2          3          4          5
     1  C    0.000000
     2  N    1.385327   0.000000
     3  C    2.484922   1.383520   0.000000
     4  O    2.911029   2.308275   1.237428   0.000000
     5  N    3.620609   2.286774   1.344970   2.267505   0.000000
     6  C    4.905249   3.654049   2.435715   2.767831   1.455817
     7  C    6.060587   4.709954   3.714268   4.255148   2.441653
     8  C    7.382479   6.078127   4.937520   5.202406   3.793488
     9  C    1.402794   2.466088   3.029122   2.859750   4.347495
    10  C    2.406418   3.704940   4.406694   4.194770   5.715748
    11  C    2.817302   4.200170   5.205317   5.254794   6.421684
    12  C    2.421736   3.655043   4.892928   5.266232   5.940112
    13  C    1.405110   2.377696   3.701162   4.286760   4.637518
    14  H    2.051819   1.030136   2.062077   3.191056   2.412402
    15  H    3.839951   2.458521   2.064135   3.181229   1.023855
    16  H    5.148501   4.011682   2.734154   2.755607   2.094041
    17  H    5.139582   4.010738   2.735007   2.762968   2.097624
    18  H    6.133692   4.777371   3.958329   4.645903   2.674120
    19  H    6.139363   4.776209   3.956587   4.641313   2.669784
    20  H    7.578430   6.335239   5.128750   5.238611   4.115500
    21  H    8.225067   6.880327   5.837643   6.214281   4.604639
    22  H    7.585184   6.336285   5.129548   5.237108   4.114332
    23  H    2.164759   2.748421   2.787252   2.208974   4.114751
    24  Cl   3.994651   5.145179   5.526712   4.957329   6.866595
    25  C    4.313019   5.695318   6.684210   6.654530   7.914380
    26  H    3.397566   4.508482   5.814773   6.283547   6.764485
    27  H    2.154526   2.579050   3.952925   4.781167   4.614862
    28  F    4.964825   6.291705   7.434198   7.582564   8.571179
    29  F    4.991620   6.352286   7.207134   7.020549   8.481181
    30  F    4.998421   6.354410   7.260756   7.143211   8.505550
    31  O    3.631055   2.846928   3.708579   4.910436   3.528461
    32  O    4.963459   3.729563   3.832022   5.019261   2.906285
    33  C    4.687986   3.672844   4.187356   5.422282   3.587405
    34  C    6.005094   5.117070   5.698540   6.930376   5.060446
    35  C    7.255948   6.215231   6.544772   7.751031   5.650185
    36  H    6.126940   5.407086   6.161349   7.394346   5.667424
    37  H    6.136353   5.349415   5.996643   7.196797   5.456430
    38  H    7.414741   6.333739   6.583809   7.771953   5.632987
    39  H    8.140483   7.174622   7.580765   8.794108   6.721623
    40  H    7.415074   6.274791   6.416554   7.570165   5.404876
                    6          7          8          9         10
     6  C    0.000000
     7  C    1.520542   0.000000
     8  C    2.511014   1.523663   0.000000
     9  C    5.394362   6.736558   7.901385   0.000000
    10  C    6.777820   8.117267   9.284311   1.384821   0.000000
    11  C    7.639083   8.862954  10.142272   2.433354   1.393657
    12  C    7.288462   8.348883   9.731435   2.786224   2.388994
    13  C    6.027663   7.015660   8.427375   2.416063   2.757539
    14  H    3.867476   4.626610   6.097447   3.350022   4.457105
    15  H    2.141163   2.525309   4.030571   4.816588   6.127794
    16  H    1.094235   2.156003   2.745786   5.502997   6.853596
    17  H    1.094769   2.156091   2.747078   5.423984   6.785853
    18  H    2.146885   1.094501   2.159506   6.893268   8.254219
    19  H    2.146934   1.094519   2.160263   6.954341   8.308682
    20  H    2.770323   2.170955   1.093177   7.961846   9.330938
    21  H    3.466662   2.171253   1.091639   8.841660  10.226244
    22  H    2.772190   2.171102   1.093194   8.017518   9.381918
    23  H    4.919440   6.359204   7.378667   1.078071   2.134948
    24  Cl   7.700038   9.145134  10.141351   2.680285   1.747857
    25  C    9.113428  10.355076  11.620778   3.808898   2.527071
    26  H    8.158045   9.122592  10.549696   3.868961   3.375378
    27  H    6.061325   6.844855   8.321339   3.397933   3.841492
    28  F    9.865090  11.001084  12.345208   4.784298   3.655291
    29  F    9.592080  10.898217  12.094054   4.310980   3.006582
    30  F    9.647676  10.919145  12.141649   4.319562   3.015151
    31  O    4.859289   5.105560   6.623755   5.019023   5.945538
    32  O    3.752203   3.415695   4.862591   6.175940   7.354542
    33  C    4.686634   4.552740   6.026814   6.028932   7.060430
    34  C    6.050912   5.677654   7.054088   7.386378   8.312454
    35  C    6.347540   5.613032   6.797900   8.596771   9.618776
    36  H    6.757919   6.479293   7.884928   7.511577   8.320918
    37  H    6.475569   6.176148   7.541126   7.525633   8.382573
    38  H    6.246369   5.439722   6.570658   8.708467   9.764982
    39  H    7.424399   6.654749   7.784015   9.508264  10.466098
    40  H    5.921302   5.054455   6.132982   8.712523   9.811259
                   11         12         13         14         15
    11  C    0.000000
    12  C    1.395226   0.000000
    13  C    2.415367   1.380376   0.000000
    14  H    4.695457   3.864346   2.486133   0.000000
    15  H    6.643844   5.961744   4.597127   2.140555   0.000000
    16  H    7.775565   7.516137   6.314670   4.335719   2.881378
    17  H    7.759070   7.547941   6.359212   4.378160   2.837751
    18  H    8.927173   8.342485   6.998960   4.577479   2.473282
    19  H    8.939800   8.311609   6.956287   4.534338   2.520324
    20  H   10.273068   9.965531   8.704525   6.466462   4.467685
    21  H   11.019126  10.519644   9.183099   6.772290   4.646118
    22  H   10.286449   9.941639   8.672003   6.437374   4.495101
    23  H    3.400475   3.864061   3.403359   3.756811   4.777302
    24  Cl   2.733714   4.013741   4.504934   6.015125   7.442010
    25  C    1.495776   2.506321   3.781271   6.159335   8.135508
    26  H    2.148498   1.082771   2.131254   4.527432   6.665687
    27  H    3.394691   2.138036   1.083955   2.229919   4.342601
    28  F    2.352223   2.698193   4.078184   6.562322   8.649948
    29  F    2.368460   3.449684   4.622083   6.896809   8.800315
    30  F    2.369526   3.444344   4.621642   6.878163   8.762334
    31  O    5.853063   4.710258   3.439502   1.818636   2.758163
    32  O    7.578245   6.618759   5.264604   2.936214   1.886040
    33  C    7.062172   5.951900   4.660794   2.689974   2.615019
    34  C    8.136216   6.903250   5.730589   4.101504   4.071349
    35  C    9.544929   8.353967   7.134027   5.253472   4.645097
    36  H    8.012948   6.729446   5.671423   4.387318   4.689562
    37  H    8.123463   6.855256   5.749500   4.345078   4.540928
    38  H    9.758563   8.618590   7.383170   5.421306   4.629022
    39  H   10.289266   9.038436   7.888387   6.184524   5.718002
    40  H    9.845572   8.714451   7.439045   5.378390   4.463411
                   16         17         18         19         20
    16  H    0.000000
    17  H    1.761082   0.000000
    18  H    3.056212   2.498171   0.000000
    19  H    2.500011   3.056493   1.757918   0.000000
    20  H    3.101944   2.554265   2.518681   3.074170   0.000000
    21  H    3.751368   3.751284   2.502796   2.504850   1.765345
    22  H    2.555156   3.106950   3.073712   2.518638   1.766564
    23  H    4.953954   4.808233   6.590861   6.697092   7.345474
    24  Cl   7.663538   7.538106   9.351458   9.452015  10.060279
    25  C    9.218367   9.201488  10.416424  10.429652  11.730644
    26  H    8.413101   8.472568   9.068489   9.010629  10.832125
    27  H    6.424083   6.512996   6.756048   6.667782   8.690181
    28  F   10.019054  10.040947  11.006318  10.984374  12.525996
    29  F    9.547784   9.704719  11.081653  10.943318  12.224582
    30  F    9.821035   9.592062  10.910369  11.110352  12.138595
    31  O    5.406323   5.533397   4.883719   4.735972   7.159341
    32  O    4.517320   4.441000   2.968010   3.076897   5.429728
    33  C    5.336181   5.407020   4.201729   4.106424   6.623009
    34  C    6.671150   6.807689   5.271488   5.090277   7.728389
    35  C    7.006367   7.097038   5.118404   4.988306   7.509729
    36  H    7.445846   7.415219   5.969203   6.003259   8.472109
    37  H    6.946625   7.326942   5.937489   5.458211   8.299820
    38  H    7.031420   6.863905   4.761139   4.995567   7.165682
    39  H    8.054426   8.185743   6.166454   5.987622   8.518597
    40  H    6.479765   6.752484   4.704692   4.301097   6.942869
                   21         22         23         24         25
    21  H    0.000000
    22  H    1.765415   0.000000
    23  H    8.375867   7.444050   0.000000
    24  Cl  11.152387  10.157047   2.786281   0.000000
    25  C   12.508131  11.744867   4.661592   3.082624   0.000000
    26  H   11.283669  10.785423   4.946827   4.880810   2.706491
    27  H    8.975670   8.623011   4.302903   5.588845   4.643716
    28  F   13.171182  12.508870   5.742689   4.418648   1.340517
    29  F   13.020754  12.101265   5.019193   3.064670   1.347018
    30  F   13.047798  12.322003   5.026965   3.073580   1.347254
    31  O    7.049382   7.059723   5.544943   7.611324   7.198252
    32  O    5.095832   5.490423   6.356849   8.846400   9.012964
    33  C    6.284204   6.562975   6.415071   8.674943   8.429024
    34  C    7.118718   7.605196   7.856963   9.984641   9.408308
    35  C    6.630408   7.420472   8.947934  11.242732  10.855221
    36  H    7.973777   8.496231   8.075165  10.020943   9.202087
    37  H    7.629695   7.962266   8.054840  10.076241   9.344940
    38  H    6.360782   7.323441   8.999784  11.343544  11.087659
    39  H    7.541284   8.388503   9.918832  12.126702  11.540093
    40  H    5.902789   6.673668   8.971717  11.385259  11.203831
                   26         27         28         29         30
    26  H    0.000000
    27  H    2.450818   0.000000
    28  F    2.334619   4.697857   0.000000
    29  F    3.682195   5.510308   2.151697   0.000000
    30  F    3.671305   5.507977   2.151592   2.153334   0.000000
    31  O    5.011387   2.599035   7.293467   8.013180   7.991851
    32  O    7.076290   4.639581   9.281038   9.808463   9.676874
    33  C    6.255975   3.852223   8.540643   9.250801   9.175405
    34  C    7.001487   4.770642   9.334088  10.255487  10.196978
    35  C    8.497605   6.221478  10.825890  11.699753  11.606227
    36  H    6.709045   4.664923   9.022275  10.145580   9.925732
    37  H    6.877409   4.753912   9.200366  10.101297  10.247607
    38  H    8.814344   6.529390  11.112999  12.000150  11.730279
    39  H    9.072627   6.913960  11.404379  12.395097  12.316134
    40  H    8.942531   6.590248  11.257409  11.958058  12.002425
                   31         32         33         34         35
    31  O    0.000000
    32  O    2.227188   0.000000
    33  C    1.265167   1.257186   0.000000
    34  C    2.378125   2.404773   1.524555   0.000000
    35  C    3.711340   2.799863   2.569246   1.520515   0.000000
    36  H    2.641069   3.081566   2.118302   1.094530   2.166304
    37  H    2.603553   3.118356   2.120594   1.093947   2.166977
    38  H    4.046703   2.767430   2.851447   2.170935   1.091751
    39  H    4.527000   3.879192   3.504247   2.161249   1.092149
    40  H    4.016595   2.795795   2.845651   2.170083   1.091937
                   36         37         38         39         40
    36  H    0.000000
    37  H    1.744324   0.000000
    38  H    2.527770   3.079606   0.000000
    39  H    2.504708   2.499586   1.765115   0.000000
    40  H    3.078963   2.533799   1.764134   1.765536   0.000000
 Stoichiometry    C14H17ClF3N2O3(1-)
 Framework group  C1[X(C14H17ClF3N2O3)]
 Deg. of freedom   114
 Full point group                 C1      NOp   1
 Largest Abelian subgroup         C1      NOp   1
 Largest concise Abelian subgroup C1      NOp   1
                         Standard orientation:                         
 ---------------------------------------------------------------------
 Center     Atomic      Atomic             Coordinates (Angstroms)
 Number     Number       Type             X           Y           Z
 ---------------------------------------------------------------------
      1          6           0       -0.669487   -0.068840   -0.021093
      2          7           0        0.702952   -0.257092   -0.010932
      3          6           0        1.392423   -1.454026   -0.089092
      4          8           0        0.836493   -2.552794   -0.211066
      5          7           0        2.729175   -1.316955   -0.032076
      6          6           0        3.600901   -2.481312   -0.093466
      7          6           0        5.057126   -2.052862   -0.004662
      8          6           0        5.989278   -3.256181   -0.072964
      9          6           0       -1.611662   -1.103355    0.078480
     10          6           0       -2.961753   -0.795218    0.072397
     11          6           0       -3.425554    0.515338   -0.025634
     12          6           0       -2.479715    1.537058   -0.115806
     13          6           0       -1.128260    1.255976   -0.114489
     14          1           0        1.269076    0.603401   -0.026280
     15          1           0        3.152964   -0.400042    0.135111
     16          1           0        3.425883   -3.021767   -1.028682
     17          1           0        3.362186   -3.167872    0.725173
     18          1           0        5.216851   -1.506859    0.930379
     19          1           0        5.279704   -1.357471   -0.820053
     20          1           0        5.793052   -3.951886    0.747112
     21          1           0        7.034772   -2.949105   -0.007211
     22          1           0        5.859256   -3.801015   -1.011752
     23          1           0       -1.299363   -2.131686    0.163574
     24         17           0       -4.085393   -2.127871    0.200751
     25          6           0       -4.885720    0.839613   -0.036066
     26          1           0       -2.807371    2.566273   -0.191650
     27          1           0       -0.408719    2.063317   -0.188095
     28          9           0       -5.105467    2.157241   -0.148120
     29          9           0       -5.541256    0.256909   -1.058410
     30          9           0       -5.516574    0.443858    1.086651
     31          8           0        2.187991    2.167643   -0.153481
     32          8           0        4.108136    1.199856    0.426863
     33          6           0        3.432192    2.199301    0.073698
     34          6           0        4.124450    3.546907   -0.096605
     35          6           0        5.629825    3.529558    0.116729
     36          1           0        3.641105    4.241010    0.598086
     37          1           0        3.876299    3.909891   -1.098295
     38          1           0        5.884487    3.203138    1.126936
     39          1           0        6.049241    4.527475   -0.028321
     40          1           0        6.121834    2.853875   -0.585912
 ---------------------------------------------------------------------
 Rotational constants (GHZ):      0.3594150      0.0934825      0.0754880
 Standard basis: 6-311+G(d) (5D, 7F)
 There are   588 symmetry adapted cartesian basis functions of A   symmetry.
 There are   565 symmetry adapted basis functions of A   symmetry.
   565 basis functions,   930 primitive gaussians,   588 cartesian basis functions
    92 alpha electrons       92 beta electrons
       nuclear repulsion energy      2080.5771157256 Hartrees.
 NAtoms=   40 NActive=   40 NUniq=   40 SFac= 1.00D+00 NAtFMM=   60 NAOKFM=F Big=F
 Integral buffers will be    131072 words long.
 Raffenetti 2 integral format.
 Two-electron integral symmetry is turned on.
 Nuclear repulsion after empirical dispersion term =     2080.5747837770 Hartrees.
 ------------------------------------------------------------------------------
 Polarizable Continuum Model (PCM)
 =================================
 Model                : PCM (using non-symmetric T matrix).
 Atomic radii         : SMD-Coulomb.
 Polarization charges : Total charges.
 Charge compensation  : None.
 Solution method      : On-the-fly selection.
 Cavity type          : VdW (van der Waals Surface) (Alpha=1.000).
 Cavity algorithm     : GePol (No added spheres)
                        Default sphere list used, NSphG=   40.
                        Lebedev-Laikov grids with approx.  5.0 points / Ang**2.
                        Smoothing algorithm: York/Karplus (Gamma=1.0000).
                        Polarization charges: spherical gaussians, with
                                              point-specific exponents (IZeta= 3).
                        Self-potential: point-specific (ISelfS= 7).
                        Self-field    : sphere-specific E.n sum rule (ISelfD= 2).
 1st derivatives      : Analytical E(r).r(x)/FMM algorithm (CHGder, D1EAlg=3).
                        Cavity 1st derivative terms included.
 Solvent              : Water, Eps=  78.355300 Eps(inf)=   1.777849
 ------------------------------------------------------------------------------
 ------------------------------------------------------------------------------
 Atomic radii for non-electrostatic terms: SMD-CDS.
 ------------------------------------------------------------------------------
 Nuclear repulsion after PCM non-electrostatic terms =     2080.5893810416 Hartrees.
 One-electron integrals computed using PRISM.
 NBasis=   565 RedAO= T EigKep=  1.44D-06  NBF=   565
 NBsUse=   563 1.00D-06 EigRej=  6.97D-07 NBFU=   563
 ExpMin= 4.38D-02 ExpMax= 1.06D+05 ExpMxC= 3.62D+03 IAcc=3 IRadAn=         5 AccDes= 0.00D+00
 Harris functional with IExCor= 1009 and IRadAn=       5 diagonalized for initial guess.
 HarFok:  IExCor= 1009 AccDes= 0.00D+00 IRadAn=         5 IDoV= 1 UseB2=F ITyADJ=14
 ICtDFT=  3500011 ScaDFX=  1.000000  1.000000  1.000000  1.000000
 FoFCou: FMM=F IPFlag=           0 FMFlag=      100000 FMFlg1=           0
         NFxFlg=           0 DoJE=T BraDBF=F KetDBF=T FulRan=T
         wScrn=  0.000000 ICntrl=     500 IOpCl=  0 I1Cent=   200000004 NGrid=           0
         NMat0=    1 NMatS0=      1 NMatT0=    0 NMatD0=    1 NMtDS0=    0 NMtDT0=    0
 Petite list used in FoFCou.
 Requested convergence on RMS density matrix=1.00D-08 within 128 cycles.
 Requested convergence on MAX density matrix=1.00D-06.
 Requested convergence on             energy=1.00D-06.
 No special actions if energy rises.
 Inv3:  Mode=1 IEnd=    29409483.
 Iteration    1 A*A^-1 deviation from unit magnitude is 7.44D-15 for   3123.
 Iteration    1 A*A^-1 deviation from orthogonality  is 3.12D-15 for   2148    669.
 Iteration    1 A^-1*A deviation from unit magnitude is 7.66D-15 for   3123.
 Iteration    1 A^-1*A deviation from orthogonality  is 1.93D-11 for   2630   1374.
 Error on total polarization charges =  0.06004
 SCF Done:  E(RM062X) =  -1638.74778293     A.U. after   15 cycles
            NFock= 15  Conv=0.48D-08     -V/T= 2.0030
 SMD-CDS (non-electrostatic) energy       (kcal/mol) =       9.16
 (included in total energy above)

 **********************************************************************

            Population analysis using the SCF density.

 **********************************************************************

 Orbital symmetries:
       Occupied  (A) (A) (A) (A) (A) (A) (A) (A) (A) (A) (A) (A)
                 (A) (A) (A) (A) (A) (A) (A) (A) (A) (A) (A) (A)
                 (A) (A) (A) (A) (A) (A) (A) (A) (A) (A) (A) (A)
                 (A) (A) (A) (A) (A) (A) (A) (A) (A) (A) (A) (A)
                 (A) (A) (A) (A) (A) (A) (A) (A) (A) (A) (A) (A)
                 (A) (A) (A) (A) (A) (A) (A) (A) (A) (A) (A) (A)
                 (A) (A) (A) (A) (A) (A) (A) (A) (A) (A) (A) (A)
                 (A) (A) (A) (A) (A) (A) (A) (A)
       Virtual   (A) (A) (A) (A) (A) (A) (A) (A) (A) (A) (A) (A)
                 (A) (A) (A) (A) (A) (A) (A) (A) (A) (A) (A) (A)
                 (A) (A) (A) (A) (A) (A) (A) (A) (A) (A) (A) (A)
                 (A) (A) (A) (A) (A) (A) (A) (A) (A) (A) (A) (A)
                 (A) (A) (A) (A) (A) (A) (A) (A) (A) (A) (A) (A)
                 (A) (A) (A) (A) (A) (A) (A) (A) (A) (A) (A) (A)
                 (A) (A) (A) (A) (A) (A) (A) (A) (A) (A) (A) (A)
                 (A) (A) (A) (A) (A) (A) (A) (A) (A) (A) (A) (A)
                 (A) (A) (A) (A) (A) (A) (A) (A) (A) (A) (A) (A)
                 (A) (A) (A) (A) (A) (A) (A) (A) (A) (A) (A) (A)
                 (A) (A) (A) (A) (A) (A) (A) (A) (A) (A) (A) (A)
                 (A) (A) (A) (A) (A) (A) (A) (A) (A) (A) (A) (A)
                 (A) (A) (A) (A) (A) (A) (A) (A) (A) (A) (A) (A)
                 (A) (A) (A) (A) (A) (A) (A) (A) (A) (A) (A) (A)
                 (A) (A) (A) (A) (A) (A) (A) (A) (A) (A) (A) (A)
                 (A) (A) (A) (A) (A) (A) (A) (A) (A) (A) (A) (A)
                 (A) (A) (A) (A) (A) (A) (A) (A) (A) (A) (A) (A)
                 (A) (A) (A) (A) (A) (A) (A) (A) (A) (A) (A) (A)
                 (A) (A) (A) (A) (A) (A) (A) (A) (A) (A) (A) (A)
                 (A) (A) (A) (A) (A) (A) (A) (A) (A) (A) (A) (A)
                 (A) (A) (A) (A) (A) (A) (A) (A) (A) (A) (A) (A)
                 (A) (A) (A) (A) (A) (A) (A) (A) (A) (A) (A) (A)
                 (A) (A) (A) (A) (A) (A) (A) (A) (A) (A) (A) (A)
                 (A) (A) (A) (A) (A) (A) (A) (A) (A) (A) (A) (A)
                 (A) (A) (A) (A) (A) (A) (A) (A) (A) (A) (A) (A)
                 (A) (A) (A) (A) (A) (A) (A) (A) (A) (A) (A) (A)
                 (A) (A) (A) (A) (A) (A) (A) (A) (A) (A) (A) (A)
                 (A) (A) (A) (A) (A) (A) (A) (A) (A) (A) (A) (A)
                 (A) (A) (A) (A) (A) (A) (A) (A) (A) (A) (A) (A)
                 (A) (A) (A) (A) (A) (A) (A) (A) (A) (A) (A) (A)
                 (A) (A) (A) (A) (A) (A) (A) (A) (A) (A) (A) (A)
                 (A) (A) (A) (A) (A) (A) (A) (A) (A) (A) (A) (A)
                 (A) (A) (A) (A) (A) (A) (A) (A) (A) (A) (A) (A)
                 (A) (A) (A) (A) (A) (A) (A) (A) (A) (A) (A) (A)
                 (A) (A) (A) (A) (A) (A) (A) (A) (A) (A) (A) (A)
                 (A) (A) (A) (A) (A) (A) (A) (A) (A) (A) (A) (A)
                 (A) (A) (A) (A) (A) (A) (A) (A) (A) (A) (A) (A)
                 (A) (A) (A) (A) (A) (A) (A) (A) (A) (A) (A) (A)
                 (A) (A) (A) (A) (A) (A) (A) (A) (A) (A) (A) (A)
                 (A) (A) (A)
 The electronic state is 1-A.
 Alpha  occ. eigenvalues -- -102.68714 -25.28490 -25.28040 -25.28038 -19.59417
 Alpha  occ. eigenvalues --  -19.57915 -19.57628 -14.77496 -14.75614 -10.81014
 Alpha  occ. eigenvalues --  -10.67676 -10.63870 -10.62721 -10.61212 -10.57730
 Alpha  occ. eigenvalues --  -10.56654 -10.56129 -10.55668 -10.55185 -10.52685
 Alpha  occ. eigenvalues --  -10.52467 -10.51547 -10.51352  -9.83002  -7.55513
 Alpha  occ. eigenvalues --   -7.54842  -7.54824  -1.47595  -1.38259  -1.37825
 Alpha  occ. eigenvalues --   -1.17956  -1.16703  -1.06867  -1.05977  -1.02776
 Alpha  occ. eigenvalues --   -1.00863  -0.94739  -0.89654  -0.87277  -0.85744
 Alpha  occ. eigenvalues --   -0.84826  -0.81457  -0.77601  -0.73549  -0.72412
 Alpha  occ. eigenvalues --   -0.72015  -0.69942  -0.69621  -0.68100  -0.67191
 Alpha  occ. eigenvalues --   -0.66331  -0.62827  -0.61031  -0.58918  -0.58241
 Alpha  occ. eigenvalues --   -0.58173  -0.55794  -0.55493  -0.54585  -0.54150
 Alpha  occ. eigenvalues --   -0.53945  -0.53451  -0.52942  -0.52761  -0.52079
 Alpha  occ. eigenvalues --   -0.51916  -0.51620  -0.50786  -0.50185  -0.49651
 Alpha  occ. eigenvalues --   -0.48379  -0.46568  -0.46203  -0.45628  -0.45495
 Alpha  occ. eigenvalues --   -0.44328  -0.43096  -0.42352  -0.41770  -0.41461
 Alpha  occ. eigenvalues --   -0.39700  -0.39461  -0.39031  -0.38992  -0.38085
 Alpha  occ. eigenvalues --   -0.35875  -0.33993  -0.32955  -0.32595  -0.32483
 Alpha  occ. eigenvalues --   -0.31504  -0.27770
 Alpha virt. eigenvalues --   -0.00530   0.00308   0.01239   0.02096   0.02611
 Alpha virt. eigenvalues --    0.03189   0.03369   0.03452   0.04376   0.04592
 Alpha virt. eigenvalues --    0.04865   0.05112   0.05664   0.05849   0.06091
 Alpha virt. eigenvalues --    0.06654   0.07028   0.07265   0.07657   0.07814
 Alpha virt. eigenvalues --    0.07921   0.08162   0.08837   0.09131   0.09502
 Alpha virt. eigenvalues --    0.09725   0.09928   0.10132   0.10291   0.10972
 Alpha virt. eigenvalues --    0.11308   0.12085   0.12173   0.12484   0.12933
 Alpha virt. eigenvalues --    0.13045   0.13582   0.13820   0.14470   0.15030
 Alpha virt. eigenvalues --    0.15280   0.15739   0.16293   0.16740   0.17378
 Alpha virt. eigenvalues --    0.17678   0.18252   0.18343   0.18591   0.19271
 Alpha virt. eigenvalues --    0.19910   0.20061   0.20310   0.20593   0.20673
 Alpha virt. eigenvalues --    0.21123   0.21313   0.21403   0.21906   0.22279
 Alpha virt. eigenvalues --    0.22503   0.22742   0.23057   0.23543   0.23885
 Alpha virt. eigenvalues --    0.24030   0.24245   0.24745   0.25020   0.25251
 Alpha virt. eigenvalues --    0.25431   0.25933   0.26131   0.26484   0.26708
 Alpha virt. eigenvalues --    0.27056   0.27431   0.27536   0.28098   0.28222
 Alpha virt. eigenvalues --    0.28453   0.28711   0.28892   0.29186   0.29575
 Alpha virt. eigenvalues --    0.29821   0.30203   0.30775   0.31036   0.31543
 Alpha virt. eigenvalues --    0.31738   0.32149   0.32300   0.32914   0.33073
 Alpha virt. eigenvalues --    0.33297   0.33634   0.33908   0.34214   0.34344
 Alpha virt. eigenvalues --    0.34615   0.34883   0.36036   0.36395   0.36696
 Alpha virt. eigenvalues --    0.37099   0.37833   0.38066   0.38846   0.39223
 Alpha virt. eigenvalues --    0.39416   0.39831   0.40049   0.40344   0.41054
 Alpha virt. eigenvalues --    0.42734   0.43027   0.43070   0.43600   0.43981
 Alpha virt. eigenvalues --    0.44661   0.44919   0.45470   0.46103   0.46794
 Alpha virt. eigenvalues --    0.47672   0.48631   0.49383   0.49679   0.49817
 Alpha virt. eigenvalues --    0.50197   0.50388   0.51269   0.51737   0.52526
 Alpha virt. eigenvalues --    0.53514   0.54067   0.55170   0.55759   0.56263
 Alpha virt. eigenvalues --    0.56372   0.57353   0.57698   0.58059   0.59403
 Alpha virt. eigenvalues --    0.59758   0.61223   0.61875   0.61981   0.63028
 Alpha virt. eigenvalues --    0.63459   0.63856   0.65199   0.66161   0.66373
 Alpha virt. eigenvalues --    0.67236   0.67741   0.68540   0.68928   0.69870
 Alpha virt. eigenvalues --    0.69981   0.70568   0.71182   0.71590   0.71837
 Alpha virt. eigenvalues --    0.72498   0.73147   0.73247   0.73967   0.74285
 Alpha virt. eigenvalues --    0.74926   0.75122   0.75725   0.75983   0.76365
 Alpha virt. eigenvalues --    0.76768   0.77673   0.78587   0.79040   0.79610
 Alpha virt. eigenvalues --    0.80126   0.80592   0.81386   0.81716   0.82253
 Alpha virt. eigenvalues --    0.85091   0.85604   0.86743   0.88658   0.89665
 Alpha virt. eigenvalues --    0.90686   0.91131   0.92493   0.93077   0.94593
 Alpha virt. eigenvalues --    0.94965   0.95638   0.96402   0.96579   0.96898
 Alpha virt. eigenvalues --    0.97666   0.98306   0.99235   1.00972   1.01408
 Alpha virt. eigenvalues --    1.03366   1.04746   1.05281   1.06099   1.06572
 Alpha virt. eigenvalues --    1.07463   1.07996   1.09233   1.11102   1.11879
 Alpha virt. eigenvalues --    1.13252   1.13877   1.14538   1.16112   1.16800
 Alpha virt. eigenvalues --    1.18477   1.19306   1.19883   1.21423   1.22151
 Alpha virt. eigenvalues --    1.23726   1.24476   1.25334   1.25683   1.27092
 Alpha virt. eigenvalues --    1.27804   1.28247   1.29720   1.30525   1.32072
 Alpha virt. eigenvalues --    1.33170   1.34167   1.36414   1.37786   1.38550
 Alpha virt. eigenvalues --    1.40096   1.41351   1.43297   1.43977   1.45227
 Alpha virt. eigenvalues --    1.45899   1.47689   1.48287   1.49520   1.49778
 Alpha virt. eigenvalues --    1.50540   1.50799   1.53146   1.53409   1.53650
 Alpha virt. eigenvalues --    1.55063   1.55725   1.57429   1.57685   1.58100
 Alpha virt. eigenvalues --    1.58976   1.59969   1.61089   1.61993   1.62122
 Alpha virt. eigenvalues --    1.62883   1.63153   1.64254   1.65152   1.66231
 Alpha virt. eigenvalues --    1.68047   1.69691   1.70747   1.73980   1.75619
 Alpha virt. eigenvalues --    1.75809   1.77521   1.78131   1.79003   1.79162
 Alpha virt. eigenvalues --    1.79969   1.80790   1.80909   1.82156   1.83170
 Alpha virt. eigenvalues --    1.83857   1.85676   1.85948   1.88526   1.89301
 Alpha virt. eigenvalues --    1.89979   1.91869   1.93165   1.93620   1.95668
 Alpha virt. eigenvalues --    1.96591   1.98296   1.99721   2.00535   2.01401
 Alpha virt. eigenvalues --    2.04446   2.08140   2.09040   2.09914   2.11055
 Alpha virt. eigenvalues --    2.13757   2.16116   2.17145   2.17651   2.20559
 Alpha virt. eigenvalues --    2.23580   2.25138   2.26770   2.28059   2.31560
 Alpha virt. eigenvalues --    2.32712   2.34690   2.36661   2.37458   2.40619
 Alpha virt. eigenvalues --    2.41949   2.46543   2.47856   2.49536   2.54839
 Alpha virt. eigenvalues --    2.54991   2.56419   2.56655   2.57508   2.58691
 Alpha virt. eigenvalues --    2.59659   2.60227   2.60885   2.61355   2.62495
 Alpha virt. eigenvalues --    2.62686   2.66229   2.67048   2.68297   2.70418
 Alpha virt. eigenvalues --    2.71503   2.73357   2.76155   2.82202   2.82510
 Alpha virt. eigenvalues --    2.85858   2.86122   2.87073   2.89655   2.91140
 Alpha virt. eigenvalues --    2.93668   2.95678   2.96668   2.98075   2.98183
 Alpha virt. eigenvalues --    3.00076   3.00501   3.01526   3.02624   3.04234
 Alpha virt. eigenvalues --    3.05019   3.08267   3.09710   3.10653   3.11587
 Alpha virt. eigenvalues --    3.12850   3.16253   3.18587   3.21693   3.24359
 Alpha virt. eigenvalues --    3.25443   3.26128   3.26758   3.28964   3.30221
 Alpha virt. eigenvalues --    3.31338   3.31838   3.34328   3.36785   3.39197
 Alpha virt. eigenvalues --    3.39809   3.40701   3.41275   3.41534   3.44261
 Alpha virt. eigenvalues --    3.45209   3.45879   3.51672   3.60535   3.62380
 Alpha virt. eigenvalues --    3.67696   3.70327   3.72728   3.75493   3.78707
 Alpha virt. eigenvalues --    3.80011   3.82432   3.83757   3.84063   3.85374
 Alpha virt. eigenvalues --    3.86357   3.87218   3.88191   3.88730   3.97440
 Alpha virt. eigenvalues --    4.00233   4.00638   4.00924   4.01917   4.05166
 Alpha virt. eigenvalues --    4.06934   4.08450   4.13936   4.20567   4.21773
 Alpha virt. eigenvalues --    4.22530   4.26604   4.30947   4.63753   4.68287
 Alpha virt. eigenvalues --    4.77341   4.82220   4.92917   4.97347   5.01479
 Alpha virt. eigenvalues --    5.18432   5.19303   5.21052   5.23732   5.39214
 Alpha virt. eigenvalues --    5.41239   5.43566   5.74716   5.89953   6.01853
 Alpha virt. eigenvalues --    6.44559   6.48146   6.49603   6.52669   6.55101
 Alpha virt. eigenvalues --    6.57558   6.63699   6.85785   6.90461   9.99855
 Alpha virt. eigenvalues --   23.45887  23.61550  23.63533  23.66300  23.76282
 Alpha virt. eigenvalues --   23.81777  23.83258  23.91106  23.94120  23.95595
 Alpha virt. eigenvalues --   23.99218  24.08503  24.12801  24.20575  25.95568
 Alpha virt. eigenvalues --   26.32993  26.80124  35.64321  35.74226  50.06524
 Alpha virt. eigenvalues --   50.14959  50.15518  66.88470  66.91349  66.96903
 Alpha virt. eigenvalues --  216.10791
          Condensed to atoms (all electrons):
               1          2          3          4          5          6
     1  C   21.601784   0.066847  -0.680127  -0.115710  -0.259432  -0.587926
     2  N    0.066847   8.012906   0.505284  -0.116031  -0.517613  -0.499211
     3  C   -0.680127   0.505284   8.506237   0.623848   0.172315  -1.357732
     4  O   -0.115710  -0.116031   0.623848   8.301633  -0.175645  -0.134806
     5  N   -0.259432  -0.517613   0.172315  -0.175645   7.856881   0.527527
     6  C   -0.587926  -0.499211  -1.357732  -0.134806   0.527527   8.920673
     7  C   -0.004933   0.051735   0.309826   0.027090  -0.070848  -1.141647
     8  C   -0.014837  -0.018443  -0.279023  -0.002098  -0.046267   0.441436
     9  C    1.697648  -0.341595  -0.252760   0.159918   0.174987  -0.011838
    10  C   -5.085501  -0.052838   0.542808   0.043822   0.157049   0.087805
    11  C   -3.762890  -0.082947  -1.126006  -0.020025   0.000295  -0.094516
    12  C   -3.888765   0.212856  -0.351943  -0.000914  -0.117937  -0.062834
    13  C    0.021331   0.062161  -0.714261  -0.040873  -0.302426  -0.260251
    14  H   -0.002254   0.139708  -0.027413  -0.003332   0.036624   0.023314
    15  H   -0.034146   0.052743  -0.008168  -0.008006   0.149785  -0.018303
    16  H    0.004689   0.009926   0.073958   0.001443  -0.055400   0.334518
    17  H    0.007021   0.002252   0.001841  -0.000336  -0.056791   0.432068
    18  H   -0.000096  -0.000560   0.008281  -0.000161   0.008390  -0.073098
    19  H   -0.000028  -0.000890  -0.003976  -0.000316   0.010115  -0.067295
    20  H   -0.000093  -0.000010  -0.000690  -0.000037   0.000630  -0.044076
    21  H    0.000143   0.000013   0.007267   0.000017  -0.001696   0.088359
    22  H   -0.000096  -0.000069  -0.004813  -0.000030   0.000175  -0.038016
    23  H   -0.031093  -0.019266   0.057386  -0.002364   0.002990   0.006195
    24  Cl  -0.353471  -0.003691   0.021918   0.000332   0.003046   0.003599
    25  C   -1.880727   0.020572  -0.250121  -0.000955   0.006169  -0.006114
    26  H    0.049103  -0.002215   0.003782  -0.000016  -0.000057   0.000038
    27  H    0.077428  -0.029379  -0.013557   0.000007   0.000278  -0.000790
    28  F    0.038898  -0.000135  -0.000514   0.000002   0.000002  -0.000006
    29  F    0.044916   0.000030   0.000860   0.000001   0.000002   0.000006
    30  F    0.010948  -0.000008  -0.001097  -0.000003  -0.000001  -0.000004
    31  O   -0.195171   0.011182  -0.004399  -0.001406  -0.033126  -0.006541
    32  O    0.004961  -0.038540  -0.051490  -0.000410  -0.008146   0.059445
    33  C    0.174376  -0.003806  -0.001308  -0.000965   0.024719   0.025089
    34  C   -0.122854  -0.007940  -0.011803  -0.000699  -0.052250   0.023897
    35  C    0.007059  -0.000329   0.000498   0.000002   0.006694  -0.008559
    36  H   -0.000244   0.000110  -0.000699  -0.000001   0.000335   0.000483
    37  H    0.000969   0.000400   0.000788   0.000002  -0.000136  -0.001089
    38  H   -0.000063   0.000012   0.000218   0.000000   0.000190  -0.000464
    39  H    0.000075   0.000010   0.000069  -0.000000  -0.000057  -0.000003
    40  H   -0.000099   0.000014  -0.000695  -0.000001  -0.000055   0.001273
               7          8          9         10         11         12
     1  C   -0.004933  -0.014837   1.697648  -5.085501  -3.762890  -3.888765
     2  N    0.051735  -0.018443  -0.341595  -0.052838  -0.082947   0.212856
     3  C    0.309826  -0.279023  -0.252760   0.542808  -1.126006  -0.351943
     4  O    0.027090  -0.002098   0.159918   0.043822  -0.020025  -0.000914
     5  N   -0.070848  -0.046267   0.174987   0.157049   0.000295  -0.117937
     6  C   -1.141647   0.441436  -0.011838   0.087805  -0.094516  -0.062834
     7  C    6.723891  -0.527914  -0.041654  -0.016243  -0.000970   0.006650
     8  C   -0.527914   6.677819   0.002098   0.002739  -0.000591  -0.001234
     9  C   -0.041654   0.002098  14.777556   4.626155  -7.155549  -2.390675
    10  C   -0.016243   0.002739   4.626155  34.687103 -12.691957  -6.556937
    11  C   -0.000970  -0.000591  -7.155549 -12.691957  37.015077   1.112169
    12  C    0.006650  -0.001234  -2.390675  -6.556937   1.112169  19.534541
    13  C    0.037734  -0.008325  -4.293436  -7.875452  -0.171295  -1.846586
    14  H   -0.004372   0.000320   0.081433   0.037625   0.002845  -0.035661
    15  H   -0.025688   0.008927  -0.013746  -0.002552  -0.002013   0.000679
    16  H   -0.020484  -0.023522   0.008518   0.001365   0.000293  -0.000275
    17  H   -0.034887  -0.013741  -0.011083  -0.001210  -0.000050   0.000327
    18  H    0.458784  -0.074756   0.000651   0.000050   0.000014  -0.000037
    19  H    0.453655  -0.062141  -0.000883  -0.000053  -0.000013   0.000055
    20  H    0.044521   0.343989  -0.000011  -0.000006  -0.000000   0.000001
    21  H   -0.160469   0.416864   0.000037   0.000001   0.000000  -0.000001
    22  H    0.030599   0.356311  -0.000079  -0.000005  -0.000001   0.000001
    23  H   -0.000312   0.000077   0.312390  -0.024968   0.075159  -0.036695
    24  Cl  -0.000249   0.000041   0.277231  -1.689332   0.273323   0.377080
    25  C   -0.000176  -0.000017  -0.972519  -1.051747  -6.134265  -0.008069
    26  H    0.000000   0.000000  -0.011125  -0.023322   0.094283   0.299875
    27  H    0.000019   0.000003   0.006848   0.011432   0.019534  -0.097210
    28  F    0.000000  -0.000000  -0.014642  -0.094677  -0.207898   0.062560
    29  F   -0.000000   0.000000   0.052894  -0.107202   0.173314   0.007500
    30  F   -0.000000  -0.000000  -0.012872  -0.134137   0.171917   0.016852
    31  O   -0.001189   0.000287  -0.005192   0.003869  -0.000864   0.030278
    32  O   -0.003248   0.010774  -0.006912  -0.000021  -0.000367  -0.000965
    33  C   -0.004466  -0.016316  -0.001389   0.003557  -0.029084  -0.118608
    34  C   -0.015082   0.007160  -0.031771  -0.012866   0.010580   0.060151
    35  C    0.006257  -0.004477   0.002287   0.000781  -0.000979  -0.002264
    36  H   -0.000536  -0.000048  -0.000017  -0.000016   0.000024  -0.000203
    37  H    0.001045   0.000075   0.000146   0.000018  -0.000013  -0.000195
    38  H    0.000659   0.000354  -0.000013  -0.000002   0.000002   0.000011
    39  H   -0.000071  -0.000005   0.000006   0.000000  -0.000001  -0.000022
    40  H   -0.000644  -0.000228  -0.000019  -0.000002   0.000002   0.000001
              13         14         15         16         17         18
     1  C    0.021331  -0.002254  -0.034146   0.004689   0.007021  -0.000096
     2  N    0.062161   0.139708   0.052743   0.009926   0.002252  -0.000560
     3  C   -0.714261  -0.027413  -0.008168   0.073958   0.001841   0.008281
     4  O   -0.040873  -0.003332  -0.008006   0.001443  -0.000336  -0.000161
     5  N   -0.302426   0.036624   0.149785  -0.055400  -0.056791   0.008390
     6  C   -0.260251   0.023314  -0.018303   0.334518   0.432068  -0.073098
     7  C    0.037734  -0.004372  -0.025688  -0.020484  -0.034887   0.458784
     8  C   -0.008325   0.000320   0.008927  -0.023522  -0.013741  -0.074756
     9  C   -4.293436   0.081433  -0.013746   0.008518  -0.011083   0.000651
    10  C   -7.875452   0.037625  -0.002552   0.001365  -0.001210   0.000050
    11  C   -0.171295   0.002845  -0.002013   0.000293  -0.000050   0.000014
    12  C   -1.846586  -0.035661   0.000679  -0.000275   0.000327  -0.000037
    13  C   21.615666  -0.111072   0.011861  -0.001955   0.002758  -0.000228
    14  H   -0.111072   0.276329   0.016884  -0.000202   0.000155   0.000048
    15  H    0.011861   0.016884   0.317099   0.002625   0.000682   0.001587
    16  H   -0.001955  -0.000202   0.002625   0.442561  -0.047965   0.005842
    17  H    0.002758   0.000155   0.000682  -0.047965   0.445187  -0.008836
    18  H   -0.000228   0.000048   0.001587   0.005842  -0.008836   0.444764
    19  H    0.000458   0.000032   0.000371  -0.008515   0.005743  -0.039705
    20  H    0.000017   0.000000  -0.000021  -0.000741   0.002919  -0.007993
    21  H   -0.000013   0.000000  -0.000043  -0.000007  -0.000001  -0.003956
    22  H    0.000021   0.000000  -0.000051   0.002913  -0.000658   0.006554
    23  H   -0.021437  -0.000257   0.000003  -0.000011   0.000013  -0.000000
    24  Cl   0.489049   0.000072  -0.000034   0.000006  -0.000003   0.000000
    25  C   -0.944535   0.001106  -0.000201   0.000005   0.000002   0.000000
    26  H   -0.076212  -0.000045   0.000001  -0.000000  -0.000000   0.000000
    27  H    0.307808   0.010425  -0.000096   0.000000   0.000000  -0.000000
    28  F    0.163396  -0.000004  -0.000000   0.000000  -0.000000  -0.000000
    29  F    0.002179   0.000002  -0.000000  -0.000000   0.000000  -0.000000
    30  F    0.011807   0.000002  -0.000000   0.000000   0.000000   0.000000
    31  O    0.210492   0.051521   0.017533   0.000005  -0.000030   0.000227
    32  O   -0.000093   0.013139   0.045739  -0.000302  -0.000107  -0.001701
    33  C   -0.093021  -0.006578  -0.005372  -0.000033  -0.000073   0.003339
    34  C    0.080757   0.011906   0.027788  -0.000491   0.000061  -0.000809
    35  C   -0.004990  -0.000490  -0.003201   0.000063   0.000020   0.000442
    36  H    0.000890  -0.000136  -0.000143   0.000000  -0.000000   0.000002
    37  H   -0.000834  -0.000179   0.000075   0.000000   0.000000  -0.000000
    38  H    0.000089  -0.000006  -0.000051   0.000000   0.000000  -0.000026
    39  H   -0.000099  -0.000002   0.000028  -0.000000  -0.000000   0.000000
    40  H    0.000108  -0.000005  -0.000225  -0.000001  -0.000000  -0.000004
              19         20         21         22         23         24
     1  C   -0.000028  -0.000093   0.000143  -0.000096  -0.031093  -0.353471
     2  N   -0.000890  -0.000010   0.000013  -0.000069  -0.019266  -0.003691
     3  C   -0.003976  -0.000690   0.007267  -0.004813   0.057386   0.021918
     4  O   -0.000316  -0.000037   0.000017  -0.000030  -0.002364   0.000332
     5  N    0.010115   0.000630  -0.001696   0.000175   0.002990   0.003046
     6  C   -0.067295  -0.044076   0.088359  -0.038016   0.006195   0.003599
     7  C    0.453655   0.044521  -0.160469   0.030599  -0.000312  -0.000249
     8  C   -0.062141   0.343989   0.416864   0.356311   0.000077   0.000041
     9  C   -0.000883  -0.000011   0.000037  -0.000079   0.312390   0.277231
    10  C   -0.000053  -0.000006   0.000001  -0.000005  -0.024968  -1.689332
    11  C   -0.000013  -0.000000   0.000000  -0.000001   0.075159   0.273323
    12  C    0.000055   0.000001  -0.000001   0.000001  -0.036695   0.377080
    13  C    0.000458   0.000017  -0.000013   0.000021  -0.021437   0.489049
    14  H    0.000032   0.000000   0.000000   0.000000  -0.000257   0.000072
    15  H    0.000371  -0.000021  -0.000043  -0.000051   0.000003  -0.000034
    16  H   -0.008515  -0.000741  -0.000007   0.002913  -0.000011   0.000006
    17  H    0.005743   0.002919  -0.000001  -0.000658   0.000013  -0.000003
    18  H   -0.039705  -0.007993  -0.003956   0.006554  -0.000000   0.000000
    19  H    0.443284   0.006526  -0.004048  -0.007608  -0.000000   0.000000
    20  H    0.006526   0.447038  -0.024217  -0.036716  -0.000000   0.000000
    21  H   -0.004048  -0.024217   0.425832  -0.024030   0.000000  -0.000000
    22  H   -0.007608  -0.036716  -0.024030   0.446354  -0.000000  -0.000000
    23  H   -0.000000  -0.000000   0.000000  -0.000000   0.349205  -0.011859
    24  Cl   0.000000   0.000000  -0.000000  -0.000000  -0.011859  17.723751
    25  C   -0.000000  -0.000000   0.000000  -0.000000   0.009865  -0.495203
    26  H   -0.000000   0.000000  -0.000000   0.000000   0.000048  -0.000040
    27  H   -0.000000  -0.000000   0.000000  -0.000000  -0.000018   0.000297
    28  F   -0.000000  -0.000000   0.000000  -0.000000   0.000026   0.012187
    29  F    0.000000   0.000000   0.000000  -0.000000  -0.000063  -0.018805
    30  F   -0.000000  -0.000000  -0.000000   0.000000  -0.000045  -0.015835
    31  O   -0.000197   0.000000  -0.000001  -0.000000   0.000038   0.000179
    32  O   -0.002440   0.000035  -0.000054  -0.000007   0.000006   0.000002
    33  C    0.002192   0.000075  -0.000209   0.000172   0.000079  -0.000019
    34  C   -0.001105  -0.000010   0.000152  -0.000059   0.000005  -0.000101
    35  C    0.001646   0.000012  -0.000103   0.000041   0.000000   0.000007
    36  H    0.000002   0.000000  -0.000000   0.000000   0.000000   0.000000
    37  H    0.000001   0.000000  -0.000000   0.000000  -0.000000   0.000000
    38  H   -0.000012  -0.000000   0.000001  -0.000000   0.000000  -0.000000
    39  H   -0.000000  -0.000000  -0.000000  -0.000000  -0.000000   0.000000
    40  H   -0.000055   0.000000   0.000001  -0.000000   0.000000  -0.000000
              25         26         27         28         29         30
     1  C   -1.880727   0.049103   0.077428   0.038898   0.044916   0.010948
     2  N    0.020572  -0.002215  -0.029379  -0.000135   0.000030  -0.000008
     3  C   -0.250121   0.003782  -0.013557  -0.000514   0.000860  -0.001097
     4  O   -0.000955  -0.000016   0.000007   0.000002   0.000001  -0.000003
     5  N    0.006169  -0.000057   0.000278   0.000002   0.000002  -0.000001
     6  C   -0.006114   0.000038  -0.000790  -0.000006   0.000006  -0.000004
     7  C   -0.000176   0.000000   0.000019   0.000000  -0.000000  -0.000000
     8  C   -0.000017   0.000000   0.000003  -0.000000   0.000000  -0.000000
     9  C   -0.972519  -0.011125   0.006848  -0.014642   0.052894  -0.012872
    10  C   -1.051747  -0.023322   0.011432  -0.094677  -0.107202  -0.134137
    11  C   -6.134265   0.094283   0.019534  -0.207898   0.173314   0.171917
    12  C   -0.008069   0.299875  -0.097210   0.062560   0.007500   0.016852
    13  C   -0.944535  -0.076212   0.307808   0.163396   0.002179   0.011807
    14  H    0.001106  -0.000045   0.010425  -0.000004   0.000002   0.000002
    15  H   -0.000201   0.000001  -0.000096  -0.000000  -0.000000  -0.000000
    16  H    0.000005  -0.000000   0.000000   0.000000  -0.000000   0.000000
    17  H    0.000002  -0.000000   0.000000  -0.000000   0.000000   0.000000
    18  H    0.000000   0.000000  -0.000000  -0.000000  -0.000000   0.000000
    19  H   -0.000000  -0.000000  -0.000000  -0.000000   0.000000  -0.000000
    20  H   -0.000000   0.000000  -0.000000  -0.000000   0.000000  -0.000000
    21  H    0.000000  -0.000000   0.000000   0.000000   0.000000  -0.000000
    22  H   -0.000000   0.000000  -0.000000  -0.000000  -0.000000   0.000000
    23  H    0.009865   0.000048  -0.000018   0.000026  -0.000063  -0.000045
    24  Cl  -0.495203  -0.000040   0.000297   0.012187  -0.018805  -0.015835
    25  C   16.520516  -0.017211   0.017089   0.187186  -0.017306   0.091758
    26  H   -0.017211   0.361700  -0.002771   0.010029   0.000183   0.000085
    27  H    0.017089  -0.002771   0.355627   0.000014   0.000029   0.000033
    28  F    0.187186   0.010029   0.000014   9.055208  -0.034516  -0.034152
    29  F   -0.017306   0.000183   0.000029  -0.034516   9.008925  -0.047478
    30  F    0.091758   0.000085   0.000033  -0.034152  -0.047478   9.008227
    31  O   -0.000916   0.000059   0.004978   0.000001  -0.000001  -0.000001
    32  O   -0.000007  -0.000001   0.000391  -0.000000  -0.000000  -0.000000
    33  C   -0.003654  -0.000067   0.006364   0.000005  -0.000000  -0.000003
    34  C    0.000333   0.000068  -0.003572  -0.000001   0.000000  -0.000000
    35  C   -0.000036  -0.000000  -0.000041  -0.000000  -0.000000  -0.000000
    36  H    0.000004   0.000000  -0.000038   0.000000  -0.000000   0.000000
    37  H   -0.000001  -0.000000   0.000023  -0.000000   0.000000  -0.000000
    38  H    0.000000  -0.000000   0.000000  -0.000000   0.000000   0.000000
    39  H   -0.000000   0.000000  -0.000000  -0.000000  -0.000000  -0.000000
    40  H    0.000000   0.000000  -0.000000   0.000000   0.000000   0.000000
              31         32         33         34         35         36
     1  C   -0.195171   0.004961   0.174376  -0.122854   0.007059  -0.000244
     2  N    0.011182  -0.038540  -0.003806  -0.007940  -0.000329   0.000110
     3  C   -0.004399  -0.051490  -0.001308  -0.011803   0.000498  -0.000699
     4  O   -0.001406  -0.000410  -0.000965  -0.000699   0.000002  -0.000001
     5  N   -0.033126  -0.008146   0.024719  -0.052250   0.006694   0.000335
     6  C   -0.006541   0.059445   0.025089   0.023897  -0.008559   0.000483
     7  C   -0.001189  -0.003248  -0.004466  -0.015082   0.006257  -0.000536
     8  C    0.000287   0.010774  -0.016316   0.007160  -0.004477  -0.000048
     9  C   -0.005192  -0.006912  -0.001389  -0.031771   0.002287  -0.000017
    10  C    0.003869  -0.000021   0.003557  -0.012866   0.000781  -0.000016
    11  C   -0.000864  -0.000367  -0.029084   0.010580  -0.000979   0.000024
    12  C    0.030278  -0.000965  -0.118608   0.060151  -0.002264  -0.000203
    13  C    0.210492  -0.000093  -0.093021   0.080757  -0.004990   0.000890
    14  H    0.051521   0.013139  -0.006578   0.011906  -0.000490  -0.000136
    15  H    0.017533   0.045739  -0.005372   0.027788  -0.003201  -0.000143
    16  H    0.000005  -0.000302  -0.000033  -0.000491   0.000063   0.000000
    17  H   -0.000030  -0.000107  -0.000073   0.000061   0.000020  -0.000000
    18  H    0.000227  -0.001701   0.003339  -0.000809   0.000442   0.000002
    19  H   -0.000197  -0.002440   0.002192  -0.001105   0.001646   0.000002
    20  H    0.000000   0.000035   0.000075  -0.000010   0.000012   0.000000
    21  H   -0.000001  -0.000054  -0.000209   0.000152  -0.000103  -0.000000
    22  H   -0.000000  -0.000007   0.000172  -0.000059   0.000041   0.000000
    23  H    0.000038   0.000006   0.000079   0.000005   0.000000   0.000000
    24  Cl   0.000179   0.000002  -0.000019  -0.000101   0.000007   0.000000
    25  C   -0.000916  -0.000007  -0.003654   0.000333  -0.000036   0.000004
    26  H    0.000059  -0.000001  -0.000067   0.000068  -0.000000   0.000000
    27  H    0.004978   0.000391   0.006364  -0.003572  -0.000041  -0.000038
    28  F    0.000001  -0.000000   0.000005  -0.000001  -0.000000   0.000000
    29  F   -0.000001  -0.000000  -0.000000   0.000000  -0.000000  -0.000000
    30  F   -0.000001  -0.000000  -0.000003  -0.000000  -0.000000   0.000000
    31  O    8.630056  -0.143250   0.220403  -0.177702   0.016328  -0.004044
    32  O   -0.143250   8.513392   0.315513  -0.116899  -0.004126  -0.002086
    33  C    0.220403   0.315513   5.908187  -0.830036   0.273161  -0.046494
    34  C   -0.177702  -0.116899  -0.830036   7.113113  -0.359971   0.424550
    35  C    0.016328  -0.004126   0.273161  -0.359971   6.017970  -0.042311
    36  H   -0.004044  -0.002086  -0.046494   0.424550  -0.042311   0.420593
    37  H   -0.005626   0.004534  -0.022061   0.404797  -0.047683  -0.031439
    38  H   -0.000091  -0.001242  -0.005374  -0.032516   0.386153  -0.006873
    39  H   -0.000784   0.002229   0.049045  -0.106716   0.407115  -0.002305
    40  H   -0.000511  -0.004374  -0.033814   0.001040   0.381152   0.005352
              37         38         39         40
     1  C    0.000969  -0.000063   0.000075  -0.000099
     2  N    0.000400   0.000012   0.000010   0.000014
     3  C    0.000788   0.000218   0.000069  -0.000695
     4  O    0.000002   0.000000  -0.000000  -0.000001
     5  N   -0.000136   0.000190  -0.000057  -0.000055
     6  C   -0.001089  -0.000464  -0.000003   0.001273
     7  C    0.001045   0.000659  -0.000071  -0.000644
     8  C    0.000075   0.000354  -0.000005  -0.000228
     9  C    0.000146  -0.000013   0.000006  -0.000019
    10  C    0.000018  -0.000002   0.000000  -0.000002
    11  C   -0.000013   0.000002  -0.000001   0.000002
    12  C   -0.000195   0.000011  -0.000022   0.000001
    13  C   -0.000834   0.000089  -0.000099   0.000108
    14  H   -0.000179  -0.000006  -0.000002  -0.000005
    15  H    0.000075  -0.000051   0.000028  -0.000225
    16  H    0.000000   0.000000  -0.000000  -0.000001
    17  H    0.000000   0.000000  -0.000000  -0.000000
    18  H   -0.000000  -0.000026   0.000000  -0.000004
    19  H    0.000001  -0.000012  -0.000000  -0.000055
    20  H    0.000000  -0.000000  -0.000000   0.000000
    21  H   -0.000000   0.000001  -0.000000   0.000001
    22  H    0.000000  -0.000000  -0.000000  -0.000000
    23  H   -0.000000   0.000000  -0.000000   0.000000
    24  Cl   0.000000  -0.000000   0.000000  -0.000000
    25  C   -0.000001   0.000000  -0.000000   0.000000
    26  H   -0.000000  -0.000000   0.000000   0.000000
    27  H    0.000023   0.000000  -0.000000  -0.000000
    28  F   -0.000000  -0.000000  -0.000000   0.000000
    29  F    0.000000   0.000000  -0.000000   0.000000
    30  F   -0.000000   0.000000  -0.000000   0.000000
    31  O   -0.005626  -0.000091  -0.000784  -0.000511
    32  O    0.004534  -0.001242   0.002229  -0.004374
    33  C   -0.022061  -0.005374   0.049045  -0.033814
    34  C    0.404797  -0.032516  -0.106716   0.001040
[...]
 160,-0.00000182,-0.00000192,-0.00000442,0.00000218,0.00000055,-0.00000
 089,-0.00000079,-0.00000090,0.00000059,-0.00000270,0.00000010,-0.00000
 008,-0.00000147,-0.00000142,-0.00000116,-0.00000069,0.00000102,-0.0000
 0059,0.00000075,-0.00000265,-0.00000029,-0.00000953,0.00000216,-0.0000
 0119,0.00000136,0.00000007,-0.00000078,-0.00001484,-0.00000107,-0.0000
 0291,0.00000277,0.00000127,0.00000048,0.00000243,-0.00000176,-0.000000
 61,0.00000263,-0.00000208,0.00000257,0.00170203,0.00010734,0.00352456,
 -0.00116371,-0.00533108,0.00512555,-0.02270070,-0.00787377,-0.02696044
 ,-0.05727473,-0.07286091,-0.05765542,0.01340186,0.00523025,0.01300742,
 0.05913909,0.07893102,-0.00002656,0.00000307,-0.00000476,0.00001265,-0
 .00005524,0.00001034,-0.00000241,0.00000959,0.00000624,-0.00000150,-0.
 00001805,-0.00000657,0.00000083,-0.00002040,0.00001810,0.00000734,-0.0
 0000003,0.00000062,-0.00000221,-0.00000184,-0.00000329,0.00000073,-0.0
 0000128,0.00000018,0.00000786,-0.00000437,-0.00000016,-0.00000257,-0.0
 0000341,-0.00000055,0.00000339,0.00000026,0.00000239,-0.00000282,0.000
 00040,-0.00000018,0.00000583,0.00000485,0.00000130,-0.00000807,0.00007
 692,-0.00001484,0.00000021,0.00002380,-0.00003869,-0.00000124,-0.00000
 075,-0.00000030,-0.00000177,-0.00000169,0.00000093,-0.00000018,0.00000
 110,-0.00000049,-0.00000028,0.00000104,0.00000174,-0.00000072,-0.00000
 036,0.00000069,-0.00000041,0.00000018,0.00000008,-0.00000031,0.0000001
 5,-0.00000040,-0.00000036,0.00000038,-0.00000009,0.00000042,0.00000003
 ,0.00000009,-0.00000367,-0.00000111,-0.00000036,0.00000154,0.00000017,
 -0.00000002,-0.00000208,-0.00000296,-0.00000108,0.00000164,0.00000152,
 -0.00000031,0.00000085,-0.00000029,-0.00000034,0.00000102,-0.00000028,
 0.00000032,0.00069389,-0.00084368,0.00027783,0.00027819,0.00059770,-0.
 00142603,0.00362774,0.00330020,0.00318513,-0.12154906,-0.05518262,-0.1
 5818604,0.00463636,0.00246280,0.00399284,0.13217356,0.05930124,0.16982
 764,0.00002506,0.00000315,-0.00000115,0.00001483,0.00006748,0.00002200
 ,-0.00010082,0.00000463,-0.00000178,0.00002658,-0.00000981,-0.00000153
 ,0.00002181,-0.00011211,-0.00002366,0.00001817,-0.00000388,0.00000032,
 -0.00000260,-0.00000052,0.00001172,0.00000067,0.00000060,-0.00000394,-
 0.00000668,0.00000236,-0.00000230,0.00000475,0.00000075,-0.00000079,-0
 .00000509,-0.00000060,0.00000088,0.00000133,-0.00000012,-0.00000234,-0
 .00000274,-0.00000550,0.00000540,-0.00000114,-0.00017241,-0.00003489,-
 0.00000507,0.00013753,0.00002506,-0.00000355,-0.00000351,-0.00000167,-
 0.00000322,-0.00000129,0.00000020,-0.00000055,0.00000194,-0.00000307,-
 0.00000094,0.00000270,0.00000007,0.,-0.00000016,-0.00000004,-0.0000003
 4,-0.00000020,0.00000038,-0.00000069,-0.00000110,-0.00000053,0.0000000
 5,0.00000009,0.00000047,-0.00000018,0.00000221,0.00000007,0.00000466,-
 0.00000093,0.00000123,-0.00000035,0.00000041,0.00000008,0.00000604,-0.
 00000268,-0.00000016,-0.00000202,-0.00000052,0.00000011,-0.00000118,0.
 00000059,0.00000011,-0.00000115,0.00000086,-0.00000124,-0.00027299,0.0
 0240763,-0.00099328,0.00013979,-0.00210067,-0.00060427,-0.00438119,-0.
 00259487,0.00497520,-0.08139937,-0.01541592,0.09251740,-0.01082587,-0.
 00451619,0.02604210,0.00857507,0.00503663,-0.02036654,0.09024982,-0.00
 005915,0.00002502,-0.00000719,0.00007686,-0.00002240,0.00005763,-0.000
 23050,0.00010313,0.00001212,0.00005054,-0.00014197,-0.00002531,0.00009
 201,-0.00043170,-0.00003102,0.00008729,0.00000028,0.00000615,-0.000015
 25,-0.00000385,-0.00000364,0.00000481,0.00000062,0.00000053,0.00001305
 ,-0.00001651,0.00000279,-0.00000596,0.00000971,-0.00000406,0.00001111,
 -0.00000806,0.00000154,-0.00000444,0.00000511,-0.00000160,0.00001921,-
 0.00000185,0.00000166,-0.00003456,0.00011962,-0.00009162,0.00000423,0.
 00070873,0.00003488,-0.00001972,-0.00001367,-0.00000450,-0.00001680,-0
 .00001226,0.00000177,-0.00000057,0.00000262,-0.00001002,-0.00000467,0.
 00000271,0.00000819,-0.00000215,-0.00000232,0.00000062,-0.00000444,-0.
 00000016,0.,-0.00000257,-0.00000248,-0.00000183,-0.00000104,0.00000225
 ,0.00000064,0.00000197,-0.00000361,0.00000068,-0.00001263,0.00000475,0
 .00000267,0.00000085,-0.00000022,0.00000053,-0.00000741,0.00000598,-0.
 00000037,0.00000307,0.00000104,-0.00000075,0.00000307,-0.00000334,-0.0
 0000269,0.00000298,-0.00000187,0.00000090,-0.00033677,0.00000627,-0.00
 330382,-0.00349978,-0.00685681,-0.00276285,-0.00990084,-0.00296600,0.0
 3408773,-0.01512234,-0.05408061,0.04524161,0.00697020,0.00226447,-0.01
 747961,0.00451407,0.00173649,-0.01007576,0.01533834,0.05987514,0.00002
 461,-0.00000882,-0.00000350,-0.00002284,0.00003295,-0.00001087,0.00006
 339,-0.00002926,-0.00000498,-0.00001164,0.00003946,0.00000584,-0.00001
 492,0.00008960,0.00001657,-0.00002110,0.00000472,-0.00000191,0.0000023
 1,0.00000297,-0.00000143,-0.00000182,-0.00000121,0.00000105,-0.0000065
 8,0.00000811,0.00000318,0.00000009,-0.00000335,-0.00000008,-0.00000097
 ,0.00000516,-0.00000059,0.00000211,-0.00000084,0.00000173,-0.00000869,
 -0.00000150,-0.00000110,0.00000886,-0.00003006,0.00002026,-0.00001690,
 -0.00013781,-0.00003055,0.00000478,0.00000383,0.00000162,0.00000456,0.
 00000419,0.00000030,0.00000075,-0.00000111,0.00000483,0.00000161,-0.00
 000006,-0.00000430,0.00000119,0.00000071,-0.00000044,0.00000104,-0.000
 00025,-0.00000027,0.00000145,0.00000122,0.00000086,0.00000073,-0.00000
 075,-0.00000051,-0.00000171,-0.00000095,-0.00000014,0.00000400,0.00000
 057,-0.00000242,-0.00000143,-0.00000009,-0.00000035,0.00000065,0.00000
 149,0.00000011,-0.00000134,-0.00000164,0.00000052,-0.00000076,0.000000
 67,0.00000095,-0.00000088,-0.00000002,0.00000040,-0.00056735,-0.000101
 25,0.00159318,-0.00025923,0.00124788,-0.00012938,0.00158843,-0.0018616
 2,-0.00320509,0.09172426,0.04368908,-0.26901546,0.00056173,-0.00033451
 ,-0.00156060,0.00741175,0.00422315,-0.01953673,-0.10128288,-0.04597814
 ,0.28962804,0.00001857,-0.00000133,0.00000037,-0.00000674,0.00004770,-
 0.00000179,-0.00000615,-0.00001073,-0.00000017,0.00000351,0.00001646,0
 .00000160,-0.00000034,0.00002010,-0.00000280,-0.00000545,-0.00000269,0
 .00000068,0.00000179,-0.00000029,-0.00000189,-0.00000160,0.00000041,0.
 00000097,-0.00000489,0.00000354,0.00000042,0.00000192,-0.00000109,-0.0
 0000182,-0.00000311,0.00000193,0.00000193,0.00000167,-0.00000072,-0.00
 000202,-0.00000475,-0.00000399,0.00000072,0.00000297,-0.00007774,-0.00
 000036,-0.00000625,-0.00003715,-0.00000395,0.00000109,0.00000092,0.000
 00026,0.00000159,0.00000191,0.00000002,0.00000147,0.00000145,0.0000016
 0,0.00000186,0.00000229,-0.00000022,0.00000028,-0.00000008,-0.00000082
 ,0.00000020,0.00000028,-0.00000014,0.00000033,-0.00000010,0.00000061,0
 .00000003,-0.00000013,0.00000054,-0.00000056,0.00000165,-0.00000009,0.
 00000359,-0.00000129,0.00000123,-0.00000022,-0.00000013,0.00000041,0.0
 0000295,0.00000043,0.00000156,-0.00000088,-0.00000022,-0.00000025,-0.0
 0000096,0.00000076,0.00000011,-0.00000115,0.00000089,-0.00000126,0.000
 01569,0.00053857,-0.00030099,0.00085373,0.00022830,-0.00051850,-0.0000
 4024,-0.00184452,0.00033201,-0.01099432,-0.00438972,0.02752917,-0.0828
 2391,-0.01411691,0.08937339,0.00113426,-0.00091407,-0.00035643,-0.0043
 3438,0.00364422,0.00036353,0.08986632,0.00000364,-0.00000114,-0.000004
 01,-0.00000504,0.00000052,0.00000139,0.00001405,-0.00000811,-0.0000017
 7,-0.00000212,0.00000700,0.00000161,-0.00000595,0.00002168,0.00000373,
 -0.00000159,0.00000142,0.00000108,0.00000008,0.00000374,-0.00000480,0.
 00000109,0.00000113,0.00000069,-0.00000044,0.00000153,0.00000479,0.000
 00048,-0.00000105,-0.00000101,-0.00000116,-0.00000046,-0.00000132,-0.0
 0000051,0.00000018,0.00000116,-0.00000024,0.00000020,0.00000128,-0.000
 00110,-0.00000364,0.00000544,-0.00000364,-0.00003023,-0.00001525,-0.00
 000118,0.00000168,0.00000097,-0.00000011,0.00000118,-0.00000066,-0.000
 00087,-0.00000062,0.00000474,-0.00000162,-0.00000259,-0.00000189,0.000
 00031,-0.00000047,-0.00000064,-0.00000102,0.00000004,-0.00000014,0.000
 00066,-0.00000010,0.00000083,0.00000021,-0.00000020,-0.00000033,-0.000
 00013,0.00000022,-0.00000003,0.00000165,0.00000020,-0.00000009,-0.0000
 0002,0.00000014,-0.00000008,-0.00000048,-0.00000066,-0.00000085,-0.000
 00044,-0.00000017,0.00000012,-0.00000025,0.00000016,0.00000018,-0.0000
 0025,0.00000012,0.00000012,0.00004855,0.00001724,0.00027240,0.00030991
 ,-0.00041307,-0.00020347,-0.00061438,0.00030991,-0.00066277,0.00598342
 ,0.00220678,-0.01706723,-0.01476424,-0.05275782,0.03677203,-0.00077398
 ,0.00060431,0.00041453,0.00304008,-0.00143692,-0.00038149,0.01305878,0
 .05373811,-0.00000833,-0.00000034,0.00000133,-0.00000548,-0.00003596,0
 .00000334,0.00002501,-0.00000062,-0.00000164,-0.00000644,-0.00000289,-
 0.00000035,-0.00000140,0.00000801,0.00001160,0.00000169,0.00000231,-0.
 00000097,-0.00000237,-0.00000447,-0.00000666,0.00000132,-0.00000076,0.
 00000171,0.00000359,0.00000008,0.00000038,-0.00000032,-0.00000382,0.00
 000235,-0.00000117,0.00000062,-0.00000293,0.00000027,-0.00000098,0.000
 00191,0.00000031,0.00000285,-0.00000207,0.00000126,0.00005168,-0.00000
 414,-0.00000851,-0.00001556,-0.00000625,-0.00000022,0.00000198,0.00000
 068,-0.00000071,-0.00000014,0.00000018,0.00000051,-0.00000089,0.000004
 11,0.00000004,0.00000025,-0.00000126,-0.00000055,-0.00000051,0.0000004
 6,-0.00000185,0.00000082,-0.00000063,0.00000057,0.00000124,0.00000045,
 0.00000014,-0.00000017,-0.00000060,0.00000003,0.00000005,-0.00000020,0
 .00000038,-0.00000010,-0.00000191,0.00000044,0.00000052,-0.00000029,-0
 .00000099,-0.00000076,-0.00000129,0.00000018,0.00000016,0.00000038,0.0
 0000006,0.00000010,0.00000092,0.00000044,-0.00000073,0.00000148,-0.000
 20975,-0.00059047,0.00005644,-0.00117034,0.00057282,0.00064423,0.00131
 262,0.00130118,-0.00031396,0.00087824,-0.00029284,-0.00214426,0.090639
 89,0.03477195,-0.27985404,0.00035276,-0.00029018,0.00068002,0.00063113
 ,-0.00025699,0.00146304,-0.10005586,-0.03959442,0.29985723,0.00008963,
 -0.00000450,-0.00000073,-0.00000216,0.00025322,-0.00000740,-0.00007939
 ,-0.00003441,-0.00001107,0.00002827,0.00006327,0.00001032,0.00001152,0
 .00004152,0.00000358,-0.00001988,-0.00000609,-0.00000095,0.00000378,0.
 00000602,-0.00000071,-0.00000005,-0.00000109,0.00000016,-0.00002451,0.
 00001675,-0.00000041,0.00000896,-0.00000326,-0.00000052,-0.00001435,0.
 00000695,0.00000048,0.00000779,-0.00000359,0.00000026,-0.00002232,-0.0
 0001845,0.00000146,-0.00000175,-0.00040465,0.00001574,-0.00001470,-0.0
 0008999,-0.00000236,0.00000444,0.00000212,0.00000068,0.00000504,0.0000
 0244,0.00000008,0.00000023,0.00000009,-0.00000028,0.00000065,0.0000015
 1,0.00000044,0.00000033,-0.00000002,-0.00000003,0.00000205,0.00000013,
 0.00000003,0.00000022,0.00000004,0.00000011,0.00000040,-0.00000096,0.0
 0000024,-0.00000192,0.00000722,-0.00000053,0.00001580,-0.00000535,0.00
 000039,-0.00000137,0.00000023,0.00000004,0.00001159,0.00000305,0.00000
 107,-0.00000417,-0.00000114,0.00000002,-0.00000433,0.00000346,0.000002
 27,-0.00000438,0.00000323,-0.00000312,-0.00117618,0.00377087,0.0000621
 3,0.00145362,-0.00006580,-0.00026697,-0.00552889,-0.00187072,0.0014751
 5,0.00554494,0.03099877,-0.00440299,-0.05509955,-0.04568088,0.00560419
 ,0.00122307,-0.00087426,-0.00043315,0.00121185,-0.00091064,0.00012248,
 -0.00292518,-0.01073715,0.00003655,0.05883758,-0.00008737,0.00000687,-
 0.00000085,0.00002116,-0.00020008,0.00000422,0.00002340,0.00005724,0.0
 0001151,-0.00001500,-0.00008091,-0.00001106,-0.00000298,-0.00010258,-0
 .00001812,0.00002915,0.00000395,0.00000043,-0.00000386,-0.00000258,0.0
 0000073,0.00000190,0.00000104,0.00000010,0.00002340,-0.00001965,-0.000
 00018,-0.00000654,0.00000956,0.00000161,0.00001131,-0.00001124,0.00000
 010,-0.00000642,0.00000280,-0.00000157,0.00002193,0.00001676,-0.000001
 00,-0.00001336,0.00036019,-0.00001081,0.00003350,0.00020765,0.00002894
 ,-0.00000680,-0.00000458,-0.00000225,-0.00000627,-0.00000528,0.0000011
 4,0.00000012,0.00000139,-0.00000369,0.00000043,0.00000156,0.00000316,-
 0.00000122,-0.00000120,0.00000099,-0.00000192,0.00000083,0.00000001,-0
 .00000132,-0.00000101,-0.00000131,-0.00000081,0.00000101,-0.00000012,0
 .00000384,-0.00000611,0.00000043,-0.00001794,0.00000505,0.00000019,0.0
 0000134,0.00000010,-0.00000003,-0.00001027,-0.00000076,-0.00000026,0.0
 0000439,0.00000161,-0.00000021,0.00000448,-0.00000391,-0.00000218,0.00
 000491,-0.00000327,0.00000294,0.00132902,-0.00280173,-0.00013361,0.000
 12863,-0.00112601,0.00007084,0.00210695,0.00302640,-0.00053175,-0.0041
 4766,-0.01508035,0.00219130,-0.04385006,-0.30723141,0.03329430,0.00002
 072,0.00061049,0.00036481,-0.00018882,0.00053153,-0.00042457,-0.000662
 72,-0.00275874,0.00077706,0.04661800,0.33222089,-0.00001010,0.00000075
 ,-0.00000037,-0.00000161,-0.00003252,0.00000215,0.00001370,0.00000163,
 0.00000197,-0.00000395,-0.00000517,-0.00000101,-0.00000155,-0.00000019
 ,0.00000491,0.00000058,0.00000026,-0.00000017,-0.00000010,0.00000097,-
 0.00000210,-0.00000042,0.00000015,0.00000069,0.00000289,-0.00000168,-0
 .00000039,-0.00000115,0.00000004,-0.00000050,0.00000166,-0.00000050,0.
 00000104,-0.00000074,0.00000032,0.00000036,0.00000233,0.00000182,-0.00
 000092,0.00000174,0.00004795,0.00000093,-0.00000054,-0.00000372,-0.000
 01160,-0.00000077,0.00000002,0.00000007,0.00000021,0.,-0.00000014,-0.0
 0000070,0.00000025,0.00000050,0.00000008,0.00000115,0.00000026,-0.0000
 0008,-0.00000005,0.00000002,0.00000008,-0.00000004,-0.00000018,0.00000
 006,0.00000023,0.00000013,0.00000003,0.00000006,0.00000007,0.00000011,
 -0.00000084,0.,-0.00000121,0.00000056,0.00000012,0.00000022,-0.0000000
 2,0.00000011,-0.00000102,-0.00000034,0.00000038,0.00000028,0.,-0.00000
 013,0.00000043,-0.00000044,-0.00000051,0.00000032,-0.00000027,0.000000
 12,0.00012518,-0.00052038,0.00009226,-0.00033809,0.00016887,0.00026860
 ,0.00122942,0.00023815,0.00056928,-0.00096076,-0.00523534,-0.00058149,
 0.00540008,0.03365501,-0.05307893,0.00005342,0.00032028,0.00002415,-0.
 00050693,-0.00003715,0.00015412,0.00426690,0.02978516,-0.00204027,-0.0
 0702717,-0.03648808,0.05116620,0.00001868,-0.00000049,-0.00000170,-0.0
 0000163,0.00005773,0.00000107,-0.00002059,-0.00000796,-0.00000510,0.00
 000587,0.00001592,0.00000445,0.00000387,0.00001782,0.00000603,-0.00000
 601,-0.00000118,-0.00000177,0.00000041,0.00000563,-0.00000315,-0.00000
 079,0.00000008,0.00000073,-0.00000482,0.00000565,0.00000067,-0.0000001
 2,-0.00000560,-0.00000023,-0.00000078,0.00000576,-0.00000061,0.0000012
 3,-0.00000046,0.00000271,-0.00000472,-0.00000480,-0.00000049,0.0000043
 0,-0.00008998,0.00000544,-0.00000885,-0.00003388,-0.00001540,0.0000022
 9,0.00000154,0.00000033,0.00000190,0.00000073,0.00000089,0.00000067,0.
 00000232,0.00000096,0.00000071,0.00000704,-0.00000269,0.00000002,-0.00
 000071,-0.00000015,0.00000172,-0.00000019,-0.00000028,0.00000027,0.000
 00065,0.00000075,0.00000004,-0.00000016,-0.00000054,-0.00000138,0.0000
 0129,0.00000006,0.00000310,-0.00000197,-0.00000185,0.00000008,-0.00000
 036,-0.00000032,0.00000304,-0.00000013,-0.00000162,-0.00000042,0.,0.00
 000029,-0.00000091,0.00000130,0.00000123,-0.00000096,0.00000065,-0.000
 00018,0.00014482,0.00072673,0.00013129,0.00135673,0.00018854,0.0000679
 8,-0.00045158,-0.00228290,0.00028962,-0.02012063,-0.00807240,-0.019168
 79,-0.17662848,-0.05425766,-0.12346999,-0.00403821,0.00362171,0.001308
 30,0.00105166,-0.00064566,0.00032673,0.00924724,0.00445502,0.00758684,
 -0.00353666,-0.00135724,-0.00224283,0.19297890,0.00000477,-0.00000198,
 0.00000318,-0.00000502,0.00000746,0.00000486,0.00001171,-0.00000727,0.
 00000102,-0.00000157,0.00000793,-0.00000017,-0.00000842,0.00002227,0.0
 0000915,-0.00000017,-0.00000011,-0.00000167,-0.00000123,-0.00000827,0.
 00001226,-0.00000169,0.00000362,-0.00000367,-0.00000089,0.00000153,-0.
 00000211,0.00000039,-0.00000128,0.00000022,-0.00000024,0.00000104,0.00
 000058,-0.00000028,0.00000050,0.00000057,-0.00000177,-0.00000022,-0.00
 000158,-0.00000205,-0.00000786,-0.00000760,-0.00000126,-0.00002482,-0.
 00002691,-0.00000019,0.00000161,0.00000032,-0.00000029,0.00000113,-0.0
 0000184,-0.00000011,0.00000314,0.00000027,0.00000201,0.00000809,-0.000
 00758,0.00000143,0.00000115,-0.00000032,0.00000085,-0.00000035,0.00000
 001,0.00000092,0.00000066,0.00000055,0.00000019,-0.00000017,-0.0000000
 4,-0.00000059,-0.00000006,0.00000007,0.00000121,-0.00000004,-0.0000003
 5,-0.00000023,0.00000008,0.00000005,-0.00000015,-0.00000023,0.00000009
 ,-0.00000040,-0.00000023,0.,-0.00000018,0.00000014,0.00000007,-0.00000
 026,0.00000005,-0.00000012,-0.00000270,0.00004920,-0.00032559,0.000585
 89,-0.00030820,0.00022601,-0.00044938,0.00037153,0.00091421,0.01250845
 ,0.00507250,0.01288708,-0.05593516,-0.07031515,-0.05318783,0.00315586,
 -0.00146237,-0.00035065,-0.00091617,0.00060119,-0.00005647,0.00449502,
 0.00049851,0.00359989,-0.02108593,-0.00762551,-0.02189690,0.05764763,0
 .07311079,0.00000066,0.00000134,0.00000077,0.00000883,0.00001645,-0.00
 000082,-0.00002545,0.00000728,-0.00000197,0.00000555,-0.00000467,0.000
 00071,0.00000781,-0.00001753,-0.00000264,-0.00000141,-0.00000098,-0.00
 000050,0.00000234,0.00000680,0.00000003,-0.00000071,0.00000016,0.00000
 018,-0.00000014,0.00000114,0.00000017,-0.00000168,-0.00000238,-0.00000
 003,0.00000244,0.00000223,-0.00000093,-0.00000126,0.00000071,-0.000000
 46,0.00000066,-0.00000104,0.00000212,-0.00000195,-0.00002113,-0.000000
 94,0.00000446,0.00003424,-0.00000239,0.00000046,-0.00000117,-0.0000004
 6,0.00000093,-0.00000153,0.00000084,-0.00000159,-0.00000025,-0.0000046
 8,0.00000083,0.00000757,0.00000243,-0.00000029,-0.00000133,0.00000037,
 0.00000252,-0.00000042,-0.00000027,-0.00000045,-0.00000049,-0.00000020
 ,-0.00000005,0.00000011,-0.00000017,-0.00000071,-0.00000022,0.00000002
 ,-0.00000044,-0.00000011,-0.00000050,0.00000003,-0.00000018,-0.0000001
 1,-0.00000040,0.00000034,-0.00000013,0.00000033,0.00000020,0.00000012,
 0.00000012,0.00000018,0.00000016,0.00000003,-0.00000002,0.00000018,0.0
 0012048,0.00031009,-0.00015916,0.00070261,-0.00041281,0.00012682,-0.00
 098296,-0.00043663,0.00034377,0.00456114,0.00250209,0.00406279,-0.1244
 9889,-0.05164687,-0.16805984,0.00112396,-0.00071523,0.00119059,-0.0004
 0096,0.00061626,0.00061410,-0.02062866,-0.00932997,-0.01834851,0.00482
 052,0.00087683,0.00343028,0.13518129,0.05821094,0.17680825\\0.00000157
 ,0.00000074,-0.00000194,-0.00000118,0.00000408,-0.00000030,-0.00000953
 ,0.00001222,0.00000802,0.00000408,-0.00001041,-0.00000256,0.00000948,-
 0.00000434,-0.00000205,0.00000433,-0.00000432,0.00000040,0.00000203,-0
 .00000081,0.00000161,0.00000013,-0.00000391,0.00000204,0.00000219,0.00
 000274,0.00000050,0.00000083,0.00000267,-0.00000083,0.00000178,0.00000
 352,-0.00000104,-0.00000005,0.00000165,-0.00000104,0.00000019,0.000001
 14,-0.00000016,0.00000113,-0.00000263,-0.00000278,0.00000095,-0.000004
 11,0.00000149,0.00000072,-0.00000163,0.00000256,0.00000102,-0.00000233
 ,0.00000149,0.00000060,-0.00000255,0.00000067,-0.00000146,-0.00000346,
 0.00000146,0.00000109,-0.00000291,0.00000186,0.00000032,-0.00000484,0.
 00000179,0.00000014,-0.00000377,0.00000322,-0.00000037,0.00000024,0.00
 000162,0.00000389,0.00000356,0.00000084,0.00000124,0.00000366,-0.00000
 078,0.00000026,0.00000336,-0.00000152,-0.00000153,0.00000217,-0.000001
 60,-0.00000041,0.00000189,-0.00000131,0.00000293,0.00000523,0.00000146
 ,0.00000266,0.00000570,-0.00000454,0.00001695,-0.00000401,-0.00000627,
 0.00000052,0.00002003,-0.00000273,-0.00001588,-0.00001151,0.00001049,-
 0.00001862,-0.00000511,-0.00000237,0.00000247,-0.00000149,-0.00000119,
 -0.00000085,-0.00000029,0.00000086,-0.00000122,0.00000050,-0.00000377,
 -0.00000376,-0.00000127,0.00000014,-0.00000342,0.00000094,-0.00000202,
 -0.00000521,-0.00000036,-0.00000171\\\@



 IN THIS SHORT LIFE

 THAT ONLY LASTS AN HOUR

 HOW MUCH, HOW LITTLE, IS WITHIN OUR POWER....


 EMILY DICKINSON BOLTS OF MELODY NO. 521
 Job cpu time:       0 days 11 hours 29 minutes 38.6 seconds.
 File lengths (MBytes):  RWF=   1409 Int=      0 D2E=      0 Chk=     34 Scr=      1
 Normal termination of Gaussian 09 at Thu Nov 14 23:20:04 2019.
pbs_rusage has been removed.
Please contact help@nci.org.au if you require this functionality.
