 Entering Gaussian System, Link 0=/apps/gaussian/g16c01/g16/g16
 Initial command:
 /apps/gaussian/g16c01/g16/l1.exe "/jobfs/13164493.gadi-pbs/Gau-816577.inp" -scrdir="/jobfs/13164493.gadi-pbs/"
 Entering Link 1 = /apps/gaussian/g16c01/g16/l1.exe PID=    816578.
  
 Copyright (c) 1988-2019, Gaussian, Inc.  All Rights Reserved.
  
 This is part of the Gaussian(R) 16 program.  It is based on
 the Gaussian(R) 09 system (copyright 2009, Gaussian, Inc.),
 the Gaussian(R) 03 system (copyright 2003, Gaussian, Inc.),
 the Gaussian(R) 98 system (copyright 1998, Gaussian, Inc.),
 the Gaussian(R) 94 system (copyright 1995, Gaussian, Inc.),
 the Gaussian 92(TM) system (copyright 1992, Gaussian, Inc.),
 the Gaussian 90(TM) system (copyright 1990, Gaussian, Inc.),
 the Gaussian 88(TM) system (copyright 1988, Gaussian, Inc.),
 the Gaussian 86(TM) system (copyright 1986, Carnegie Mellon
 University), and the Gaussian 82(TM) system (copyright 1983,
 Carnegie Mellon University). Gaussian is a federally registered
 trademark of Gaussian, Inc.
  
 This software contains proprietary and confidential information,
 including trade secrets, belonging to Gaussian, Inc.
  
 This software is provided under written license and may be
 used, copied, transmitted, or stored only in accord with that
 written license.
  
 The following legend is applicable only to US Government
 contracts under FAR:
  
                    RESTRICTED RIGHTS LEGEND
  
 Use, reproduction and disclosure by the US Government is
 subject to restrictions as set forth in subparagraphs (a)
 and (c) of the Commercial Computer Software - Restricted
 Rights clause in FAR 52.227-19.
  
 Gaussian, Inc.
 340 Quinnipiac St., Bldg. 40, Wallingford CT 06492
  
  
 ---------------------------------------------------------------
 Warning -- This program may not be used in any manner that
 competes with the business of Gaussian, Inc. or will provide
 assistance to any competitor of Gaussian, Inc.  The licensee
 of this program is prohibited from giving any competitor of
 Gaussian, Inc. access to this program.  By using this program,
 the user acknowledges that Gaussian, Inc. is engaged in the
 business of creating and licensing software in the field of
 computational chemistry and represents and warrants to the
 licensee that it is not a competitor of Gaussian, Inc. and that
 it will not use this program in any manner prohibited above.
 ---------------------------------------------------------------
  

 Cite this work as:
 Gaussian 16, Revision C.01,
 M. J. Frisch, G. W. Trucks, H. B. Schlegel, G. E. Scuseria, 
 M. A. Robb, J. R. Cheeseman, G. Scalmani, V. Barone, 
 G. A. Petersson, H. Nakatsuji, X. Li, M. Caricato, A. V. Marenich, 
 J. Bloino, B. G. Janesko, R. Gomperts, B. Mennucci, H. P. Hratchian, 
 J. V. Ortiz, A. F. Izmaylov, J. L. Sonnenberg, D. Williams-Young, 
 F. Ding, F. Lipparini, F. Egidi, J. Goings, B. Peng, A. Petrone, 
 T. Henderson, D. Ranasinghe, V. G. Zakrzewski, J. Gao, N. Rega, 
 G. Zheng, W. Liang, M. Hada, M. Ehara, K. Toyota, R. Fukuda, 
 J. Hasegawa, M. Ishida, T. Nakajima, Y. Honda, O. Kitao, H. Nakai, 
 T. Vreven, K. Throssell, J. A. Montgomery, Jr., J. E. Peralta, 
 F. Ogliaro, M. J. Bearpark, J. J. Heyd, E. N. Brothers, K. N. Kudin, 
 V. N. Staroverov, T. A. Keith, R. Kobayashi, J. Normand, 
 K. Raghavachari, A. P. Rendell, J. C. Burant, S. S. Iyengar, 
 J. Tomasi, M. Cossi, J. M. Millam, M. Klene, C. Adamo, R. Cammi, 
 J. W. Ochterski, R. L. Martin, K. Morokuma, O. Farkas, 
 J. B. Foresman, and D. J. Fox, Gaussian, Inc., Wallingford CT, 2019.
 
 ******************************************
 Gaussian 16:  ES64L-G16RevC.01  3-Jul-2019
                 3-Nov-2020 
 ******************************************
 %NprocShared=32
 Will use up to   32 processors via shared memory.
 %Mem=1194000MB
 %chk=CP19_carboxy.DSDPBEP86_AUG-cc-PVTZ.chk
 ----------------------------------------------------------------------
 # DSDPBEP86/AUG-cc-PVTZ SCF=Tight INT(grid=ultrafine) Pop=NBO MaxDisk=
 1400000MB
 ----------------------------------------------------------------------
 1/38=1,172=1/1;
 2/12=2,17=6,18=5,40=1/2;
 3/5=16,6=1,7=10,11=9,25=1,30=1,74=-77,75=-5/1,2,3;
 4//1;
 5/5=2,32=2,38=5/2;
 8/10=1/1;
 9/16=-3/6;
 6/7=2,8=2,9=2,10=2,40=1/1,7;
 99/5=1,9=1/99;
 ----------------------------------
 CP19_carboxy.DSDPBEP86_AUG-cc-PVTZ
 ----------------------------------
 Symbolic Z-matrix:
 Charge = -1 Multiplicity = 1
 C                    -6.26933   1.12028  -0.01237 
 N                    -5.00848   0.57906   0.00321 
 C                    -3.7957    1.26183  -0.01905 
 O                    -3.69842   2.4835   -0.05451 
 N                    -2.73259   0.42658   0.01004 
 C                    -1.38892   0.9527   -0.07043 
 C                    -0.38399  -0.14825   0.24431 
 C                     1.0526    0.35003   0.12501 
 C                    -6.54786   2.4997   -0.03564 
 C                    -7.86343   2.92649  -0.0474 
 C                    -8.9409    2.04021  -0.03659 
 C                    -8.64971   0.67279  -0.01344 
 C                    -7.35001   0.2138   -0.00131 
 H                    -4.97624  -0.45976   0.0243 
 H                    -2.8575   -0.5959   -0.04197 
 H                    -1.28399   1.78452   0.63344 
 H                    -1.19367   1.36648  -1.06964 
 H                    -0.55504  -0.99519  -0.42645 
 H                    -0.57652  -0.52328   1.25392 
 H                     1.26598   0.69834  -0.88967 
 H                     1.77046  -0.43843   0.36233 
 H                     1.23927   1.18636   0.8052 
 H                    -5.73867   3.21347  -0.04449 
 Cl                   -8.14383   4.65561  -0.07485 
 C                    -10.35942   2.50712  -0.04874 
 H                    -9.46547  -0.03945  -0.00479 
 H                    -7.1321   -0.84908   0.01611 
 F                    -11.22466   1.47429  -0.03424 
 F                    -10.67596   3.27188   1.01439 
 F                    -10.66959   3.2362   -1.13853 
 O                    -5.14592  -2.18217   0.03415 
 O                    -2.92512  -2.38778  -0.14024 
 C                    -4.08455  -2.8503   -0.06434 
 C                    -4.25578  -4.37668  -0.09107 
 C                    -2.9507   -5.15114  -0.21 
 H                    -4.93145  -4.60898  -0.92023 
 H                    -4.79964  -4.65394   0.81742 
 H                    -2.41933  -4.87454  -1.12212 
 H                    -3.12704  -6.23117  -0.22403 
 H                    -2.28653  -4.91871   0.62408 
 
                          Input orientation:                          
 ---------------------------------------------------------------------
 Center     Atomic      Atomic             Coordinates (Angstroms)
 Number     Number       Type             X           Y           Z
 ---------------------------------------------------------------------
      1          6           0       -6.269334    1.120281   -0.012372
      2          7           0       -5.008483    0.579062    0.003208
      3          6           0       -3.795695    1.261825   -0.019047
      4          8           0       -3.698416    2.483497   -0.054512
      5          7           0       -2.732592    0.426577    0.010039
      6          6           0       -1.388920    0.952699   -0.070425
      7          6           0       -0.383987   -0.148251    0.244311
      8          6           0        1.052599    0.350029    0.125007
      9          6           0       -6.547863    2.499699   -0.035640
     10          6           0       -7.863433    2.926487   -0.047401
     11          6           0       -8.940904    2.040206   -0.036593
     12          6           0       -8.649707    0.672794   -0.013443
     13          6           0       -7.350006    0.213802   -0.001310
     14          1           0       -4.976235   -0.459758    0.024302
     15          1           0       -2.857498   -0.595896   -0.041973
     16          1           0       -1.283991    1.784517    0.633441
     17          1           0       -1.193668    1.366476   -1.069642
     18          1           0       -0.555036   -0.995192   -0.426454
     19          1           0       -0.576518   -0.523280    1.253924
     20          1           0        1.265980    0.698335   -0.889673
     21          1           0        1.770464   -0.438431    0.362326
     22          1           0        1.239270    1.186360    0.805198
     23          1           0       -5.738666    3.213471   -0.044495
     24         17           0       -8.143827    4.655610   -0.074850
     25          6           0      -10.359418    2.507119   -0.048745
     26          1           0       -9.465471   -0.039449   -0.004790
     27          1           0       -7.132100   -0.849082    0.016111
     28          9           0      -11.224663    1.474293   -0.034239
     29          9           0      -10.675956    3.271883    1.014391
     30          9           0      -10.669592    3.236195   -1.138530
     31          8           0       -5.145920   -2.182167    0.034153
     32          8           0       -2.925123   -2.387778   -0.140239
     33          6           0       -4.084548   -2.850304   -0.064338
     34          6           0       -4.255782   -4.376680   -0.091068
     35          6           0       -2.950699   -5.151141   -0.210005
     36          1           0       -4.931450   -4.608982   -0.920227
     37          1           0       -4.799637   -4.653943    0.817416
     38          1           0       -2.419325   -4.874544   -1.122124
     39          1           0       -3.127045   -6.231168   -0.224033
     40          1           0       -2.286535   -4.918713    0.624078
 ---------------------------------------------------------------------
                    Distance matrix (angstroms):
                    1          2          3          4          5
     1  C    0.000000
     2  N    1.372190   0.000000
     3  C    2.477694   1.391947   0.000000
     4  O    2.910284   2.312246   1.226052   0.000000
     5  N    3.604202   2.281004   1.352285   2.273303   0.000000
     6  C    4.883635   3.639541   2.427090   2.770806   1.445245
     7  C    6.025974   4.687545   3.701003   4.242739   2.429250
     8  C    7.363617   6.066630   4.935391   5.211148   3.787710
     9  C    1.407449   2.461716   3.017786   2.849555   4.342374
    10  C    2.409307   3.696445   4.395269   4.188515   5.707747
    11  C    2.825622   4.195291   5.203783   5.261227   6.414757
    12  C    2.422070   3.642468   4.889623   5.272154   5.922282
    13  C    1.410561   2.369846   3.705644   4.299821   4.622328
    14  H    2.042051   1.039534   2.087918   3.209639   2.412411
    15  H    3.819262   2.451388   2.081314   3.192172   1.031386
    16  H    5.070692   3.965117   2.647188   2.606012   2.081123
    17  H    5.190455   4.040278   2.808068   2.924379   2.101764
    18  H    6.107363   4.743002   3.970135   4.703239   2.636987
    19  H    6.059121   4.735162   3.894888   4.527578   2.664232
    20  H    7.597937   6.338797   5.166823   5.341304   4.107543
    21  H    8.198069   6.864283   5.832533   6.214505   4.598897
    22  H    7.553272   6.328223   5.102543   5.177104   4.121314
    23  H    2.159649   2.734146   2.754034   2.166929   4.099540
    24  Cl   4.002022   5.143415   5.516080   4.947744   6.868289
    25  C    4.318962   5.687936   6.680876   6.661046   7.905732
    26  H    3.400047   4.499707   5.817205   6.294970   6.749004
    27  H    2.150248   2.559201   3.948261   4.785526   4.580722
    28  F    4.968007   6.280425   7.432021   7.593635   8.556573
    29  F    5.010185   6.355630   7.241983   7.102829   8.497148
    30  F    5.010748   6.357050   7.238911   7.094994   8.497596
    31  O    3.488608   2.764820   3.699598   4.885852   3.553911
    32  O    4.848358   3.628099   3.753956   4.933017   2.824933
    33  C    4.532276   3.552290   4.122510   5.347768   3.545598
    34  C    5.854670   5.013464   5.657703   6.882879   5.040000
    35  C    7.098107   6.092221   6.471215   7.672741   5.586316
    36  H    5.953031   5.270148   6.047184   7.250731   5.572901
    37  H    6.015830   5.300084   6.058373   7.274338   5.544025
    38  H    7.210550   6.141003   6.384841   7.544312   5.429715
    39  H    7.997661   7.068994   7.525561   8.735021   6.673526
    40  H    7.262038   6.166036   6.394547   7.566149   5.398901
                    6          7          8          9         10
     6  C    0.000000
     7  C    1.523496   0.000000
     8  C    2.522384   1.525220   0.000000
     9  C    5.386010   6.714415   7.900247   0.000000
    10  C    6.768728   8.092047   9.282429   1.383117   0.000000
    11  C    7.629959   8.836803  10.136711   2.436756   1.395190
    12  C    7.266403   8.310396   9.708660   2.784928   2.387156
    13  C    6.007104   6.979745   8.404659   2.422796   2.761230
    14  H    3.856532   4.608056   6.083810   3.351416   4.450585
    15  H    2.134403   2.529941   4.026352   4.816797   6.120996
    16  H    1.094696   2.167262   2.788533   5.354203   6.712428
    17  H    1.098986   2.162511   2.739720   5.569628   6.925632
    18  H    2.148580   1.093842   2.167538   6.948450   8.302765
    19  H    2.142991   1.094091   2.165905   6.816034   8.166606
    20  H    2.790047   2.173711   1.093812   8.064144   9.435055
    21  H    3.479113   2.177106   1.092391   8.830942  10.212860
    22  H    2.780053   2.175027   1.094055   7.941744   9.306673
    23  H    4.902249   6.329073   7.372198   1.079050   2.144063
    24  Cl   7.703268   9.132035  10.156389   2.682647   1.751925
    25  C    9.104204  10.326960  11.615394   3.811585   2.530971
    26  H    8.137526   9.085551  10.526079   3.867901   3.371219
    27  H    6.019802   6.788245   8.272788   3.399757   3.846272
    28  F    9.849630  10.964967  12.329659   4.787893   3.661545
    29  F    9.633508  10.872671  12.119705   4.328971   3.026052
    30  F    9.616968  10.916062  12.138215   4.329833   3.026716
    31  O    4.894218   5.182373   6.696411   4.887758   5.787044
    32  O    3.677442   3.408919   4.836136   6.084621   7.255132
    33  C    4.661467   4.592440   6.055433   5.889929   6.903011
    34  C    6.051578   5.743073   7.111074   7.248537   8.145753
    35  C    6.302024   5.641216   6.811865   8.456083   9.455658
    36  H    6.648607   6.475623   7.841757   7.343611   8.132751
    37  H    6.622362   6.334640   7.730966   7.413406   8.221780
    38  H    6.010371   5.324245   6.395761   8.520840   9.573370
    39  H    7.392741   6.689214   7.804063   9.378994  10.311509
    40  H    5.980094   5.149875   6.257677   8.580616   9.648826
                   11         12         13         14         15
    11  C    0.000000
    12  C    1.398267   0.000000
    13  C    2.422386   1.378420   0.000000
    14  H    4.687444   3.844280   2.467616   0.000000
    15  H    6.630000   5.929593   4.565074   2.124141   0.000000
    16  H    7.690425   7.477175   6.298142   4.363540   2.932315
    17  H    7.844793   7.562359   6.353778   4.340468   2.770440
    18  H    8.926836   8.275049   6.914769   4.476256   2.368246
    19  H    8.843067   8.259127   6.928134   4.568754   2.624403
    20  H   10.329997   9.954359   8.675205   6.414186   4.404168
    21  H   11.001645  10.485990   9.150990   6.755195   4.648256
    22  H   10.250542   9.936085   8.681704   6.477037   4.547267
    23  H    3.410417   3.863957   3.405334   3.752152   4.776234
    24  Cl   2.734434   4.015285   4.512784   6.017513   7.451488
    25  C    1.493432   2.507810   3.783928   6.147061   8.118347
    26  H    2.145028   1.082975   2.130572   4.508962   6.631465
    27  H    3.409185   2.149444   1.085131   2.190752   4.282487
    28  F    2.352832   2.696893   4.074664   6.541164   8.619466
    29  F    2.373184   3.452158   4.630924   6.884202   8.786576
    30  F    2.373398   3.452070   4.631175   6.886695   8.770187
    31  O    5.677618   4.519910   3.255752   1.730776   2.785486
    32  O    7.470436   6.492614   5.134892   2.819822   1.795849
    33  C    6.892173   5.766756   4.478385   2.552973   2.566809
    34  C    7.945424   6.694010   5.536677   3.984299   4.031369
    35  C    9.360988   8.150800   6.941186   5.115347   4.559296
    36  H    7.814616   6.522640   5.472939   4.255608   4.601898
    37  H    7.917768   6.624763   5.556045   4.272166   4.580197
    38  H    9.566772   8.415448   7.173500   5.228998   4.434586
    39  H   10.111960   8.843576   7.708479   6.065505   5.644652
    40  H    9.651097   8.494783   7.236889   5.241803   4.410938
                   16         17         18         19         20
    16  H    0.000000
    17  H    1.755964   0.000000
    18  H    3.062929   2.529628   0.000000
    19  H    2.492277   3.057942   1.745518   0.000000
    20  H    3.162597   2.555125   2.529566   3.079310   0.000000
    21  H    3.787439   3.754238   2.517957   2.512066   1.764722
    22  H    2.598873   3.076792   3.081504   2.534031   1.763936
    23  H    4.727116   5.011918   6.687955   6.503611   7.490346
    24  Cl   7.470087   7.753240   9.468101   9.265565  10.240528
    25  C    9.129672   9.292700  10.418001  10.324020  11.795285
    26  H    8.406592   8.457734   8.971460   8.990658  10.793117
    27  H    6.443393   6.430594   6.593555   6.679369   8.587356
    28  F    9.967898  10.084868  10.958701  10.910208  12.543924
    29  F    9.516637   9.893815  11.077770  10.791630  12.363594
    30  F    9.661095   9.658869  10.987080  11.033024  12.204939
    31  O    5.568503   5.425084   4.764167   5.011904   7.089655
    32  O    4.549718   4.237470   2.763788   3.306960   5.258430
    33  C    5.459998   5.210476   4.003751   4.411250   6.473188
    34  C    6.878720   6.581640   5.024188   5.494968   7.542109
    35  C    7.182804   6.804813   4.801871   5.403418   7.242838
    36  H    7.522943   7.049783   5.697042   6.354945   8.159454
    37  H    7.338077   7.267011   5.740236   5.923482   8.267572
    38  H    6.979547   6.360450   4.359920   5.289144   6.685244
    39  H    8.269420   7.885252   5.837093   6.424136   8.231632
    40  H    6.777792   6.600504   4.415396   4.758224   6.816380
                   21         22         23         24         25
    21  H    0.000000
    22  H    1.765856   0.000000
    23  H    8.359959   7.315924   0.000000
    24  Cl  11.154978  10.042544   2.804548   0.000000
    25  C   12.489167  11.704836   4.674431   3.086347   0.000000
    26  H   11.249008  10.805099   4.946932   4.878035   2.699274
    27  H    8.918752   8.651330   4.295308   5.597634   4.656595
    28  F   13.141123  12.495486   5.755086   4.428767   1.347438
    29  F   13.004038  12.098173   5.049900   3.084287   1.347338
    30  F   13.057965  12.239318   5.050888   3.086364   1.347365
    31  O    7.140356   7.260313   5.428668   7.466895   7.012620
    32  O    5.108920   5.568705   6.268906   8.766326   8.901525
    33  C    6.346680   6.737491   6.285369   8.533264   8.250831
    34  C    7.213253   7.870597   7.733789   9.833586   9.200155
    35  C    6.695266   7.664881   8.818553  11.097712  10.656644
    36  H    7.997131   8.639495   7.912602   9.842087   8.992286
    37  H    7.819455   8.401052   7.969997   9.932145   9.107261
    38  H    6.279891   7.337196   8.808819  11.166491  10.894318
    39  H    7.608233   8.668549   9.800714  11.988006  11.344409
    40  H    6.049850   7.052377   8.859831  11.245623  10.989409
                   26         27         28         29         30
    26  H    0.000000
    27  H    2.469932   0.000000
    28  F    2.320999   4.706345   0.000000
    29  F    3.670003   5.526105   2.152216   0.000000
    30  F    3.669485   5.525988   2.152176   2.153227   0.000000
    31  O    4.821957   2.392143   7.094046   7.828718   7.825905
    32  O    6.950478   4.482263   9.154736   9.666455   9.623018
    33  C    6.071143   3.646769   8.347711   9.060435   9.031177
    34  C    6.779371   4.552870   9.099583  10.046949  10.009495
    35  C    8.283342   6.003578  10.601214  11.494610  11.436384
    36  H    6.501999   4.456055   8.797484   9.942340   9.722177
    37  H    6.613591   4.534251   8.919728   9.868568  10.026783
    38  H    8.618280   6.301600  10.909867  11.794105  11.569410
    39  H    8.863470   6.713045  11.179516  12.199497  12.139081
    40  H    8.702862   6.356966  11.008816  11.731180  11.827297
                   31         32         33         34         35
    31  O    0.000000
    32  O    2.237103   0.000000
    33  C    1.258021   1.250583   0.000000
    34  C    2.371479   2.393492   1.536183   0.000000
    35  C    3.700461   2.764362   2.569180   1.522228   0.000000
    36  H    2.616537   3.093134   2.131370   1.094530   2.172954
    37  H    2.615930   3.092961   2.131186   1.094531   2.172871
    38  H    4.002523   2.721017   2.826557   2.164144   1.091250
    39  H    4.531769   3.849603   3.517465   2.175053   1.094419
    40  H    4.001597   2.719854   2.825789   2.164063   1.091252
                   36         37         38         39         40
    36  H    0.000000
    37  H    1.743216   0.000000
    38  H    2.534178   3.078370   0.000000
    39  H    2.524293   2.523850   1.774222   0.000000
    40  H    3.078375   2.534396   1.751801   1.774341   0.000000
 Stoichiometry    C14H17ClF3N2O3(1-)
 Framework group  C1[X(C14H17ClF3N2O3)]
 Deg. of freedom   114
 Full point group                 C1      NOp   1
 Largest Abelian subgroup         C1      NOp   1
 Largest concise Abelian subgroup C1      NOp   1
                         Standard orientation:                         
 ---------------------------------------------------------------------
 Center     Atomic      Atomic             Coordinates (Angstroms)
 Number     Number       Type             X           Y           Z
 ---------------------------------------------------------------------
      1          6           0       -0.623104   -0.090921   -0.020167
      2          7           0        0.737335   -0.270013   -0.026275
      3          6           0        1.430948   -1.475837    0.022761
      4          8           0        0.890253   -2.574861    0.077508
      5          7           0        2.771680   -1.301477   -0.003902
      6          6           0        3.657579   -2.438368    0.102838
      7          6           0        5.085305   -2.011548   -0.214122
      8          6           0        6.065131   -3.171199   -0.067676
      9          6           0       -1.567393   -1.133828    0.019510
     10          6           0       -2.916390   -0.828509    0.019363
     11          6           0       -3.389753    0.483353   -0.019347
     12          6           0       -2.440708    1.509475   -0.058555
     13          6           0       -1.088899    1.239933   -0.059473
     14          1           0        1.295891    0.605976   -0.062179
     15          1           0        3.186471   -0.357834    0.031355
     16          1           0        3.325872   -3.220771   -0.587217
     17          1           0        3.609651   -2.874066    1.110628
     18          1           0        5.368044   -1.183028    0.441702
     19          1           0        5.115820   -1.610749   -1.231699
     20          1           0        6.066168   -3.559580    0.954862
     21          1           0        7.086093   -2.864827   -0.306612
     22          1           0        5.801282   -3.998764   -0.732865
     23          1           0       -1.236500   -2.160438    0.050028
     24         17           0       -4.040969   -2.170957    0.068333
     25          6           0       -4.847745    0.806770   -0.019937
     26          1           0       -2.778029    2.538127   -0.088940
     27          1           0       -0.358467    2.041855   -0.089493
     28          9           0       -5.063785    2.136125   -0.061565
     29          9           0       -5.505925    0.290189   -1.075996
     30          9           0       -5.491634    0.359995    1.076051
     31          8           0        2.030063    2.172874   -0.099673
     32          8           0        4.043399    1.218779    0.102344
     33          6           0        3.283370    2.206996    0.003646
     34          6           0        3.915896    3.606912    0.005585
     35          6           0        5.432936    3.608351    0.131151
     36          1           0        3.450136    4.167992    0.821827
     37          1           0        3.594014    4.105107   -0.914302
     38          1           0        5.744413    3.117174    1.054489
     39          1           0        5.833080    4.626987    0.126875
     40          1           0        5.888764    3.052941   -0.690172
 ---------------------------------------------------------------------
 Rotational constants (GHZ):           0.3588934           0.0954588           0.0766321
 Standard basis: Aug-CC-pVTZ (5D, 7F)
 There are  1694 symmetry adapted cartesian basis functions of A   symmetry.
 There are  1453 symmetry adapted basis functions of A   symmetry.
  1453 basis functions,  2157 primitive gaussians,  1694 cartesian basis functions
    92 alpha electrons       92 beta electrons
       nuclear repulsion energy      2088.8010121262 Hartrees.
 NAtoms=   40 NActive=   40 NUniq=   40 SFac= 1.00D+00 NAtFMM=   60 NAOKFM=F Big=F
 Integral buffers will be    131072 words long.
 Regular integral format.
 Two-electron integral symmetry is turned on.
 Nuclear repulsion after empirical dispersion term =     2088.7714228236 Hartrees.
 One-electron integrals computed using PRISM.
 NBasis=  1453 RedAO= T EigKep=  1.31D-06  NBF=  1453
 NBsUse=  1448 1.00D-06 EigRej=  9.61D-07 NBFU=  1448
 ExpMin= 2.53D-02 ExpMax= 4.56D+05 ExpMxC= 1.44D+03 IAcc=3 IRadAn=         5 AccDes= 0.00D+00
 Harris functional with IExCor= 1004 and IRadAn=       5 diagonalized for initial guess.
 HarFok:  IExCor= 1004 AccDes= 0.00D+00 IRadAn=         5 IDoV= 1 UseB2=F ITyADJ=14
 ICtDFT=  3500011 ScaDFX=  1.000000  1.000000  1.000000  1.000000
 FoFCou: FMM=F IPFlag=           0 FMFlag=      100000 FMFlg1=           0
         NFxFlg=           0 DoJE=T BraDBF=F KetDBF=T FulRan=T
         wScrn=  0.000000 ICntrl=       500 IOpCl=  0 I1Cent=   200000004 NGrid=           0
         NMat0=    1 NMatS0=      1 NMatT0=    0 NMatD0=    1 NMtDS0=    0 NMtDT0=    0
 Petite list used in FoFCou.
 Requested convergence on RMS density matrix=1.00D-08 within 128 cycles.
 Requested convergence on MAX density matrix=1.00D-06.
 Requested convergence on             energy=1.00D-06.
 No special actions if energy rises.
 SCF Done:  E(RDSDPBEP86) =  -1634.82623215     A.U. after   14 cycles
            NFock= 14  Conv=0.29D-08     -V/T= 2.0027
 DoSCS=T DFT=T ScalE2(SS,OS)=  0.220000  0.520000
 ExpMin= 2.53D-02 ExpMax= 4.56D+05 ExpMxC= 1.44D+03 IAcc=3 IRadAn=         5 AccDes= 0.00D+00
 HarFok:  IExCor=  205 AccDes= 0.00D+00 IRadAn=         5 IDoV=-2 UseB2=F ITyADJ=14
 ICtDFT= 12500011 ScaDFX=  1.000000  1.000000  1.000000  1.000000
 GSVD:  LWork=        -945 too small for GESVD, short by        4050 words or        4050 for optimal perf.
 Range of M.O.s used for correlation:    28  1448
 NBasis=  1453 NAE=    92 NBE=    92 NFC=    27 NFV=     0
 NROrb=   1421 NOA=    65 NOB=    65 NVA=  1356 NVB=  1356

 **** Warning!!: The largest alpha MO coefficient is  0.10516062D+03

 DoSCS=T DFT=T ScalE2(SS,OS)=  0.220000  0.520000
 Fully direct method using O(OVN) memory.
 JobTyp=1 Pass  1:  I=   1 to  52 NPSUse= 32 ParTrn=T ParDer=T DoDerP=F.
 JobTyp=1 Pass  2:  I=  53 to  65 NPSUse= 32 ParTrn=T ParDer=T DoDerP=F.
 Spin components of T(2) and E(2):
     alpha-alpha T2 =       0.2275529097D+00 E2=     -0.1425247757D+00
     alpha-beta  T2 =       0.1186771734D+01 E2=     -0.1924689712D+01
     beta-beta   T2 =       0.2275529097D+00 E2=     -0.1425247757D+00
 E2(DSDPBEP86) =    -0.2209739264D+01 E(DSDPBEP86) =    -0.16370359714127D+04

 **********************************************************************

            Population analysis using the SCF Density.

 **********************************************************************

 Orbital symmetries:
       Occupied  (A) (A) (A) (A) (A) (A) (A) (A) (A) (A) (A) (A)
                 (A) (A) (A) (A) (A) (A) (A) (A) (A) (A) (A) (A)
                 (A) (A) (A) (A) (A) (A) (A) (A) (A) (A) (A) (A)
                 (A) (A) (A) (A) (A) (A) (A) (A) (A) (A) (A) (A)
                 (A) (A) (A) (A) (A) (A) (A) (A) (A) (A) (A) (A)
                 (A) (A) (A) (A) (A) (A) (A) (A) (A) (A) (A) (A)
                 (A) (A) (A) (A) (A) (A) (A) (A) (A) (A) (A) (A)
                 (A) (A) (A) (A) (A) (A) (A) (A)
       Virtual   (A) (A) (A) (A) (A) (A) (A) (A) (A) (A) (A) (A)
                 (A) (A) (A) (A) (A) (A) (A) (A) (A) (A) (A) (A)
                 (A) (A) (A) (A) (A) (A) (A) (A) (A) (A) (A) (A)
                 (A) (A) (A) (A) (A) (A) (A) (A) (A) (A) (A) (A)
                 (A) (A) (A) (A) (A) (A) (A) (A) (A) (A) (A) (A)
                 (A) (A) (A) (A) (A) (A) (A) (A) (A) (A) (A) (A)
                 (A) (A) (A) (A) (A) (A) (A) (A) (A) (A) (A) (A)
                 (A) (A) (A) (A) (A) (A) (A) (A) (A) (A) (A) (A)
                 (A) (A) (A) (A) (A) (A) (A) (A) (A) (A) (A) (A)
                 (A) (A) (A) (A) (A) (A) (A) (A) (A) (A) (A) (A)
                 (A) (A) (A) (A) (A) (A) (A) (A) (A) (A) (A) (A)
                 (A) (A) (A) (A) (A) (A) (A) (A) (A) (A) (A) (A)
                 (A) (A) (A) (A) (A) (A) (A) (A) (A) (A) (A) (A)
                 (A) (A) (A) (A) (A) (A) (A) (A) (A) (A) (A) (A)
                 (A) (A) (A) (A) (A) (A) (A) (A) (A) (A) (A) (A)
                 (A) (A) (A) (A) (A) (A) (A) (A) (A) (A) (A) (A)
                 (A) (A) (A) (A) (A) (A) (A) (A) (A) (A) (A) (A)
                 (A) (A) (A) (A) (A) (A) (A) (A) (A) (A) (A) (A)
                 (A) (A) (A) (A) (A) (A) (A) (A) (A) (A) (A) (A)
                 (A) (A) (A) (A) (A) (A) (A) (A) (A) (A) (A) (A)
                 (A) (A) (A) (A) (A) (A) (A) (A) (A) (A) (A) (A)
                 (A) (A) (A) (A) (A) (A) (A) (A) (A) (A) (A) (A)
                 (A) (A) (A) (A) (A) (A) (A) (A) (A) (A) (A) (A)
                 (A) (A) (A) (A) (A) (A) (A) (A) (A) (A) (A) (A)
                 (A) (A) (A) (A) (A) (A) (A) (A) (A) (A) (A) (A)
                 (A) (A) (A) (A) (A) (A) (A) (A) (A) (A) (A) (A)
                 (A) (A) (A) (A) (A) (A) (A) (A) (A) (A) (A) (A)
                 (A) (A) (A) (A) (A) (A) (A) (A) (A) (A) (A) (A)
                 (A) (A) (A) (A) (A) (A) (A) (A) (A) (A) (A) (A)
                 (A) (A) (A) (A) (A) (A) (A) (A) (A) (A) (A) (A)
                 (A) (A) (A) (A) (A) (A) (A) (A) (A) (A) (A) (A)
                 (A) (A) (A) (A) (A) (A) (A) (A) (A) (A) (A) (A)
                 (A) (A) (A) (A) (A) (A) (A) (A) (A) (A) (A) (A)
                 (A) (A) (A) (A) (A) (A) (A) (A) (A) (A) (A) (A)
                 (A) (A) (A) (A) (A) (A) (A) (A) (A) (A) (A) (A)
                 (A) (A) (A) (A) (A) (A) (A) (A) (A) (A) (A) (A)
                 (A) (A) (A) (A) (A) (A) (A) (A) (A) (A) (A) (A)
                 (A) (A) (A) (A) (A) (A) (A) (A) (A) (A) (A) (A)
                 (A) (A) (A) (A) (A) (A) (A) (A) (A) (A) (A) (A)
                 (A) (A) (A) (A) (A) (A) (A) (A) (A) (A) (A) (A)
                 (A) (A) (A) (A) (A) (A) (A) (A) (A) (A) (A) (A)
                 (A) (A) (A) (A) (A) (A) (A) (A) (A) (A) (A) (A)
                 (A) (A) (A) (A) (A) (A) (A) (A) (A) (A) (A) (A)
                 (A) (A) (A) (A) (A) (A) (A) (A) (A) (A) (A) (A)
                 (A) (A) (A) (A) (A) (A) (A) (A) (A) (A) (A) (A)
                 (A) (A) (A) (A) (A) (A) (A) (A) (A) (A) (A) (A)
                 (A) (A) (A) (A) (A) (A) (A) (A) (A) (A) (A) (A)
                 (A) (A) (A) (A) (A) (A) (A) (A) (A) (A) (A) (A)
                 (A) (A) (A) (A) (A) (A) (A) (A) (A) (A) (A) (A)
                 (A) (A) (A) (A) (A) (A) (A) (A) (A) (A) (A) (A)
                 (A) (A) (A) (A) (A) (A) (A) (A) (A) (A) (A) (A)
                 (A) (A) (A) (A) (A) (A) (A) (A) (A) (A) (A) (A)
                 (A) (A) (A) (A) (A) (A) (A) (A) (A) (A) (A) (A)
                 (A) (A) (A) (A) (A) (A) (A) (A) (A) (A) (A) (A)
                 (A) (A) (A) (A) (A) (A) (A) (A) (A) (A) (A) (A)
                 (A) (A) (A) (A) (A) (A) (A) (A) (A) (A) (A) (A)
                 (A) (A) (A) (A) (A) (A) (A) (A) (A) (A) (A) (A)
                 (A) (A) (A) (A) (A) (A) (A) (A) (A) (A) (A) (A)
                 (A) (A) (A) (A) (A) (A) (A) (A) (A) (A) (A) (A)
                 (A) (A) (A) (A) (A) (A) (A) (A) (A) (A) (A) (A)
                 (A) (A) (A) (A) (A) (A) (A) (A) (A) (A) (A) (A)
                 (A) (A) (A) (A) (A) (A) (A) (A) (A) (A) (A) (A)
                 (A) (A) (A) (A) (A) (A) (A) (A) (A) (A) (A) (A)
                 (A) (A) (A) (A) (A) (A) (A) (A) (A) (A) (A) (A)
                 (A) (A) (A) (A) (A) (A) (A) (A) (A) (A) (A) (A)
                 (A) (A) (A) (A) (A) (A) (A) (A) (A) (A) (A) (A)
                 (A) (A) (A) (A) (A) (A) (A) (A) (A) (A) (A) (A)
                 (A) (A) (A) (A) (A) (A) (A) (A) (A) (A) (A) (A)
                 (A) (A) (A) (A) (A) (A) (A) (A) (A) (A) (A) (A)
                 (A) (A) (A) (A) (A) (A) (A) (A) (A) (A) (A) (A)
                 (A) (A) (A) (A) (A) (A) (A) (A) (A) (A) (A) (A)
                 (A) (A) (A) (A) (A) (A) (A) (A) (A) (A) (A) (A)
                 (A) (A) (A) (A) (A) (A) (A) (A) (A) (A) (A) (A)
                 (A) (A) (A) (A) (A) (A) (A) (A) (A) (A) (A) (A)
                 (A) (A) (A) (A) (A) (A) (A) (A) (A) (A) (A) (A)
                 (A) (A) (A) (A) (A) (A) (A) (A) (A) (A) (A) (A)
                 (A) (A) (A) (A) (A) (A) (A) (A) (A) (A) (A) (A)
                 (A) (A) (A) (A) (A) (A) (A) (A) (A) (A) (A) (A)
                 (A) (A) (A) (A) (A) (A) (A) (A) (A) (A) (A) (A)
                 (A) (A) (A) (A) (A) (A) (A) (A) (A) (A) (A) (A)
                 (A) (A) (A) (A) (A) (A) (A) (A) (A) (A) (A) (A)
                 (A) (A) (A) (A) (A) (A) (A) (A) (A) (A) (A) (A)
                 (A) (A) (A) (A) (A) (A) (A) (A) (A) (A) (A) (A)
                 (A) (A) (A) (A) (A) (A) (A) (A) (A) (A) (A) (A)
                 (A) (A) (A) (A) (A) (A) (A) (A) (A) (A) (A) (A)
                 (A) (A) (A) (A) (A) (A) (A) (A) (A) (A) (A) (A)
                 (A) (A) (A) (A) (A) (A) (A) (A) (A) (A) (A) (A)
                 (A) (A) (A) (A) (A) (A) (A) (A) (A) (A) (A) (A)
                 (A) (A) (A) (A) (A) (A) (A) (A) (A) (A) (A) (A)
                 (A) (A) (A) (A) (A) (A) (A) (A) (A) (A) (A) (A)
                 (A) (A) (A) (A) (A) (A) (A) (A) (A) (A) (A) (A)
                 (A) (A) (A) (A) (A) (A) (A) (A) (A) (A) (A) (A)
                 (A) (A) (A) (A) (A) (A) (A) (A) (A) (A) (A) (A)
                 (A) (A) (A) (A) (A) (A) (A) (A) (A) (A) (A) (A)
                 (A) (A) (A) (A) (A) (A) (A) (A) (A) (A) (A) (A)
                 (A) (A) (A) (A) (A) (A) (A) (A) (A) (A) (A) (A)
                 (A) (A) (A) (A) (A) (A) (A) (A) (A) (A) (A) (A)
                 (A) (A) (A) (A) (A) (A) (A) (A) (A) (A) (A) (A)
                 (A) (A) (A) (A) (A) (A) (A) (A) (A) (A) (A) (A)
                 (A) (A) (A) (A) (A) (A) (A) (A) (A) (A) (A) (A)
                 (A) (A) (A) (A) (A) (A) (A) (A) (A) (A) (A) (A)
                 (A) (A) (A) (A) (A) (A) (A) (A) (A) (A) (A) (A)
                 (A) (A) (A) (A) (A) (A) (A) (A) (A) (A) (A) (A)
                 (A) (A) (A) (A) (A) (A) (A) (A) (A) (A) (A) (A)
                 (A) (A) (A) (A) (A) (A) (A) (A) (A) (A) (A) (A)
                 (A) (A) (A) (A) (A) (A) (A) (A) (A) (A) (A) (A)
                 (A) (A) (A) (A) (A) (A) (A) (A) (A) (A) (A) (A)
                 (A) (A) (A) (A) (A) (A) (A) (A) (A) (A) (A) (A)
                 (A) (A) (A) (A) (A) (A) (A) (A) (A) (A) (A) (A)
                 (A) (A) (A) (A) (A) (A) (A) (A) (A) (A) (A) (A)
                 (A) (A) (A) (A) (A) (A) (A) (A) (A) (A) (A) (A)
                 (A) (A) (A) (A) (A) (A) (A) (A) (A) (A) (A) (A)
                 (A) (A) (A) (A) (A) (A) (A) (A) (A) (A) (A) (A)
 The electronic state is 1-A.
 Alpha  occ. eigenvalues -- -103.47985 -25.62084 -25.61412 -25.61410 -19.84561
 Alpha  occ. eigenvalues --  -19.82226 -19.81954 -14.98412 -14.96354 -10.99399
 Alpha  occ. eigenvalues --  -10.83552 -10.80464 -10.78993 -10.78296 -10.74854
 Alpha  occ. eigenvalues --  -10.74550 -10.73799 -10.72344 -10.72012 -10.71955
 Alpha  occ. eigenvalues --  -10.71213 -10.69817 -10.69719 -10.05496  -7.63170
 Alpha  occ. eigenvalues --   -7.62712  -7.62693  -1.48135  -1.38852  -1.38384
 Alpha  occ. eigenvalues --   -1.14898  -1.12734  -1.03059  -1.02499  -0.99611
 Alpha  occ. eigenvalues --   -0.97952  -0.91709  -0.86385  -0.84674  -0.82389
 Alpha  occ. eigenvalues --   -0.81241  -0.77140  -0.73809  -0.68655  -0.67536
 Alpha  occ. eigenvalues --   -0.66811  -0.64273  -0.64001  -0.63445  -0.61026
 Alpha  occ. eigenvalues --   -0.60101  -0.55709  -0.53922  -0.52908  -0.52648
 Alpha  occ. eigenvalues --   -0.51036  -0.49148  -0.48669  -0.48304  -0.48214
 Alpha  occ. eigenvalues --   -0.47234  -0.46610  -0.46540  -0.45072  -0.44916
 Alpha  occ. eigenvalues --   -0.44155  -0.43983  -0.43503  -0.42648  -0.41333
 Alpha  occ. eigenvalues --   -0.40862  -0.39930  -0.38829  -0.38505  -0.37130
 Alpha  occ. eigenvalues --   -0.37094  -0.35824  -0.35395  -0.34168  -0.34120
 Alpha  occ. eigenvalues --   -0.33248  -0.32481  -0.31788  -0.31382  -0.28977
 Alpha  occ. eigenvalues --   -0.26211  -0.22845  -0.22542  -0.22481  -0.22108
 Alpha  occ. eigenvalues --   -0.21620  -0.17286
 Alpha virt. eigenvalues --    0.08135   0.08804   0.09694   0.10025   0.10221
 Alpha virt. eigenvalues --    0.10899   0.11027   0.11356   0.11650   0.12577
 Alpha virt. eigenvalues --    0.12666   0.12986   0.13225   0.13375   0.13831
 Alpha virt. eigenvalues --    0.13985   0.14427   0.14639   0.14852   0.15429
 Alpha virt. eigenvalues --    0.15708   0.16091   0.16416   0.17094   0.17388
 Alpha virt. eigenvalues --    0.17539   0.17711   0.18198   0.18508   0.18585
 Alpha virt. eigenvalues --    0.18884   0.18999   0.19257   0.19465   0.19667
 Alpha virt. eigenvalues --    0.19860   0.20375   0.20812   0.20923   0.21028
 Alpha virt. eigenvalues --    0.21487   0.21700   0.21998   0.22312   0.22615
 Alpha virt. eigenvalues --    0.22695   0.22791   0.23234   0.23326   0.23548
 Alpha virt. eigenvalues --    0.23884   0.23970   0.24331   0.24625   0.24845
 Alpha virt. eigenvalues --    0.25165   0.25772   0.25961   0.26221   0.26472
 Alpha virt. eigenvalues --    0.26812   0.27287   0.27487   0.27637   0.28002
 Alpha virt. eigenvalues --    0.28123   0.28367   0.28678   0.29207   0.29330
 Alpha virt. eigenvalues --    0.29507   0.30217   0.30333   0.30536   0.30839
 Alpha virt. eigenvalues --    0.31161   0.31400   0.31686   0.31939   0.32236
 Alpha virt. eigenvalues --    0.32398   0.32960   0.33338   0.33597   0.33818
 Alpha virt. eigenvalues --    0.34127   0.34253   0.34432   0.34767   0.34957
 Alpha virt. eigenvalues --    0.35470   0.35782   0.35947   0.36283   0.36457
 Alpha virt. eigenvalues --    0.36910   0.37066   0.37177   0.37251   0.37429
 Alpha virt. eigenvalues --    0.37635   0.37808   0.38072   0.38326   0.38513
 Alpha virt. eigenvalues --    0.38873   0.39169   0.39337   0.39833   0.39912
 Alpha virt. eigenvalues --    0.40080   0.40258   0.40414   0.40573   0.40701
 Alpha virt. eigenvalues --    0.40889   0.41234   0.41624   0.41748   0.42074
 Alpha virt. eigenvalues --    0.42355   0.42548   0.42713   0.42913   0.42976
 Alpha virt. eigenvalues --    0.43344   0.43458   0.43691   0.43868   0.44405
 Alpha virt. eigenvalues --    0.44474   0.44649   0.44983   0.45336   0.45463
 Alpha virt. eigenvalues --    0.45707   0.45826   0.46187   0.46570   0.46622
 Alpha virt. eigenvalues --    0.46898   0.46965   0.47268   0.47393   0.47558
 Alpha virt. eigenvalues --    0.47880   0.48056   0.48524   0.48766   0.48897
 Alpha virt. eigenvalues --    0.49182   0.49270   0.49718   0.49933   0.50421
 Alpha virt. eigenvalues --    0.50744   0.50939   0.51286   0.51457   0.51732
 Alpha virt. eigenvalues --    0.51916   0.52122   0.52236   0.52526   0.52697
 Alpha virt. eigenvalues --    0.53100   0.53488   0.53595   0.53680   0.53893
 Alpha virt. eigenvalues --    0.53935   0.53971   0.54200   0.54607   0.54786
 Alpha virt. eigenvalues --    0.54928   0.55067   0.55308   0.55551   0.55879
 Alpha virt. eigenvalues --    0.56137   0.56359   0.56648   0.57098   0.57343
 Alpha virt. eigenvalues --    0.57493   0.57676   0.57859   0.57916   0.58226
 Alpha virt. eigenvalues --    0.58336   0.58495   0.58889   0.59154   0.59461
 Alpha virt. eigenvalues --    0.59577   0.60097   0.60278   0.60389   0.60812
 Alpha virt. eigenvalues --    0.61013   0.61165   0.61547   0.62016   0.62259
 Alpha virt. eigenvalues --    0.62613   0.62818   0.63011   0.63552   0.63601
 Alpha virt. eigenvalues --    0.63985   0.64296   0.64560   0.64929   0.65242
 Alpha virt. eigenvalues --    0.65885   0.65932   0.66409   0.66544   0.66890
 Alpha virt. eigenvalues --    0.67027   0.67343   0.67662   0.67708   0.68090
 Alpha virt. eigenvalues --    0.68313   0.68527   0.69338   0.69503   0.69708
 Alpha virt. eigenvalues --    0.70106   0.70132   0.70930   0.71161   0.71800
 Alpha virt. eigenvalues --    0.71900   0.72264   0.72575   0.72759   0.73172
 Alpha virt. eigenvalues --    0.73606   0.74052   0.74344   0.74602   0.75003
 Alpha virt. eigenvalues --    0.75184   0.75308   0.75775   0.76228   0.76523
 Alpha virt. eigenvalues --    0.76797   0.77221   0.77567   0.78090   0.78113
 Alpha virt. eigenvalues --    0.78656   0.79182   0.79570   0.80305   0.80798
 Alpha virt. eigenvalues --    0.80932   0.81224   0.81686   0.82361   0.82683
 Alpha virt. eigenvalues --    0.83084   0.83224   0.83600   0.83874   0.84100
 Alpha virt. eigenvalues --    0.84716   0.84734   0.85372   0.85847   0.86251
 Alpha virt. eigenvalues --    0.86572   0.86936   0.87250   0.87561   0.87699
 Alpha virt. eigenvalues --    0.88332   0.88498   0.88827   0.88921   0.89250
 Alpha virt. eigenvalues --    0.89755   0.90061   0.90369   0.90773   0.91192
 Alpha virt. eigenvalues --    0.91399   0.91711   0.91829   0.92180   0.92257
 Alpha virt. eigenvalues --    0.92775   0.92904   0.93119   0.93269   0.93507
 Alpha virt. eigenvalues --    0.93726   0.94509   0.94667   0.94835   0.95387
 Alpha virt. eigenvalues --    0.95432   0.95745   0.95978   0.96018   0.96326
 Alpha virt. eigenvalues --    0.96469   0.96841   0.96898   0.97355   0.97556
 Alpha virt. eigenvalues --    0.97881   0.98031   0.98189   0.98438   0.98772
 Alpha virt. eigenvalues --    0.99199   0.99546   0.99995   1.00211   1.00387
 Alpha virt. eigenvalues --    1.00591   1.00943   1.01133   1.01175   1.01697
 Alpha virt. eigenvalues --    1.01884   1.02400   1.02824   1.02924   1.03321
 Alpha virt. eigenvalues --    1.03901   1.03987   1.04665   1.04853   1.05100
 Alpha virt. eigenvalues --    1.05351   1.05499   1.05785   1.05911   1.06286
 Alpha virt. eigenvalues --    1.06489   1.06923   1.07180   1.07679   1.07943
 Alpha virt. eigenvalues --    1.08120   1.08299   1.08698   1.09031   1.09366
 Alpha virt. eigenvalues --    1.09877   1.10037   1.10216   1.10610   1.10799
 Alpha virt. eigenvalues --    1.11082   1.11276   1.11752   1.11980   1.12252
 Alpha virt. eigenvalues --    1.12534   1.12904   1.13059   1.13735   1.13864
 Alpha virt. eigenvalues --    1.14276   1.14374   1.14497   1.14932   1.15221
 Alpha virt. eigenvalues --    1.15453   1.15692   1.15903   1.16226   1.16434
 Alpha virt. eigenvalues --    1.16719   1.17374   1.17520   1.17925   1.18038
 Alpha virt. eigenvalues --    1.18137   1.18330   1.18785   1.19057   1.19226
 Alpha virt. eigenvalues --    1.19419   1.19570   1.19957   1.20301   1.20727
 Alpha virt. eigenvalues --    1.20813   1.21458   1.21628   1.21818   1.22210
 Alpha virt. eigenvalues --    1.22407   1.22964   1.23179   1.23426   1.23821
 Alpha virt. eigenvalues --    1.24594   1.24638   1.25099   1.25149   1.25463
 Alpha virt. eigenvalues --    1.25616   1.25947   1.26634   1.26931   1.27225
 Alpha virt. eigenvalues --    1.27570   1.27939   1.28083   1.28496   1.28742
 Alpha virt. eigenvalues --    1.28839   1.29332   1.29416   1.30001   1.30167
 Alpha virt. eigenvalues --    1.30452   1.30925   1.31348   1.31650   1.32337
 Alpha virt. eigenvalues --    1.32513   1.32759   1.33166   1.33462   1.33945
 Alpha virt. eigenvalues --    1.34239   1.34441   1.34783   1.35165   1.35836
 Alpha virt. eigenvalues --    1.36039   1.36566   1.36817   1.36926   1.37228
 Alpha virt. eigenvalues --    1.37505   1.38016   1.38333   1.38820   1.39033
 Alpha virt. eigenvalues --    1.39221   1.39813   1.40071   1.40438   1.40634
 Alpha virt. eigenvalues --    1.41368   1.41865   1.42084   1.42349   1.43094
 Alpha virt. eigenvalues --    1.43308   1.43522   1.44217   1.44451   1.45073
 Alpha virt. eigenvalues --    1.45252   1.45902   1.46151   1.46596   1.46978
 Alpha virt. eigenvalues --    1.47072   1.47661   1.48006   1.48112   1.48649
 Alpha virt. eigenvalues --    1.49506   1.49628   1.49833   1.50306   1.50676
 Alpha virt. eigenvalues --    1.51349   1.51886   1.52426   1.52748   1.52916
 Alpha virt. eigenvalues --    1.53182   1.53941   1.54108   1.54722   1.55395
 Alpha virt. eigenvalues --    1.55701   1.56109   1.56527   1.57028   1.57072
 Alpha virt. eigenvalues --    1.57705   1.58345   1.58532   1.58638   1.58928
 Alpha virt. eigenvalues --    1.59490   1.59957   1.60058   1.60692   1.61130
 Alpha virt. eigenvalues --    1.61686   1.61975   1.62451   1.62687   1.63050
 Alpha virt. eigenvalues --    1.63222   1.63574   1.63722   1.64453   1.64726
 Alpha virt. eigenvalues --    1.65227   1.66190   1.66296   1.66544   1.66803
 Alpha virt. eigenvalues --    1.66921   1.67349   1.67570   1.67942   1.68657
 Alpha virt. eigenvalues --    1.69097   1.69537   1.69779   1.69924   1.70547
 Alpha virt. eigenvalues --    1.70627   1.71118   1.71421   1.71489   1.71772
 Alpha virt. eigenvalues --    1.72460   1.73080   1.73456   1.73957   1.74301
 Alpha virt. eigenvalues --    1.74672   1.74804   1.74889   1.75375   1.75681
 Alpha virt. eigenvalues --    1.75898   1.76261   1.76578   1.76910   1.77288
 Alpha virt. eigenvalues --    1.77705   1.78270   1.78474   1.79006   1.79483
 Alpha virt. eigenvalues --    1.79717   1.80139   1.80268   1.80663   1.81014
 Alpha virt. eigenvalues --    1.81197   1.81526   1.82055   1.82266   1.82892
 Alpha virt. eigenvalues --    1.83088   1.83499   1.83940   1.84250   1.84393
 Alpha virt. eigenvalues --    1.84786   1.85326   1.85492   1.85979   1.86397
 Alpha virt. eigenvalues --    1.86589   1.86929   1.87799   1.88119   1.88399
 Alpha virt. eigenvalues --    1.89171   1.89613   1.89981   1.90366   1.90972
 Alpha virt. eigenvalues --    1.91473   1.91773   1.92161   1.92410   1.92841
 Alpha virt. eigenvalues --    1.93762   1.94092   1.94307   1.94639   1.94826
 Alpha virt. eigenvalues --    1.95117   1.95667   1.96182   1.96371   1.96808
 Alpha virt. eigenvalues --    1.96942   1.97418   1.98206   1.98350   1.98645
 Alpha virt. eigenvalues --    1.99517   2.00039   2.00328   2.00643   2.01270
 Alpha virt. eigenvalues --    2.01448   2.02094   2.02230   2.02969   2.03518
 Alpha virt. eigenvalues --    2.03930   2.04287   2.04979   2.05286   2.05587
 Alpha virt. eigenvalues --    2.05675   2.06406   2.06570   2.07131   2.07678
 Alpha virt. eigenvalues --    2.08136   2.08629   2.08802   2.09319   2.10011
 Alpha virt. eigenvalues --    2.10437   2.10484   2.11285   2.11608   2.11803
 Alpha virt. eigenvalues --    2.13136   2.13154   2.13439   2.13973   2.14367
 Alpha virt. eigenvalues --    2.15148   2.16018   2.16239   2.17032   2.17172
 Alpha virt. eigenvalues --    2.17554   2.18569   2.20180   2.20367   2.20779
 Alpha virt. eigenvalues --    2.21144   2.21601   2.22276   2.22824   2.23665
 Alpha virt. eigenvalues --    2.23994   2.24808   2.24996   2.25657   2.25919
 Alpha virt. eigenvalues --    2.26083   2.26738   2.26770   2.27508   2.28171
 Alpha virt. eigenvalues --    2.28955   2.29253   2.29670   2.30271   2.30886
 Alpha virt. eigenvalues --    2.31232   2.32976   2.33666   2.34396   2.34763
 Alpha virt. eigenvalues --    2.34920   2.35589   2.35983   2.36666   2.37812
 Alpha virt. eigenvalues --    2.38173   2.38627   2.38865   2.39646   2.40030
 Alpha virt. eigenvalues --    2.40895   2.41641   2.42210   2.42908   2.43146
 Alpha virt. eigenvalues --    2.44298   2.45045   2.46257   2.46715   2.47181
 Alpha virt. eigenvalues --    2.47561   2.48401   2.48565   2.48926   2.49936
 Alpha virt. eigenvalues --    2.50194   2.50805   2.51674   2.51683   2.52501
 Alpha virt. eigenvalues --    2.53240   2.53870   2.54325   2.55377   2.55665
 Alpha virt. eigenvalues --    2.56525   2.57067   2.57900   2.58347   2.59947
 Alpha virt. eigenvalues --    2.60785   2.61023   2.61216   2.62812   2.63214
 Alpha virt. eigenvalues --    2.63858   2.64064   2.64209   2.65862   2.66821
 Alpha virt. eigenvalues --    2.67246   2.68238   2.69078   2.69779   2.70626
 Alpha virt. eigenvalues --    2.70933   2.72088   2.72474   2.73211   2.73824
 Alpha virt. eigenvalues --    2.74051   2.74872   2.75219   2.75697   2.76786
 Alpha virt. eigenvalues --    2.77648   2.78264   2.78555   2.78962   2.80815
 Alpha virt. eigenvalues --    2.81455   2.81657   2.82271   2.83133   2.83293
 Alpha virt. eigenvalues --    2.83747   2.84529   2.84788   2.85532   2.85930
 Alpha virt. eigenvalues --    2.86429   2.87303   2.88658   2.89861   2.90002
 Alpha virt. eigenvalues --    2.90947   2.91725   2.91999   2.92507   2.93613
 Alpha virt. eigenvalues --    2.94541   2.95063   2.96670   2.97264   2.98026
 Alpha virt. eigenvalues --    2.98883   2.99178   3.00433   3.00800   3.00913
 Alpha virt. eigenvalues --    3.01906   3.02028   3.04114   3.04924   3.06256
 Alpha virt. eigenvalues --    3.06474   3.06657   3.06984   3.08108   3.08501
 Alpha virt. eigenvalues --    3.09246   3.09762   3.10813   3.11183   3.11439
 Alpha virt. eigenvalues --    3.12433   3.13068   3.13864   3.14363   3.14537
 Alpha virt. eigenvalues --    3.15900   3.16097   3.17018   3.17254   3.17435
 Alpha virt. eigenvalues --    3.18598   3.19712   3.20842   3.21386   3.21619
 Alpha virt. eigenvalues --    3.22460   3.23476   3.23700   3.24128   3.25726
 Alpha virt. eigenvalues --    3.26625   3.26954   3.27749   3.29231   3.29686
 Alpha virt. eigenvalues --    3.30189   3.30586   3.31009   3.31884   3.32395
 Alpha virt. eigenvalues --    3.32697   3.34670   3.35236   3.35863   3.36269
 Alpha virt. eigenvalues --    3.36930   3.37876   3.38265   3.38598   3.39876
 Alpha virt. eigenvalues --    3.40293   3.40408   3.40661   3.41561   3.41990
 Alpha virt. eigenvalues --    3.42602   3.43316   3.44384   3.44728   3.45568
 Alpha virt. eigenvalues --    3.46418   3.46607   3.46760   3.48235   3.48476
 Alpha virt. eigenvalues --    3.49017   3.49353   3.49914   3.50436   3.51800
 Alpha virt. eigenvalues --    3.52714   3.53036   3.53456   3.53775   3.54668
 Alpha virt. eigenvalues --    3.55105   3.55764   3.56290   3.56375   3.56526
 Alpha virt. eigenvalues --    3.57198   3.58032   3.58665   3.59678   3.59932
 Alpha virt. eigenvalues --    3.60436   3.60802   3.61791   3.62122   3.62819
 Alpha virt. eigenvalues --    3.63603   3.63896   3.64166   3.64799   3.66244
 Alpha virt. eigenvalues --    3.66369   3.66533   3.67237   3.67770   3.68341
 Alpha virt. eigenvalues --    3.68484   3.69188   3.70547   3.70838   3.71033
 Alpha virt. eigenvalues --    3.71585   3.71883   3.72204   3.72459   3.72756
 Alpha virt. eigenvalues --    3.73119   3.73900   3.74407   3.74827   3.75112
 Alpha virt. eigenvalues --    3.75719   3.76324   3.76955   3.77766   3.78242
 Alpha virt. eigenvalues --    3.79112   3.80049   3.80324   3.80887   3.81194
 Alpha virt. eigenvalues --    3.81813   3.82060   3.82923   3.83090   3.83445
 Alpha virt. eigenvalues --    3.84170   3.84776   3.85300   3.85745   3.86042
 Alpha virt. eigenvalues --    3.86427   3.86553   3.86863   3.87657   3.88352
 Alpha virt. eigenvalues --    3.88729   3.89867   3.90367   3.90621   3.91205
 Alpha virt. eigenvalues --    3.91353   3.91998   3.92363   3.93062   3.93654
 Alpha virt. eigenvalues --    3.93771   3.94152   3.95123   3.95412   3.96375
 Alpha virt. eigenvalues --    3.97085   3.97433   3.98139   3.98318   3.99036
 Alpha virt. eigenvalues --    3.99434   3.99737   4.00301   4.01250   4.01813
 Alpha virt. eigenvalues --    4.01906   4.02892   4.02975   4.03911   4.04281
 Alpha virt. eigenvalues --    4.04785   4.05192   4.05831   4.06396   4.06595
 Alpha virt. eigenvalues --    4.07474   4.08056   4.08552   4.09916   4.10199
 Alpha virt. eigenvalues --    4.10873   4.11798   4.12616   4.13075   4.13247
 Alpha virt. eigenvalues --    4.14157   4.14700   4.15696   4.16202   4.16487
 Alpha virt. eigenvalues --    4.17273   4.17812   4.18329   4.18829   4.18895
 Alpha virt. eigenvalues --    4.19221   4.19878   4.20173   4.20652   4.21228
 Alpha virt. eigenvalues --    4.21759   4.21966   4.22418   4.22770   4.23154
 Alpha virt. eigenvalues --    4.23667   4.24989   4.25381   4.25883   4.26999
 Alpha virt. eigenvalues --    4.27363   4.28150   4.28738   4.29212   4.29635
 Alpha virt. eigenvalues --    4.30640   4.30956   4.31183   4.31801   4.32492
 Alpha virt. eigenvalues --    4.33352   4.33985   4.34612   4.35026   4.35848
 Alpha virt. eigenvalues --    4.36378   4.36841   4.37963   4.38883   4.38994
 Alpha virt. eigenvalues --    4.39844   4.40218   4.41529   4.42160   4.42769
 Alpha virt. eigenvalues --    4.42849   4.44246   4.44554   4.44903   4.46076
 Alpha virt. eigenvalues --    4.46588   4.47662   4.47974   4.48318   4.49063
 Alpha virt. eigenvalues --    4.49825   4.50438   4.51121   4.52044   4.52625
 Alpha virt. eigenvalues --    4.53615   4.55484   4.55712   4.56439   4.57162
 Alpha virt. eigenvalues --    4.57811   4.58474   4.59278   4.59768   4.60075
 Alpha virt. eigenvalues --    4.60569   4.61604   4.62823   4.63833   4.64271
 Alpha virt. eigenvalues --    4.64804   4.65140   4.65974   4.66632   4.67111
 Alpha virt. eigenvalues --    4.68085   4.68704   4.69122   4.69714   4.70762
 Alpha virt. eigenvalues --    4.71291   4.72117   4.72741   4.73477   4.73633
 Alpha virt. eigenvalues --    4.74430   4.75317   4.76056   4.76826   4.77389
 Alpha virt. eigenvalues --    4.77931   4.79763   4.79815   4.80127   4.80547
 Alpha virt. eigenvalues --    4.82251   4.82443   4.82940   4.83252   4.83402
 Alpha virt. eigenvalues --    4.84586   4.85419   4.85452   4.85752   4.87477
 Alpha virt. eigenvalues --    4.87935   4.88836   4.91576   4.91791   4.92083
 Alpha virt. eigenvalues --    4.92918   4.94402   4.95588   4.96047   4.96208
 Alpha virt. eigenvalues --    4.97005   4.97262   4.97931   4.98075   4.99666
 Alpha virt. eigenvalues --    5.00711   5.01658   5.02652   5.03795   5.04041
 Alpha virt. eigenvalues --    5.05323   5.05889   5.06484   5.08013   5.08546
 Alpha virt. eigenvalues --    5.09579   5.10591   5.10955   5.11715   5.12638
 Alpha virt. eigenvalues --    5.13068   5.13319   5.14323   5.15112   5.15818
 Alpha virt. eigenvalues --    5.16617   5.17350   5.17683   5.18758   5.19715
 Alpha virt. eigenvalues --    5.20057   5.20872   5.21092   5.22316   5.22786
 Alpha virt. eigenvalues --    5.23397   5.24513   5.25005   5.25647   5.26688
 Alpha virt. eigenvalues --    5.26991   5.27530   5.27992   5.28900   5.29426
 Alpha virt. eigenvalues --    5.30412   5.30636   5.33486   5.33776   5.34129
 Alpha virt. eigenvalues --    5.34532   5.35609   5.36476   5.36591   5.39176
 Alpha virt. eigenvalues --    5.40604   5.41284   5.41861   5.43651   5.45003
 Alpha virt. eigenvalues --    5.46605   5.47220   5.49012   5.49685   5.50623
 Alpha virt. eigenvalues --    5.51760   5.52818   5.54795   5.55402   5.56368
 Alpha virt. eigenvalues --    5.57810   5.58058   5.58861   5.59171   5.60327
 Alpha virt. eigenvalues --    5.61321   5.62510   5.62787   5.63810   5.64911
 Alpha virt. eigenvalues --    5.67214   5.67520   5.68015   5.68860   5.70053
 Alpha virt. eigenvalues --    5.71124   5.71783   5.72871   5.73989   5.74949
 Alpha virt. eigenvalues --    5.77758   5.79054   5.79959   5.81439   5.81999
 Alpha virt. eigenvalues --    5.83021   5.83207   5.84132   5.84841   5.85404
 Alpha virt. eigenvalues --    5.87247   5.87954   5.90468   5.91196   5.92746
 Alpha virt. eigenvalues --    5.94633   5.96087   5.97634   5.98471   5.98954
 Alpha virt. eigenvalues --    6.00060   6.01898   6.05169   6.05519   6.07800
 Alpha virt. eigenvalues --    6.08117   6.10871   6.11773   6.13104   6.13564
 Alpha virt. eigenvalues --    6.14004   6.14639   6.15976   6.16904   6.17691
 Alpha virt. eigenvalues --    6.18118   6.19474   6.21547   6.23142   6.23721
 Alpha virt. eigenvalues --    6.24736   6.30358   6.31393   6.33307   6.34022
 Alpha virt. eigenvalues --    6.36087   6.37569   6.40224   6.41458   6.43816
 Alpha virt. eigenvalues --    6.45182   6.46598   6.50873   6.57075   6.61564
 Alpha virt. eigenvalues --    6.64655   6.66735   6.69396   6.70076   6.71673
 Alpha virt. eigenvalues --    6.75184   6.77914   6.78186   6.79454   6.80083
 Alpha virt. eigenvalues --    6.81784   6.82529   6.84420   6.89616   6.89957
 Alpha virt. eigenvalues --    6.91402   6.92308   6.94432   6.95776   6.96628
 Alpha virt. eigenvalues --    7.00060   7.00669   7.04572   7.05900   7.06457
 Alpha virt. eigenvalues --    7.07903   7.09848   7.13072   7.16360   7.16706
 Alpha virt. eigenvalues --    7.17789   7.18625   7.22539   7.22929   7.23235
 Alpha virt. eigenvalues --    7.29240   7.34935   7.36150   7.37018   7.37924
 Alpha virt. eigenvalues --    7.38682   7.39435   7.44287   7.47154   7.48779
 Alpha virt. eigenvalues --    7.51775   7.64902   7.65277   7.67845   7.69783
 Alpha virt. eigenvalues --    7.72084   7.76501   7.78589   7.88343   7.94535
 Alpha virt. eigenvalues --    7.98894   8.01610   8.08295   8.09808   8.13622
 Alpha virt. eigenvalues --    8.32399   8.43322   8.55068   8.81526   8.84256
 Alpha virt. eigenvalues --    8.86060   8.89631   8.91049   8.95526   9.04414
 Alpha virt. eigenvalues --    9.05494   9.17214   9.20253   9.22034   9.22590
 Alpha virt. eigenvalues --    9.23149   9.25999   9.27868   9.29785   9.31727
 Alpha virt. eigenvalues --    9.33076   9.36520   9.37739   9.38129   9.40688
 Alpha virt. eigenvalues --    9.43689   9.45995   9.46835   9.47332   9.55613
 Alpha virt. eigenvalues --    9.56749   9.59062   9.60116   9.69387   9.79671
 Alpha virt. eigenvalues --    9.80962   9.87580  10.01670  10.09124  15.29419
 Alpha virt. eigenvalues --   15.78078  15.80098  16.05924  16.14810  16.32013
 Alpha virt. eigenvalues --   16.53889  16.96444  17.42558  17.79370  18.21184
 Alpha virt. eigenvalues --   18.38819  18.46790  18.64096  18.95539  19.54793
 Alpha virt. eigenvalues --   19.78145  20.50904  20.84909  21.15727  21.69850
 Alpha virt. eigenvalues --   22.16863
          Condensed to atoms (all electrons):
               1          2          3          4          5          6
     1  C   10.252614  -0.203915  -0.982360   0.118480  -0.021429  -0.001107
     2  N   -0.203915   9.214789   0.579837  -0.170860  -0.783832  -0.162809
     3  C   -0.982360   0.579837   7.276882   0.328218   0.005452  -0.588404
     4  O    0.118480  -0.170860   0.328218   9.185379  -0.192377   0.028314
     5  N   -0.021429  -0.783832   0.005452  -0.192377   8.672000   0.551296
     6  C   -0.001107  -0.162809  -0.588404   0.028314   0.551296   6.550475
     7  C    0.000888  -0.012525   0.035092  -0.008457   0.024093  -0.074225
     8  C    0.000558   0.002474  -0.003077   0.001238  -0.033007   0.000294
     9  C   -0.975562  -0.517995   0.128409  -0.140357  -0.121408  -0.034802
    10  C   -0.512815   0.261473  -0.057186   0.030478   0.023048   0.001030
    11  C   -0.144188  -0.028938   0.028573  -0.015372  -0.001525  -0.000937
    12  C   -0.285894   0.051810  -0.021198   0.006117   0.008061  -0.005129
    13  C   -1.302017  -0.170656  -0.021891   0.020660  -0.001123   0.003899
    14  H   -0.408729  -0.595311  -0.460644  -0.004420   0.266541  -0.043599
    15  H   -0.118348   0.236097  -0.178202  -0.083130  -0.790387  -0.423625
    16  H    0.002521   0.007684  -0.055901  -0.018371  -0.100134   0.362912
    17  H   -0.002217  -0.001637  -0.052299   0.017648  -0.018401   0.426385
    18  H    0.002319  -0.000682   0.009108  -0.002938  -0.034672  -0.000193
    19  H   -0.001533   0.000257   0.014006   0.002771  -0.028229  -0.016466
    20  H    0.000121   0.000204   0.002105  -0.000442   0.004147  -0.013693
    21  H   -0.000103   0.000032   0.000207   0.000031  -0.000024  -0.004518
    22  H    0.000202  -0.000030   0.002726   0.000597   0.003800  -0.011156
    23  H   -0.415816  -0.227981   0.106261  -0.118118  -0.020860  -0.012676
    24  Cl   0.094056  -0.024987   0.009055  -0.009813  -0.002741  -0.001573
    25  C    0.010706   0.006819   0.001456  -0.000905   0.000758   0.000050
    26  H    0.029877  -0.011875   0.001162  -0.000053   0.000595  -0.000408
    27  H   -0.046616   0.073663  -0.015415   0.004388   0.008718   0.006049
    28  F   -0.017948   0.003564   0.000645   0.000005   0.000084   0.000012
    29  F   -0.002429  -0.000318   0.000165  -0.000039  -0.000060  -0.000010
    30  F    0.000307  -0.000382   0.000313  -0.000000  -0.000019   0.000023
    31  O    0.037358  -0.061749  -0.008086  -0.001257  -0.025145  -0.017603
    32  O    0.016329   0.004325  -0.014279  -0.003596  -0.043368  -0.044863
    33  C   -0.064505  -0.041032  -0.012399  -0.003694  -0.017387   0.010660
    34  C    0.010915  -0.020869  -0.014204  -0.000780   0.002878   0.008719
    35  C   -0.001309  -0.002838  -0.001867   0.000030  -0.000460  -0.001539
    36  H    0.001723  -0.003580  -0.001134  -0.000036   0.002634   0.000618
    37  H    0.001671  -0.003293  -0.001082  -0.000062   0.002045   0.000651
    38  H   -0.000389   0.000069  -0.000106   0.000011  -0.001109   0.000552
    39  H   -0.000119   0.000077   0.000162   0.000002  -0.000289  -0.000560
    40  H   -0.000236  -0.000143  -0.000093   0.000008   0.000261  -0.000100
               7          8          9         10         11         12
     1  C    0.000888   0.000558  -0.975562  -0.512815  -0.144188  -0.285894
     2  N   -0.012525   0.002474  -0.517995   0.261473  -0.028938   0.051810
     3  C    0.035092  -0.003077   0.128409  -0.057186   0.028573  -0.021198
     4  O   -0.008457   0.001238  -0.140357   0.030478  -0.015372   0.006117
     5  N    0.024093  -0.033007  -0.121408   0.023048  -0.001525   0.008061
     6  C   -0.074225   0.000294  -0.034802   0.001030  -0.000937  -0.005129
     7  C    5.715044   0.035310  -0.003484   0.001434  -0.000031  -0.000712
     8  C    0.035310   5.889347   0.000012   0.000066   0.000028  -0.000146
     9  C   -0.003484   0.000012   9.335482  -0.770361   0.189738  -0.270891
    10  C    0.001434   0.000066  -0.770361   7.636496  -0.854858   0.275996
    11  C   -0.000031   0.000028   0.189738  -0.854858   8.301774  -1.238449
    12  C   -0.000712  -0.000146  -0.270891   0.275996  -1.238449   9.174905
    13  C    0.002804   0.000345  -0.061443   0.151436  -0.155027  -0.289722
    14  H    0.006119  -0.000117   0.010463  -0.007437   0.007083  -0.064935
    15  H   -0.002346   0.005713   0.028169  -0.002479  -0.001387  -0.004157
    16  H   -0.029443  -0.013380  -0.001078   0.000244   0.000153  -0.000463
    17  H   -0.006060  -0.009643   0.004709  -0.001165   0.000257  -0.000332
    18  H    0.321952  -0.037892  -0.000540   0.000191   0.000013  -0.000027
    19  H    0.398627  -0.039700   0.000325   0.000025  -0.000005  -0.000019
    20  H    0.026342   0.377733  -0.000121   0.000059  -0.000008  -0.000002
    21  H   -0.025777   0.456125   0.000008  -0.000003   0.000004  -0.000012
    22  H    0.017248   0.391589   0.000036   0.000008  -0.000005   0.000004
    23  H   -0.001365  -0.000341   0.338540  -0.562181   0.094421   0.057604
    24  Cl  -0.000036  -0.000010  -0.040666  -0.443067   0.097948   0.063153
    25  C    0.000009   0.000001  -0.018952  -0.144641  -0.441131  -0.498985
    26  H   -0.000067  -0.000003   0.094340  -0.131580  -0.001141  -0.063145
    27  H   -0.001459  -0.000054  -0.017078   0.020703   0.010451  -0.094099
    28  F   -0.000001  -0.000000  -0.006548   0.019957   0.007094  -0.005735
    29  F    0.000001   0.000000  -0.021246   0.000072   0.058880  -0.049857
    30  F    0.000001   0.000000  -0.024173   0.003139   0.064871  -0.050735
    31  O    0.005988   0.001973  -0.020879   0.004319  -0.010811   0.046083
    32  O   -0.013182  -0.002279  -0.002586   0.002255  -0.000641   0.002343
    33  C   -0.002563  -0.001566  -0.003218   0.006598  -0.007101   0.003116
    34  C   -0.002034  -0.000316  -0.000699   0.000300  -0.000880   0.004643
    35  C    0.003319  -0.000093  -0.000127   0.000134   0.000118  -0.000484
    36  H   -0.000441  -0.000076  -0.000021  -0.000013  -0.000175   0.001792
    37  H   -0.000659  -0.000118   0.000147  -0.000039  -0.000213   0.002005
    38  H   -0.000168   0.000326   0.000078  -0.000010   0.000020  -0.000122
    39  H    0.000285  -0.000034  -0.000034   0.000020  -0.000001  -0.000025
    40  H   -0.000345  -0.000063   0.000019  -0.000005   0.000023  -0.000145
              13         14         15         16         17         18
     1  C   -1.302017  -0.408729  -0.118348   0.002521  -0.002217   0.002319
     2  N   -0.170656  -0.595311   0.236097   0.007684  -0.001637  -0.000682
     3  C   -0.021891  -0.460644  -0.178202  -0.055901  -0.052299   0.009108
     4  O    0.020660  -0.004420  -0.083130  -0.018371   0.017648  -0.002938
     5  N   -0.001123   0.266541  -0.790387  -0.100134  -0.018401  -0.034672
     6  C    0.003899  -0.043599  -0.423625   0.362912   0.426385  -0.000193
     7  C    0.002804   0.006119  -0.002346  -0.029443  -0.006060   0.321952
     8  C    0.000345  -0.000117   0.005713  -0.013380  -0.009643  -0.037892
     9  C   -0.061443   0.010463   0.028169  -0.001078   0.004709  -0.000540
    10  C    0.151436  -0.007437  -0.002479   0.000244  -0.001165   0.000191
    11  C   -0.155027   0.007083  -0.001387   0.000153   0.000257   0.000013
    12  C   -0.289722  -0.064935  -0.004157  -0.000463  -0.000332  -0.000027
    13  C    8.885908  -0.048094   0.014062   0.000066  -0.000719  -0.000843
    14  H   -0.048094   1.936871  -0.148725   0.005187  -0.002497   0.005199
    15  H    0.014062  -0.148725   1.724148   0.052992  -0.022645   0.008815
    16  H    0.000066   0.005187   0.052992   0.443148   0.004460   0.017173
    17  H   -0.000719  -0.002497  -0.022645   0.004460   0.433854  -0.014065
    18  H   -0.000843   0.005199   0.008815   0.017173  -0.014065   0.443918
    19  H   -0.000162   0.000389  -0.007922  -0.017659   0.018820   0.012828
    20  H    0.000099  -0.000053   0.000653  -0.005926  -0.011145   0.006937
    21  H    0.000042  -0.000407   0.002485  -0.001571   0.000095  -0.019467
    22  H    0.000001   0.000000  -0.001585  -0.010262  -0.005421  -0.001272
    23  H   -0.155462  -0.003492   0.004369  -0.001358   0.000257  -0.000002
    24  Cl  -0.062836   0.002680  -0.000633  -0.000005   0.000026   0.000011
    25  C    0.080378   0.000946  -0.000536   0.000024   0.000013   0.000005
    26  H   -0.178526  -0.010722   0.000905  -0.000018  -0.000010  -0.000022
    27  H    0.062594  -0.099012   0.012830   0.000128  -0.000049  -0.000710
    28  F    0.011875  -0.000232   0.000054  -0.000000   0.000002  -0.000001
    29  F    0.014015  -0.000099  -0.000013   0.000003  -0.000000  -0.000001
    30  F    0.012479  -0.000231  -0.000011   0.000000  -0.000001   0.000001
    31  O    0.052961  -0.171724  -0.063621  -0.000169  -0.001206  -0.000476
    32  O    0.017116  -0.002616  -0.157157   0.001673   0.000225  -0.005663
    33  C    0.002562   0.021531  -0.010006   0.002598  -0.000078   0.002143
    34  C   -0.015559   0.012447   0.021307   0.000673   0.000664   0.003245
    35  C    0.001016   0.003222  -0.005221   0.000020   0.000137  -0.000461
    36  H   -0.007296  -0.000125   0.003581   0.000061   0.000034   0.000205
    37  H   -0.008161   0.001353   0.003088   0.000030   0.000089   0.000185
    38  H    0.000237   0.002112  -0.003215   0.000013  -0.000004   0.000080
    39  H    0.000560  -0.000986   0.002125  -0.000010  -0.000012  -0.000254
    40  H    0.000133   0.001116  -0.000968   0.000010  -0.000040   0.000567
              19         20         21         22         23         24
     1  C   -0.001533   0.000121  -0.000103   0.000202  -0.415816   0.094056
     2  N    0.000257   0.000204   0.000032  -0.000030  -0.227981  -0.024987
     3  C    0.014006   0.002105   0.000207   0.002726   0.106261   0.009055
     4  O    0.002771  -0.000442   0.000031   0.000597  -0.118118  -0.009813
     5  N   -0.028229   0.004147  -0.000024   0.003800  -0.020860  -0.002741
     6  C   -0.016466  -0.013693  -0.004518  -0.011156  -0.012676  -0.001573
     7  C    0.398627   0.026342  -0.025777   0.017248  -0.001365  -0.000036
     8  C   -0.039700   0.377733   0.456125   0.391589  -0.000341  -0.000010
     9  C    0.000325  -0.000121   0.000008   0.000036   0.338540  -0.040666
    10  C    0.000025   0.000059  -0.000003   0.000008  -0.562181  -0.443067
    11  C   -0.000005  -0.000008   0.000004  -0.000005   0.094421   0.097948
    12  C   -0.000019  -0.000002  -0.000012   0.000004   0.057604   0.063153
    13  C   -0.000162   0.000099   0.000042   0.000001  -0.155462  -0.062836
    14  H    0.000389  -0.000053  -0.000407   0.000000  -0.003492   0.002680
    15  H   -0.007922   0.000653   0.002485  -0.001585   0.004369  -0.000633
    16  H   -0.017659  -0.005926  -0.001571  -0.010262  -0.001358  -0.000005
    17  H    0.018820  -0.011145   0.000095  -0.005421   0.000257   0.000026
    18  H    0.012828   0.006937  -0.019467  -0.001272  -0.000002   0.000011
    19  H    0.445752  -0.001397  -0.006503   0.002189   0.000068   0.000003
    20  H   -0.001397   0.334090  -0.006490   0.017770  -0.000040  -0.000003
    21  H   -0.006503  -0.006490   0.334899   0.001624  -0.000016  -0.000001
    22  H    0.002189   0.017770   0.001624   0.322239   0.000021  -0.000002
    23  H    0.000068  -0.000040  -0.000016   0.000021   1.420050   0.086248
    24  Cl   0.000003  -0.000003  -0.000001  -0.000002   0.086248  17.854504
    25  C    0.000001   0.000000   0.000000  -0.000000   0.001718  -0.077168
    26  H   -0.000005  -0.000000   0.000000  -0.000000   0.011078  -0.001513
    27  H   -0.000313   0.000009   0.000003  -0.000002  -0.017942  -0.004992
    28  F   -0.000000  -0.000000   0.000000   0.000000  -0.000288   0.010898
    29  F    0.000001   0.000000  -0.000000  -0.000000  -0.002994  -0.013277
    30  F   -0.000000  -0.000000   0.000000   0.000000  -0.002963  -0.013449
    31  O    0.000571   0.000146   0.000197   0.000010  -0.001871  -0.000429
    32  O   -0.001266  -0.000024   0.000720  -0.000561   0.000429  -0.000022
    33  C   -0.001294  -0.000134  -0.000198  -0.000158  -0.005529  -0.000453
    34  C    0.000663  -0.000089  -0.000235  -0.000016  -0.000027   0.000002
    35  C    0.000165   0.000024   0.000081  -0.000038  -0.000048  -0.000004
    36  H    0.000122  -0.000013  -0.000028  -0.000002   0.000002   0.000004
    37  H    0.000133  -0.000021  -0.000025  -0.000001   0.000034   0.000004
    38  H   -0.000003   0.000039  -0.000013   0.000019  -0.000013  -0.000000
    39  H   -0.000016   0.000002   0.000023  -0.000009   0.000002  -0.000000
    40  H    0.000043  -0.000011  -0.000012  -0.000004  -0.000013  -0.000000
              25         26         27         28         29         30
     1  C    0.010706   0.029877  -0.046616  -0.017948  -0.002429   0.000307
     2  N    0.006819  -0.011875   0.073663   0.003564  -0.000318  -0.000382
     3  C    0.001456   0.001162  -0.015415   0.000645   0.000165   0.000313
     4  O   -0.000905  -0.000053   0.004388   0.000005  -0.000039  -0.000000
     5  N    0.000758   0.000595   0.008718   0.000084  -0.000060  -0.000019
     6  C    0.000050  -0.000408   0.006049   0.000012  -0.000010   0.000023
     7  C    0.000009  -0.000067  -0.001459  -0.000001   0.000001   0.000001
     8  C    0.000001  -0.000003  -0.000054  -0.000000   0.000000   0.000000
     9  C   -0.018952   0.094340  -0.017078  -0.006548  -0.021246  -0.024173
    10  C   -0.144641  -0.131580   0.020703   0.019957   0.000072   0.003139
    11  C   -0.441131  -0.001141   0.010451   0.007094   0.058880   0.064871
    12  C   -0.498985  -0.063145  -0.094099  -0.005735  -0.049857  -0.050735
    13  C    0.080378  -0.178526   0.062594   0.011875   0.014015   0.012479
    14  H    0.000946  -0.010722  -0.099012  -0.000232  -0.000099  -0.000231
    15  H   -0.000536   0.000905   0.012830   0.000054  -0.000013  -0.000011
    16  H    0.000024  -0.000018   0.000128  -0.000000   0.000003   0.000000
    17  H    0.000013  -0.000010  -0.000049   0.000002  -0.000000  -0.000001
    18  H    0.000005  -0.000022  -0.000710  -0.000001  -0.000001   0.000001
    19  H    0.000001  -0.000005  -0.000313  -0.000000   0.000001  -0.000000
    20  H    0.000000  -0.000000   0.000009  -0.000000   0.000000  -0.000000
    21  H    0.000000   0.000000   0.000003   0.000000  -0.000000   0.000000
    22  H   -0.000000  -0.000000  -0.000002   0.000000  -0.000000   0.000000
    23  H    0.001718   0.011078  -0.017942  -0.000288  -0.002994  -0.002963
    24  Cl  -0.077168  -0.001513  -0.004992   0.010898  -0.013277  -0.013449
    25  C    5.434245  -0.061699  -0.002265   0.152597   0.180206   0.172914
    26  H   -0.061699   0.828283   0.065522  -0.019391  -0.001308  -0.000251
    27  H   -0.002265   0.065522   0.572300   0.000123   0.000304   0.000606
    28  F    0.152597  -0.019391   0.000123   9.365244  -0.068926  -0.069192
    29  F    0.180206  -0.001308   0.000304  -0.068926   9.345113  -0.019878
    30  F    0.172914  -0.000251   0.000606  -0.069192  -0.019878   9.345143
    31  O    0.000042   0.002680  -0.072572  -0.000038   0.000003   0.000013
    32  O   -0.000018   0.000193  -0.003192  -0.000001   0.000000   0.000000
    33  C   -0.000050  -0.002912   0.035440  -0.000030   0.000043   0.000030
    34  C   -0.000036  -0.000881  -0.011043  -0.000015   0.000001   0.000002
    35  C   -0.000008  -0.000097   0.000034  -0.000001   0.000000   0.000000
    36  H    0.000000  -0.000160   0.001214  -0.000003   0.000001  -0.000001
    37  H   -0.000007  -0.000097   0.001666  -0.000002  -0.000001   0.000001
    38  H   -0.000000  -0.000006  -0.000145  -0.000000   0.000000   0.000000
    39  H   -0.000001  -0.000005   0.000108  -0.000000   0.000000   0.000000
    40  H    0.000000  -0.000013  -0.000140   0.000000   0.000000  -0.000000
              31         32         33         34         35         36
     1  C    0.037358   0.016329  -0.064505   0.010915  -0.001309   0.001723
     2  N   -0.061749   0.004325  -0.041032  -0.020869  -0.002838  -0.003580
     3  C   -0.008086  -0.014279  -0.012399  -0.014204  -0.001867  -0.001134
     4  O   -0.001257  -0.003596  -0.003694  -0.000780   0.000030  -0.000036
     5  N   -0.025145  -0.043368  -0.017387   0.002878  -0.000460   0.002634
     6  C   -0.017603  -0.044863   0.010660   0.008719  -0.001539   0.000618
     7  C    0.005988  -0.013182  -0.002563  -0.002034   0.003319  -0.000441
     8  C    0.001973  -0.002279  -0.001566  -0.000316  -0.000093  -0.000076
     9  C   -0.020879  -0.002586  -0.003218  -0.000699  -0.000127  -0.000021
    10  C    0.004319   0.002255   0.006598   0.000300   0.000134  -0.000013
    11  C   -0.010811  -0.000641  -0.007101  -0.000880   0.000118  -0.000175
    12  C    0.046083   0.002343   0.003116   0.004643  -0.000484   0.001792
    13  C    0.052961   0.017116   0.002562  -0.015559   0.001016  -0.007296
    14  H   -0.171724  -0.002616   0.021531   0.012447   0.003222  -0.000125
    15  H   -0.063621  -0.157157  -0.010006   0.021307  -0.005221   0.003581
    16  H   -0.000169   0.001673   0.002598   0.000673   0.000020   0.000061
    17  H   -0.001206   0.000225  -0.000078   0.000664   0.000137   0.000034
    18  H   -0.000476  -0.005663   0.002143   0.003245  -0.000461   0.000205
    19  H    0.000571  -0.001266  -0.001294   0.000663   0.000165   0.000122
    20  H    0.000146  -0.000024  -0.000134  -0.000089   0.000024  -0.000013
    21  H    0.000197   0.000720  -0.000198  -0.000235   0.000081  -0.000028
    22  H    0.000010  -0.000561  -0.000158  -0.000016  -0.000038  -0.000002
    23  H   -0.001871   0.000429  -0.005529  -0.000027  -0.000048   0.000002
    24  Cl  -0.000429  -0.000022  -0.000453   0.000002  -0.000004   0.000004
    25  C    0.000042  -0.000018  -0.000050  -0.000036  -0.000008   0.000000
    26  H    0.002680   0.000193  -0.002912  -0.000881  -0.000097  -0.000160
    27  H   -0.072572  -0.003192   0.035440  -0.011043   0.000034   0.001214
    28  F   -0.000038  -0.000001  -0.000030  -0.000015  -0.000001  -0.000003
    29  F    0.000003   0.000000   0.000043   0.000001   0.000000   0.000001
    30  F    0.000013   0.000000   0.000030   0.000002   0.000000  -0.000001
    31  O    9.207081   0.009912   0.407706  -0.305186  -0.012493  -0.041256
    32  O    0.009912   8.968552   0.337882  -0.153162  -0.034499  -0.031984
    33  C    0.407706   0.337882   5.244674  -0.472041   0.020287  -0.046513
    34  C   -0.305186  -0.153162  -0.472041   6.095572   0.091752   0.501041
    35  C   -0.012493  -0.034499   0.020287   0.091752   5.765105  -0.040527
    36  H   -0.041256  -0.031984  -0.046513   0.501041  -0.040527   0.426302
    37  H   -0.050624  -0.035465  -0.052879   0.513486  -0.039227   0.055448
    38  H    0.003594   0.010601  -0.011107   0.036023   0.364191  -0.002199
    39  H    0.001552  -0.011123   0.021324  -0.060551   0.456517  -0.012846
    40  H    0.002675   0.014722  -0.016170   0.037627   0.363001   0.000308
              37         38         39         40
     1  C    0.001671  -0.000389  -0.000119  -0.000236
     2  N   -0.003293   0.000069   0.000077  -0.000143
     3  C   -0.001082  -0.000106   0.000162  -0.000093
     4  O   -0.000062   0.000011   0.000002   0.000008
     5  N    0.002045  -0.001109  -0.000289   0.000261
     6  C    0.000651   0.000552  -0.000560  -0.000100
     7  C   -0.000659  -0.000168   0.000285  -0.000345
     8  C   -0.000118   0.000326  -0.000034  -0.000063
     9  C    0.000147   0.000078  -0.000034   0.000019
    10  C   -0.000039  -0.000010   0.000020  -0.000005
    11  C   -0.000213   0.000020  -0.000001   0.000023
    12  C    0.002005  -0.000122  -0.000025  -0.000145
    13  C   -0.008161   0.000237   0.000560   0.000133
    14  H    0.001353   0.002112  -0.000986   0.001116
    15  H    0.003088  -0.003215   0.002125  -0.000968
    16  H    0.000030   0.000013  -0.000010   0.000010
    17  H    0.000089  -0.000004  -0.000012  -0.000040
    18  H    0.000185   0.000080  -0.000254   0.000567
    19  H    0.000133  -0.000003  -0.000016   0.000043
    20  H   -0.000021   0.000039   0.000002  -0.000011
    21  H   -0.000025  -0.000013   0.000023  -0.000012
    22  H   -0.000001   0.000019  -0.000009  -0.000004
    23  H    0.000034  -0.000013   0.000002  -0.000013
    24  Cl   0.000004  -0.000000  -0.000000  -0.000000
    25  C   -0.000007  -0.000000  -0.000001   0.000000
    26  H   -0.000097  -0.000006  -0.000005  -0.000013
    27  H    0.001666  -0.000145   0.000108  -0.000140
    28  F   -0.000002  -0.000000  -0.000000   0.000000
    29  F   -0.000001   0.000000   0.000000   0.000000
    30  F    0.000001   0.000000   0.000000  -0.000000
    31  O   -0.050624   0.003594   0.001552   0.002675
    32  O   -0.035465   0.010601  -0.011123   0.014722
    33  C   -0.052879  -0.011107   0.021324  -0.016170
    34  C    0.513486   0.036023  -0.060551   0.037627
    35  C   -0.039227   0.364191   0.456517   0.363001
[...]
  1339. RY*(   2) H  38                  0.00025     1.08512   
  1340. RY*(   3) H  38                  0.00021     1.68329   
  1341. RY*(   4) H  38                  0.00019     1.94068   
  1342. RY*(   5) H  38                  0.00008     2.70429   
  1343. RY*(   6) H  38                  0.00006     2.06861   
  1344. RY*(   7) H  38                  0.00001     1.63495   
  1345. RY*(   8) H  38                  0.00001     3.55470   
  1346. RY*(   9) H  38                  0.00001     3.41233   
  1347. RY*(  10) H  38                  0.00000     2.55238   
  1348. RY*(  11) H  38                  0.00000     5.04398   
  1349. RY*(  12) H  38                  0.00001     3.85661   
  1350. RY*(  13) H  38                  0.00001     2.24249   
  1351. RY*(  14) H  38                  0.00000     3.90645   
  1352. RY*(  15) H  38                  0.00001     2.25135   
  1353. RY*(  16) H  38                  0.00000     4.41575   
  1354. RY*(  17) H  38                  0.00000     2.38331   
  1355. RY*(  18) H  38                  0.00000     4.60086   
  1356. RY*(  19) H  38                  0.00000     2.00688   
  1357. RY*(  20) H  38                  0.00000     4.06129   
  1358. RY*(  21) H  38                  0.00000     2.54312   
  1359. RY*(  22) H  38                  0.00000     4.98726   
  1360. RY*(   1) H  39                  0.00088     0.73251   
  1361. RY*(   2) H  39                  0.00032     1.46228   
  1362. RY*(   3) H  39                  0.00016     1.95979   
  1363. RY*(   4) H  39                  0.00013     2.19000   
  1364. RY*(   5) H  39                  0.00006     2.46337   
  1365. RY*(   6) H  39                  0.00003     1.34679   
  1366. RY*(   7) H  39                  0.00001     1.83896   
  1367. RY*(   8) H  39                  0.00001     4.87342   
  1368. RY*(   9) H  39                  0.00000     3.73844   
  1369. RY*(  10) H  39                  0.00001     3.37739   
  1370. RY*(  11) H  39                  0.00001     3.27596   
  1371. RY*(  12) H  39                  0.00000     3.71902   
  1372. RY*(  13) H  39                  0.00001     2.33681   
  1373. RY*(  14) H  39                  0.00000     4.49709   
  1374. RY*(  15) H  39                  0.00000     1.76586   
  1375. RY*(  16) H  39                  0.00000     3.68951   
  1376. RY*(  17) H  39                  0.00000     1.84050   
  1377. RY*(  18) H  39                  0.00000     4.65496   
  1378. RY*(  19) H  39                  0.00000     2.16102   
  1379. RY*(  20) H  39                  0.00000     4.60477   
  1380. RY*(  21) H  39                  0.00000     2.12367   
  1381. RY*(  22) H  39                  0.00000     4.28393   
  1382. RY*(   1) H  40                  0.00084     1.17837   
  1383. RY*(   2) H  40                  0.00025     1.50056   
  1384. RY*(   3) H  40                  0.00020     1.72324   
  1385. RY*(   4) H  40                  0.00020     3.04001   
  1386. RY*(   5) H  40                  0.00008     2.92544   
  1387. RY*(   6) H  40                  0.00006     2.33301   
  1388. RY*(   7) H  40                  0.00001     1.76199   
  1389. RY*(   8) H  40                  0.00001     3.69958   
  1390. RY*(   9) H  40                  0.00001     3.92811   
  1391. RY*(  10) H  40                  0.00001     3.23116   
  1392. RY*(  11) H  40                  0.00000     4.99732   
  1393. RY*(  12) H  40                  0.00001     4.15102   
  1394. RY*(  13) H  40                  0.00001     3.75122   
  1395. RY*(  14) H  40                  0.00000     1.52525   
  1396. RY*(  15) H  40                  0.00000     4.99885   
  1397. RY*(  16) H  40                  0.00000     4.51059   
  1398. RY*(  17) H  40                  0.00000     3.89523   
  1399. RY*(  18) H  40                  0.00000     4.45955   
  1400. RY*(  19) H  40                  0.00000     6.21258   
  1401. RY*(  20) H  40                  0.00000     4.20861   
  1402. RY*(  21) H  40                  0.00001     6.24584   
  1403. RY*(  22) H  40                  0.00000     4.68846   
  1438. BD*(   1) O  31 - C  33          0.05109     6.90534   
  1439. BD*(   1) O  32 - C  33          0.04518     7.40016   
  1440. BD*(   2) O  32 - C  33          0.32886     5.74303  1396(r),1442(v),1291(r)
                                                    1398(r),1402(r),1160(g)
                                                    1326(r),1293(r),1400(r)
                                                    1281(r),1438(g),1332(r)
                                                    636(r),1282(r),1276(r)
                                                    1399(r),1391(r),1260(r)
                                                    1271(r),1397(r),1441(g)
                                                    1283(r),1446(r),1269(r)
                                                    1266(r),1385(r),1121(v)
                                                    1315(r),1405(r),1366(r)
                                                    1289(r),1444(v),1140(g)
                                                    1394(r),1287(r),1290(r)
                                                    1156(g),1223(v),1320(r)
                                                    1383(r),1158(g),1328(r)
                                                    1303(r),1248(v),1403(r)
                                                    1369(r),1268(r),1153(g)
                                                    1322(r),1401(r),1263(r)
                                                    1152(g),1386(r),1208(g)
                                                    1362(r),1311(r),1164(g)
                                                    1324(r),1431(r),1335(r)
                                                    1404(r),1336(r),1210(g)
                                                    1244(v),1249(v),1151(g)
                                                    1443(v),1250(v),1390(r)
                                                    1308(r),1288(r),1253(r)
                                                    1211(g),1295(r),1267(r)
                                                    1325(r),1279(r),1222(v)
                                                    1235(v),1257(r),1323(r)
                                                    1166(g),1167(g),1143(g)
                                                    1367(r),1264(r),1169(g)
                                                    1327(r),1381(r),1357(r)
                                                    1228(v),1259(r),1154(g)
                                                    1368(r),1261(r),1352(r)
                                                    1364(r),1199(g),1310(r)
                                                    1273(r),1183(g),1224(v)
                                                    1445(r),1410(r),1106(v)
                                                    1313(r),1359(r),1272(r)
                                                    1195(g),1275(r),1307(r)
                                                    1387(r),1356(r),1321(r)
                                                    1165(g),1229(v),1203(g)
                                                    1238(v),1428(r),1170(g)
                                                    1292(r),1246(v),638(r)
                                                    1331(r),1239(v),268(r)
                                                    1353(r),1227(v),1280(r)
                                                    1318(r),1226(v),1214(v)
                                                    1346(r),1361(r),1137(g)
                                                    1133(g),1349(r),1411(r)
                                                    1194(g),1237(v),288(r)
                                                    1114(v),1304(r),1306(r)
                                                    725(r),1141(g),1447(r)
                                                    1351(r),1216(v),1204(g)
                                                    691(r),1200(g),1254(r)
                                                    1243(v),1206(g),1437(r)
                                                    1389(r),1205(g),1209(g)
                                                    1125(v),1355(r),1339(r)
                                                    1220(v),1300(r),377(r)
                                                    1242(v),1270(r),1347(r)
                                                    661(r),1309(r),1148(g)
                                                    1384(r),1297(r),1184(g)
                                                    1247(v),1102(v),806(r)
                                                    1132(g),632(r),1451(r)
                                                    1138(g),1161(g),1427(r)
                                                    1350(r),1177(g),1251(v)
                                                    1149(g),1256(r),1317(r)
                                                    1173(g),1344(r),118(r)
                                                    1168(g),1274(r),1262(r)
                                                    1449(r),253(r),1354(r)
                                                    657(r),1234(v),1139(g)
                                                    196(r),663(r),1201(g),298(r)
                                                    1130(g),1193(g),1207(g)
                                                    1124(v),1135(g),1450(r)
                                                    1126(v),1101(v),1113(v)
                                                    1265(r),1277(r),1196(g)
                                                    1145(g),1221(v),1312(r)
                                                    732(r),297(r),1388(r)
                                                    1118(v),229(r),1377(r)
                                                    1155(g),1185(g),1380(r)
                                                    1305(r),1127(v),1414(r)
                                                    160(r),1188(g),1417(r)
                                                    1255(r),1111(v),1343(r)
                                                    622(r),605(r),1430(r)
                                                    1298(r),659(r),1190(g)
                                                    644(r),697(r),1371(r)
                                                    1374(r),1163(g),1299(r)
                                                    730(r),1103(v),719(r)
                                                    1372(r),1278(r),250(r)
                                                    655(r),1348(r),235(r)
                                                    1215(v),305(r),634(r),599(r)
                                                    633(r),1136(g),1142(g)
                                                    287(r),158(r),1395(r),453(r)
                                                    276(r),1191(g),1171(g)
                                                    618(r),508(r),269(r),274(r)
                                                    724(r),1159(g),1338(r)
                                                    150(r),1181(g),1176(g)
                                                    243(r),197(r),1245(v)
                                                    1284(r),173(r),1182(g)
                                                    1408(r),1285(r),1382(r)
                                                    295(r),293(r),1219(v),317(r)
                                                    164(r),1117(v),172(r)
                                                    1217(v),313(r),289(r)
                                                    1144(g),658(r),723(r),831(r)
                                                    290(r),640(r),1128(v),271(r)
                                                    1341(r),742(r),1448(r)
                                                    579(r),662(r),451(r),1413(r)
                                                    957(r),1187(g),720(r)
                                                    1453(r),1093(v),1236(v)
                                                    356(r),1180(g),637(r),614(r)
                                                    296(r),1134(g),721(r),192(r)
                                                    1105(v),1091(v),698(r)
                                                    754(r),316(r),210(r),696(r)
                                                    1420(r),363(r),641(r),204(r)
                                                    193(r),358(r),668(r),639(r)
                                                    342(r),148(r),731(r),142(r)
                                                    234(r),443(r),279(r),714(r)
                                                    676(r),709(r),987(r),602(r)
                                                    318(r),247(r),345(r),1416(r)
                                                    284(r),566(r),710(r),242(r)
                                                    434(r),349(r),701(r),645(r)
                                                    281(r),956(r),751(r),97(r)
                                                    265(r),1072(r),100(r),623(r)
                                                    106(r),257(r),188(r),1433(r)
                                                    516(r),370(r),309(r),760(r)
                                                    727(r),955(r),616(r),624(r)
                                                    239(r),665(r),654(r),722(r)
                                                    715(r),354(r),302(r),699(r)
                                                    306(r),360(r),315(r),351(r)
                                                    621(r),480(r),660(r),361(r)
                                                    705(r),199(r),718(r),435(r)
                                                    753(r),1436(r),388(r),272(r)
                                                    222(r),526(r),418(r),593(r)
                                                    959(r),1407(r),1419(r)
                                                    569(r),395(r),310(r),446(r)
                                                    156(r),427(r),263(r),146(r)
                                                    438(r),285(r),612(r),109(r)
                                                    826(r),275(r),700(r),601(r)
                                                    374(r),646(r),280(r),249(r)
                                                    958(r),223(r),628(r),631(r)
                                                    266(r),608(r),131(r),1418(r)
                                                    355(r),541(r),642(r),954(r)
                                                    651(r),227(r),387(r),519(r)
                                                    143(r),496(r),471(r),737(r)
                                                    606(r),216(r),782(r),330(r)
                                                    366(r),562(r),568(r),248(r)
                                                    124(r),170(r),702(r),594(r)
                                                    238(r),372(r),741(r),694(r)
                                                    945(r),649(r),534(r),748(r)
                                                    331(r),350(r),706(r),717(r)
                                                    381(r),145(r),759(r),441(r)
                                                    808(r),707(r),604(r),522(r)
                                                    690(r),770(r),656(r),805(r)
                                                    630(r),733(r),652(r),368(r)
                                                    703(r),729(r),385(r),198(r)
                                                    299(r),960(r),766(r),392(r)
                                                    151(r),205(r),191(r),746(r)
                                                    338(r),487(r),750(r),653(r)
                                                    528(r),282(r),327(r),828(r)
                                                    201(r),574(r),333(r),944(r)
                                                    468(r),208(r),947(r),743(r)
                                                    744(r),486(r),889(r),314(r)
                                                    556(r),1415(r)
  1441. BD*(   1) C  33 - C  34          0.07874     1.21715   
  1442. BD*(   1) C  34 - C  35          0.00634     5.38104   
  1443. BD*(   1) C  34 - H  36          0.01149     1.09315   
  1444. BD*(   1) C  34 - H  37          0.01148     7.57968   
  1445. BD*(   1) C  35 - H  38          0.00760     1.27908   
  1446. BD*(   1) C  35 - H  39          0.00722     7.42581   
  1447. BD*(   1) C  35 - H  40          0.00759     1.42979   
       -------------------------------
              Total Lewis   39.26961  ( 98.4344%)
        Valence non-Lewis    0.55559  (  1.3927%)
        Rydberg non-Lewis    0.06899  (  0.1729%)
       -------------------------------
            Total unit  2   39.89419  (100.0000%)
           Charge unit  2   -0.89419
 Unable to Open any file for archive entry.
 1\1\GINC-GADI-HMEM-CLX-0013\SP\RDSDPBEP86-FC\Aug-CC-pVTZ\C14H17Cl1F3N2
 O3(1-)\HIO507\03-Nov-2020\0\\# DSDPBEP86/AUG-cc-PVTZ SCF=Tight INT(gri
 d=ultrafine) Pop=NBO MaxDisk=1400000MB\\CP19_carboxy.DSDPBEP86_AUG-cc-
 PVTZ\\-1,1\C,0,-6.2693336408,1.120280962,-0.012372073\N,0,-5.008482776
 ,0.5790618075,0.0032083725\C,0,-3.7956951363,1.2618252995,-0.019047395
 4\O,0,-3.698416134,2.4834972704,-0.0545118106\N,0,-2.7325918005,0.4265
 770071,0.0100392088\C,0,-1.3889202271,0.9526990555,-0.0704251857\C,0,-
 0.3839868429,-0.1482512693,0.2443106042\C,0,1.0525991761,0.3500289241,
 0.1250072512\C,0,-6.5478625004,2.4996987405,-0.0356395405\C,0,-7.86343
 28776,2.9264869895,-0.0474008382\C,0,-8.9409039178,2.0402062313,-0.036
 5930891\C,0,-8.6497065942,0.6727935557,-0.0134434985\C,0,-7.3500064812
 ,0.2138015414,-0.0013101951\H,0,-4.9762350745,-0.4597578222,0.02430227
 09\H,0,-2.8574976372,-0.5958955979,-0.0419734445\H,0,-1.2839914102,1.7
 845168278,0.6334411721\H,0,-1.1936675832,1.3664762982,-1.0696421032\H,
 0,-0.5550362843,-0.99519172,-0.4264538155\H,0,-0.5765184926,-0.5232798
 479,1.2539241991\H,0,1.2659797714,0.6983354488,-0.8896730905\H,0,1.770
 4641949,-0.4384305632,0.3623263604\H,0,1.2392698073,1.1863601925,0.805
 1979524\H,0,-5.7386655987,3.2134707989,-0.0444946657\Cl,0,-8.143827187
 5,4.6556097964,-0.0748502876\C,0,-10.3594182397,2.5071189822,-0.048744
 6669\H,0,-9.4654706321,-0.0394486919,-0.0047896481\H,0,-7.1320995245,-
 0.8490824652,0.0161109492\F,0,-11.2246629664,1.4742927433,-0.034238693
 5\F,0,-10.6759564078,3.2718827174,1.014391467\F,0,-10.6695922122,3.236
 1950953,-1.1385300543\O,0,-5.1459203199,-2.1821671625,0.0341528858\O,0
 ,-2.9251225905,-2.3877781004,-0.1402387345\C,0,-4.0845482193,-2.850303
 6927,-0.0643377031\C,0,-4.2557822024,-4.3766795211,-0.0910684241\C,0,-
 2.9506994045,-5.1511410337,-0.2100045406\H,0,-4.9314504279,-4.60898167
 05,-0.9202269831\H,0,-4.7996368466,-4.6539425666,0.817416402\H,0,-2.41
 9325387,-4.8745437365,-1.1221239348\H,0,-3.1270445912,-6.2311680604,-0
 .2240326006\H,0,-2.2865347808,-4.9187127634,0.6240779213\\Version=ES64
 L-G16RevC.01\State=1-A\HF=-1634.8262321\MP2=-1637.0359714\RMSD=2.856e-
 09\PG=C01 [X(C14H17Cl1F3N2O3)]\\@
 The archive entry for this job was punched.


 JUST WHEN YOU THINK YOU'VE GOT THE WORLD ON A STRING,
 YOU FIND OUT IT'S YOUR LEASH.
 Job cpu time:       6 days 17 hours 32 minutes  6.9 seconds.
 Elapsed time:       0 days  5 hours  5 minutes 36.9 seconds.
 File lengths (MBytes):  RWF=   1087 Int=      0 D2E=      0 Chk=    138 Scr=      1
 Normal termination of Gaussian 16 at Tue Nov  3 15:36:18 2020.
