 Entering Gaussian System, Link 0=/apps/gaussian/g09e01/g09/g09
 Initial command:
 /apps/gaussian/g09e01/g09/l1.exe "/jobfs/local/3595027.r-man2/Gau-43363.inp" -scrdir="/jobfs/local/3595027.r-man2/"
 Entering Link 1 = /apps/gaussian/g09e01/g09/l1.exe PID=     43364.
  
 Copyright (c) 1988,1990,1992,1993,1995,1998,2003,2009,2015,
            Gaussian, Inc.  All Rights Reserved.
  
 This is part of the Gaussian(R) 09 program.  It is based on
 the Gaussian(R) 03 system (copyright 2003, Gaussian, Inc.),
 the Gaussian(R) 98 system (copyright 1998, Gaussian, Inc.),
 the Gaussian(R) 94 system (copyright 1995, Gaussian, Inc.),
 the Gaussian 92(TM) system (copyright 1992, Gaussian, Inc.),
 the Gaussian 90(TM) system (copyright 1990, Gaussian, Inc.),
 the Gaussian 88(TM) system (copyright 1988, Gaussian, Inc.),
 the Gaussian 86(TM) system (copyright 1986, Carnegie Mellon
 University), and the Gaussian 82(TM) system (copyright 1983,
 Carnegie Mellon University). Gaussian is a federally registered
 trademark of Gaussian, Inc.
  
 This software contains proprietary and confidential information,
 including trade secrets, belonging to Gaussian, Inc.
  
 This software is provided under written license and may be
 used, copied, transmitted, or stored only in accord with that
 written license.
  
 The following legend is applicable only to US Government
 contracts under FAR:
  
                    RESTRICTED RIGHTS LEGEND
  
 Use, reproduction and disclosure by the US Government is
 subject to restrictions as set forth in subparagraphs (a)
 and (c) of the Commercial Computer Software - Restricted
 Rights clause in FAR 52.227-19.
  
 Gaussian, Inc.
 340 Quinnipiac St., Bldg. 40, Wallingford CT 06492
  
  
 ---------------------------------------------------------------
 Warning -- This program may not be used in any manner that
 competes with the business of Gaussian, Inc. or will provide
 assistance to any competitor of Gaussian, Inc.  The licensee
 of this program is prohibited from giving any competitor of
 Gaussian, Inc. access to this program.  By using this program,
 the user acknowledges that Gaussian, Inc. is engaged in the
 business of creating and licensing software in the field of
 computational chemistry and represents and warrants to the
 licensee that it is not a competitor of Gaussian, Inc. and that
 it will not use this program in any manner prohibited above.
 ---------------------------------------------------------------
  

 Cite this work as:
 Gaussian 09, Revision E.01,
 M. J. Frisch, G. W. Trucks, H. B. Schlegel, G. E. Scuseria, 
 M. A. Robb, J. R. Cheeseman, G. Scalmani, V. Barone, B. Mennucci, 
 G. A. Petersson, H. Nakatsuji, M. Caricato, X. Li, H. P. Hratchian, 
 A. F. Izmaylov, J. Bloino, G. Zheng, J. L. Sonnenberg, M. Hada, 
 M. Ehara, K. Toyota, R. Fukuda, J. Hasegawa, M. Ishida, T. Nakajima, 
 Y. Honda, O. Kitao, H. Nakai, T. Vreven, J. A. Montgomery, Jr., 
 J. E. Peralta, F. Ogliaro, M. Bearpark, J. J. Heyd, E. Brothers, 
 K. N. Kudin, V. N. Staroverov, T. Keith, R. Kobayashi, J. Normand, 
 K. Raghavachari, A. Rendell, J. C. Burant, S. S. Iyengar, J. Tomasi, 
 M. Cossi, N. Rega, J. M. Millam, M. Klene, J. E. Knox, J. B. Cross, 
 V. Bakken, C. Adamo, J. Jaramillo, R. Gomperts, R. E. Stratmann, 
 O. Yazyev, A. J. Austin, R. Cammi, C. Pomelli, J. W. Ochterski, 
 R. L. Martin, K. Morokuma, V. G. Zakrzewski, G. A. Voth, 
 P. Salvador, J. J. Dannenberg, S. Dapprich, A. D. Daniels, 
 O. Farkas, J. B. Foresman, J. V. Ortiz, J. Cioslowski, 
 and D. J. Fox, Gaussian, Inc., Wallingford CT, 2013.
 
 ******************************************
 Gaussian 09:  ES64L-G09RevE.01 30-Nov-2015
                14-Nov-2019 
 ******************************************
 %chk=CP19_carboxy.M062X_6-311pGd_opt_GD3.chk
 %mem=196608000
 %nproc=8
 Will use up to    8 processors via shared memory.
 ----------------------------------------------------------------------
 # M062X/6-311+G* SCF=Tight INT(grid=ultrafine) OPT IOP(2/17=4) Empiric
 alDispersion=GD3 maxdisk=2684354560
 ----------------------------------------------------------------------
 1/14=-1,18=20,19=15,26=4,38=1/1,3;
 2/9=110,12=2,17=4,18=5,40=1/2;
 3/5=4,6=6,7=11,11=2,16=1,25=1,30=1,71=1,74=-55,75=-5,124=31/1,2,3;
 4//1;
 5/5=2,32=2,38=5/2;
 6/7=2,8=2,9=2,10=2,28=1/1;
 7//1,2,3,16;
 1/14=-1,18=20,19=15,26=4/3(2);
 2/9=110,17=4/2;
 99//99;
 2/9=110,17=4/2;
 3/5=4,6=6,7=11,11=2,16=1,25=1,30=1,71=1,74=-55,75=-5,124=31/1,2,3;
 4/5=5,16=3,69=1/1;
 5/5=2,32=2,38=5/2;
 7//1,2,3,16;
 1/14=-1,18=20,19=15,26=4/3(-5);
 2/9=110,17=4/2;
 6/7=2,8=2,9=2,10=2,19=2,28=1/1;
 99/9=1/99;
 -----------------------------------
 CP19_carboxy.M062X_6-311pGd_opt_GD3
 -----------------------------------
 Symbolic Z-matrix:
 Charge = -1 Multiplicity = 1
 C                    -6.26933   1.12028  -0.01237 
 N                    -5.00848   0.57906   0.00321 
 C                    -3.7957    1.26183  -0.01905 
 O                    -3.69842   2.4835   -0.05451 
 N                    -2.73259   0.42658   0.01004 
 C                    -1.38892   0.9527   -0.07043 
 C                    -0.38399  -0.14825   0.24431 
 C                     1.0526    0.35003   0.12501 
 C                    -6.54786   2.4997   -0.03564 
 C                    -7.86343   2.92649  -0.0474 
 C                    -8.9409    2.04021  -0.03659 
 C                    -8.64971   0.67279  -0.01344 
 C                    -7.35001   0.2138   -0.00131 
 H                    -4.97624  -0.45976   0.0243 
 H                    -2.8575   -0.5959   -0.04197 
 H                    -1.28399   1.78452   0.63344 
 H                    -1.19367   1.36648  -1.06964 
 H                    -0.55504  -0.99519  -0.42645 
 H                    -0.57652  -0.52328   1.25392 
 H                     1.26598   0.69834  -0.88967 
 H                     1.77046  -0.43843   0.36233 
 H                     1.23927   1.18636   0.8052 
 H                    -5.73867   3.21347  -0.04449 
 Cl                   -8.14383   4.65561  -0.07485 
 C                    -10.35942   2.50712  -0.04874 
 H                    -9.46547  -0.03945  -0.00479 
 H                    -7.1321   -0.84908   0.01611 
 F                    -11.22466   1.47429  -0.03424 
 F                    -10.67596   3.27188   1.01439 
 F                    -10.66959   3.2362   -1.13853 
 O                    -5.14592  -2.18217   0.03415 
 O                    -2.92512  -2.38778  -0.14024 
 C                    -4.08455  -2.8503   -0.06434 
 C                    -4.25578  -4.37668  -0.09107 
 C                    -2.9507   -5.15114  -0.21 
 H                    -4.93145  -4.60898  -0.92023 
 H                    -4.79964  -4.65394   0.81742 
 H                    -2.41933  -4.87454  -1.12212 
 H                    -3.12704  -6.23117  -0.22403 
 H                    -2.28653  -4.91871   0.62408 
 
 Add virtual bond connecting atoms O31        and H14        Dist= 3.27D+00.
 Add virtual bond connecting atoms O32        and H15        Dist= 3.39D+00.

 GradGradGradGradGradGradGradGradGradGradGradGradGradGradGradGradGradGrad
 Berny optimization.
 Initialization pass.
                           ----------------------------
                           !    Initial Parameters    !
                           ! (Angstroms and Degrees)  !
 --------------------------                            --------------------------
 ! Name  Definition              Value          Derivative Info.                !
 --------------------------------------------------------------------------------
 ! R1    R(1,2)                  1.3722         estimate D2E/DX2                !
 ! R2    R(1,9)                  1.4074         estimate D2E/DX2                !
 ! R3    R(1,13)                 1.4106         estimate D2E/DX2                !
 ! R4    R(2,3)                  1.3919         estimate D2E/DX2                !
 ! R5    R(2,14)                 1.0395         estimate D2E/DX2                !
 ! R6    R(3,4)                  1.2261         estimate D2E/DX2                !
 ! R7    R(3,5)                  1.3523         estimate D2E/DX2                !
 ! R8    R(5,6)                  1.4452         estimate D2E/DX2                !
 ! R9    R(5,15)                 1.0314         estimate D2E/DX2                !
 ! R10   R(6,7)                  1.5235         estimate D2E/DX2                !
 ! R11   R(6,16)                 1.0947         estimate D2E/DX2                !
 ! R12   R(6,17)                 1.099          estimate D2E/DX2                !
 ! R13   R(7,8)                  1.5252         estimate D2E/DX2                !
 ! R14   R(7,18)                 1.0938         estimate D2E/DX2                !
 ! R15   R(7,19)                 1.0941         estimate D2E/DX2                !
 ! R16   R(8,20)                 1.0938         estimate D2E/DX2                !
 ! R17   R(8,21)                 1.0924         estimate D2E/DX2                !
 ! R18   R(8,22)                 1.0941         estimate D2E/DX2                !
 ! R19   R(9,10)                 1.3831         estimate D2E/DX2                !
 ! R20   R(9,23)                 1.079          estimate D2E/DX2                !
 ! R21   R(10,11)                1.3952         estimate D2E/DX2                !
 ! R22   R(10,24)                1.7519         estimate D2E/DX2                !
 ! R23   R(11,12)                1.3983         estimate D2E/DX2                !
 ! R24   R(11,25)                1.4934         estimate D2E/DX2                !
 ! R25   R(12,13)                1.3784         estimate D2E/DX2                !
 ! R26   R(12,26)                1.083          estimate D2E/DX2                !
 ! R27   R(13,27)                1.0851         estimate D2E/DX2                !
 ! R28   R(14,31)                1.7308         estimate D2E/DX2                !
 ! R29   R(15,32)                1.7958         estimate D2E/DX2                !
 ! R30   R(25,28)                1.3474         estimate D2E/DX2                !
 ! R31   R(25,29)                1.3473         estimate D2E/DX2                !
 ! R32   R(25,30)                1.3474         estimate D2E/DX2                !
 ! R33   R(31,33)                1.258          estimate D2E/DX2                !
 ! R34   R(32,33)                1.2506         estimate D2E/DX2                !
 ! R35   R(33,34)                1.5362         estimate D2E/DX2                !
 ! R36   R(34,35)                1.5222         estimate D2E/DX2                !
 ! R37   R(34,36)                1.0945         estimate D2E/DX2                !
 ! R38   R(34,37)                1.0945         estimate D2E/DX2                !
 ! R39   R(35,38)                1.0912         estimate D2E/DX2                !
 ! R40   R(35,39)                1.0944         estimate D2E/DX2                !
 ! R41   R(35,40)                1.0913         estimate D2E/DX2                !
 ! A1    A(2,1,9)              124.652          estimate D2E/DX2                !
 ! A2    A(2,1,13)             116.7699         estimate D2E/DX2                !
 ! A3    A(9,1,13)             118.578          estimate D2E/DX2                !
 ! A4    A(1,2,3)              127.3689         estimate D2E/DX2                !
 ! A5    A(1,2,14)             115.0168         estimate D2E/DX2                !
 ! A6    A(3,2,14)             117.6112         estimate D2E/DX2                !
 ! A7    A(2,3,4)              123.9418         estimate D2E/DX2                !
 ! A8    A(2,3,5)              112.4363         estimate D2E/DX2                !
 ! A9    A(4,3,5)              123.621          estimate D2E/DX2                !
 ! A10   A(3,5,6)              120.3217         estimate D2E/DX2                !
 ! A11   A(3,5,15)             121.0662         estimate D2E/DX2                !
 ! A12   A(6,5,15)             118.0782         estimate D2E/DX2                !
 ! A13   A(5,6,7)              109.7972         estimate D2E/DX2                !
 ! A14   A(5,6,16)             109.2648         estimate D2E/DX2                !
 ! A15   A(5,6,17)             110.6626         estimate D2E/DX2                !
 ! A16   A(7,6,16)             110.6742         estimate D2E/DX2                !
 ! A17   A(7,6,17)             110.0429         estimate D2E/DX2                !
 ! A18   A(16,6,17)            106.3488         estimate D2E/DX2                !
 ! A19   A(6,7,8)              111.6569         estimate D2E/DX2                !
 ! A20   A(6,7,18)             109.2505         estimate D2E/DX2                !
 ! A21   A(6,7,19)             108.8001         estimate D2E/DX2                !
 ! A22   A(8,7,18)             110.6265         estimate D2E/DX2                !
 ! A23   A(8,7,19)             110.4819         estimate D2E/DX2                !
 ! A24   A(18,7,19)            105.8397         estimate D2E/DX2                !
 ! A25   A(7,8,20)             111.1208         estimate D2E/DX2                !
 ! A26   A(7,8,21)             111.4796         estimate D2E/DX2                !
 ! A27   A(7,8,22)             111.2115         estimate D2E/DX2                !
 ! A28   A(20,8,21)            107.6482         estimate D2E/DX2                !
 ! A29   A(20,8,22)            107.4595         estimate D2E/DX2                !
 ! A30   A(21,8,22)            107.7315         estimate D2E/DX2                !
 ! A31   A(1,9,10)             119.393          estimate D2E/DX2                !
 ! A32   A(1,9,23)             120.0025         estimate D2E/DX2                !
 ! A33   A(10,9,23)            120.6045         estimate D2E/DX2                !
 ! A34   A(9,10,11)            122.5801         estimate D2E/DX2                !
 ! A35   A(9,10,24)            117.1885         estimate D2E/DX2                !
 ! A36   A(11,10,24)           120.2313         estimate D2E/DX2                !
 ! A37   A(10,11,12)           117.4207         estimate D2E/DX2                !
 ! A38   A(10,11,25)           122.3349         estimate D2E/DX2                !
 ! A39   A(12,11,25)           120.2444         estimate D2E/DX2                !
 ! A40   A(11,12,13)           121.4763         estimate D2E/DX2                !
 ! A41   A(11,12,26)           119.1056         estimate D2E/DX2                !
 ! A42   A(13,12,26)           119.4181         estimate D2E/DX2                !
 ! A43   A(1,13,12)            120.552          estimate D2E/DX2                !
 ! A44   A(1,13,27)            118.4076         estimate D2E/DX2                !
 ! A45   A(12,13,27)           121.0404         estimate D2E/DX2                !
 ! A46   A(11,25,28)           111.7277         estimate D2E/DX2                !
 ! A47   A(11,25,29)           113.2155         estimate D2E/DX2                !
 ! A48   A(11,25,30)           113.2296         estimate D2E/DX2                !
 ! A49   A(28,25,29)           106.0051         estimate D2E/DX2                !
 ! A50   A(28,25,30)           106.0008         estimate D2E/DX2                !
 ! A51   A(29,25,30)           106.0807         estimate D2E/DX2                !
 ! A52   A(14,31,33)           116.4472         estimate D2E/DX2                !
 ! A53   A(15,32,33)           113.617          estimate D2E/DX2                !
 ! A54   A(31,33,32)           126.1933         estimate D2E/DX2                !
 ! A55   A(31,33,34)           115.7872         estimate D2E/DX2                !
 ! A56   A(32,33,34)           118.0195         estimate D2E/DX2                !
 ! A57   A(33,34,35)           114.2874         estimate D2E/DX2                !
 ! A58   A(33,34,36)           107.0302         estimate D2E/DX2                !
 ! A59   A(33,34,37)           107.0162         estimate D2E/DX2                !
 ! A60   A(35,34,36)           111.2282         estimate D2E/DX2                !
 ! A61   A(35,34,37)           111.2216         estimate D2E/DX2                !
 ! A62   A(36,34,37)           105.5622         estimate D2E/DX2                !
 ! A63   A(34,35,38)           110.7217         estimate D2E/DX2                !
 ! A64   A(34,35,39)           111.4035         estimate D2E/DX2                !
 ! A65   A(34,35,40)           110.7152         estimate D2E/DX2                !
 ! A66   A(38,35,39)           108.5349         estimate D2E/DX2                !
 ! A67   A(38,35,40)           106.7692         estimate D2E/DX2                !
 ! A68   A(39,35,40)           108.5455         estimate D2E/DX2                !
 ! A69   L(2,14,31,7,-1)       187.4359         estimate D2E/DX2                !
 ! A70   L(5,15,32,7,-1)       175.2542         estimate D2E/DX2                !
 ! A71   L(2,14,31,7,-2)       180.4742         estimate D2E/DX2                !
 ! A72   L(5,15,32,7,-2)       180.7665         estimate D2E/DX2                !
 ! D1    D(9,1,2,3)             -0.948          estimate D2E/DX2                !
 ! D2    D(9,1,2,14)           179.7223         estimate D2E/DX2                !
 ! D3    D(13,1,2,3)           179.1817         estimate D2E/DX2                !
 ! D4    D(13,1,2,14)           -0.148          estimate D2E/DX2                !
 ! D5    D(2,1,9,10)          -179.8895         estimate D2E/DX2                !
 ! D6    D(2,1,9,23)             0.1322         estimate D2E/DX2                !
 ! D7    D(13,1,9,10)           -0.0213         estimate D2E/DX2                !
 ! D8    D(13,1,9,23)         -179.9997         estimate D2E/DX2                !
 ! D9    D(2,1,13,12)          179.8955         estimate D2E/DX2                !
 ! D10   D(2,1,13,27)           -0.1526         estimate D2E/DX2                !
 ! D11   D(9,1,13,12)            0.017          estimate D2E/DX2                !
 ! D12   D(9,1,13,27)          179.9689         estimate D2E/DX2                !
 ! D13   D(1,2,3,4)              0.1371         estimate D2E/DX2                !
 ! D14   D(1,2,3,5)            179.8065         estimate D2E/DX2                !
 ! D15   D(14,2,3,4)           179.4516         estimate D2E/DX2                !
 ! D16   D(14,2,3,5)            -0.879          estimate D2E/DX2                !
 ! D17   D(1,2,31,33)          174.0395         estimate D2E/DX2                !
 ! D18   D(3,2,31,33)           -4.8261         estimate D2E/DX2                !
 ! D19   D(2,3,5,6)            177.0788         estimate D2E/DX2                !
 ! D20   D(2,3,5,15)             5.6207         estimate D2E/DX2                !
 ! D21   D(4,3,5,6)             -3.2505         estimate D2E/DX2                !
 ! D22   D(4,3,5,15)          -174.7087         estimate D2E/DX2                !
 ! D23   D(3,5,6,7)            169.4151         estimate D2E/DX2                !
 ! D24   D(3,5,6,16)            47.8612         estimate D2E/DX2                !
 ! D25   D(3,5,6,17)           -68.9137         estimate D2E/DX2                !
 ! D26   D(15,5,6,7)           -18.8759         estimate D2E/DX2                !
 ! D27   D(15,5,6,16)         -140.4298         estimate D2E/DX2                !
 ! D28   D(15,5,6,17)          102.7954         estimate D2E/DX2                !
 ! D29   D(3,5,32,33)           -8.8679         estimate D2E/DX2                !
 ! D30   D(6,5,32,33)          179.6482         estimate D2E/DX2                !
 ! D31   D(5,6,7,8)            178.0648         estimate D2E/DX2                !
 ! D32   D(5,6,7,18)            55.3712         estimate D2E/DX2                !
 ! D33   D(5,6,7,19)           -59.7348         estimate D2E/DX2                !
 ! D34   D(16,6,7,8)           -61.2293         estimate D2E/DX2                !
 ! D35   D(16,6,7,18)          176.0771         estimate D2E/DX2                !
 ! D36   D(16,6,7,19)           60.9711         estimate D2E/DX2                !
 ! D37   D(17,6,7,8)            56.0237         estimate D2E/DX2                !
 ! D38   D(17,6,7,18)          -66.67           estimate D2E/DX2                !
 ! D39   D(17,6,7,19)          178.224          estimate D2E/DX2                !
 ! D40   D(6,7,8,20)           -60.5653         estimate D2E/DX2                !
 ! D41   D(6,7,8,21)           179.3511         estimate D2E/DX2                !
 ! D42   D(6,7,8,22)            59.0999         estimate D2E/DX2                !
 ! D43   D(18,7,8,20)           61.3387         estimate D2E/DX2                !
 ! D44   D(18,7,8,21)          -58.7448         estimate D2E/DX2                !
 ! D45   D(18,7,8,22)         -178.996          estimate D2E/DX2                !
 ! D46   D(19,7,8,20)          178.2057         estimate D2E/DX2                !
 ! D47   D(19,7,8,21)           58.1221         estimate D2E/DX2                !
 ! D48   D(19,7,8,22)          -62.1291         estimate D2E/DX2                !
 ! D49   D(1,9,10,11)            0.0254         estimate D2E/DX2                !
 ! D50   D(1,9,10,24)          179.9463         estimate D2E/DX2                !
 ! D51   D(23,9,10,11)        -179.9964         estimate D2E/DX2                !
 ! D52   D(23,9,10,24)          -0.0755         estimate D2E/DX2                !
 ! D53   D(9,10,11,12)          -0.0235         estimate D2E/DX2                !
 ! D54   D(9,10,11,25)         179.9709         estimate D2E/DX2                !
 ! D55   D(24,10,11,12)       -179.942          estimate D2E/DX2                !
 ! D56   D(24,10,11,25)          0.0523         estimate D2E/DX2                !
 ! D57   D(10,11,12,13)          0.0185         estimate D2E/DX2                !
 ! D58   D(10,11,12,26)       -179.988          estimate D2E/DX2                !
 ! D59   D(25,11,12,13)       -179.976          estimate D2E/DX2                !
 ! D60   D(25,11,12,26)          0.0175         estimate D2E/DX2                !
 ! D61   D(10,11,25,28)       -179.9706         estimate D2E/DX2                !
 ! D62   D(10,11,25,29)        -60.3741         estimate D2E/DX2                !
 ! D63   D(10,11,25,30)         60.4286         estimate D2E/DX2                !
 ! D64   D(12,11,25,28)          0.0236         estimate D2E/DX2                !
 ! D65   D(12,11,25,29)        119.6201         estimate D2E/DX2                !
 ! D66   D(12,11,25,30)       -119.5772         estimate D2E/DX2                !
 ! D67   D(11,12,13,1)          -0.016          estimate D2E/DX2                !
 ! D68   D(11,12,13,27)       -179.9666         estimate D2E/DX2                !
 ! D69   D(26,12,13,1)         179.9905         estimate D2E/DX2                !
 ! D70   D(26,12,13,27)          0.0399         estimate D2E/DX2                !
 ! D71   D(14,31,33,32)          1.5745         estimate D2E/DX2                !
 ! D72   D(14,31,33,34)       -178.4589         estimate D2E/DX2                !
 ! D73   D(15,32,33,31)          1.9367         estimate D2E/DX2                !
 ! D74   D(15,32,33,34)       -178.0292         estimate D2E/DX2                !
 ! D75   D(31,33,34,35)       -179.9612         estimate D2E/DX2                !
 ! D76   D(31,33,34,36)         56.4188         estimate D2E/DX2                !
 ! D77   D(31,33,34,37)        -56.3602         estimate D2E/DX2                !
 ! D78   D(32,33,34,35)          0.0082         estimate D2E/DX2                !
 ! D79   D(32,33,34,36)       -123.6118         estimate D2E/DX2                !
 ! D80   D(32,33,34,37)        123.6093         estimate D2E/DX2                !
 ! D81   D(33,34,35,38)        -59.1541         estimate D2E/DX2                !
 ! D82   D(33,34,35,39)        179.9603         estimate D2E/DX2                !
 ! D83   D(33,34,35,40)         59.0657         estimate D2E/DX2                !
 ! D84   D(36,34,35,38)         62.1775         estimate D2E/DX2                !
 ! D85   D(36,34,35,39)        -58.7082         estimate D2E/DX2                !
 ! D86   D(36,34,35,40)       -179.6027         estimate D2E/DX2                !
 ! D87   D(37,34,35,38)        179.5379         estimate D2E/DX2                !
 ! D88   D(37,34,35,39)         58.6523         estimate D2E/DX2                !
 ! D89   D(37,34,35,40)        -62.2423         estimate D2E/DX2                !
 --------------------------------------------------------------------------------
 Trust Radius=3.00D-01 FncErr=1.00D-07 GrdErr=1.00D-06
 Number of steps in this run=    212 maximum allowed number of steps=    240.
 GradGradGradGradGradGradGradGradGradGradGradGradGradGradGradGradGradGrad

                          Input orientation:                          
 ---------------------------------------------------------------------
 Center     Atomic      Atomic             Coordinates (Angstroms)
 Number     Number       Type             X           Y           Z
 ---------------------------------------------------------------------
      1          6           0       -6.269334    1.120281   -0.012372
      2          7           0       -5.008483    0.579062    0.003208
      3          6           0       -3.795695    1.261825   -0.019047
      4          8           0       -3.698416    2.483497   -0.054512
      5          7           0       -2.732592    0.426577    0.010039
      6          6           0       -1.388920    0.952699   -0.070425
      7          6           0       -0.383987   -0.148251    0.244311
      8          6           0        1.052599    0.350029    0.125007
      9          6           0       -6.547863    2.499699   -0.035640
     10          6           0       -7.863433    2.926487   -0.047401
     11          6           0       -8.940904    2.040206   -0.036593
     12          6           0       -8.649707    0.672794   -0.013443
     13          6           0       -7.350006    0.213802   -0.001310
     14          1           0       -4.976235   -0.459758    0.024302
     15          1           0       -2.857498   -0.595896   -0.041973
     16          1           0       -1.283991    1.784517    0.633441
     17          1           0       -1.193668    1.366476   -1.069642
     18          1           0       -0.555036   -0.995192   -0.426454
     19          1           0       -0.576518   -0.523280    1.253924
     20          1           0        1.265980    0.698335   -0.889673
     21          1           0        1.770464   -0.438431    0.362326
     22          1           0        1.239270    1.186360    0.805198
     23          1           0       -5.738666    3.213471   -0.044495
     24         17           0       -8.143827    4.655610   -0.074850
     25          6           0      -10.359418    2.507119   -0.048745
     26          1           0       -9.465471   -0.039449   -0.004790
     27          1           0       -7.132100   -0.849082    0.016111
     28          9           0      -11.224663    1.474293   -0.034239
     29          9           0      -10.675956    3.271883    1.014391
     30          9           0      -10.669592    3.236195   -1.138530
     31          8           0       -5.145920   -2.182167    0.034153
     32          8           0       -2.925123   -2.387778   -0.140239
     33          6           0       -4.084548   -2.850304   -0.064338
     34          6           0       -4.255782   -4.376680   -0.091068
     35          6           0       -2.950699   -5.151141   -0.210005
     36          1           0       -4.931450   -4.608982   -0.920227
     37          1           0       -4.799637   -4.653943    0.817416
     38          1           0       -2.419325   -4.874544   -1.122124
     39          1           0       -3.127045   -6.231168   -0.224033
     40          1           0       -2.286535   -4.918713    0.624078
 ---------------------------------------------------------------------
                    Distance matrix (angstroms):
                    1          2          3          4          5
     1  C    0.000000
     2  N    1.372190   0.000000
     3  C    2.477694   1.391947   0.000000
     4  O    2.910284   2.312246   1.226052   0.000000
     5  N    3.604202   2.281004   1.352285   2.273303   0.000000
     6  C    4.883635   3.639541   2.427090   2.770806   1.445245
     7  C    6.025974   4.687545   3.701003   4.242739   2.429250
     8  C    7.363617   6.066630   4.935391   5.211148   3.787710
     9  C    1.407449   2.461716   3.017786   2.849555   4.342374
    10  C    2.409307   3.696445   4.395269   4.188515   5.707747
    11  C    2.825622   4.195291   5.203783   5.261227   6.414757
    12  C    2.422070   3.642468   4.889623   5.272154   5.922282
    13  C    1.410561   2.369846   3.705644   4.299821   4.622328
    14  H    2.042051   1.039534   2.087918   3.209639   2.412411
    15  H    3.819262   2.451388   2.081314   3.192172   1.031386
    16  H    5.070692   3.965117   2.647188   2.606012   2.081123
    17  H    5.190455   4.040278   2.808068   2.924379   2.101764
    18  H    6.107363   4.743002   3.970135   4.703239   2.636987
    19  H    6.059121   4.735162   3.894888   4.527578   2.664232
    20  H    7.597937   6.338797   5.166823   5.341304   4.107543
    21  H    8.198069   6.864283   5.832533   6.214505   4.598897
    22  H    7.553272   6.328223   5.102543   5.177104   4.121314
    23  H    2.159649   2.734146   2.754034   2.166929   4.099540
    24  Cl   4.002022   5.143415   5.516080   4.947744   6.868289
    25  C    4.318962   5.687936   6.680876   6.661046   7.905732
    26  H    3.400047   4.499707   5.817205   6.294970   6.749004
    27  H    2.150248   2.559201   3.948261   4.785526   4.580722
    28  F    4.968007   6.280425   7.432021   7.593635   8.556573
    29  F    5.010185   6.355630   7.241983   7.102829   8.497148
    30  F    5.010748   6.357050   7.238911   7.094994   8.497596
    31  O    3.488608   2.764820   3.699598   4.885852   3.553911
    32  O    4.848358   3.628099   3.753956   4.933017   2.824933
    33  C    4.532276   3.552290   4.122510   5.347768   3.545598
    34  C    5.854670   5.013464   5.657703   6.882879   5.040000
    35  C    7.098107   6.092221   6.471215   7.672741   5.586316
    36  H    5.953031   5.270148   6.047184   7.250731   5.572901
    37  H    6.015830   5.300084   6.058373   7.274338   5.544025
    38  H    7.210550   6.141003   6.384841   7.544312   5.429715
    39  H    7.997661   7.068994   7.525561   8.735021   6.673526
    40  H    7.262038   6.166036   6.394547   7.566149   5.398901
                    6          7          8          9         10
     6  C    0.000000
     7  C    1.523496   0.000000
     8  C    2.522384   1.525220   0.000000
     9  C    5.386010   6.714415   7.900247   0.000000
    10  C    6.768728   8.092047   9.282429   1.383117   0.000000
    11  C    7.629959   8.836803  10.136711   2.436756   1.395190
    12  C    7.266403   8.310396   9.708660   2.784928   2.387156
    13  C    6.007104   6.979745   8.404659   2.422796   2.761230
    14  H    3.856532   4.608056   6.083810   3.351416   4.450585
    15  H    2.134403   2.529941   4.026352   4.816797   6.120996
    16  H    1.094696   2.167262   2.788533   5.354203   6.712428
    17  H    1.098986   2.162511   2.739720   5.569628   6.925632
    18  H    2.148580   1.093842   2.167538   6.948450   8.302765
    19  H    2.142991   1.094091   2.165905   6.816034   8.166606
    20  H    2.790047   2.173711   1.093812   8.064144   9.435055
    21  H    3.479113   2.177106   1.092391   8.830942  10.212860
    22  H    2.780053   2.175027   1.094055   7.941744   9.306673
    23  H    4.902249   6.329073   7.372198   1.079050   2.144063
    24  Cl   7.703268   9.132035  10.156389   2.682647   1.751925
    25  C    9.104204  10.326960  11.615394   3.811585   2.530971
    26  H    8.137526   9.085551  10.526079   3.867901   3.371219
    27  H    6.019802   6.788245   8.272788   3.399757   3.846272
    28  F    9.849630  10.964967  12.329659   4.787893   3.661545
    29  F    9.633508  10.872671  12.119705   4.328971   3.026052
    30  F    9.616968  10.916062  12.138215   4.329833   3.026716
    31  O    4.894218   5.182373   6.696411   4.887758   5.787044
    32  O    3.677442   3.408919   4.836136   6.084621   7.255132
    33  C    4.661467   4.592440   6.055433   5.889929   6.903011
    34  C    6.051578   5.743073   7.111074   7.248537   8.145753
    35  C    6.302024   5.641216   6.811865   8.456083   9.455658
    36  H    6.648607   6.475623   7.841757   7.343611   8.132751
    37  H    6.622362   6.334640   7.730966   7.413406   8.221780
    38  H    6.010371   5.324245   6.395761   8.520840   9.573370
    39  H    7.392741   6.689214   7.804063   9.378994  10.311509
    40  H    5.980094   5.149875   6.257677   8.580616   9.648826
                   11         12         13         14         15
    11  C    0.000000
    12  C    1.398267   0.000000
    13  C    2.422386   1.378420   0.000000
    14  H    4.687444   3.844280   2.467616   0.000000
    15  H    6.630000   5.929593   4.565074   2.124141   0.000000
    16  H    7.690425   7.477175   6.298142   4.363540   2.932315
    17  H    7.844793   7.562359   6.353778   4.340468   2.770440
    18  H    8.926836   8.275049   6.914769   4.476256   2.368246
    19  H    8.843067   8.259127   6.928134   4.568754   2.624403
    20  H   10.329997   9.954359   8.675205   6.414186   4.404168
    21  H   11.001645  10.485990   9.150990   6.755195   4.648256
    22  H   10.250542   9.936085   8.681704   6.477037   4.547267
    23  H    3.410417   3.863957   3.405334   3.752152   4.776234
    24  Cl   2.734434   4.015285   4.512784   6.017513   7.451488
    25  C    1.493432   2.507810   3.783928   6.147061   8.118347
    26  H    2.145028   1.082975   2.130572   4.508962   6.631465
    27  H    3.409185   2.149444   1.085131   2.190752   4.282487
    28  F    2.352832   2.696893   4.074664   6.541164   8.619466
    29  F    2.373184   3.452158   4.630924   6.884202   8.786576
    30  F    2.373398   3.452070   4.631175   6.886695   8.770187
    31  O    5.677618   4.519910   3.255752   1.730776   2.785486
    32  O    7.470436   6.492614   5.134892   2.819822   1.795849
    33  C    6.892173   5.766756   4.478385   2.552973   2.566809
    34  C    7.945424   6.694010   5.536677   3.984299   4.031369
    35  C    9.360988   8.150800   6.941186   5.115347   4.559296
    36  H    7.814616   6.522640   5.472939   4.255608   4.601898
    37  H    7.917768   6.624763   5.556045   4.272166   4.580197
    38  H    9.566772   8.415448   7.173500   5.228998   4.434586
    39  H   10.111960   8.843576   7.708479   6.065505   5.644652
    40  H    9.651097   8.494783   7.236889   5.241803   4.410938
                   16         17         18         19         20
    16  H    0.000000
    17  H    1.755964   0.000000
    18  H    3.062929   2.529628   0.000000
    19  H    2.492277   3.057942   1.745518   0.000000
    20  H    3.162597   2.555125   2.529566   3.079310   0.000000
    21  H    3.787439   3.754238   2.517957   2.512066   1.764722
    22  H    2.598873   3.076792   3.081504   2.534031   1.763936
    23  H    4.727116   5.011918   6.687955   6.503611   7.490346
    24  Cl   7.470087   7.753240   9.468101   9.265565  10.240528
    25  C    9.129672   9.292700  10.418001  10.324020  11.795285
    26  H    8.406592   8.457734   8.971460   8.990658  10.793117
    27  H    6.443393   6.430594   6.593555   6.679369   8.587356
    28  F    9.967898  10.084868  10.958701  10.910208  12.543924
    29  F    9.516637   9.893815  11.077770  10.791630  12.363594
    30  F    9.661095   9.658869  10.987080  11.033024  12.204939
    31  O    5.568503   5.425084   4.764167   5.011904   7.089655
    32  O    4.549718   4.237470   2.763788   3.306960   5.258430
    33  C    5.459998   5.210476   4.003751   4.411250   6.473188
    34  C    6.878720   6.581640   5.024188   5.494968   7.542109
    35  C    7.182804   6.804813   4.801871   5.403418   7.242838
    36  H    7.522943   7.049783   5.697042   6.354945   8.159454
    37  H    7.338077   7.267011   5.740236   5.923482   8.267572
    38  H    6.979547   6.360450   4.359920   5.289144   6.685244
    39  H    8.269420   7.885252   5.837093   6.424136   8.231632
    40  H    6.777792   6.600504   4.415396   4.758224   6.816380
                   21         22         23         24         25
    21  H    0.000000
    22  H    1.765856   0.000000
    23  H    8.359959   7.315924   0.000000
    24  Cl  11.154978  10.042544   2.804548   0.000000
    25  C   12.489167  11.704836   4.674431   3.086347   0.000000
    26  H   11.249008  10.805099   4.946932   4.878035   2.699274
    27  H    8.918752   8.651330   4.295308   5.597634   4.656595
    28  F   13.141123  12.495486   5.755086   4.428767   1.347438
    29  F   13.004038  12.098173   5.049900   3.084287   1.347338
    30  F   13.057965  12.239318   5.050888   3.086364   1.347365
    31  O    7.140356   7.260313   5.428668   7.466895   7.012620
    32  O    5.108920   5.568705   6.268906   8.766326   8.901525
    33  C    6.346680   6.737491   6.285369   8.533264   8.250831
    34  C    7.213253   7.870597   7.733789   9.833586   9.200155
    35  C    6.695266   7.664881   8.818553  11.097712  10.656644
    36  H    7.997131   8.639495   7.912602   9.842087   8.992286
    37  H    7.819455   8.401052   7.969997   9.932145   9.107261
    38  H    6.279891   7.337196   8.808819  11.166491  10.894318
    39  H    7.608233   8.668549   9.800714  11.988006  11.344409
    40  H    6.049850   7.052377   8.859831  11.245623  10.989409
                   26         27         28         29         30
    26  H    0.000000
    27  H    2.469932   0.000000
    28  F    2.320999   4.706345   0.000000
    29  F    3.670003   5.526105   2.152216   0.000000
    30  F    3.669485   5.525988   2.152176   2.153227   0.000000
    31  O    4.821957   2.392143   7.094046   7.828718   7.825905
    32  O    6.950478   4.482263   9.154736   9.666455   9.623018
    33  C    6.071143   3.646769   8.347711   9.060435   9.031177
    34  C    6.779371   4.552870   9.099583  10.046949  10.009495
    35  C    8.283342   6.003578  10.601214  11.494610  11.436384
    36  H    6.501999   4.456055   8.797484   9.942340   9.722177
    37  H    6.613591   4.534251   8.919728   9.868568  10.026783
    38  H    8.618280   6.301600  10.909867  11.794105  11.569410
    39  H    8.863470   6.713045  11.179516  12.199497  12.139081
    40  H    8.702862   6.356966  11.008816  11.731180  11.827297
                   31         32         33         34         35
    31  O    0.000000
    32  O    2.237103   0.000000
    33  C    1.258021   1.250583   0.000000
    34  C    2.371479   2.393492   1.536183   0.000000
    35  C    3.700461   2.764362   2.569180   1.522228   0.000000
    36  H    2.616537   3.093134   2.131370   1.094530   2.172954
    37  H    2.615930   3.092961   2.131186   1.094531   2.172871
    38  H    4.002523   2.721017   2.826557   2.164144   1.091250
    39  H    4.531769   3.849603   3.517465   2.175053   1.094419
    40  H    4.001597   2.719854   2.825789   2.164063   1.091252
                   36         37         38         39         40
    36  H    0.000000
    37  H    1.743216   0.000000
    38  H    2.534178   3.078370   0.000000
    39  H    2.524293   2.523850   1.774222   0.000000
    40  H    3.078375   2.534396   1.751801   1.774341   0.000000
 Stoichiometry    C14H17ClF3N2O3(1-)
 Framework group  C1[X(C14H17ClF3N2O3)]
 Deg. of freedom   114
 Full point group                 C1      NOp   1
 Largest Abelian subgroup         C1      NOp   1
 Largest concise Abelian subgroup C1      NOp   1
                         Standard orientation:                         
 ---------------------------------------------------------------------
 Center     Atomic      Atomic             Coordinates (Angstroms)
 Number     Number       Type             X           Y           Z
 ---------------------------------------------------------------------
      1          6           0       -0.623104   -0.090921   -0.020167
      2          7           0        0.737335   -0.270013   -0.026275
      3          6           0        1.430948   -1.475837    0.022761
      4          8           0        0.890253   -2.574861    0.077508
      5          7           0        2.771680   -1.301477   -0.003902
      6          6           0        3.657579   -2.438368    0.102838
      7          6           0        5.085305   -2.011548   -0.214122
      8          6           0        6.065131   -3.171199   -0.067676
      9          6           0       -1.567393   -1.133828    0.019510
     10          6           0       -2.916390   -0.828509    0.019363
     11          6           0       -3.389753    0.483353   -0.019347
     12          6           0       -2.440708    1.509475   -0.058555
     13          6           0       -1.088899    1.239933   -0.059473
     14          1           0        1.295891    0.605976   -0.062179
     15          1           0        3.186471   -0.357834    0.031355
     16          1           0        3.325872   -3.220771   -0.587217
     17          1           0        3.609651   -2.874066    1.110628
     18          1           0        5.368044   -1.183028    0.441702
     19          1           0        5.115820   -1.610749   -1.231699
     20          1           0        6.066168   -3.559580    0.954862
     21          1           0        7.086093   -2.864827   -0.306612
     22          1           0        5.801282   -3.998764   -0.732865
     23          1           0       -1.236500   -2.160438    0.050028
     24         17           0       -4.040969   -2.170957    0.068333
     25          6           0       -4.847745    0.806770   -0.019937
     26          1           0       -2.778029    2.538127   -0.088940
     27          1           0       -0.358467    2.041855   -0.089493
     28          9           0       -5.063785    2.136125   -0.061565
     29          9           0       -5.505925    0.290189   -1.075996
     30          9           0       -5.491634    0.359995    1.076051
     31          8           0        2.030063    2.172874   -0.099673
     32          8           0        4.043399    1.218779    0.102344
     33          6           0        3.283370    2.206996    0.003646
     34          6           0        3.915896    3.606912    0.005585
     35          6           0        5.432936    3.608351    0.131151
     36          1           0        3.450136    4.167992    0.821827
     37          1           0        3.594014    4.105107   -0.914302
     38          1           0        5.744413    3.117174    1.054489
     39          1           0        5.833080    4.626987    0.126875
     40          1           0        5.888764    3.052941   -0.690172
 ---------------------------------------------------------------------
 Rotational constants (GHZ):      0.3588934      0.0954588      0.0766321
 Standard basis: 6-311+G(d) (5D, 7F)
 There are   588 symmetry adapted cartesian basis functions of A   symmetry.
 There are   565 symmetry adapted basis functions of A   symmetry.
   565 basis functions,   930 primitive gaussians,   588 cartesian basis functions
    92 alpha electrons       92 beta electrons
       nuclear repulsion energy      2088.8010029291 Hartrees.
 NAtoms=   40 NActive=   40 NUniq=   40 SFac= 1.00D+00 NAtFMM=   60 NAOKFM=F Big=F
 Integral buffers will be    131072 words long.
 Raffenetti 2 integral format.
 Two-electron integral symmetry is turned on.
 Nuclear repulsion after empirical dispersion term =     2088.7986395342 Hartrees.
 One-electron integrals computed using PRISM.
 NBasis=   565 RedAO= T EigKep=  1.29D-06  NBF=   565
 NBsUse=   563 1.00D-06 EigRej=  5.68D-07 NBFU=   563
 ExpMin= 4.38D-02 ExpMax= 1.06D+05 ExpMxC= 3.62D+03 IAcc=3 IRadAn=         5 AccDes= 0.00D+00
 Harris functional with IExCor= 1009 and IRadAn=       5 diagonalized for initial guess.
 HarFok:  IExCor= 1009 AccDes= 0.00D+00 IRadAn=         5 IDoV= 1 UseB2=F ITyADJ=14
 ICtDFT=  3500011 ScaDFX=  1.000000  1.000000  1.000000  1.000000
 FoFCou: FMM=F IPFlag=           0 FMFlag=      100000 FMFlg1=           0
         NFxFlg=           0 DoJE=T BraDBF=F KetDBF=T FulRan=T
         wScrn=  0.000000 ICntrl=     500 IOpCl=  0 I1Cent=   200000004 NGrid=           0
         NMat0=    1 NMatS0=      1 NMatT0=    0 NMatD0=    1 NMtDS0=    0 NMtDT0=    0
 Petite list used in FoFCou.
 Requested convergence on RMS density matrix=1.00D-08 within 128 cycles.
 Requested convergence on MAX density matrix=1.00D-06.
 Requested convergence on             energy=1.00D-06.
 No special actions if energy rises.
 SCF Done:  E(RM062X) =  -1638.67729402     A.U. after   17 cycles
            NFock= 17  Conv=0.59D-08     -V/T= 2.0029

 **********************************************************************

            Population analysis using the SCF density.

 **********************************************************************

 Orbital symmetries:
       Occupied  (A) (A) (A) (A) (A) (A) (A) (A) (A) (A) (A) (A)
                 (A) (A) (A) (A) (A) (A) (A) (A) (A) (A) (A) (A)
                 (A) (A) (A) (A) (A) (A) (A) (A) (A) (A) (A) (A)
                 (A) (A) (A) (A) (A) (A) (A) (A) (A) (A) (A) (A)
                 (A) (A) (A) (A) (A) (A) (A) (A) (A) (A) (A) (A)
                 (A) (A) (A) (A) (A) (A) (A) (A) (A) (A) (A) (A)
                 (A) (A) (A) (A) (A) (A) (A) (A) (A) (A) (A) (A)
                 (A) (A) (A) (A) (A) (A) (A) (A)
       Virtual   (A) (A) (A) (A) (A) (A) (A) (A) (A) (A) (A) (A)
                 (A) (A) (A) (A) (A) (A) (A) (A) (A) (A) (A) (A)
                 (A) (A) (A) (A) (A) (A) (A) (A) (A) (A) (A) (A)
                 (A) (A) (A) (A) (A) (A) (A) (A) (A) (A) (A) (A)
                 (A) (A) (A) (A) (A) (A) (A) (A) (A) (A) (A) (A)
                 (A) (A) (A) (A) (A) (A) (A) (A) (A) (A) (A) (A)
                 (A) (A) (A) (A) (A) (A) (A) (A) (A) (A) (A) (A)
                 (A) (A) (A) (A) (A) (A) (A) (A) (A) (A) (A) (A)
                 (A) (A) (A) (A) (A) (A) (A) (A) (A) (A) (A) (A)
                 (A) (A) (A) (A) (A) (A) (A) (A) (A) (A) (A) (A)
                 (A) (A) (A) (A) (A) (A) (A) (A) (A) (A) (A) (A)
                 (A) (A) (A) (A) (A) (A) (A) (A) (A) (A) (A) (A)
                 (A) (A) (A) (A) (A) (A) (A) (A) (A) (A) (A) (A)
                 (A) (A) (A) (A) (A) (A) (A) (A) (A) (A) (A) (A)
                 (A) (A) (A) (A) (A) (A) (A) (A) (A) (A) (A) (A)
                 (A) (A) (A) (A) (A) (A) (A) (A) (A) (A) (A) (A)
                 (A) (A) (A) (A) (A) (A) (A) (A) (A) (A) (A) (A)
                 (A) (A) (A) (A) (A) (A) (A) (A) (A) (A) (A) (A)
                 (A) (A) (A) (A) (A) (A) (A) (A) (A) (A) (A) (A)
                 (A) (A) (A) (A) (A) (A) (A) (A) (A) (A) (A) (A)
                 (A) (A) (A) (A) (A) (A) (A) (A) (A) (A) (A) (A)
                 (A) (A) (A) (A) (A) (A) (A) (A) (A) (A) (A) (A)
                 (A) (A) (A) (A) (A) (A) (A) (A) (A) (A) (A) (A)
                 (A) (A) (A) (A) (A) (A) (A) (A) (A) (A) (A) (A)
                 (A) (A) (A) (A) (A) (A) (A) (A) (A) (A) (A) (A)
                 (A) (A) (A) (A) (A) (A) (A) (A) (A) (A) (A) (A)
                 (A) (A) (A) (A) (A) (A) (A) (A) (A) (A) (A) (A)
                 (A) (A) (A) (A) (A) (A) (A) (A) (A) (A) (A) (A)
                 (A) (A) (A) (A) (A) (A) (A) (A) (A) (A) (A) (A)
                 (A) (A) (A) (A) (A) (A) (A) (A) (A) (A) (A) (A)
                 (A) (A) (A) (A) (A) (A) (A) (A) (A) (A) (A) (A)
                 (A) (A) (A) (A) (A) (A) (A) (A) (A) (A) (A) (A)
                 (A) (A) (A) (A) (A) (A) (A) (A) (A) (A) (A) (A)
                 (A) (A) (A) (A) (A) (A) (A) (A) (A) (A) (A) (A)
                 (A) (A) (A) (A) (A) (A) (A) (A) (A) (A) (A) (A)
                 (A) (A) (A) (A) (A) (A) (A) (A) (A) (A) (A) (A)
                 (A) (A) (A) (A) (A) (A) (A) (A) (A) (A) (A) (A)
                 (A) (A) (A) (A) (A) (A) (A) (A) (A) (A) (A) (A)
                 (A) (A) (A) (A) (A) (A) (A) (A) (A) (A) (A) (A)
                 (A) (A) (A)
 The electronic state is 1-A.
 Alpha  occ. eigenvalues -- -102.58624 -25.18934 -25.18252 -25.18251 -19.47074
 Alpha  occ. eigenvalues --  -19.44684 -19.44424 -14.65539 -14.63581 -10.71242
 Alpha  occ. eigenvalues --  -10.55432 -10.52411 -10.50891 -10.50336 -10.47421
 Alpha  occ. eigenvalues --  -10.46706 -10.46309 -10.44894 -10.44533 -10.44297
 Alpha  occ. eigenvalues --  -10.43680 -10.41944 -10.41870  -9.72914  -7.45422
 Alpha  occ. eigenvalues --   -7.44758  -7.44743  -1.37795  -1.28501  -1.28013
 Alpha  occ. eigenvalues --   -1.05938  -1.03744  -0.94584  -0.93890  -0.91573
 Alpha  occ. eigenvalues --   -0.90126  -0.84368  -0.79459  -0.77842  -0.75227
 Alpha  occ. eigenvalues --   -0.74433  -0.71347  -0.68027  -0.63410  -0.62058
 Alpha  occ. eigenvalues --   -0.61536  -0.60118  -0.59550  -0.58540  -0.56349
 Alpha  occ. eigenvalues --   -0.55587  -0.51673  -0.50088  -0.48556  -0.48327
 Alpha  occ. eigenvalues --   -0.46705  -0.45444  -0.45057  -0.44348  -0.44148
 Alpha  occ. eigenvalues --   -0.43542  -0.42934  -0.42185  -0.41853  -0.41402
 Alpha  occ. eigenvalues --   -0.41244  -0.40422  -0.40347  -0.39354  -0.38275
 Alpha  occ. eigenvalues --   -0.37781  -0.36940  -0.35967  -0.35480  -0.34533
 Alpha  occ. eigenvalues --   -0.34018  -0.33032  -0.32391  -0.31930  -0.31207
 Alpha  occ. eigenvalues --   -0.30713  -0.29980  -0.29063  -0.28919  -0.27275
 Alpha  occ. eigenvalues --   -0.23367  -0.21478  -0.20573  -0.20065  -0.19673
 Alpha  occ. eigenvalues --   -0.19475  -0.16412
 Alpha virt. eigenvalues --    0.09249   0.09981   0.10028   0.10288   0.10741
 Alpha virt. eigenvalues --    0.10835   0.11578   0.11881   0.12141   0.12536
 Alpha virt. eigenvalues --    0.13253   0.13393   0.13809   0.14188   0.14708
 Alpha virt. eigenvalues --    0.14946   0.15011   0.15685   0.15962   0.16560
 Alpha virt. eigenvalues --    0.16736   0.16888   0.17053   0.17754   0.18151
 Alpha virt. eigenvalues --    0.18505   0.18594   0.19608   0.19899   0.20139
 Alpha virt. eigenvalues --    0.20561   0.20713   0.21063   0.21494   0.21763
 Alpha virt. eigenvalues --    0.22166   0.22237   0.22784   0.23432   0.24257
 Alpha virt. eigenvalues --    0.24594   0.24900   0.25205   0.25620   0.26524
 Alpha virt. eigenvalues --    0.26885   0.27294   0.27732   0.28022   0.28829
 Alpha virt. eigenvalues --    0.29110   0.29173   0.29587   0.29906   0.30010
 Alpha virt. eigenvalues --    0.30610   0.30712   0.30743   0.31079   0.31227
 Alpha virt. eigenvalues --    0.31901   0.31991   0.32597   0.32947   0.33172
 Alpha virt. eigenvalues --    0.33769   0.33902   0.34027   0.34384   0.34968
 Alpha virt. eigenvalues --    0.35422   0.35512   0.35555   0.35999   0.36309
 Alpha virt. eigenvalues --    0.36586   0.36879   0.37292   0.37396   0.37977
 Alpha virt. eigenvalues --    0.38185   0.38436   0.38779   0.39161   0.39305
 Alpha virt. eigenvalues --    0.39667   0.40009   0.40433   0.40730   0.41206
 Alpha virt. eigenvalues --    0.41462   0.41854   0.42514   0.42766   0.43291
 Alpha virt. eigenvalues --    0.43604   0.43855   0.44508   0.44778   0.45077
 Alpha virt. eigenvalues --    0.45426   0.45682   0.45805   0.46288   0.46757
 Alpha virt. eigenvalues --    0.47042   0.48261   0.48303   0.49014   0.49323
 Alpha virt. eigenvalues --    0.49673   0.50127   0.50459   0.50605   0.51704
 Alpha virt. eigenvalues --    0.52272   0.52811   0.52973   0.53800   0.54029
 Alpha virt. eigenvalues --    0.54254   0.54877   0.55826   0.56066   0.57058
 Alpha virt. eigenvalues --    0.58109   0.58517   0.59712   0.59821   0.61315
 Alpha virt. eigenvalues --    0.61542   0.62261   0.62390   0.62996   0.63287
 Alpha virt. eigenvalues --    0.64073   0.64352   0.65046   0.65827   0.67068
 Alpha virt. eigenvalues --    0.67551   0.67920   0.68339   0.69063   0.70148
 Alpha virt. eigenvalues --    0.70455   0.70675   0.71653   0.72134   0.73098
 Alpha virt. eigenvalues --    0.74333   0.74707   0.75179   0.76635   0.76927
 Alpha virt. eigenvalues --    0.77479   0.77650   0.78313   0.78740   0.79338
 Alpha virt. eigenvalues --    0.79764   0.80383   0.80994   0.81323   0.81920
 Alpha virt. eigenvalues --    0.82246   0.82761   0.83738   0.83885   0.84056
 Alpha virt. eigenvalues --    0.84818   0.85134   0.85987   0.86575   0.87487
 Alpha virt. eigenvalues --    0.87847   0.88226   0.88681   0.88877   0.89421
 Alpha virt. eigenvalues --    0.89611   0.90458   0.91841   0.92296   0.93844
 Alpha virt. eigenvalues --    0.94306   0.95981   0.98542   0.99520   1.00740
 Alpha virt. eigenvalues --    1.01379   1.02989   1.03446   1.04420   1.04972
 Alpha virt. eigenvalues --    1.06331   1.06496   1.07304   1.07713   1.08071
 Alpha virt. eigenvalues --    1.09085   1.09156   1.11261   1.11444   1.13055
 Alpha virt. eigenvalues --    1.13864   1.15145   1.15562   1.16109   1.17117
 Alpha virt. eigenvalues --    1.19111   1.19856   1.20215   1.21006   1.22757
 Alpha virt. eigenvalues --    1.25167   1.25869   1.26277   1.27674   1.28308
 Alpha virt. eigenvalues --    1.29163   1.30243   1.32184   1.33174   1.34351
 Alpha virt. eigenvalues --    1.35528   1.36225   1.37598   1.38244   1.38418
 Alpha virt. eigenvalues --    1.39854   1.40110   1.42034   1.42600   1.44214
 Alpha virt. eigenvalues --    1.44977   1.46582   1.48427   1.48826   1.50591
 Alpha virt. eigenvalues --    1.52396   1.53135   1.54510   1.55700   1.56076
 Alpha virt. eigenvalues --    1.56567   1.57632   1.58545   1.59272   1.59992
 Alpha virt. eigenvalues --    1.61184   1.62025   1.62794   1.63653   1.63865
 Alpha virt. eigenvalues --    1.65094   1.66606   1.67034   1.67617   1.68149
 Alpha virt. eigenvalues --    1.69126   1.69907   1.70840   1.71965   1.72776
 Alpha virt. eigenvalues --    1.72947   1.74206   1.74442   1.75124   1.76764
 Alpha virt. eigenvalues --    1.79130   1.79475   1.81783   1.83330   1.85478
 Alpha virt. eigenvalues --    1.87228   1.87996   1.88868   1.89224   1.90335
 Alpha virt. eigenvalues --    1.91255   1.91529   1.92017   1.93089   1.93901
 Alpha virt. eigenvalues --    1.94309   1.94937   1.97506   1.98515   2.01047
 Alpha virt. eigenvalues --    2.01704   2.02979   2.03316   2.04796   2.05721
 Alpha virt. eigenvalues --    2.08721   2.08883   2.09417   2.11532   2.13556
 Alpha virt. eigenvalues --    2.16255   2.18710   2.19513   2.20476   2.21512
 Alpha virt. eigenvalues --    2.24721   2.27511   2.27840   2.29475   2.31355
 Alpha virt. eigenvalues --    2.34385   2.36032   2.38825   2.40117   2.41792
 Alpha virt. eigenvalues --    2.43801   2.45285   2.47538   2.49927   2.51379
 Alpha virt. eigenvalues --    2.52269   2.57354   2.59380   2.59947   2.63325
 Alpha virt. eigenvalues --    2.64453   2.64592   2.64789   2.66164   2.67702
 Alpha virt. eigenvalues --    2.69762   2.70338   2.70781   2.71569   2.72527
 Alpha virt. eigenvalues --    2.74062   2.75354   2.77349   2.78465   2.80576
 Alpha virt. eigenvalues --    2.81606   2.83540   2.87490   2.92491   2.94049
 Alpha virt. eigenvalues --    2.96259   2.97026   2.98426   3.00503   3.02580
 Alpha virt. eigenvalues --    3.05924   3.06569   3.08362   3.09265   3.10500
 Alpha virt. eigenvalues --    3.11333   3.11920   3.12781   3.14432   3.15255
 Alpha virt. eigenvalues --    3.17124   3.17508   3.20515   3.22729   3.23117
 Alpha virt. eigenvalues --    3.25241   3.26828   3.28370   3.31340   3.34568
 Alpha virt. eigenvalues --    3.35826   3.36450   3.37242   3.38214   3.40481
 Alpha virt. eigenvalues --    3.43728   3.44337   3.48207   3.50629   3.51238
 Alpha virt. eigenvalues --    3.51956   3.53108   3.54837   3.55051   3.55926
 Alpha virt. eigenvalues --    3.57156   3.59986   3.62314   3.72526   3.75714
 Alpha virt. eigenvalues --    3.78533   3.83591   3.84332   3.89144   3.89744
 Alpha virt. eigenvalues --    3.90172   3.91237   3.93439   3.93860   3.96010
 Alpha virt. eigenvalues --    3.96045   3.97274   3.97983   4.01130   4.07945
 Alpha virt. eigenvalues --    4.09926   4.11397   4.12202   4.12923   4.16802
 Alpha virt. eigenvalues --    4.17963   4.18839   4.24669   4.31892   4.32801
 Alpha virt. eigenvalues --    4.35093   4.35559   4.40479   4.76205   4.81404
 Alpha virt. eigenvalues --    4.87582   4.92842   5.05546   5.07049   5.10502
 Alpha virt. eigenvalues --    5.30562   5.32413   5.33609   5.35798   5.53156
 Alpha virt. eigenvalues --    5.56280   5.58159   5.90433   6.03511   6.16397
 Alpha virt. eigenvalues --    6.53645   6.57744   6.59308   6.62318   6.64898
 Alpha virt. eigenvalues --    6.67215   6.73524   6.95474   6.99099  10.09812
 Alpha virt. eigenvalues --   23.56875  23.69526  23.73456  23.76414  23.85889
 Alpha virt. eigenvalues --   23.91397  23.92197  24.00687  24.06853  24.10355
 Alpha virt. eigenvalues --   24.10802  24.18103  24.23544  24.30688  26.05527
 Alpha virt. eigenvalues --   26.42815  26.90100  35.76765  35.86509  50.21092
 Alpha virt. eigenvalues --   50.28470  50.29501  66.98225  67.00984  67.06663
 Alpha virt. eigenvalues --  216.20773
          Condensed to atoms (all electrons):
               1          2          3          4          5          6
     1  C   26.387303   0.206579  -0.572703  -0.302513  -0.396791  -0.644801
     2  N    0.206579   8.307218   0.349988  -0.058933  -0.657835  -0.701694
     3  C   -0.572703   0.349988   9.513268   0.652036   0.153388  -1.778272
     4  O   -0.302513  -0.058933   0.652036   8.113511  -0.203096  -0.164493
     5  N   -0.396791  -0.657835   0.153388  -0.203096   8.129497   0.680497
     6  C   -0.644801  -0.701694  -1.778272  -0.164493   0.680497   9.443182
     7  C    0.018299   0.074835   0.482660   0.027374  -0.082373  -1.252092
     8  C   -0.015605  -0.025202  -0.369112  -0.002231  -0.041968   0.567192
     9  C    0.062962  -0.290704  -0.618595   0.339769   0.282561  -0.089878
    10  C   -7.118553  -0.031273   0.793023   0.084999   0.197670   0.140532
    11  C   -4.212444  -0.073944  -1.142853  -0.009192  -0.000854  -0.101275
    12  C   -5.422544   0.200543  -0.677283  -0.005231  -0.176193  -0.105962
    13  C    1.219276   0.124207  -0.709587  -0.066541  -0.448072  -0.348288
    14  H   -0.092462   0.074301  -0.024444  -0.003686   0.018155   0.036078
    15  H   -0.028813   0.024741  -0.037313  -0.008323   0.101595   0.036838
    16  H    0.005605   0.011079   0.050780   0.003338  -0.073599   0.342806
    17  H    0.011627   0.006306   0.065455  -0.003390  -0.067290   0.402449
    18  H   -0.003431  -0.001675  -0.021396  -0.000271   0.009553  -0.067246
    19  H    0.003104   0.000074   0.025211  -0.000190   0.004026  -0.061358
    20  H    0.000139   0.000052   0.005276   0.000004   0.000288  -0.023295
    21  H    0.000122  -0.000007   0.006105   0.000016  -0.002137   0.083200
    22  H   -0.000299  -0.000065  -0.008761  -0.000083   0.000713  -0.057474
    23  H    0.055973  -0.032920   0.112329   0.005308   0.009689   0.014523
    24  Cl  -0.360342  -0.004626   0.018747   0.000073   0.002988   0.003986
    25  C   -1.990505   0.028515  -0.291316  -0.000054   0.005864  -0.008046
    26  H    0.065435  -0.003032   0.004750  -0.000023  -0.000080   0.000047
    27  H    0.088475  -0.031439  -0.012779   0.000058   0.000967  -0.000319
    28  F    0.048898  -0.000065  -0.000206   0.000002   0.000003  -0.000004
    29  F    0.025060   0.000003  -0.000384  -0.000002  -0.000000  -0.000001
    30  F    0.024753   0.000006  -0.000482  -0.000002  -0.000000  -0.000002
    31  O   -0.279685   0.027385  -0.004670  -0.000964  -0.052375  -0.016423
    32  O   -0.002288  -0.047977  -0.063292   0.000410   0.007699   0.082887
    33  C    0.325670   0.003258   0.037779  -0.001807   0.030022   0.011245
    34  C   -0.238062  -0.047548  -0.065584  -0.001105  -0.076001   0.083712
    35  C    0.009162   0.001301   0.004528   0.000072   0.013607  -0.015372
    36  H    0.001382   0.000159  -0.000406  -0.000001   0.000263   0.000184
    37  H    0.001401   0.000533   0.000599   0.000001  -0.000109  -0.000620
    38  H   -0.000074   0.000009  -0.000147  -0.000000   0.000193  -0.000179
    39  H    0.000178   0.000024   0.000223   0.000000  -0.000091  -0.000120
    40  H    0.000004  -0.000010  -0.000505  -0.000000   0.000142   0.000885
               7          8          9         10         11         12
     1  C    0.018299  -0.015605   0.062962  -7.118553  -4.212444  -5.422544
     2  N    0.074835  -0.025202  -0.290704  -0.031273  -0.073944   0.200543
     3  C    0.482660  -0.369112  -0.618595   0.793023  -1.142853  -0.677283
     4  O    0.027374  -0.002231   0.339769   0.084999  -0.009192  -0.005231
     5  N   -0.082373  -0.041968   0.282561   0.197670  -0.000854  -0.176193
     6  C   -1.252092   0.567192  -0.089878   0.140532  -0.101275  -0.105962
     7  C    6.798704  -0.591659  -0.039171  -0.017555  -0.001193   0.007745
     8  C   -0.591659   6.595799  -0.002728   0.003211  -0.000846  -0.001883
     9  C   -0.039171  -0.002728  17.221207   6.532391  -7.593201  -3.770000
    10  C   -0.017555   0.003211   6.532391  42.461291 -17.097536  -8.982646
    11  C   -0.001193  -0.000846  -7.593201 -17.097536  42.461018   2.852977
    12  C    0.007745  -0.001883  -3.770000  -8.982646   2.852977  22.497669
    13  C    0.041150  -0.011678  -5.255804 -10.016564  -1.062402  -0.658803
    14  H   -0.007826   0.000383   0.027528   0.019767   0.004786   0.026329
    15  H   -0.044100   0.011772  -0.045952  -0.005872  -0.003255   0.003861
    16  H    0.017353  -0.010668  -0.013896  -0.001536  -0.000347   0.000374
    17  H   -0.073354  -0.027819   0.005424   0.000907   0.000416  -0.000174
    18  H    0.469773  -0.053969  -0.001379  -0.000051  -0.000037   0.000073
    19  H    0.430181  -0.073848   0.000623   0.000039   0.000034  -0.000038
    20  H    0.044466   0.319735  -0.000008  -0.000005   0.000001   0.000001
    21  H   -0.148481   0.411846   0.000058   0.000002   0.000001  -0.000001
    22  H    0.000801   0.409815  -0.000115  -0.000006  -0.000003   0.000002
    23  H   -0.000652   0.000142   0.272463  -0.088441   0.040007  -0.035126
    24  Cl  -0.000245   0.000038   0.343930  -1.791570   0.442096   0.435054
    25  C   -0.000159  -0.000039  -0.652281  -0.162539  -7.125685  -0.240258
    26  H    0.000000   0.000000  -0.011603  -0.026423   0.128317   0.275250
    27  H   -0.000013   0.000004  -0.004089  -0.000377   0.022632  -0.093266
    28  F    0.000000  -0.000000  -0.012702  -0.136733  -0.228603   0.104804
    29  F    0.000000  -0.000000   0.006168  -0.120813   0.179388   0.011952
    30  F   -0.000000  -0.000000   0.011845  -0.122457   0.163844   0.012171
    31  O   -0.003105  -0.000427   0.002403   0.008335  -0.002465   0.039001
    32  O   -0.021851   0.010313  -0.011831  -0.000199  -0.000327  -0.000543
    33  C    0.007457  -0.012803  -0.029374  -0.006464  -0.052675  -0.197744
    34  C   -0.042515   0.010006  -0.088936  -0.024037   0.019461   0.132930
    35  C    0.013090  -0.004390   0.002693   0.001016  -0.001818  -0.003896
    36  H   -0.000243  -0.000023   0.000180   0.000013   0.000007  -0.000701
    37  H    0.000561   0.000018   0.000247   0.000023  -0.000051  -0.000788
    38  H    0.000381   0.000199  -0.000006  -0.000002   0.000004  -0.000004
    39  H   -0.000030  -0.000011   0.000020   0.000001  -0.000002  -0.000041
    40  H   -0.000474   0.000008  -0.000014  -0.000002   0.000004  -0.000001
              13         14         15         16         17         18
     1  C    1.219276  -0.092462  -0.028813   0.005605   0.011627  -0.003431
     2  N    0.124207   0.074301   0.024741   0.011079   0.006306  -0.001675
     3  C   -0.709587  -0.024444  -0.037313   0.050780   0.065455  -0.021396
     4  O   -0.066541  -0.003686  -0.008323   0.003338  -0.003390  -0.000271
     5  N   -0.448072   0.018155   0.101595  -0.073599  -0.067290   0.009553
     6  C   -0.348288   0.036078   0.036838   0.342806   0.402449  -0.067246
     7  C    0.041150  -0.007826  -0.044100   0.017353  -0.073354   0.469773
     8  C   -0.011678   0.000383   0.011772  -0.010668  -0.027819  -0.053969
     9  C   -5.255804   0.027528  -0.045952  -0.013896   0.005424  -0.001379
    10  C  -10.016564   0.019767  -0.005872  -0.001536   0.000907  -0.000051
    11  C   -1.062402   0.004786  -0.003255  -0.000347   0.000416  -0.000037
    12  C   -0.658803   0.026329   0.003861   0.000374  -0.000174   0.000073
    13  C   23.985342  -0.026054   0.028414   0.003027  -0.000909   0.000814
    14  H   -0.026054   0.312312   0.029134  -0.000091  -0.000102   0.000068
    15  H    0.028414   0.029134   0.341540   0.001958   0.002136   0.006426
    16  H    0.003027  -0.000091   0.001958   0.486272  -0.052818   0.005543
    17  H   -0.000909  -0.000102   0.002136  -0.052818   0.488504  -0.008607
    18  H    0.000814   0.000068   0.006426   0.005543  -0.008607   0.428610
    19  H   -0.000227   0.000062   0.001543  -0.010082   0.006709  -0.035398
    20  H    0.000025   0.000001  -0.000056  -0.000677   0.003462  -0.007769
    21  H   -0.000018   0.000000  -0.000076  -0.000254  -0.000109  -0.003665
    22  H    0.000022  -0.000000   0.000044   0.003590  -0.000934   0.006618
    23  H   -0.024898  -0.000305   0.000042  -0.000019  -0.000027   0.000000
    24  Cl   0.488500   0.000131  -0.000052  -0.000011   0.000002   0.000000
    25  C   -1.583578   0.000561  -0.000276  -0.000013   0.000009  -0.000001
    26  H   -0.106017  -0.000051   0.000001  -0.000000  -0.000000  -0.000000
    27  H    0.300408   0.013119  -0.000201   0.000000   0.000000  -0.000001
    28  F    0.183707  -0.000005  -0.000000  -0.000000   0.000000  -0.000000
    29  F    0.005216   0.000002  -0.000000  -0.000000   0.000000  -0.000000
    30  F    0.002448   0.000002  -0.000000   0.000000  -0.000000   0.000000
    31  O    0.297217   0.083778   0.013013  -0.000003  -0.000024  -0.000096
    32  O    0.003451   0.010793   0.072652  -0.001201   0.000637  -0.007181
    33  C   -0.150263  -0.017659  -0.006230  -0.000910   0.000673   0.003447
    34  C    0.173433   0.049113   0.057678  -0.000648   0.000159  -0.001471
    35  C   -0.007860  -0.003628  -0.007252   0.000112   0.000008   0.002579
    36  H   -0.000147  -0.000327  -0.000109   0.000000  -0.000000   0.000006
    37  H   -0.001217  -0.000339  -0.000020   0.000000   0.000000   0.000003
    38  H    0.000102  -0.000017  -0.000358  -0.000000   0.000000  -0.000053
    39  H   -0.000197  -0.000002   0.000063  -0.000000   0.000000  -0.000003
    40  H    0.000119  -0.000017  -0.000381  -0.000000  -0.000000  -0.000050
              19         20         21         22         23         24
     1  C    0.003104   0.000139   0.000122  -0.000299   0.055973  -0.360342
     2  N    0.000074   0.000052  -0.000007  -0.000065  -0.032920  -0.004626
     3  C    0.025211   0.005276   0.006105  -0.008761   0.112329   0.018747
     4  O   -0.000190   0.000004   0.000016  -0.000083   0.005308   0.000073
     5  N    0.004026   0.000288  -0.002137   0.000713   0.009689   0.002988
     6  C   -0.061358  -0.023295   0.083200  -0.057474   0.014523   0.003986
     7  C    0.430181   0.044466  -0.148481   0.000801  -0.000652  -0.000245
     8  C   -0.073848   0.319735   0.411846   0.409815   0.000142   0.000038
     9  C    0.000623  -0.000008   0.000058  -0.000115   0.272463   0.343930
    10  C    0.000039  -0.000005   0.000002  -0.000006  -0.088441  -1.791570
    11  C    0.000034   0.000001   0.000001  -0.000003   0.040007   0.442096
    12  C   -0.000038   0.000001  -0.000001   0.000002  -0.035126   0.435054
    13  C   -0.000227   0.000025  -0.000018   0.000022  -0.024898   0.488500
    14  H    0.000062   0.000001   0.000000  -0.000000  -0.000305   0.000131
    15  H    0.001543  -0.000056  -0.000076   0.000044   0.000042  -0.000052
    16  H   -0.010082  -0.000677  -0.000254   0.003590  -0.000019  -0.000011
    17  H    0.006709   0.003462  -0.000109  -0.000934  -0.000027   0.000002
    18  H   -0.035398  -0.007769  -0.003665   0.006618   0.000000   0.000000
    19  H    0.449981   0.006833  -0.004223  -0.008905   0.000000   0.000000
    20  H    0.006833   0.471890  -0.028098  -0.040089   0.000000  -0.000000
    21  H   -0.004223  -0.028098   0.460137  -0.027703   0.000000   0.000000
    22  H   -0.008905  -0.040089  -0.027703   0.477988  -0.000000   0.000000
    23  H    0.000000   0.000000   0.000000  -0.000000   0.353157  -0.015143
    24  Cl   0.000000  -0.000000   0.000000   0.000000  -0.015143  17.705793
    25  C    0.000001   0.000000   0.000000  -0.000000   0.004000  -0.638263
    26  H   -0.000000   0.000000  -0.000000   0.000000   0.000062  -0.000296
    27  H   -0.000000   0.000000   0.000000  -0.000000  -0.000005   0.000222
    28  F    0.000000   0.000000   0.000000  -0.000000   0.000022   0.011519
    29  F    0.000000   0.000000   0.000000  -0.000000  -0.000057  -0.018181
    30  F   -0.000000   0.000000   0.000000  -0.000000  -0.000053  -0.018823
    31  O   -0.000063   0.000002   0.000001  -0.000002   0.000032   0.000243
    32  O   -0.001558   0.000131   0.000077  -0.000143   0.000001   0.000005
    33  C    0.001211   0.000295  -0.000134  -0.000065   0.000509  -0.000116
    34  C    0.001222   0.000008   0.000128  -0.000055   0.000066  -0.000174
    35  C    0.000271   0.000020  -0.000079   0.000029  -0.000000   0.000010
    36  H    0.000001   0.000000  -0.000000   0.000000   0.000000   0.000000
    37  H   -0.000002   0.000000  -0.000000   0.000000  -0.000000   0.000000
    38  H   -0.000012  -0.000000   0.000001  -0.000000   0.000000  -0.000000
    39  H    0.000000  -0.000000   0.000000  -0.000000  -0.000000   0.000000
    40  H    0.000002  -0.000000   0.000001  -0.000000   0.000000  -0.000000
              25         26         27         28         29         30
     1  C   -1.990505   0.065435   0.088475   0.048898   0.025060   0.024753
     2  N    0.028515  -0.003032  -0.031439  -0.000065   0.000003   0.000006
     3  C   -0.291316   0.004750  -0.012779  -0.000206  -0.000384  -0.000482
     4  O   -0.000054  -0.000023   0.000058   0.000002  -0.000002  -0.000002
     5  N    0.005864  -0.000080   0.000967   0.000003  -0.000000  -0.000000
     6  C   -0.008046   0.000047  -0.000319  -0.000004  -0.000001  -0.000002
     7  C   -0.000159   0.000000  -0.000013   0.000000   0.000000  -0.000000
     8  C   -0.000039   0.000000   0.000004  -0.000000  -0.000000  -0.000000
     9  C   -0.652281  -0.011603  -0.004089  -0.012702   0.006168   0.011845
    10  C   -0.162539  -0.026423  -0.000377  -0.136733  -0.120813  -0.122457
    11  C   -7.125685   0.128317   0.022632  -0.228603   0.179388   0.163844
    12  C   -0.240258   0.275250  -0.093266   0.104804   0.011952   0.012171
    13  C   -1.583578  -0.106017   0.300408   0.183707   0.005216   0.002448
    14  H    0.000561  -0.000051   0.013119  -0.000005   0.000002   0.000002
    15  H   -0.000276   0.000001  -0.000201  -0.000000  -0.000000  -0.000000
    16  H   -0.000013  -0.000000   0.000000  -0.000000  -0.000000   0.000000
    17  H    0.000009  -0.000000   0.000000   0.000000   0.000000  -0.000000
    18  H   -0.000001  -0.000000  -0.000001  -0.000000  -0.000000   0.000000
    19  H    0.000001  -0.000000  -0.000000   0.000000   0.000000  -0.000000
    20  H    0.000000   0.000000   0.000000   0.000000   0.000000   0.000000
    21  H    0.000000  -0.000000   0.000000   0.000000   0.000000   0.000000
    22  H   -0.000000   0.000000  -0.000000  -0.000000  -0.000000  -0.000000
    23  H    0.004000   0.000062  -0.000005   0.000022  -0.000057  -0.000053
    24  Cl  -0.638263  -0.000296   0.000222   0.011519  -0.018181  -0.018823
    25  C   17.371694  -0.011848   0.018373   0.164824   0.045991   0.060992
    26  H   -0.011848   0.420059  -0.002735   0.010211   0.000086   0.000086
    27  H    0.018373  -0.002735   0.349312   0.000000   0.000033   0.000032
    28  F    0.164824   0.010211   0.000000   9.075173  -0.035015  -0.035368
    29  F    0.045991   0.000086   0.000033  -0.035015   9.009136  -0.054280
    30  F    0.060992   0.000086   0.000032  -0.035368  -0.054280   9.009316
    31  O   -0.001411   0.000105   0.007339   0.000000  -0.000002  -0.000002
    32  O    0.000021  -0.000002   0.000942  -0.000000   0.000000   0.000000
    33  C   -0.006981  -0.000217   0.008582   0.000010  -0.000003  -0.000004
    34  C    0.000400   0.000107  -0.002887  -0.000001   0.000000   0.000000
    35  C   -0.000071  -0.000003   0.000199  -0.000000  -0.000000  -0.000000
    36  H    0.000005   0.000000  -0.000072  -0.000000  -0.000000   0.000000
    37  H   -0.000003   0.000000   0.000001  -0.000000   0.000000  -0.000000
    38  H    0.000000  -0.000000   0.000000   0.000000   0.000000   0.000000
    39  H   -0.000000   0.000000  -0.000001  -0.000000  -0.000000  -0.000000
    40  H    0.000000   0.000000  -0.000000   0.000000   0.000000   0.000000
              31         32         33         34         35         36
     1  C   -0.279685  -0.002288   0.325670  -0.238062   0.009162   0.001382
     2  N    0.027385  -0.047977   0.003258  -0.047548   0.001301   0.000159
     3  C   -0.004670  -0.063292   0.037779  -0.065584   0.004528  -0.000406
     4  O   -0.000964   0.000410  -0.001807  -0.001105   0.000072  -0.000001
     5  N   -0.052375   0.007699   0.030022  -0.076001   0.013607   0.000263
     6  C   -0.016423   0.082887   0.011245   0.083712  -0.015372   0.000184
     7  C   -0.003105  -0.021851   0.007457  -0.042515   0.013090  -0.000243
     8  C   -0.000427   0.010313  -0.012803   0.010006  -0.004390  -0.000023
     9  C    0.002403  -0.011831  -0.029374  -0.088936   0.002693   0.000180
    10  C    0.008335  -0.000199  -0.006464  -0.024037   0.001016   0.000013
    11  C   -0.002465  -0.000327  -0.052675   0.019461  -0.001818   0.000007
    12  C    0.039001  -0.000543  -0.197744   0.132930  -0.003896  -0.000701
    13  C    0.297217   0.003451  -0.150263   0.173433  -0.007860  -0.000147
    14  H    0.083778   0.010793  -0.017659   0.049113  -0.003628  -0.000327
    15  H    0.013013   0.072652  -0.006230   0.057678  -0.007252  -0.000109
    16  H   -0.000003  -0.001201  -0.000910  -0.000648   0.000112   0.000000
    17  H   -0.000024   0.000637   0.000673   0.000159   0.000008  -0.000000
    18  H   -0.000096  -0.007181   0.003447  -0.001471   0.002579   0.000006
    19  H   -0.000063  -0.001558   0.001211   0.001222   0.000271   0.000001
    20  H    0.000002   0.000131   0.000295   0.000008   0.000020   0.000000
    21  H    0.000001   0.000077  -0.000134   0.000128  -0.000079  -0.000000
    22  H   -0.000002  -0.000143  -0.000065  -0.000055   0.000029   0.000000
    23  H    0.000032   0.000001   0.000509   0.000066  -0.000000   0.000000
    24  Cl   0.000243   0.000005  -0.000116  -0.000174   0.000010   0.000000
    25  C   -0.001411   0.000021  -0.006981   0.000400  -0.000071   0.000005
    26  H    0.000105  -0.000002  -0.000217   0.000107  -0.000003   0.000000
    27  H    0.007339   0.000942   0.008582  -0.002887   0.000199  -0.000072
    28  F    0.000000  -0.000000   0.000010  -0.000001  -0.000000  -0.000000
    29  F   -0.000002   0.000000  -0.000003   0.000000  -0.000000  -0.000000
    30  F   -0.000002   0.000000  -0.000004   0.000000  -0.000000   0.000000
    31  O    8.434873  -0.140547   0.275611  -0.223353   0.023553  -0.005470
    32  O   -0.140547   8.314051   0.364208  -0.146384   0.010913   0.000825
    33  C    0.275611   0.364208   6.659096  -1.696055   0.398321  -0.024448
    34  C   -0.223353  -0.146384  -1.696055   8.329315  -0.627296   0.405214
    35  C    0.023553   0.010913   0.398321  -0.627296   6.100344  -0.042575
    36  H   -0.005470   0.000825  -0.024448   0.405214  -0.042575   0.462300
    37  H   -0.006721   0.001964  -0.012559   0.399028  -0.045893  -0.035171
    38  H   -0.000012  -0.008914  -0.007917  -0.026736   0.393159  -0.007348
    39  H   -0.000763   0.004461   0.069287  -0.130390   0.403567  -0.003093
    40  H   -0.000249  -0.008798  -0.012193  -0.022879   0.392711   0.006009
              37         38         39         40
     1  C    0.001401  -0.000074   0.000178   0.000004
     2  N    0.000533   0.000009   0.000024  -0.000010
     3  C    0.000599  -0.000147   0.000223  -0.000505
     4  O    0.000001  -0.000000   0.000000  -0.000000
     5  N   -0.000109   0.000193  -0.000091   0.000142
     6  C   -0.000620  -0.000179  -0.000120   0.000885
     7  C    0.000561   0.000381  -0.000030  -0.000474
     8  C    0.000018   0.000199  -0.000011   0.000008
     9  C    0.000247  -0.000006   0.000020  -0.000014
    10  C    0.000023  -0.000002   0.000001  -0.000002
    11  C   -0.000051   0.000004  -0.000002   0.000004
    12  C   -0.000788  -0.000004  -0.000041  -0.000001
    13  C   -0.001217   0.000102  -0.000197   0.000119
    14  H   -0.000339  -0.000017  -0.000002  -0.000017
    15  H   -0.000020  -0.000358   0.000063  -0.000381
    16  H    0.000000  -0.000000  -0.000000  -0.000000
    17  H    0.000000   0.000000   0.000000  -0.000000
    18  H    0.000003  -0.000053  -0.000003  -0.000050
    19  H   -0.000002  -0.000012   0.000000   0.000002
    20  H    0.000000  -0.000000  -0.000000  -0.000000
    21  H   -0.000000   0.000001   0.000000   0.000001
    22  H    0.000000  -0.000000  -0.000000  -0.000000
    23  H   -0.000000   0.000000  -0.000000   0.000000
    24  Cl   0.000000  -0.000000   0.000000  -0.000000
    25  C   -0.000003   0.000000  -0.000000   0.000000
    26  H    0.000000  -0.000000   0.000000   0.000000
    27  H    0.000001   0.000000  -0.000001  -0.000000
    28  F   -0.000000   0.000000  -0.000000   0.000000
    29  F    0.000000   0.000000  -0.000000   0.000000
    30  F   -0.000000   0.000000  -0.000000   0.000000
    31  O   -0.006721  -0.000012  -0.000763  -0.000249
    32  O    0.001964  -0.008914   0.004461  -0.008798
    33  C   -0.012559  -0.007917   0.069287  -0.012193
    34  C    0.399028  -0.026736  -0.130390  -0.022879
    35  C   -0.045893   0.393159   0.403567   0.392711
    36  H   -0.035171  -0.007348  -0.003093   0.006009
    37  H    0.458957   0.005938  -0.003095  -0.007236
    38  H    0.005938   0.460552  -0.033726  -0.031773
    39  H   -0.003095  -0.033726   0.497205  -0.033565
    40  H   -0.007236  -0.031773  -0.033565   0.460765
 Mulliken charges:
               1
     1  C   -0.879493
     2  N   -0.432170
     3  C    0.123943
     4  O   -0.394841
     5  N   -0.370517
     6  C   -0.493028
     7  C   -0.107739
     8  C   -1.093569
     9  C   -0.580206
    10  C    1.508437
    11  C   -1.603985
    12  C   -0.227611
    13  C   -0.377753
    14  H    0.470610
    15  H    0.455189
    16  H    0.234935
    17  H    0.240670
    18  H    0.280236
    19  H    0.264776
    20  H    0.247370
    21  H    0.253290
    22  H    0.245081
    23  H    0.329322
    24  Cl   0.394506
    25  C    1.012075
    26  H    0.257815
    27  H    0.337487
    28  F   -0.150471
    29  F   -0.054295
    30  F   -0.054023
    31  O   -0.474059
    32  O   -0.423403
    33  C    0.039944
    34  C   -0.199863
    35  C   -1.011131
    36  H    0.243583
    37  H    0.244552
    38  H    0.256742
    39  H    0.230101
    40  H    0.257496
 Sum of Mulliken charges =  -1.00000
 Mulliken charges with hydrogens summed into heavy atoms:
               1
     1  C   -0.879493
     2  N    0.038440
     3  C    0.123943
     4  O   -0.394841
     5  N    0.084672
     6  C   -0.017423
     7  C    0.437273
     8  C   -0.347828
     9  C   -0.250885
    10  C    1.508437
    11  C   -1.603985
    12  C    0.030204
    13  C   -0.040267
    24  Cl   0.394506
    25  C    1.012075
    28  F   -0.150471
    29  F   -0.054295
    30  F   -0.054023
    31  O   -0.474059
    32  O   -0.423403
    33  C    0.039944
    34  C    0.288271
    35  C   -0.266791
 Electronic spatial extent (au):  <R**2>=          12993.5229
 Charge=             -1.0000 electrons
 Dipole moment (field-independent basis, Debye):
    X=             -1.2130    Y=             -0.0544    Z=             -0.1069  Tot=              1.2189
 Quadrupole moment (field-independent basis, Debye-Ang):
[...]
 266,-0.00002005,0.00000986,-0.00000054,0.00000458,-0.00000496,-0.00000
 452,0.00000600,-0.00001240,0.00000450,-0.00000211,-0.00000938,-0.00000
 769,-0.00000072,-0.00001235,0.00000732,-0.00000351,0.00000337,-0.00000
 045,0.00000018,-0.00004342,0.00000231,-0.00002108,0.00000927,-0.000001
 83,-0.00000562,-0.00003492,-0.00001677,-0.00003746,0.00001540,0.000009
 25,0.00000445,0.00000830,-0.00000036,0.00000589,0.00001196,-0.00000723
 ,0.00001224,0.00190276,0.00016120,0.00403389,-0.00173195,-0.00607742,0
 .00407272,-0.02070234,-0.00411268,-0.03011830,-0.03434156,-0.05812233,
 -0.04816493,0.01179962,0.00334249,0.01506949,0.03523295,0.06357989,-0.
 00023137,0.00008540,-0.00000057,0.00019796,-0.00010329,0.00000927,-0.0
 0023415,0.00010470,-0.00001123,0.00004926,-0.00010484,0.00000720,0.000
 09250,-0.00019501,0.00003640,0.00002344,0.00000592,-0.00001524,-0.0000
 0252,0.00001615,-0.00000323,0.00000778,-0.00000800,0.00000087,0.000055
 14,-0.00004866,0.00000054,-0.00004503,0.00000850,0.00000438,0.00006090
 ,-0.00000690,-0.00000498,-0.00003177,0.00000913,0.00000639,0.00008108,
 0.00001311,0.00000444,-0.00001553,0.00015915,-0.00001138,0.00001637,0.
 00024332,-0.00003557,-0.00000471,-0.00000930,-0.00000372,-0.00000171,-
 0.00000706,0.00000965,0.00001335,0.00000314,-0.00001818,0.00000702,0.0
 0000784,0.00001546,-0.00000467,-0.00000349,0.00000689,-0.00000006,0.00
 000306,-0.00000120,-0.00000562,-0.00000642,-0.00000406,-0.00001204,0.0
 0000759,-0.00000191,0.00000563,-0.00000201,0.00000063,-0.00007755,-0.0
 0001632,-0.00001497,0.00001328,-0.00000629,-0.00000391,-0.00003430,-0.
 00003504,-0.00002570,0.00003052,0.00002486,0.00000331,0.00001577,-0.00
 000010,0.00000353,0.00001768,-0.00000413,0.00000956,0.00173153,-0.0007
 9804,0.00101366,0.00073522,-0.00039121,-0.00039822,-0.00105209,0.00275
 405,-0.00008391,-0.12321244,-0.04503759,-0.20026098,0.00339220,0.00149
 864,0.00399478,0.13493766,0.04810722,0.21588722,0.00003942,-0.00000908
 ,0.00000375,0.00006102,0.00010457,0.00002471,-0.00022908,0.00000650,0.
 00001463,0.00006192,-0.00002070,-0.00000855,0.00006982,-0.00021401,-0.
 00002083,0.00000202,-0.00000719,-0.00000373,-0.00000431,0.00002174,0.0
 0004566,0.00000330,-0.00000639,-0.00001274,-0.00000662,-0.00000880,-0.
 00000736,0.00000622,0.00001126,-0.00000076,-0.00001869,0.00000053,-0.0
 0000502,0.00002928,-0.00000388,0.00000357,-0.00002292,-0.00000074,0.00
 000366,-0.00003170,-0.00021614,-0.00005841,-0.00002099,0.00028431,-0.0
 0000551,-0.00000140,-0.00001144,-0.00000202,0.00000144,0.00000339,-0.0
 0000196,0.00000851,0.00000879,-0.00001563,-0.00000196,0.00000024,-0.00
 000468,0.00000083,0.00000442,-0.00000141,0.00000464,0.00000180,0.00000
 668,-0.00000484,-0.00001032,-0.00000391,-0.00000339,0.00000047,0.00000
 366,-0.00000184,0.00000630,-0.00000046,0.00002476,-0.00000227,0.000010
 69,-0.00000331,0.00000152,0.00000021,0.00003003,0.00000450,-0.00000524
 ,-0.00001200,-0.00000271,-0.00000086,-0.00000486,-0.00000040,-0.000002
 72,-0.00000827,0.00000417,-0.00000505,0.00022000,0.00185816,-0.0009721
 9,0.00012563,-0.00231152,-0.00124758,-0.00527928,-0.00212895,0.0054934
 2,-0.10801114,-0.03210578,0.10878891,-0.01393276,-0.00743445,0.0240583
 8,0.01007046,0.00611089,-0.01692194,0.11956746,-0.00018627,0.00008526,
 -0.00000497,0.00022557,0.00005826,0.00006808,-0.00045049,0.00015879,0.
 00002194,0.00010410,-0.00018583,-0.00001686,0.00015159,-0.00059291,0.0
 0004967,0.00011074,0.00001965,-0.00000862,-0.00002308,0.00001808,0.000
 02120,0.00001271,-0.00001310,-0.00000762,0.00004381,-0.00005480,-0.000
 00146,-0.00003465,0.00002302,-0.00000226,0.00003900,-0.00001263,-0.000
 00576,-0.00000278,0.00000492,-0.00000009,0.00006067,0.00001133,-0.0000
 2600,-0.00004664,0.00002431,-0.00013520,-0.00000899,0.00091089,-0.0001
 5333,-0.00002251,-0.00002467,-0.00000630,-0.00001330,-0.00001022,0.000
 01222,0.00004190,0.00000309,-0.00003194,0.00001230,0.00001236,0.000015
 81,-0.00000443,-0.00000491,0.00000469,-0.00001220,0.00000493,-0.000001
 69,-0.00001095,-0.00001052,-0.00000233,-0.00001310,0.00000702,0.000003
 19,0.00000404,-0.00000395,0.00000002,-0.00004500,0.00000320,0.00001801
 ,0.00000752,-0.00000217,0.00000617,-0.00003023,-0.00000767,0.00003003,
 0.00001289,0.00001072,-0.00000329,0.00001251,-0.00000893,-0.00001108,0
 .00000820,-0.00000289,-0.00000129,0.00134598,0.00036156,-0.00430237,-0
 .00228238,-0.00589030,-0.00408791,-0.01598823,-0.00562381,0.03262448,-
 0.03204150,-0.06363470,0.06122650,0.00949418,0.00421038,-0.01657515,0.
 00427684,0.00158263,-0.00698747,0.03344198,0.06927254,0.00020548,-0.00
 007670,-0.00000254,-0.00018528,0.00008937,0.00001326,0.00023270,-0.000
 09759,-0.00001035,-0.00004990,0.00009776,0.00000320,-0.00008689,0.0001
 8965,0.00002929,-0.00001927,-0.00000301,0.00000468,0.00000101,-0.00001
 904,-0.00001708,-0.00000661,0.00000725,0.00000316,-0.00004923,0.000046
 14,0.00000006,0.00003977,-0.00001203,-0.00000061,-0.00005378,0.0000085
 4,0.00000510,0.00002734,-0.00000828,0.00000863,-0.00007144,-0.00001288
 ,0.00000994,0.00001646,-0.00012151,-0.00000938,-0.00001923,-0.00023431
 ,-0.00005374,0.00000485,0.00001267,0.00000421,-0.00000112,0.00000105,-
 0.00000435,-0.00001546,-0.00000074,0.00001701,-0.00000184,-0.00000432,
 -0.00000635,0.00000192,-0.00000013,-0.00000343,0.00000009,-0.00000381,
 -0.00000159,0.00000636,0.00000958,0.00000480,0.00001137,-0.00000690,-0
 .00000295,-0.00000510,0.00000298,0.00000052,0.00007279,0.00001258,-0.0
 0001681,-0.00001136,0.00000533,-0.00000618,0.00002780,0.00002838,-0.00
 002622,-0.00002803,-0.00002228,0.00000345,-0.00001779,0.00000530,0.000
 00904,-0.00001415,0.00000067,0.00000229,-0.00153628,0.00047688,0.00123
 788,-0.00093037,0.00046607,-0.00027917,0.00101735,-0.00273780,0.000438
 82,0.10757219,0.05803490,-0.23011846,-0.00018009,-0.00034741,-0.000120
 74,0.01224528,0.00742605,-0.02224260,-0.11863072,-0.06192804,0.2488837
 0,0.00000929,0.00000109,0.00000703,0.00001066,0.00008571,-0.00002013,-
 0.00005225,-0.00002259,0.00001528,0.00001442,0.00002520,-0.00000901,0.
 00000547,0.00000260,-0.00003266,0.00001040,0.00000049,0.00002237,-0.00
 000909,-0.00001011,-0.00002291,-0.00000044,-0.00000162,0.00000580,-0.0
 0000137,0.00000175,-0.00000380,0.00000261,-0.00000306,0.00000034,-0.00
 001342,0.00000801,-0.00000350,0.00001827,-0.00000572,-0.00000032,-0.00
 000802,-0.00000893,-0.00001483,-0.00000536,-0.00012908,0.00001898,-0.0
 0000383,-0.00000883,0.00003146,-0.00000328,0.00000371,-0.00000378,0.00
 000364,0.00000663,-0.00000462,0.00001297,-0.00000624,0.00001925,0.0000
 0091,0.00000025,-0.00000388,0.00000197,0.00000125,-0.00000269,-0.00000
 650,-0.00000164,-0.00000408,0.00000064,0.00000501,0.00000141,-0.000001
 32,0.00000080,0.00000324,-0.00000209,0.00001456,-0.00000108,0.00002410
 ,-0.00001936,0.00001717,0.00000294,-0.00000319,0.00000393,0.00000983,-
 0.00001524,0.00001787,-0.00000670,0.00000486,-0.00000309,-0.00000642,0
 .00000477,-0.00000076,-0.00001037,0.00001010,-0.00001233,0.00054954,0.
 00037179,-0.00037870,0.00131047,0.00020439,-0.00071879,-0.00121357,-0.
 00168904,0.00037675,-0.01508828,-0.00715028,0.02607771,-0.10823670,-0.
 03346291,0.10853850,0.00071162,-0.00096109,-0.00039848,-0.00455384,0.0
 0364918,-0.00026258,0.11999562,0.00014396,-0.00005589,-0.00000017,-0.0
 0013898,0.00006431,0.00000575,0.00019364,-0.00012581,0.00000731,-0.000
 03822,0.00011412,-0.00000303,-0.00005923,0.00021701,0.00001502,-0.0000
 2523,-0.00000517,0.00001313,-0.00000275,-0.00004565,-0.00004801,-0.000
 01429,0.00001893,0.00001358,-0.00003361,0.00004136,-0.00000143,0.00003
 107,-0.00002630,0.00000066,-0.00004462,0.00001766,-0.00000349,0.000024
 89,-0.00001191,-0.00000190,-0.00005008,-0.00001529,0.00000833,0.000021
 11,-0.00012010,-0.00000894,-0.00003112,-0.00030345,-0.00002991,0.00000
 179,0.00001847,0.00000458,0.00000074,0.00000087,-0.00000934,-0.0000317
 0,-0.00000995,0.00002521,-0.00000264,-0.00000088,0.00000022,0.00000153
 ,0.00000148,-0.00000642,0.00000549,-0.00000739,0.00000084,0.00001377,0
 .00001244,0.00000505,0.00000818,-0.00000441,-0.00000074,-0.00000539,0.
 00001963,0.00000006,0.00007084,-0.00001923,0.00000195,-0.00000291,-0.0
 0000053,0.00000013,0.00002112,-0.00000310,-0.00000541,-0.00002155,-0.0
 0000605,0.00000006,-0.00001903,0.00001244,0.00000950,-0.00001970,0.000
 01250,-0.00001023,-0.00080427,0.00018541,0.00027705,-0.00077491,-0.000
 40567,0.00055649,0.00159301,0.00052971,-0.00110029,0.00817269,0.004595
 68,-0.01584577,-0.03460797,-0.06527098,0.06051447,-0.00081537,0.000684
 31,0.00033799,0.00328672,-0.00175878,-0.00043100,0.03436271,0.06781903
 ,0.00004906,-0.00002739,-0.00000291,-0.00011327,-0.00008040,0.00001694
 ,0.00020281,-0.00002864,-0.00001002,-0.00005667,0.00001516,0.00000558,
 -0.00009009,0.00008076,0.00002183,0.00005922,0.00001523,0.00001583,-0.
 00001525,-0.00004306,-0.00007557,-0.00000554,0.00000973,0.00002043,-0.
 00001123,0.00001194,0.00000149,0.00001321,0.00000426,-0.00000011,-0.00
 001347,-0.00000522,0.00000110,0.00000030,-0.00000192,0.00000068,-0.000
 01650,0.00000583,0.00000658,0.00002055,0.00010236,-0.00001916,-0.00000
 047,-0.00007119,-0.00003319,-0.00001137,0.00001331,-0.00000075,-0.0000
 0931,-0.00000711,0.00000311,0.00000628,-0.00002593,0.00002824,0.000006
 10,0.00000347,0.00000868,-0.00000129,-0.00000817,-0.00000045,-0.000015
 83,-0.00000466,-0.00001319,0.00000725,0.00001853,0.00000753,0.00000624
 ,-0.00000258,-0.00000187,0.,-0.00000835,0.00000066,0.00000910,0.000012
 21,-0.00000993,-0.00000385,0.00000151,-0.00000159,-0.00000106,0.000006
 00,-0.00000657,-0.00000539,-0.00000815,0.00000200,-0.00000159,-0.00000
 156,0.00000237,0.00000032,-0.00000447,0.00000558,-0.00076316,-0.000590
 28,-0.00000324,-0.00200101,0.00023020,0.00086908,0.00242011,0.00177361
 ,-0.00017052,0.00056873,-0.00051240,-0.00117342,0.10895026,0.05825248,
 -0.23994050,0.00033008,-0.00041770,0.00070750,0.00011479,-0.00011662,0
 .00159361,-0.11959217,-0.06550134,0.25735512,0.00010462,-0.00000609,-0
 .00000087,0.00007189,0.00035566,-0.00001068,-0.00026682,0.00000059,0.0
 0000374,0.00007861,0.00004272,-0.00000202,0.00008769,-0.00006205,0.000
 00560,-0.00006162,-0.00002031,-0.00000746,0.00001531,0.00003027,0.0000
 1351,0.00001018,-0.00001129,-0.00000260,-0.00002419,0.00001907,-0.0000
 0089,0.00000743,-0.00001417,-0.00000174,-0.00002455,0.00002131,0.00000
 322,0.00002374,-0.00000054,0.00000086,-0.00003731,-0.00004043,0.000000
 09,-0.00006599,-0.00052000,0.00001186,-0.00001348,0.00004288,0.0000067
 7,0.00000980,-0.00000459,-0.00000109,0.00001326,0.00000232,0.00000092,
 -0.00000370,0.00001451,-0.00002498,-0.00000326,0.00000991,0.00001323,-
 0.00000257,-0.00000057,0.00000471,0.00001161,0.00000392,0.00000198,-0.
 00000619,-0.00000882,-0.00000424,-0.00000195,0.00000050,0.00000003,-0.
 00000460,0.00001837,-0.00000047,0.00004592,-0.00000952,0.00000248,-0.0
 0000181,-0.00000016,-0.00000026,0.00004153,-0.00000632,0.00000219,-0.0
 0001448,-0.00000458,-0.00000063,-0.00001253,0.00000728,0.00000496,-0.0
 0001248,0.00000790,-0.00000812,-0.00046987,0.00349346,0.00012265,0.002
 34580,-0.00055998,-0.00015358,-0.00731343,-0.00224052,0.00054871,0.006
 71409,0.03185658,0.00019883,-0.05583999,-0.04461713,-0.00075189,0.0010
 7205,-0.00086018,-0.00056731,0.00111455,-0.00093550,0.00034779,-0.0035
 5959,-0.01461528,-0.00239944,0.05959708,-0.00040957,0.00012317,-0.0000
 0211,0.00021684,-0.00051145,0.00000541,-0.00008438,0.00031052,-0.00001
 341,-0.00001323,-0.00031738,0.00001102,0.00001678,-0.00036892,-0.00000
 374,0.00011340,0.00003822,-0.00002712,-0.00000434,0.00003414,0.0000302
 7,0.00001856,-0.00001435,-0.00000972,0.00009992,-0.00011522,0.00000373
 ,-0.00007078,0.00008572,0.00000080,0.00012183,-0.00007754,-0.00000262,
 -0.00008787,0.00003130,-0.00000228,0.00014118,0.00008978,-0.00000270,-
 0.00000306,0.00085406,-0.00000513,0.00009743,0.00058646,0.00002225,-0.
 00001657,-0.00003114,-0.00000805,-0.00001764,-0.00001598,0.00002440,0.
 00004312,0.00001177,-0.00004291,0.00001231,0.00001339,0.00002410,-0.00
 000736,-0.00000830,0.00001326,-0.00001374,0.00001370,-0.00000261,-0.00
 001468,-0.00002002,-0.00000713,-0.00001368,0.00000858,0.00000002,0.000
 01985,-0.00008095,0.00000148,-0.00024236,0.00007828,-0.00000430,0.0000
 0192,0.00000531,0.00000054,-0.00009087,0.00003481,-0.00000053,0.000072
 60,0.00001457,0.00000077,0.00006821,-0.00004636,-0.00003361,0.00006792
 ,-0.00004602,0.00003871,0.00177993,-0.00302992,-0.00020207,0.00069921,
 -0.00106384,-0.00010886,0.00142125,0.00258777,-0.00004895,-0.00496939,
 -0.01487747,0.00003040,-0.04447641,-0.30151532,-0.00297871,0.00026163,
 0.00033510,0.00062438,0.00017467,0.00038496,-0.00063927,-0.00125960,-0
 .00722841,-0.00020292,0.04744313,0.32959926,-0.00001910,0.00000250,0.0
 0000326,0.00000196,-0.00003867,-0.00000036,0.00001491,0.00000898,-0.00
 000536,-0.00000522,-0.00001374,0.00000042,-0.00000451,-0.00000585,0.00
 002876,0.00000342,0.00000296,0.00000020,-0.00000098,-0.00001019,-0.000
 02227,0.00000176,0.00000202,0.00000730,0.00000517,-0.00000913,-0.00000
 025,-0.00000021,0.00001058,0.00000042,-0.00000023,-0.00000709,-0.00000
 244,0.00000328,-0.00000131,0.00000384,0.00000360,0.00001060,-0.0000101
 3,0.00000464,0.00006030,-0.00000632,0.00000249,0.00000999,-0.00002864,
 -0.00000159,0.00000012,-0.00000009,0.00000057,-0.00000563,0.00000261,-
 0.00000232,0.00000107,-0.00001340,0.00000322,0.00001239,0.00001798,-0.
 00000353,-0.00000425,0.00000200,0.00000129,0.00000055,-0.00000199,0.00
 000045,0.,-0.00000004,-0.00000056,0.00000009,0.00000069,0.00000097,-0.
 00000357,-0.00000035,-0.00000758,0.00000236,0.00000760,-0.00000006,-0.
 00000006,0.00000160,-0.00000487,0.00000206,0.00000363,0.00000110,0.000
 00095,-0.00000148,0.00000319,-0.00000351,-0.00000461,0.00000084,-0.000
 00056,-0.00000133,0.00008739,-0.00034297,0.00004816,-0.00010768,-0.000
 00162,0.00064420,0.00063371,0.00021237,0.00059270,-0.00073435,-0.00276
 598,-0.00134593,-0.00075280,-0.00295568,-0.05046793,0.00010307,0.00039
 874,0.00002244,-0.00026064,-0.00024301,-0.00006403,0.00327672,0.027961
 17,0.00224196,0.00028724,0.00354561,0.04737671,-0.00000250,0.00001129,
 -0.00000580,0.00003694,0.00009622,0.00001844,-0.00010602,-0.00000990,-
 0.00001116,0.00002711,0.00002036,0.00000480,0.00003619,-0.00001873,0.0
 0004071,-0.00000617,-0.00000057,-0.00000120,-0.00000351,-0.00000150,-0
 .00003706,0.00000233,-0.00000505,0.00001073,-0.00000037,0.00001305,0.0
 0000509,-0.00000642,-0.00002779,0.00000517,0.00000513,0.00002036,-0.00
 000582,-0.00000235,0.00000049,-0.00000244,0.00000449,-0.00002593,0.000
 01496,-0.00000817,-0.00013633,-0.00001605,-0.00000808,0.00000360,-0.00
 003940,0.00000039,0.00000721,-0.00000081,0.00000201,-0.00000185,0.0000
 0229,0.00000673,0.00000140,0.00001470,0.00000734,0.00000298,0.00000491
 ,-0.00000346,-0.00000181,0.00000236,-0.00000342,-0.00000195,-0.0000046
 1,0.00000070,0.00000704,0.00000101,-0.00000163,0.00000174,-0.00000316,
 -0.00000207,0.00001686,0.00000090,0.00001644,-0.00001997,-0.00001876,0
 .00000484,-0.00000290,-0.00000246,0.00000905,-0.00001789,-0.00001741,-
 0.00000039,0.00000539,0.00000387,-0.00000828,0.00001232,0.00001529,-0.
 00000477,0.00000529,0.00000169,0.00070987,0.00043500,0.00028732,0.0017
 0991,0.00012682,0.00060609,-0.00161414,-0.00190514,-0.00026836,-0.0187
 2980,-0.00574338,-0.02366316,-0.14410767,-0.03540976,-0.12563193,-0.00
 436639,0.00357257,0.00136899,0.00071189,-0.00090352,0.00034596,0.01008
 710,0.00420557,0.01236359,-0.00362475,-0.00109615,-0.00253477,0.159231
 91,0.00014955,-0.00005840,0.00000588,-0.00015153,0.00006265,-0.0000017
 6,0.00021461,-0.00013071,0.00000462,-0.00004367,0.00011916,-0.00000721
 ,-0.00007409,0.00022467,-0.00001378,-0.00000971,-0.00000717,0.00001955
 ,-0.00000669,-0.00003010,0.00000240,-0.00002129,0.00002019,-0.00000257
 ,-0.00003535,0.00004441,-0.00000055,0.00003136,-0.00002801,0.00000443,
 -0.00004344,0.00001836,-0.00000480,0.00002177,-0.00001097,0.00000179,-
 0.00005110,-0.00001685,-0.00000607,0.00002213,-0.00011626,0.00000308,-
 0.00002783,-0.00030745,-0.00000897,0.00000176,0.00001646,0.00000347,-0
 .00000197,0.00001124,-0.00001556,-0.00001994,-0.00001267,0.00005007,-0
 .00000898,-0.00002366,-0.00004150,0.00001089,0.00000854,-0.00001044,0.
 00000247,-0.00000896,0.00000226,0.00001218,0.00001359,0.00000477,0.000
 00881,-0.00000468,0.00000048,-0.00000565,0.00001903,-0.00000053,0.0000
 7029,-0.00001831,-0.00000219,-0.00000326,-0.00000026,0.00000081,0.0000
 2139,-0.00000228,0.00000332,-0.00002110,-0.00000674,0.00000050,-0.0000
 1914,0.00001299,0.00001100,-0.00001892,0.00001151,-0.00000856,-0.00087
 456,0.00017202,-0.00013987,-0.00096097,-0.00034043,-0.00044023,0.00186
 497,0.00055243,0.00086591,0.01044490,0.00379771,0.01460195,-0.03684803
 ,-0.05985157,-0.04689548,0.00328652,-0.00176062,-0.00024297,-0.0008421
 8,0.00067493,-0.00021411,0.00599366,0.00105960,0.00711349,-0.01883237,
 -0.00587224,-0.02583261,0.03676453,0.06176884,-0.00004785,0.00002577,-
 0.00000278,0.00011215,0.00006978,0.00000708,-0.00019693,0.00003107,-0.
 00000893,0.00005562,-0.00001747,0.00000564,0.00009553,-0.00007391,0.00
 002951,-0.00007297,-0.00001337,-0.00002678,0.00001994,0.00002221,0.000
 02987,0.00000572,-0.00000246,-0.00001107,0.00001111,-0.00001199,0.0000
 0066,-0.00001175,-0.00000418,-0.00000013,0.00001306,0.00000361,0.00000
 088,-0.00000159,0.00000247,0.00000019,0.00001624,-0.00000347,0.0000064
 7,-0.00001912,-0.00008570,-0.00000936,-0.00000508,0.00005753,-0.000025
 40,0.00001182,-0.00000883,0.00000322,0.00001178,-0.00000772,0.00000578
 ,-0.00001406,0.00002956,-0.00005987,-0.00000741,0.00002337,0.00002851,
 -0.00000486,-0.00000586,0.00001037,0.00002572,0.00000439,0.00000459,-0
 .00000609,-0.00001501,-0.00000492,-0.00000600,0.00000230,-0.00000141,0
 .00000013,0.00000707,0.00000027,-0.00001014,-0.00000992,-0.00000752,0.
 00000333,-0.00000103,-0.00000140,0.00000044,-0.00000364,-0.00000390,0.
 00000551,0.00000738,0.00000146,0.00000047,0.00000341,0.00000398,0.0000
 0185,0.00000123,0.00000210,0.00061226,0.00053677,-0.00014759,0.0018208
 5,-0.00030636,0.00042570,-0.00210862,-0.00146761,0.00020325,0.00264837
 ,0.00167094,0.00332257,-0.12612073,-0.04482016,-0.20950252,0.00097135,
 -0.00060925,0.00139746,-0.00037280,0.00055862,0.00071392,-0.01693965,-
 0.00675115,-0.02145292,0.00235691,-0.00002841,0.00097046,0.13714549,0.
 05119001,0.22409255\\-0.00000150,0.00000078,0.00000036,-0.00000010,-0.
 00000059,0.00000087,-0.00000126,0.00000126,-0.00000132,-0.00000127,0.0
 0000163,0.00000003,0.00000133,0.00000082,-0.00000479,0.00000103,-0.000
 00237,-0.00000069,0.00000207,-0.00000015,0.00000199,0.00000097,0.00000
 049,-0.00000073,-0.00000114,0.00000048,-0.00000073,0.00000035,-0.00000
 096,-0.00000011,-0.00000072,-0.00000029,-0.00000033,0.00000049,0.00000
 004,0.00000032,0.00000101,0.00000029,-0.00000016,-0.00000262,0.0000052
 2,0.00000050,0.00000213,-0.00000170,0.00000251,0.00000084,0.00000011,-
 0.00000011,-0.00000303,-0.00000238,0.00000073,-0.00000065,0.00000165,-
 0.00000081,0.00000013,-0.00000011,-0.00000059,-0.00000014,-0.00000060,
 -0.00000024,-0.00000004,0.00000135,0.00000002,-0.00000039,-0.00000012,
 -0.00000109,-0.00000012,-0.00000034,-0.00000078,-0.00000027,-0.0000006
 1,-0.00000100,-0.00000015,-0.00000031,-0.00000004,-0.00000010,-0.00000
 017,0.00000030,0.00000144,-0.00000160,0.00000031,0.00000098,0.00000167
 ,0.00000004,-0.00000032,-0.00000119,-0.00000247,-0.00000060,-0.0000016
 7,0.00000165,-0.00003075,0.00000603,-0.00000302,-0.00000878,-0.0000094
 6,-0.00000594,0.00003849,0.00000705,0.00000950,0.00000272,-0.00000224,
 0.00000241,0.00000002,-0.00000002,-0.00000116,-0.00000143,-0.00000080,
 -0.00000038,-0.00000125,0.00000095,0.00000028,0.00000069,-0.00000026,0
 .00000215,-0.00000003,-0.00000127,0.00000127,0.00000198,-0.00000059,0.
 00000122\\\@


 MUD THROWN IS GROUND LOST -- FROM A TEA BAG
 Job cpu time:       0 days 11 hours  8 minutes 31.1 seconds.
 File lengths (MBytes):  RWF=   1253 Int=      0 D2E=      0 Chk=     23 Scr=      1
 Normal termination of Gaussian 09 at Thu Nov 14 23:17:41 2019.
pbs_rusage has been removed.
Please contact help@nci.org.au if you require this functionality.
