 Entering Gaussian System, Link 0=/apps/gaussian/g09e01/g09/g09
 Initial command:
 /apps/gaussian/g09e01/g09/l1.exe "/jobfs/local/3595040.r-man2/Gau-15707.inp" -scrdir="/jobfs/local/3595040.r-man2/"
 Entering Link 1 = /apps/gaussian/g09e01/g09/l1.exe PID=     15708.
  
 Copyright (c) 1988,1990,1992,1993,1995,1998,2003,2009,2015,
            Gaussian, Inc.  All Rights Reserved.
  
 This is part of the Gaussian(R) 09 program.  It is based on
 the Gaussian(R) 03 system (copyright 2003, Gaussian, Inc.),
 the Gaussian(R) 98 system (copyright 1998, Gaussian, Inc.),
 the Gaussian(R) 94 system (copyright 1995, Gaussian, Inc.),
 the Gaussian 92(TM) system (copyright 1992, Gaussian, Inc.),
 the Gaussian 90(TM) system (copyright 1990, Gaussian, Inc.),
 the Gaussian 88(TM) system (copyright 1988, Gaussian, Inc.),
 the Gaussian 86(TM) system (copyright 1986, Carnegie Mellon
 University), and the Gaussian 82(TM) system (copyright 1983,
 Carnegie Mellon University). Gaussian is a federally registered
 trademark of Gaussian, Inc.
  
 This software contains proprietary and confidential information,
 including trade secrets, belonging to Gaussian, Inc.
  
 This software is provided under written license and may be
 used, copied, transmitted, or stored only in accord with that
 written license.
  
 The following legend is applicable only to US Government
 contracts under FAR:
  
                    RESTRICTED RIGHTS LEGEND
  
 Use, reproduction and disclosure by the US Government is
 subject to restrictions as set forth in subparagraphs (a)
 and (c) of the Commercial Computer Software - Restricted
 Rights clause in FAR 52.227-19.
  
 Gaussian, Inc.
 340 Quinnipiac St., Bldg. 40, Wallingford CT 06492
  
  
 ---------------------------------------------------------------
 Warning -- This program may not be used in any manner that
 competes with the business of Gaussian, Inc. or will provide
 assistance to any competitor of Gaussian, Inc.  The licensee
 of this program is prohibited from giving any competitor of
 Gaussian, Inc. access to this program.  By using this program,
 the user acknowledges that Gaussian, Inc. is engaged in the
 business of creating and licensing software in the field of
 computational chemistry and represents and warrants to the
 licensee that it is not a competitor of Gaussian, Inc. and that
 it will not use this program in any manner prohibited above.
 ---------------------------------------------------------------
  

 Cite this work as:
 Gaussian 09, Revision E.01,
 M. J. Frisch, G. W. Trucks, H. B. Schlegel, G. E. Scuseria, 
 M. A. Robb, J. R. Cheeseman, G. Scalmani, V. Barone, B. Mennucci, 
 G. A. Petersson, H. Nakatsuji, M. Caricato, X. Li, H. P. Hratchian, 
 A. F. Izmaylov, J. Bloino, G. Zheng, J. L. Sonnenberg, M. Hada, 
 M. Ehara, K. Toyota, R. Fukuda, J. Hasegawa, M. Ishida, T. Nakajima, 
 Y. Honda, O. Kitao, H. Nakai, T. Vreven, J. A. Montgomery, Jr., 
 J. E. Peralta, F. Ogliaro, M. Bearpark, J. J. Heyd, E. Brothers, 
 K. N. Kudin, V. N. Staroverov, T. Keith, R. Kobayashi, J. Normand, 
 K. Raghavachari, A. Rendell, J. C. Burant, S. S. Iyengar, J. Tomasi, 
 M. Cossi, N. Rega, J. M. Millam, M. Klene, J. E. Knox, J. B. Cross, 
 V. Bakken, C. Adamo, J. Jaramillo, R. Gomperts, R. E. Stratmann, 
 O. Yazyev, A. J. Austin, R. Cammi, C. Pomelli, J. W. Ochterski, 
 R. L. Martin, K. Morokuma, V. G. Zakrzewski, G. A. Voth, 
 P. Salvador, J. J. Dannenberg, S. Dapprich, A. D. Daniels, 
 O. Farkas, J. B. Foresman, J. V. Ortiz, J. Cioslowski, 
 and D. J. Fox, Gaussian, Inc., Wallingford CT, 2013.
 
 ******************************************
 Gaussian 09:  ES64L-G09RevE.01 30-Nov-2015
                14-Nov-2019 
 ******************************************
 %chk=CP19_c2_carboxy.M062X_6-311pGd_opt_Pentadecane_GD3.chk
 %mem=196608000
 %nproc=8
 Will use up to    8 processors via shared memory.
 ----------------------------------------------------------------------
 # M062X/6-311+G* SCF=Tight INT(grid=ultrafine) OPT IOP(2/17=4) Empiric
 alDispersion=GD3 SCRF=(SMD,Solvent=n-Pentadecane) maxdisk=2684354560
 ----------------------------------------------------------------------
 1/14=-1,18=20,19=15,26=4,38=1/1,3;
 2/9=110,12=2,17=4,18=5,40=1/2;
 3/5=4,6=6,7=11,11=2,16=1,25=1,30=1,70=32201,71=1,72=151,74=-55,75=-5,124=31/1,2,3;
 4//1;
 5/5=2,32=2,38=5,53=151/2;
 6/7=2,8=2,9=2,10=2,28=1/1;
 7//1,2,3,16;
 1/14=-1,18=20,19=15,26=4/3(2);
 2/9=110,17=4/2;
 99//99;
 2/9=110,17=4/2;
 3/5=4,6=6,7=11,11=2,16=1,25=1,30=1,70=32205,71=1,72=151,74=-55,75=-5,124=31/1,2,3;
 4/5=5,16=3,69=1/1;
 5/5=2,32=2,38=5,53=151/2;
 7//1,2,3,16;
 1/14=-1,18=20,19=15,26=4/3(-5);
 2/9=110,17=4/2;
 6/7=2,8=2,9=2,10=2,19=2,28=1/1;
 99/9=1/99;
 --------------------------------------------------
 CP19_c2_carboxy.M062X_6-311pGd_opt_Pentadecane_GD3
 --------------------------------------------------
 Symbolic Z-matrix:
 Charge = -1 Multiplicity = 1
 C                    -6.17162   1.26553  -0.05558 
 N                    -4.92675   0.68376  -0.01093 
 C                    -3.69468   1.32562  -0.07418 
 O                    -3.56144   2.54181  -0.17266 
 N                    -2.65353   0.46671  -0.00826 
 C                    -1.29445   0.95866  -0.10246 
 C                    -0.30972  -0.17618   0.14493 
 C                     1.13401   0.29953   0.03129 
 C                    -7.27403   0.38831   0.03917 
 C                    -8.55891   0.88162   0.00416 
 C                    -8.818     2.25082  -0.1257 
 C                    -7.72375   3.10741  -0.21972 
 C                    -6.4192    2.64268  -0.18677 
 H                    -4.92767  -0.35115   0.08648 
 H                    -2.80823  -0.55217  -0.00806 
 H                    -1.14477   1.75898   0.62968 
 H                    -1.11603   1.4022   -1.09048 
 H                    -0.50227  -0.98274  -0.56874 
 H                    -0.49393  -0.59705   1.1381 
 H                     1.34298   0.69584  -0.96658 
 H                     1.83695  -0.51576   0.21704 
 H                     1.34825   1.09315   0.7531 
 H                    -7.0947   -0.67711   0.13924 
 Cl                   -9.87614  -0.26368   0.12895 
 C                    -10.20796   2.79576  -0.16086 
 H                    -7.89659   4.17201  -0.32168 
 H                    -5.5907    3.32874  -0.2607 
 F                    -10.2187   4.13422  -0.29753 
 F                    -10.94151   2.31104  -1.18202 
 F                    -10.90797   2.52956   0.95957 
 O                    -5.18793  -2.05194   0.22315 
 O                    -2.98998  -2.35152  -0.03743 
 C                    -4.16073  -2.77004   0.0982 
 C                    -4.39615  -4.28491   0.12219 
 C                    -3.14571  -5.12378  -0.09301 
 H                    -5.15437  -4.50494  -0.63552 
 H                    -4.86476  -4.51991   1.08337 
 H                    -2.68634  -4.9014   -1.05806 
 H                    -3.3767   -6.19282  -0.06312 
 H                    -2.3977   -4.91395   0.67349 
 
 Add virtual bond connecting atoms O31        and H14        Dist= 3.26D+00.
 Add virtual bond connecting atoms O32        and H15        Dist= 3.42D+00.

 GradGradGradGradGradGradGradGradGradGradGradGradGradGradGradGradGradGrad
 Berny optimization.
 Initialization pass.
                           ----------------------------
                           !    Initial Parameters    !
                           ! (Angstroms and Degrees)  !
 --------------------------                            --------------------------
 ! Name  Definition              Value          Derivative Info.                !
 --------------------------------------------------------------------------------
 ! R1    R(1,2)                  1.3748         estimate D2E/DX2                !
 ! R2    R(1,9)                  1.412          estimate D2E/DX2                !
 ! R3    R(1,13)                 1.4054         estimate D2E/DX2                !
 ! R4    R(2,3)                  1.3907         estimate D2E/DX2                !
 ! R5    R(2,14)                 1.0395         estimate D2E/DX2                !
 ! R6    R(3,4)                  1.2274         estimate D2E/DX2                !
 ! R7    R(3,5)                  1.3513         estimate D2E/DX2                !
 ! R8    R(5,6)                  1.4485         estimate D2E/DX2                !
 ! R9    R(5,15)                 1.0306         estimate D2E/DX2                !
 ! R10   R(6,7)                  1.5227         estimate D2E/DX2                !
 ! R11   R(6,16)                 1.095          estimate D2E/DX2                !
 ! R12   R(6,17)                 1.0976         estimate D2E/DX2                !
 ! R13   R(7,8)                  1.5243         estimate D2E/DX2                !
 ! R14   R(7,18)                 1.094          estimate D2E/DX2                !
 ! R15   R(7,19)                 1.0943         estimate D2E/DX2                !
 ! R16   R(8,20)                 1.0938         estimate D2E/DX2                !
 ! R17   R(8,21)                 1.0924         estimate D2E/DX2                !
 ! R18   R(8,22)                 1.094          estimate D2E/DX2                !
 ! R19   R(9,10)                 1.3768         estimate D2E/DX2                !
 ! R20   R(9,23)                 1.085          estimate D2E/DX2                !
 ! R21   R(10,11)                1.3995         estimate D2E/DX2                !
 ! R22   R(10,24)                1.75           estimate D2E/DX2                !
 ! R23   R(11,12)                1.3928         estimate D2E/DX2                !
 ! R24   R(11,25)                1.4934         estimate D2E/DX2                !
 ! R25   R(12,13)                1.3853         estimate D2E/DX2                !
 ! R26   R(12,26)                1.0833         estimate D2E/DX2                !
 ! R27   R(13,27)                1.0782         estimate D2E/DX2                !
 ! R28   R(14,31)                1.726          estimate D2E/DX2                !
 ! R29   R(15,32)                1.8087         estimate D2E/DX2                !
 ! R30   R(25,28)                1.3455         estimate D2E/DX2                !
 ! R31   R(25,29)                1.3475         estimate D2E/DX2                !
 ! R32   R(25,30)                1.3477         estimate D2E/DX2                !
 ! R33   R(31,33)                1.2595         estimate D2E/DX2                !
 ! R34   R(32,33)                1.2507         estimate D2E/DX2                !
 ! R35   R(33,34)                1.5332         estimate D2E/DX2                !
 ! R36   R(34,35)                1.5211         estimate D2E/DX2                !
 ! R37   R(34,36)                1.0943         estimate D2E/DX2                !
 ! R38   R(34,37)                1.0948         estimate D2E/DX2                !
 ! R39   R(35,38)                1.0917         estimate D2E/DX2                !
 ! R40   R(35,39)                1.0941         estimate D2E/DX2                !
 ! R41   R(35,40)                1.0914         estimate D2E/DX2                !
 ! A1    A(2,1,9)              116.223          estimate D2E/DX2                !
 ! A2    A(2,1,13)             125.2546         estimate D2E/DX2                !
 ! A3    A(9,1,13)             118.5224         estimate D2E/DX2                !
 ! A4    A(1,2,3)              127.2591         estimate D2E/DX2                !
 ! A5    A(1,2,14)             115.0582         estimate D2E/DX2                !
 ! A6    A(3,2,14)             117.6817         estimate D2E/DX2                !
 ! A7    A(2,3,4)              123.858          estimate D2E/DX2                !
 ! A8    A(2,3,5)              112.7687         estimate D2E/DX2                !
 ! A9    A(4,3,5)              123.3724         estimate D2E/DX2                !
 ! A10   A(3,5,6)              120.2569         estimate D2E/DX2                !
 ! A11   A(3,5,15)             120.8479         estimate D2E/DX2                !
 ! A12   A(6,5,15)             118.4674         estimate D2E/DX2                !
 ! A13   A(5,6,7)              110.0657         estimate D2E/DX2                !
 ! A14   A(5,6,16)             109.452          estimate D2E/DX2                !
 ! A15   A(5,6,17)             110.3844         estimate D2E/DX2                !
 ! A16   A(7,6,16)             110.346          estimate D2E/DX2                !
 ! A17   A(7,6,17)             110.016          estimate D2E/DX2                !
 ! A18   A(16,6,17)            106.5173         estimate D2E/DX2                !
 ! A19   A(6,7,8)              111.5802         estimate D2E/DX2                !
 ! A20   A(6,7,18)             109.2466         estimate D2E/DX2                !
 ! A21   A(6,7,19)             108.9792         estimate D2E/DX2                !
 ! A22   A(8,7,18)             110.373          estimate D2E/DX2                !
 ! A23   A(8,7,19)             110.3116         estimate D2E/DX2                !
 ! A24   A(18,7,19)            106.1928         estimate D2E/DX2                !
 ! A25   A(7,8,20)             111.2243         estimate D2E/DX2                !
 ! A26   A(7,8,21)             111.3386         estimate D2E/DX2                !
 ! A27   A(7,8,22)             111.2661         estimate D2E/DX2                !
 ! A28   A(20,8,21)            107.6134         estimate D2E/DX2                !
 ! A29   A(20,8,22)            107.5578         estimate D2E/DX2                !
 ! A30   A(21,8,22)            107.6506         estimate D2E/DX2                !
 ! A31   A(1,9,10)             120.2862         estimate D2E/DX2                !
 ! A32   A(1,9,23)             119.1553         estimate D2E/DX2                !
 ! A33   A(10,9,23)            120.5584         estimate D2E/DX2                !
 ! A34   A(9,10,11)            121.7135         estimate D2E/DX2                !
 ! A35   A(9,10,24)            117.7856         estimate D2E/DX2                !
 ! A36   A(11,10,24)           120.5008         estimate D2E/DX2                !
 ! A37   A(10,11,12)           117.5479         estimate D2E/DX2                !
 ! A38   A(10,11,25)           122.1061         estimate D2E/DX2                !
 ! A39   A(12,11,25)           120.3458         estimate D2E/DX2                !
 ! A40   A(11,12,13)           122.1366         estimate D2E/DX2                !
 ! A41   A(11,12,26)           119.0369         estimate D2E/DX2                !
 ! A42   A(13,12,26)           118.8266         estimate D2E/DX2                !
 ! A43   A(1,13,12)            119.7933         estimate D2E/DX2                !
 ! A44   A(1,13,27)            119.6401         estimate D2E/DX2                !
 ! A45   A(12,13,27)           120.5666         estimate D2E/DX2                !
 ! A46   A(11,25,28)           111.8903         estimate D2E/DX2                !
 ! A47   A(11,25,29)           113.1567         estimate D2E/DX2                !
 ! A48   A(11,25,30)           113.0663         estimate D2E/DX2                !
 ! A49   A(28,25,29)           106.0524         estimate D2E/DX2                !
 ! A50   A(28,25,30)           106.0694         estimate D2E/DX2                !
 ! A51   A(29,25,30)           106.0345         estimate D2E/DX2                !
 ! A52   A(14,31,33)           115.5292         estimate D2E/DX2                !
 ! A53   A(15,32,33)           115.1628         estimate D2E/DX2                !
 ! A54   A(31,33,32)           125.6898         estimate D2E/DX2                !
 ! A55   A(31,33,34)           115.8823         estimate D2E/DX2                !
 ! A56   A(32,33,34)           118.4277         estimate D2E/DX2                !
 ! A57   A(33,34,35)           114.6108         estimate D2E/DX2                !
 ! A58   A(33,34,36)           107.1106         estimate D2E/DX2                !
 ! A59   A(33,34,37)           106.9493         estimate D2E/DX2                !
 ! A60   A(35,34,36)           111.1468         estimate D2E/DX2                !
 ! A61   A(35,34,37)           110.9593         estimate D2E/DX2                !
 ! A62   A(36,34,37)           105.5555         estimate D2E/DX2                !
 ! A63   A(34,35,38)           111.0178         estimate D2E/DX2                !
 ! A64   A(34,35,39)           111.1885         estimate D2E/DX2                !
 ! A65   A(34,35,40)           110.9805         estimate D2E/DX2                !
 ! A66   A(38,35,39)           108.1808         estimate D2E/DX2                !
 ! A67   A(38,35,40)           107.0549         estimate D2E/DX2                !
 ! A68   A(39,35,40)           108.2623         estimate D2E/DX2                !
 ! A69   L(2,14,31,7,-1)       188.6333         estimate D2E/DX2                !
 ! A70   L(5,15,32,7,-1)       177.1965         estimate D2E/DX2                !
 ! A71   L(2,14,31,7,-2)       180.647          estimate D2E/DX2                !
 ! A72   L(5,15,32,7,-2)       181.1568         estimate D2E/DX2                !
 ! D1    D(9,1,2,3)           -179.4848         estimate D2E/DX2                !
 ! D2    D(9,1,2,14)             0.1452         estimate D2E/DX2                !
 ! D3    D(13,1,2,3)             0.5478         estimate D2E/DX2                !
 ! D4    D(13,1,2,14)         -179.8222         estimate D2E/DX2                !
 ! D5    D(2,1,9,10)           179.9649         estimate D2E/DX2                !
 ! D6    D(2,1,9,23)            -0.0621         estimate D2E/DX2                !
 ! D7    D(13,1,9,10)           -0.0654         estimate D2E/DX2                !
 ! D8    D(13,1,9,23)          179.9076         estimate D2E/DX2                !
 ! D9    D(2,1,13,12)          179.9894         estimate D2E/DX2                !
 ! D10   D(2,1,13,27)           -0.0251         estimate D2E/DX2                !
 ! D11   D(9,1,13,12)            0.0227         estimate D2E/DX2                !
 ! D12   D(9,1,13,27)         -179.9918         estimate D2E/DX2                !
 ! D13   D(1,2,3,4)              0.534          estimate D2E/DX2                !
 ! D14   D(1,2,3,5)           -179.8044         estimate D2E/DX2                !
 ! D15   D(14,2,3,4)          -179.0875         estimate D2E/DX2                !
 ! D16   D(14,2,3,5)             0.5741         estimate D2E/DX2                !
 ! D17   D(1,2,31,33)          170.5516         estimate D2E/DX2                !
 ! D18   D(3,2,31,33)           -9.2671         estimate D2E/DX2                !
 ! D19   D(2,3,5,6)            178.0447         estimate D2E/DX2                !
 ! D20   D(2,3,5,15)             5.6659         estimate D2E/DX2                !
 ! D21   D(4,3,5,6)             -2.2918         estimate D2E/DX2                !
 ! D22   D(4,3,5,15)          -174.6705         estimate D2E/DX2                !
 ! D23   D(3,5,6,7)            174.0596         estimate D2E/DX2                !
 ! D24   D(3,5,6,16)            52.6221         estimate D2E/DX2                !
 ! D25   D(3,5,6,17)           -64.3074         estimate D2E/DX2                !
 ! D26   D(15,5,6,7)           -13.3824         estimate D2E/DX2                !
 ! D27   D(15,5,6,16)         -134.8199         estimate D2E/DX2                !
 ! D28   D(15,5,6,17)          108.2506         estimate D2E/DX2                !
 ! D29   D(3,5,32,33)          -10.9361         estimate D2E/DX2                !
 ! D30   D(6,5,32,33)          177.2299         estimate D2E/DX2                !
 ! D31   D(5,6,7,8)            179.0711         estimate D2E/DX2                !
 ! D32   D(5,6,7,18)            56.752          estimate D2E/DX2                !
 ! D33   D(5,6,7,19)           -58.8706         estimate D2E/DX2                !
 ! D34   D(16,6,7,8)           -60.0264         estimate D2E/DX2                !
 ! D35   D(16,6,7,18)          177.6545         estimate D2E/DX2                !
 ! D36   D(16,6,7,19)           62.032          estimate D2E/DX2                !
 ! D37   D(17,6,7,8)            57.219          estimate D2E/DX2                !
 ! D38   D(17,6,7,18)          -65.1001         estimate D2E/DX2                !
 ! D39   D(17,6,7,19)          179.2774         estimate D2E/DX2                !
 ! D40   D(6,7,8,20)           -60.425          estimate D2E/DX2                !
 ! D41   D(6,7,8,21)           179.5604         estimate D2E/DX2                !
 ! D42   D(6,7,8,22)            59.4704         estimate D2E/DX2                !
 ! D43   D(18,7,8,20)           61.2446         estimate D2E/DX2                !
 ! D44   D(18,7,8,21)          -58.77           estimate D2E/DX2                !
 ! D45   D(18,7,8,22)         -178.86           estimate D2E/DX2                !
 ! D46   D(19,7,8,20)          178.2876         estimate D2E/DX2                !
 ! D47   D(19,7,8,21)           58.273          estimate D2E/DX2                !
 ! D48   D(19,7,8,22)          -61.817          estimate D2E/DX2                !
 ! D49   D(1,9,10,11)            0.0461         estimate D2E/DX2                !
 ! D50   D(1,9,10,24)         -179.9167         estimate D2E/DX2                !
 ! D51   D(23,9,10,11)        -179.9266         estimate D2E/DX2                !
 ! D52   D(23,9,10,24)           0.1106         estimate D2E/DX2                !
 ! D53   D(9,10,11,12)           0.0167         estimate D2E/DX2                !
 ! D54   D(9,10,11,25)        -179.8282         estimate D2E/DX2                !
 ! D55   D(24,10,11,12)        179.9785         estimate D2E/DX2                !
 ! D56   D(24,10,11,25)          0.1336         estimate D2E/DX2                !
 ! D57   D(10,11,12,13)         -0.0608         estimate D2E/DX2                !
 ! D58   D(10,11,12,26)        179.9579         estimate D2E/DX2                !
 ! D59   D(25,11,12,13)        179.7869         estimate D2E/DX2                !
 ! D60   D(25,11,12,26)         -0.1944         estimate D2E/DX2                !
 ! D61   D(10,11,25,28)       -179.698          estimate D2E/DX2                !
 ! D62   D(10,11,25,29)        -59.9644         estimate D2E/DX2                !
 ! D63   D(10,11,25,30)         60.6102         estimate D2E/DX2                !
 ! D64   D(12,11,25,28)          0.4614         estimate D2E/DX2                !
 ! D65   D(12,11,25,29)        120.195          estimate D2E/DX2                !
 ! D66   D(12,11,25,30)       -119.2305         estimate D2E/DX2                !
 ! D67   D(11,12,13,1)           0.0412         estimate D2E/DX2                !
 ! D68   D(11,12,13,27)       -179.9442         estimate D2E/DX2                !
 ! D69   D(26,12,13,1)        -179.9775         estimate D2E/DX2                !
 ! D70   D(26,12,13,27)          0.0372         estimate D2E/DX2                !
 ! D71   D(14,31,33,32)          4.2166         estimate D2E/DX2                !
 ! D72   D(14,31,33,34)       -175.971          estimate D2E/DX2                !
 ! D73   D(15,32,33,31)          1.4228         estimate D2E/DX2                !
 ! D74   D(15,32,33,34)       -178.3853         estimate D2E/DX2                !
 ! D75   D(31,33,34,35)        177.3989         estimate D2E/DX2                !
 ! D76   D(31,33,34,36)         53.6059         estimate D2E/DX2                !
 ! D77   D(31,33,34,37)        -59.1715         estimate D2E/DX2                !
 ! D78   D(32,33,34,35)         -2.7743         estimate D2E/DX2                !
 ! D79   D(32,33,34,36)       -126.5673         estimate D2E/DX2                !
 ! D80   D(32,33,34,37)        120.6553         estimate D2E/DX2                !
 ! D81   D(33,34,35,38)        -59.6307         estimate D2E/DX2                !
 ! D82   D(33,34,35,39)        179.8765         estimate D2E/DX2                !
 ! D83   D(33,34,35,40)         59.3057         estimate D2E/DX2                !
 ! D84   D(36,34,35,38)         61.9813         estimate D2E/DX2                !
 ! D85   D(36,34,35,39)        -58.5116         estimate D2E/DX2                !
 ! D86   D(36,34,35,40)       -179.0824         estimate D2E/DX2                !
 ! D87   D(37,34,35,38)        179.1152         estimate D2E/DX2                !
 ! D88   D(37,34,35,39)         58.6224         estimate D2E/DX2                !
 ! D89   D(37,34,35,40)        -61.9484         estimate D2E/DX2                !
 --------------------------------------------------------------------------------
 Trust Radius=3.00D-01 FncErr=1.00D-07 GrdErr=1.00D-06
 Number of steps in this run=    212 maximum allowed number of steps=    240.
 GradGradGradGradGradGradGradGradGradGradGradGradGradGradGradGradGradGrad

                          Input orientation:                          
 ---------------------------------------------------------------------
 Center     Atomic      Atomic             Coordinates (Angstroms)
 Number     Number       Type             X           Y           Z
 ---------------------------------------------------------------------
      1          6           0       -6.171615    1.265529   -0.055578
      2          7           0       -4.926752    0.683761   -0.010934
      3          6           0       -3.694678    1.325622   -0.074179
      4          8           0       -3.561445    2.541812   -0.172660
      5          7           0       -2.653532    0.466705   -0.008259
      6          6           0       -1.294446    0.958658   -0.102462
      7          6           0       -0.309719   -0.176175    0.144928
      8          6           0        1.134008    0.299527    0.031293
      9          6           0       -7.274026    0.388310    0.039169
     10          6           0       -8.558910    0.881619    0.004156
     11          6           0       -8.818003    2.250820   -0.125704
     12          6           0       -7.723753    3.107409   -0.219722
     13          6           0       -6.419197    2.642682   -0.186766
     14          1           0       -4.927672   -0.351147    0.086483
     15          1           0       -2.808235   -0.552169   -0.008064
     16          1           0       -1.144773    1.758978    0.629684
     17          1           0       -1.116026    1.402204   -1.090482
     18          1           0       -0.502266   -0.982739   -0.568739
     19          1           0       -0.493930   -0.597049    1.138099
     20          1           0        1.342980    0.695838   -0.966579
     21          1           0        1.836951   -0.515760    0.217045
     22          1           0        1.348255    1.093146    0.753099
     23          1           0       -7.094702   -0.677114    0.139235
     24         17           0       -9.876144   -0.263683    0.128948
     25          6           0      -10.207959    2.795762   -0.160861
     26          1           0       -7.896588    4.172006   -0.321683
     27          1           0       -5.590704    3.328736   -0.260702
     28          9           0      -10.218704    4.134220   -0.297532
     29          9           0      -10.941507    2.311041   -1.182023
     30          9           0      -10.907967    2.529560    0.959567
     31          8           0       -5.187935   -2.051944    0.223148
     32          8           0       -2.989981   -2.351520   -0.037433
     33          6           0       -4.160734   -2.770038    0.098203
     34          6           0       -4.396154   -4.284909    0.122194
     35          6           0       -3.145707   -5.123775   -0.093015
     36          1           0       -5.154371   -4.504936   -0.635522
     37          1           0       -4.864761   -4.519906    1.083365
     38          1           0       -2.686335   -4.901399   -1.058060
     39          1           0       -3.376695   -6.192823   -0.063124
     40          1           0       -2.397695   -4.913946    0.673485
 ---------------------------------------------------------------------
                    Distance matrix (angstroms):
                    1          2          3          4          5
     1  C    0.000000
     2  N    1.374820   0.000000
     3  C    2.477736   1.390681   0.000000
     4  O    2.907851   2.311401   1.227424   0.000000
     5  N    3.607945   2.283561   1.351321   2.270992   0.000000
     6  C    4.887039   3.643844   2.428287   2.765970   1.448450
     7  C    6.039912   4.699019   3.709629   4.249946   2.435204
     8  C    7.369725   6.073075   4.937632   5.207372   3.791435
     9  C    1.412019   2.366325   3.701774   4.297174   4.621402
    10  C    2.418704   3.637574   4.885082   5.268981   5.919948
    11  C    2.824728   4.196508   5.206448   5.264816   6.418533
    12  C    2.414249   3.706869   4.407878   4.200824   5.720592
    13  C    1.405367   2.468943   3.028254   2.859566   4.352811
    14  H    2.044803   1.039483   2.087496   3.209820   2.418588
    15  H    3.823429   2.452682   2.077559   3.188595   1.030552
    16  H    5.097276   3.983698   2.680529   2.663999   2.086455
    17  H    5.162237   4.025322   2.772757   2.849768   2.100069
    18  H    6.120422   4.760719   3.970468   4.683793   2.653860
    19  H    6.093453   4.755068   3.925694   4.580414   2.666382
    20  H    7.591022   6.342156   5.154707   5.300124   4.116186
    21  H    8.208804   6.873028   5.837331   6.216374   4.602222
    22  H    7.565191   6.334592   5.115624   5.202001   4.121455
    23  H    2.159608   2.564086   3.951792   4.789851   4.588471
    24  Cl   4.011991   5.041199   6.385739   6.916444   7.260744
    25  C    4.317959   5.689831   6.677698   6.651374   7.906779
    26  H    3.390273   4.591769   5.081260   4.633919   6.427840
    27  H    2.153220   2.738450   2.764447   2.178277   4.108762
    28  F    4.966574   6.323967   7.106407   6.846200   8.412262
    29  F    5.011371   6.340091   7.396951   7.452341   8.571453
    30  F    5.006128   6.334333   7.385772   7.433268   8.563162
    31  O    3.471447   2.758096   3.704885   4.889247   3.580550
    32  O    4.817278   3.600655   3.744239   4.928444   2.838388
    33  C    4.511441   3.539410   4.125695   5.352408   3.572044
    34  C    5.830199   4.998693   5.657622   6.883880   5.062764
    35  C    7.069705   6.075058   6.472747   7.677266   5.612744
    36  H    5.888072   5.231109   6.036657   7.239359   5.600435
    37  H    6.039563   5.317846   6.072825   7.290000   5.563045
    38  H    7.154240   6.108187   6.384400   7.546598   5.469890
    39  H    7.964838   7.049312   7.525174   8.737275   6.698902
    40  H    7.277357   6.180524   6.416649   7.593327   5.429699
                    6          7          8          9         10
     6  C    0.000000
     7  C    1.522739   0.000000
     8  C    2.519868   1.524321   0.000000
     9  C    6.008389   6.987946   8.408507   0.000000
    10  C    7.265655   8.317926   9.710418   1.376773   0.000000
    11  C    7.633750   8.851805  10.142718   2.424869   1.399537
    12  C    6.779888   8.116822   9.295545   2.768172   2.387834
    13  C    5.395008   6.736593   7.911310   2.421564   2.777799
    14  H    3.866733   4.621636   6.096752   2.460572   3.835672
    15  H    2.140809   2.531276   4.033387   4.563992   5.926733
    16  H    1.094968   2.162666   2.771447   6.308342   7.492027
    17  H    1.097610   2.160474   2.745347   6.342322   7.540939
    18  H    2.148018   1.094048   2.163709   6.935853   8.289363
    19  H    2.144771   1.094284   2.163111   6.938897   8.277451
    20  H    2.787792   2.174228   1.093837   8.680950   9.951093
    21  H    3.475866   2.174561   1.092394   9.157450  10.491517
    22  H    2.780996   2.174839   1.093955   8.680450   9.937684
    23  H    6.031346   6.803452   8.287168   1.085035   2.142849
    24  Cl   8.671402   9.566838  11.024980   2.684059   1.749970
    25  C    9.101048  10.339297  11.615005   3.800500   2.531905
    26  H    7.345880   8.756996   9.832210   3.851512   3.372164
    27  H    4.909190   6.351200   7.381269   3.401411   3.856005
    28  F    9.474420  10.814955  11.987371   4.776644   3.664061
    29  F    9.801029  10.999179  12.301885   4.317247   3.021099
    30  F    9.798746  10.968477  12.281853   4.317130   3.024333
    31  O    4.932444   5.227008   6.747828   3.215660   4.474061
    32  O    3.719724   3.456759   4.903066   5.085822   6.439556
    33  C    4.707340   4.643342   6.120539   4.435227   5.717289
    34  C    6.096397   5.794925   7.183871   5.488899   6.635923
    35  C    6.357928   5.707730   6.909675   6.887930   8.085602
    36  H    6.710740   6.543541   7.941739   5.375129   6.404299
    37  H    6.645901   6.363731   7.766532   5.566461   6.632337
    38  H    6.098425   5.424318   6.544566   7.087443   8.310158
    39  H    7.448556   6.756454   7.906071   7.649246   8.769697
    40  H    6.025506   5.204372   6.329742   7.231520   8.485113
                   11         12         13         14         15
    11  C    0.000000
    12  C    1.392827   0.000000
    13  C    2.431370   1.385253   0.000000
    14  H    4.685076   4.457964   3.355939   0.000000
    15  H    6.632338   6.131854   4.824733   2.131047   0.000000
    16  H    7.725994   6.769249   5.409904   4.365549   2.918087
    17  H    7.808419   6.879535   5.520788   4.357537   2.802636
    18  H    8.933290   8.306684   6.949795   4.518013   2.411895
    19  H    8.888068   8.236324   6.881854   4.563380   2.582966
    20  H   10.313614   9.411648   8.040503   6.444082   4.439466
    21  H   11.013605  10.233533   8.848887   6.767885   4.650780
    22  H   10.269630   9.343712   7.976071   6.474381   4.534626
    23  H    3.407750   3.853203   3.403474   2.192044   4.290817
    24  Cl   2.739933   4.014800   4.527374   4.949427   7.075121
    25  C    1.493377   2.504369   3.791942   6.151882   8.123294
    26  H    2.139712   1.083344   2.130662   5.425862   6.950361
    27  H    3.405230   2.144893   1.078210   3.755222   4.781985
    28  F    2.353440   2.699106   4.083284   6.947014   8.772746
    29  F    2.372489   3.451690   4.642393   6.697952   8.702084
    30  F    2.371383   3.444394   4.634214   6.695124   8.720036
    31  O    5.640290   5.765885   4.870683   1.726014   2.822367
    32  O    7.426653   7.227845   6.060023   2.787740   1.808745
    33  C    6.851957   6.880449   5.871916   2.537590   2.599902
    34  C    7.894932   8.113950   7.223550   3.969668   4.058547
    35  C    9.303799   9.419499   8.428664   5.097607   4.584832
    36  H    7.702101   8.045024   7.272525   4.222161   4.639227
    37  H    7.933013   8.249109   7.438560   4.286756   4.600376
    38  H    9.466830   9.498389   8.462066   5.199842   4.475841
    39  H   10.045240  10.267217   9.345493   6.045914   5.669493
    40  H    9.653649   9.669894   8.603205   5.250189   4.433751
                   16         17         18         19         20
    16  H    0.000000
    17  H    1.757010   0.000000
    18  H    3.060400   2.517314   0.000000
    19  H    2.496587   3.057873   1.749892   0.000000
    20  H    3.141216   2.561448   2.526030   3.078224   0.000000
    21  H    3.772981   3.756100   2.511467   2.507580   1.764353
    22  H    2.583360   3.093054   3.079120   2.529550   1.764985
    23  H    6.448003   6.448281   6.637382   6.676401   8.619878
    24  Cl   8.976565   9.000103   9.427268   9.442217  11.313249
    25  C    9.156485   9.244969  10.423239  10.371154  11.767882
    26  H    7.232898   7.364705   9.017119   8.926040   9.892889
    27  H    4.798253   4.941943   6.676519   6.583733   7.450261
    28  F    9.425376   9.536845  10.984807  10.909499  12.080671
    29  F    9.978128   9.867849  10.963706  11.090168  12.392091
    30  F    9.799111  10.067559  11.088308  10.874729  12.536278
    31  O    5.570957   5.498836   4.870911   4.998754   7.184609
    32  O    4.554782   4.325629   2.888698   3.269605   5.378127
    33  C    5.467219   5.300077   4.125971   4.387336   6.590669
    34  C    6.881685   6.676307   5.152094   5.464406   7.676648
    35  C    7.204049   6.906732   4.935815   5.388768   7.401305
    36  H    7.544153   7.170043   5.835445   6.335380   8.329059
    37  H    7.312217   7.338256   5.854260   5.873327   8.363151
    38  H    7.041699   6.496332   4.512814   5.306335   6.897304
    39  H    8.288100   7.990652   5.971847   6.408273   8.399119
    40  H    6.789672   6.681916   4.537638   4.740864   6.939174
                   21         22         23         24         25
    21  H    0.000000
    22  H    1.764867   0.000000
    23  H    8.933449   8.648362   0.000000
    24  Cl  11.716139  11.323324   2.812019   0.000000
    25  C   12.497554  11.716667   4.673682   3.091002   0.000000
    26  H   10.816985   9.803145   4.936541   4.878221   2.694873
    27  H    8.377259   7.360353   4.297534   5.605559   4.648986
    28  F   12.931586  12.006102   5.753181   4.431792   1.345460
    29  F   13.161960  12.500648   5.047049   3.079423   1.347523
    30  F   13.124719  12.341835   5.049425   3.091406   1.347678
    31  O    7.190892   7.272841   2.352224   5.018571   6.989161
    32  O    5.170498   5.595619   4.436618   7.197637   8.866169
    33  C    6.408442   6.760328   3.604189   6.240887   8.222784
    34  C    7.284716   7.894285   4.505400   6.797101   9.164775
    35  C    6.793881   7.717623   5.951579   8.304730  10.611272
    36  H    8.094380   8.692004   4.360889   6.392791   8.891808
    37  H    7.854721   8.379558   4.542143   6.643817   9.144226
    38  H    6.428051   7.449347   6.221880   8.637751  10.799356
    39  H    7.712953   8.722196   6.654890   8.799683  11.290278
    40  H    6.122468   7.079804   6.348073   8.823189  11.006178
                   26         27         28         29         30
    26  H    0.000000
    27  H    2.455998   0.000000
    28  F    2.322548   4.697717   0.000000
    29  F    3.670817   5.524095   2.151452   0.000000
    30  F    3.661643   5.513712   2.151817   2.152971   0.000000
    31  O    6.809640   5.417384   7.990517   7.356204   7.365545
    32  O    8.167740   6.251314   9.715292   9.288505   9.354862
    33  C    7.894611   6.274446   9.193714   8.569436   8.622809
    34  C    9.163485   7.716291  10.244998   9.383452   9.462657
    35  C   10.441968   8.800629  11.652450  10.827600  10.951445
    36  H    9.105360   7.854763  10.019816   8.958077   9.226717
    37  H    9.312114   7.995917  10.269638   9.419164   9.286045
    38  H   10.488835   8.763918  11.788018  10.962779  11.264333
    39  H   11.310435   9.777574  12.390151  11.436521  11.569179
    40  H   10.666898   8.888747  11.999181  11.341961  11.309834
                   31         32         33         34         35
    31  O    0.000000
    32  O    2.233528   0.000000
    33  C    1.259528   1.250686   0.000000
    34  C    2.371337   2.395995   1.533242   0.000000
    35  C    3.702270   2.777181   2.570393   1.521062   0.000000
    36  H    2.599156   3.111189   2.129681   1.094276   2.170716
    37  H    2.633486   3.077805   2.127965   1.094836   2.168796
    38  H    4.002360   2.763288   2.837868   2.167150   1.091689
    39  H    4.528732   3.860805   3.515138   2.171123   1.094126
    40  H    4.022350   2.724378   2.834713   2.166437   1.091363
                   36         37         38         39         40
    36  H    0.000000
    37  H    1.743179   0.000000
    38  H    2.535137   3.078437   0.000000
    39  H    2.517287   2.515438   1.770387   0.000000
    40  H    3.078970   2.531735   1.755482   1.771033   0.000000
 Stoichiometry    C14H17ClF3N2O3(1-)
 Framework group  C1[X(C14H17ClF3N2O3)]
 Deg. of freedom   114
 Full point group                 C1      NOp   1
 Largest Abelian subgroup         C1      NOp   1
 Largest concise Abelian subgroup C1      NOp   1
                         Standard orientation:                         
 ---------------------------------------------------------------------
 Center     Atomic      Atomic             Coordinates (Angstroms)
 Number     Number       Type             X           Y           Z
 ---------------------------------------------------------------------
      1          6           0       -0.611765   -0.670836   -0.008871
      2          7           0        0.762191   -0.628790   -0.033553
      3          6           0        1.638405   -1.707989    0.006079
      4          8           0        1.277808   -2.879955    0.061167
      5          7           0        2.935351   -1.330225   -0.029887
      6          6           0        3.987125   -2.323215    0.045938
      7          6           0        5.343984   -1.663956   -0.161537
      8          6           0        6.479644   -2.676211   -0.065766
      9          6           0       -1.275303    0.573981   -0.071694
     10          6           0       -2.650845    0.629277   -0.053467
     11          6           0       -3.432675   -0.528672    0.027777
     12          6           0       -2.768450   -1.751303    0.090611
     13          6           0       -1.386191   -1.840687    0.073411
     14          1           0        1.172474    0.324377   -0.094105
     15          1           0        3.196772   -0.334037    0.006245
     16          1           0        3.817541   -3.092785   -0.714297
     17          1           0        3.961934   -2.833389    1.017451
     18          1           0        5.476925   -0.871062    0.580478
     19          1           0        5.354951   -1.172123   -1.139001
     20          1           0        6.501075   -3.155472    0.917254
     21          1           0        7.450412   -2.200537   -0.222834
     22          1           0        6.371863   -3.465557   -0.815467
     23          1           0       -0.687408    1.483821   -0.133918
     24         17           0       -3.405061    2.206183   -0.136652
     25          6           0       -4.925137   -0.479128    0.044377
     26          1           0       -3.350084   -2.663016    0.154753
     27          1           0       -0.898173   -2.800882    0.122400
     28          9           0       -5.466862   -1.707492    0.133370
     29          9           0       -5.420527    0.222693    1.082575
     30          9           0       -5.447279    0.079338   -1.065452
     31          8           0        1.608851    1.992589   -0.170043
     32          8           0        3.742019    1.388035    0.099693
     33          6           0        2.834647    2.240386   -0.020264
     34          6           0        3.218685    3.724449    0.009774
     35          6           0        4.696058    3.991640    0.253920
     36          1           0        2.599396    4.201835    0.775296
     37          1           0        2.894494    4.157359   -0.942148
     38          1           0        5.016716    3.573843    1.210167
     39          1           0        4.907706    5.065069    0.262204
     40          1           0        5.310135    3.527945   -0.520011
 ---------------------------------------------------------------------
 Rotational constants (GHZ):      0.3547788      0.0988867      0.0786596
 Standard basis: 6-311+G(d) (5D, 7F)
 There are   588 symmetry adapted cartesian basis functions of A   symmetry.
 There are   565 symmetry adapted basis functions of A   symmetry.
   565 basis functions,   930 primitive gaussians,   588 cartesian basis functions
    92 alpha electrons       92 beta electrons
       nuclear repulsion energy      2095.1808682259 Hartrees.
 NAtoms=   40 NActive=   40 NUniq=   40 SFac= 1.00D+00 NAtFMM=   60 NAOKFM=F Big=F
 Integral buffers will be    131072 words long.
 Raffenetti 2 integral format.
 Two-electron integral symmetry is turned on.
 Nuclear repulsion after empirical dispersion term =     2095.1784832833 Hartrees.
 ------------------------------------------------------------------------------
 Polarizable Continuum Model (PCM)
 =================================
 Model                : PCM (using non-symmetric T matrix).
 Atomic radii         : SMD-Coulomb.
 Polarization charges : Total charges.
 Charge compensation  : None.
 Solution method      : On-the-fly selection.
 Cavity type          : VdW (van der Waals Surface) (Alpha=1.000).
 Cavity algorithm     : GePol (No added spheres)
                        Default sphere list used, NSphG=   40.
                        Lebedev-Laikov grids with approx.  5.0 points / Ang**2.
                        Smoothing algorithm: York/Karplus (Gamma=1.0000).
                        Polarization charges: spherical gaussians, with
                                              point-specific exponents (IZeta= 3).
                        Self-potential: point-specific (ISelfS= 7).
                        Self-field    : sphere-specific E.n sum rule (ISelfD= 2).
 1st derivatives      : Analytical E(r).r(x)/FMM algorithm (CHGder, D1EAlg=3).
                        Cavity 1st derivative terms included.
 Solvent              : n-Pentadecane, Eps=   2.033300 Eps(inf)=   2.049192
 ------------------------------------------------------------------------------
 ------------------------------------------------------------------------------
 Atomic radii for non-electrostatic terms: SMD-CDS.
 ------------------------------------------------------------------------------
 Nuclear repulsion after PCM non-electrostatic terms =     2095.1688856278 Hartrees.
 One-electron integrals computed using PRISM.
 NBasis=   565 RedAO= T EigKep=  1.06D-06  NBF=   565
 NBsUse=   563 1.00D-06 EigRej=  5.59D-07 NBFU=   563
 ExpMin= 4.38D-02 ExpMax= 1.06D+05 ExpMxC= 3.62D+03 IAcc=3 IRadAn=         5 AccDes= 0.00D+00
 Harris functional with IExCor= 1009 and IRadAn=       5 diagonalized for initial guess.
 HarFok:  IExCor= 1009 AccDes= 0.00D+00 IRadAn=         5 IDoV= 1 UseB2=F ITyADJ=14
 ICtDFT=  3500011 ScaDFX=  1.000000  1.000000  1.000000  1.000000
 FoFCou: FMM=F IPFlag=           0 FMFlag=      100000 FMFlg1=           0
         NFxFlg=           0 DoJE=T BraDBF=F KetDBF=T FulRan=T
         wScrn=  0.000000 ICntrl=     500 IOpCl=  0 I1Cent=   200000004 NGrid=           0
         NMat0=    1 NMatS0=      1 NMatT0=    0 NMatD0=    1 NMtDS0=    0 NMtDT0=    0
 Petite list used in FoFCou.
 Requested convergence on RMS density matrix=1.00D-08 within 128 cycles.
 Requested convergence on MAX density matrix=1.00D-06.
 Requested convergence on             energy=1.00D-06.
 No special actions if energy rises.
 Inv3:  Mode=1 IEnd=    29409483.
 Iteration    1 A*A^-1 deviation from unit magnitude is 5.33D-15 for   3109.
 Iteration    1 A*A^-1 deviation from orthogonality  is 3.21D-15 for   1163    385.
 Iteration    1 A^-1*A deviation from unit magnitude is 4.55D-15 for   3109.
 Iteration    1 A^-1*A deviation from orthogonality  is 1.11D-14 for   2751   1162.
 Error on total polarization charges =  0.02437
 SCF Done:  E(RM062X) =  -1638.71701559     A.U. after   17 cycles
            NFock= 17  Conv=0.35D-08     -V/T= 2.0030
 SMD-CDS (non-electrostatic) energy       (kcal/mol) =      -6.02
 (included in total energy above)

 **********************************************************************

            Population analysis using the SCF density.

 **********************************************************************

 Orbital symmetries:
       Occupied  (A) (A) (A) (A) (A) (A) (A) (A) (A) (A) (A) (A)
                 (A) (A) (A) (A) (A) (A) (A) (A) (A) (A) (A) (A)
                 (A) (A) (A) (A) (A) (A) (A) (A) (A) (A) (A) (A)
                 (A) (A) (A) (A) (A) (A) (A) (A) (A) (A) (A) (A)
                 (A) (A) (A) (A) (A) (A) (A) (A) (A) (A) (A) (A)
                 (A) (A) (A) (A) (A) (A) (A) (A) (A) (A) (A) (A)
                 (A) (A) (A) (A) (A) (A) (A) (A) (A) (A) (A) (A)
                 (A) (A) (A) (A) (A) (A) (A) (A)
       Virtual   (A) (A) (A) (A) (A) (A) (A) (A) (A) (A) (A) (A)
                 (A) (A) (A) (A) (A) (A) (A) (A) (A) (A) (A) (A)
                 (A) (A) (A) (A) (A) (A) (A) (A) (A) (A) (A) (A)
                 (A) (A) (A) (A) (A) (A) (A) (A) (A) (A) (A) (A)
                 (A) (A) (A) (A) (A) (A) (A) (A) (A) (A) (A) (A)
                 (A) (A) (A) (A) (A) (A) (A) (A) (A) (A) (A) (A)
                 (A) (A) (A) (A) (A) (A) (A) (A) (A) (A) (A) (A)
                 (A) (A) (A) (A) (A) (A) (A) (A) (A) (A) (A) (A)
                 (A) (A) (A) (A) (A) (A) (A) (A) (A) (A) (A) (A)
                 (A) (A) (A) (A) (A) (A) (A) (A) (A) (A) (A) (A)
                 (A) (A) (A) (A) (A) (A) (A) (A) (A) (A) (A) (A)
                 (A) (A) (A) (A) (A) (A) (A) (A) (A) (A) (A) (A)
                 (A) (A) (A) (A) (A) (A) (A) (A) (A) (A) (A) (A)
                 (A) (A) (A) (A) (A) (A) (A) (A) (A) (A) (A) (A)
                 (A) (A) (A) (A) (A) (A) (A) (A) (A) (A) (A) (A)
                 (A) (A) (A) (A) (A) (A) (A) (A) (A) (A) (A) (A)
                 (A) (A) (A) (A) (A) (A) (A) (A) (A) (A) (A) (A)
                 (A) (A) (A) (A) (A) (A) (A) (A) (A) (A) (A) (A)
                 (A) (A) (A) (A) (A) (A) (A) (A) (A) (A) (A) (A)
                 (A) (A) (A) (A) (A) (A) (A) (A) (A) (A) (A) (A)
                 (A) (A) (A) (A) (A) (A) (A) (A) (A) (A) (A) (A)
                 (A) (A) (A) (A) (A) (A) (A) (A) (A) (A) (A) (A)
                 (A) (A) (A) (A) (A) (A) (A) (A) (A) (A) (A) (A)
                 (A) (A) (A) (A) (A) (A) (A) (A) (A) (A) (A) (A)
                 (A) (A) (A) (A) (A) (A) (A) (A) (A) (A) (A) (A)
                 (A) (A) (A) (A) (A) (A) (A) (A) (A) (A) (A) (A)
                 (A) (A) (A) (A) (A) (A) (A) (A) (A) (A) (A) (A)
                 (A) (A) (A) (A) (A) (A) (A) (A) (A) (A) (A) (A)
                 (A) (A) (A) (A) (A) (A) (A) (A) (A) (A) (A) (A)
                 (A) (A) (A) (A) (A) (A) (A) (A) (A) (A) (A) (A)
                 (A) (A) (A) (A) (A) (A) (A) (A) (A) (A) (A) (A)
                 (A) (A) (A) (A) (A) (A) (A) (A) (A) (A) (A) (A)
                 (A) (A) (A) (A) (A) (A) (A) (A) (A) (A) (A) (A)
                 (A) (A) (A) (A) (A) (A) (A) (A) (A) (A) (A) (A)
                 (A) (A) (A) (A) (A) (A) (A) (A) (A) (A) (A) (A)
                 (A) (A) (A) (A) (A) (A) (A) (A) (A) (A) (A) (A)
                 (A) (A) (A) (A) (A) (A) (A) (A) (A) (A) (A) (A)
                 (A) (A) (A) (A) (A) (A) (A) (A) (A) (A) (A) (A)
                 (A) (A) (A) (A) (A) (A) (A) (A) (A) (A) (A) (A)
                 (A) (A) (A)
 The electronic state is 1-A.
 Alpha  occ. eigenvalues -- -102.63582 -25.23845 -25.23214 -25.23207 -19.52417
 Alpha  occ. eigenvalues --  -19.50056 -19.49810 -14.70834 -14.68900 -10.76183
 Alpha  occ. eigenvalues --  -10.60767 -10.57410 -10.56184 -10.55521 -10.52448
 Alpha  occ. eigenvalues --  -10.51673 -10.51083 -10.50235 -10.49381 -10.48205
 Alpha  occ. eigenvalues --  -10.48155 -10.46771 -10.46466  -9.77871  -7.50382
 Alpha  occ. eigenvalues --   -7.49712  -7.49697  -1.42764  -1.33460  -1.32972
 Alpha  occ. eigenvalues --   -1.11243  -1.09117  -0.99858  -0.99170  -0.96679
 Alpha  occ. eigenvalues --   -0.95202  -0.89413  -0.84350  -0.82517  -0.80070
 Alpha  occ. eigenvalues --   -0.79505  -0.76192  -0.72745  -0.68066  -0.67461
 Alpha  occ. eigenvalues --   -0.66423  -0.65089  -0.64528  -0.63263  -0.61982
 Alpha  occ. eigenvalues --   -0.59729  -0.56937  -0.55284  -0.53498  -0.53275
 Alpha  occ. eigenvalues --   -0.51817  -0.50201  -0.49892  -0.49477  -0.49108
 Alpha  occ. eigenvalues --   -0.48744  -0.47777  -0.47139  -0.46779  -0.46387
 Alpha  occ. eigenvalues --   -0.46273  -0.45685  -0.45102  -0.44181  -0.43267
 Alpha  occ. eigenvalues --   -0.43158  -0.41656  -0.40720  -0.40192  -0.39671
 Alpha  occ. eigenvalues --   -0.38762  -0.37650  -0.37371  -0.36779  -0.35993
 Alpha  occ. eigenvalues --   -0.35173  -0.34570  -0.33901  -0.33865  -0.32560
 Alpha  occ. eigenvalues --   -0.28651  -0.26333  -0.25976  -0.25526  -0.24998
 Alpha  occ. eigenvalues --   -0.24835  -0.21665
 Alpha virt. eigenvalues --    0.05035   0.05563   0.05624   0.05909   0.06428
 Alpha virt. eigenvalues --    0.06856   0.07533   0.07922   0.08088   0.08666
 Alpha virt. eigenvalues --    0.08944   0.09199   0.09683   0.09935   0.10506
 Alpha virt. eigenvalues --    0.10713   0.10778   0.11251   0.11835   0.12067
 Alpha virt. eigenvalues --    0.12283   0.12762   0.13461   0.13635   0.13850
 Alpha virt. eigenvalues --    0.14217   0.14436   0.14779   0.15239   0.15823
 Alpha virt. eigenvalues --    0.16046   0.16237   0.16625   0.17062   0.17184
 Alpha virt. eigenvalues --    0.17733   0.18117   0.18279   0.18977   0.19568
 Alpha virt. eigenvalues --    0.19869   0.20661   0.20870   0.21403   0.21822
 Alpha virt. eigenvalues --    0.22149   0.22641   0.23445   0.23545   0.23756
 Alpha virt. eigenvalues --    0.24432   0.24833   0.25050   0.25180   0.25651
 Alpha virt. eigenvalues --    0.25821   0.26025   0.26324   0.26482   0.26764
 Alpha virt. eigenvalues --    0.27551   0.27863   0.28185   0.28629   0.28957
 Alpha virt. eigenvalues --    0.29234   0.29380   0.29467   0.29930   0.30253
 Alpha virt. eigenvalues --    0.30490   0.30552   0.30990   0.31427   0.31714
 Alpha virt. eigenvalues --    0.31909   0.32534   0.32690   0.32943   0.33242
 Alpha virt. eigenvalues --    0.33504   0.33669   0.34042   0.34370   0.34783
 Alpha virt. eigenvalues --    0.35023   0.35121   0.35303   0.36145   0.36330
 Alpha virt. eigenvalues --    0.36898   0.37620   0.37947   0.38009   0.38218
 Alpha virt. eigenvalues --    0.38494   0.38777   0.39114   0.39290   0.39777
 Alpha virt. eigenvalues --    0.40882   0.41066   0.41154   0.41469   0.41992
 Alpha virt. eigenvalues --    0.42056   0.42662   0.43732   0.44166   0.44399
 Alpha virt. eigenvalues --    0.44761   0.44985   0.45363   0.46317   0.47454
 Alpha virt. eigenvalues --    0.47564   0.47764   0.48351   0.48851   0.49491
 Alpha virt. eigenvalues --    0.49569   0.49779   0.50946   0.51799   0.52116
 Alpha virt. eigenvalues --    0.53066   0.54422   0.55004   0.55063   0.56140
 Alpha virt. eigenvalues --    0.56694   0.56825   0.57238   0.58674   0.58879
 Alpha virt. eigenvalues --    0.59237   0.60399   0.60630   0.61738   0.61898
 Alpha virt. eigenvalues --    0.62088   0.63074   0.63799   0.63989   0.65306
 Alpha virt. eigenvalues --    0.65557   0.65635   0.67245   0.67618   0.68076
 Alpha virt. eigenvalues --    0.68437   0.70528   0.70577   0.70924   0.71516
 Alpha virt. eigenvalues --    0.72113   0.72578   0.73256   0.74230   0.74727
 Alpha virt. eigenvalues --    0.74934   0.75922   0.76152   0.76372   0.76732
 Alpha virt. eigenvalues --    0.77826   0.78309   0.78784   0.79056   0.79194
 Alpha virt. eigenvalues --    0.79742   0.80760   0.81750   0.82096   0.82251
 Alpha virt. eigenvalues --    0.82808   0.83191   0.84121   0.84606   0.84733
 Alpha virt. eigenvalues --    0.85539   0.86001   0.86783   0.87470   0.88762
 Alpha virt. eigenvalues --    0.89640   0.90625   0.93444   0.94409   0.95138
 Alpha virt. eigenvalues --    0.97178   0.97716   0.98685   0.99030   1.00127
 Alpha virt. eigenvalues --    1.01227   1.01274   1.01457   1.02421   1.02826
 Alpha virt. eigenvalues --    1.04423   1.05055   1.06113   1.06792   1.08080
 Alpha virt. eigenvalues --    1.08950   1.10382   1.10699   1.11929   1.12389
 Alpha virt. eigenvalues --    1.13397   1.15116   1.15486   1.15820   1.18138
 Alpha virt. eigenvalues --    1.19856   1.20252   1.20911   1.22875   1.23696
 Alpha virt. eigenvalues --    1.24265   1.24962   1.26886   1.27975   1.29013
 Alpha virt. eigenvalues --    1.29350   1.30309   1.32342   1.32748   1.34239
 Alpha virt. eigenvalues --    1.34835   1.35937   1.37223   1.38027   1.39061
 Alpha virt. eigenvalues --    1.39955   1.41191   1.43374   1.43813   1.45293
 Alpha virt. eigenvalues --    1.46810   1.47953   1.49184   1.50945   1.51069
 Alpha virt. eigenvalues --    1.51751   1.51989   1.53588   1.53853   1.54410
 Alpha virt. eigenvalues --    1.56084   1.57463   1.57889   1.58750   1.58967
 Alpha virt. eigenvalues --    1.59963   1.60945   1.62166   1.62595   1.64209
 Alpha virt. eigenvalues --    1.64977   1.65883   1.66158   1.66766   1.68061
 Alpha virt. eigenvalues --    1.68564   1.68909   1.69386   1.70142   1.71895
 Alpha virt. eigenvalues --    1.74455   1.74949   1.77173   1.78800   1.80219
 Alpha virt. eigenvalues --    1.81758   1.83375   1.83700   1.84144   1.85862
 Alpha virt. eigenvalues --    1.86290   1.86986   1.87636   1.88242   1.89932
 Alpha virt. eigenvalues --    1.90007   1.90409   1.91846   1.93788   1.94734
 Alpha virt. eigenvalues --    1.95942   1.97436   1.98788   1.99888   2.00443
 Alpha virt. eigenvalues --    2.03247   2.04112   2.04269   2.06647   2.08603
 Alpha virt. eigenvalues --    2.11481   2.14657   2.15133   2.15607   2.17245
 Alpha virt. eigenvalues --    2.19401   2.22092   2.22542   2.24281   2.27428
 Alpha virt. eigenvalues --    2.29935   2.30973   2.33451   2.34502   2.36392
 Alpha virt. eigenvalues --    2.38817   2.40312   2.42648   2.44547   2.45928
 Alpha virt. eigenvalues --    2.48059   2.52760   2.54298   2.54600   2.59277
 Alpha virt. eigenvalues --    2.60135   2.60219   2.60690   2.61614   2.63344
 Alpha virt. eigenvalues --    2.64996   2.65211   2.66084   2.67328   2.67457
 Alpha virt. eigenvalues --    2.68252   2.71053   2.72323   2.73851   2.75629
 Alpha virt. eigenvalues --    2.76538   2.78660   2.82747   2.87340   2.88142
 Alpha virt. eigenvalues --    2.90831   2.90958   2.93583   2.97200   2.98618
 Alpha virt. eigenvalues --    2.98688   3.01041   3.03035   3.04744   3.05460
 Alpha virt. eigenvalues --    3.05666   3.07423   3.07699   3.09566   3.10194
 Alpha virt. eigenvalues --    3.12202   3.13431   3.15778   3.17591   3.18085
 Alpha virt. eigenvalues --    3.19687   3.22262   3.23427   3.26682   3.29665
 Alpha virt. eigenvalues --    3.31159   3.31421   3.31676   3.33985   3.35448
 Alpha virt. eigenvalues --    3.38121   3.39365   3.42318   3.44729   3.46077
 Alpha virt. eigenvalues --    3.46850   3.48032   3.49484   3.49621   3.50860
 Alpha virt. eigenvalues --    3.51937   3.54375   3.57417   3.66802   3.70714
 Alpha virt. eigenvalues --    3.74576   3.78232   3.79161   3.84094   3.84689
 Alpha virt. eigenvalues --    3.84796   3.86911   3.88499   3.88894   3.91091
 Alpha virt. eigenvalues --    3.91113   3.92044   3.93030   3.96015   4.02887
 Alpha virt. eigenvalues --    4.04951   4.06485   4.06828   4.07507   4.11896
 Alpha virt. eigenvalues --    4.12703   4.13704   4.19216   4.27035   4.28126
 Alpha virt. eigenvalues --    4.30461   4.30784   4.35543   4.71015   4.76212
 Alpha virt. eigenvalues --    4.82454   4.87989   5.00072   5.02111   5.05760
 Alpha virt. eigenvalues --    5.25240   5.27180   5.28344   5.30768   5.47911
 Alpha virt. eigenvalues --    5.50535   5.52437   5.84742   5.98120   6.10896
 Alpha virt. eigenvalues --    6.48693   6.52797   6.54378   6.57077   6.59745
 Alpha virt. eigenvalues --    6.62609   6.68187   6.90467   6.94429  10.04991
 Alpha virt. eigenvalues --   23.51865  23.65584  23.68891  23.71400  23.81255
 Alpha virt. eigenvalues --   23.86990  23.87684  23.95543  24.01584  24.05018
 Alpha virt. eigenvalues --   24.05750  24.13120  24.18628  24.25430  26.00624
 Alpha virt. eigenvalues --   26.37912  26.88537  35.71539  35.81104  50.15607
 Alpha virt. eigenvalues --   50.23010  50.24074  66.93255  66.96220  67.01908
 Alpha virt. eigenvalues --  216.15965
          Condensed to atoms (all electrons):
               1          2          3          4          5          6
     1  C   25.714077   0.168330  -0.544323  -0.426226  -0.320115  -0.693528
     2  N    0.168330   8.362167   0.428189  -0.072470  -0.659475  -0.634752
     3  C   -0.544323   0.428189   9.534095   0.635077   0.160459  -1.627797
     4  O   -0.426226  -0.072470   0.635077   8.133099  -0.193462  -0.158398
     5  N   -0.320115  -0.659475   0.160459  -0.193462   8.094391   0.602729
     6  C   -0.693528  -0.634752  -1.627797  -0.158398   0.602729   9.423117
     7  C    0.001180   0.076431   0.443145   0.029954  -0.075870  -1.288776
     8  C   -0.011315  -0.022838  -0.329705  -0.001907  -0.046290   0.526802
     9  C    2.873608  -0.188904  -0.807023  -0.105929  -0.289390  -0.209822
    10  C   -5.077373  -0.050601  -1.859450  -0.019240  -0.048435  -0.126882
    11  C   -6.021494  -0.051898  -0.190419   0.026862   0.057484  -0.016820
    12  C   -6.155243   0.250150   0.420438   0.184985   0.041374   0.013433
    13  C   -0.210566  -0.138383  -0.199235   0.388760   0.109615  -0.150165
    14  H   -0.151870   0.058450  -0.044052  -0.003966   0.028823   0.039065
    15  H   -0.027212   0.028549  -0.042268  -0.008764   0.115208   0.034310
    16  H    0.011460   0.009378   0.064126   0.002557  -0.070188   0.335841
    17  H    0.011525   0.005991   0.042164  -0.003530  -0.058334   0.402063
    18  H   -0.002215  -0.001448  -0.013817  -0.000217   0.008504  -0.061022
    19  H    0.002161  -0.000690   0.011556  -0.000300   0.006235  -0.061213
    20  H    0.000044   0.000020   0.002284  -0.000020   0.000304  -0.027666
    21  H    0.000128  -0.000002   0.006482   0.000019  -0.001985   0.087676
    22  H   -0.000221  -0.000057  -0.006529  -0.000061   0.000536  -0.054839
    23  H    0.024714  -0.030511  -0.013612   0.000122   0.002530  -0.000317
    24  Cl  -0.348495  -0.019271  -0.063275  -0.000069  -0.000452  -0.002270
    25  C   -2.002450   0.030814  -0.155612   0.001395   0.009080  -0.002255
    26  H    0.031985  -0.001977   0.004158  -0.000022  -0.000005   0.000027
    27  H    0.058473  -0.030017   0.100232   0.002979   0.007966   0.013626
    28  F    0.045158  -0.000027   0.000814   0.000001   0.000008   0.000008
    29  F    0.034938  -0.000077  -0.000227   0.000000  -0.000000  -0.000003
    30  F    0.031586  -0.000098  -0.000260  -0.000000  -0.000001  -0.000003
    31  O   -0.191071   0.031772   0.007880  -0.000945  -0.058927  -0.014890
    32  O    0.008885  -0.048763  -0.061158   0.000291   0.007092   0.069110
    33  C    0.155898   0.000607   0.023311  -0.002098   0.031415   0.018568
    34  C   -0.178226  -0.053007  -0.068190  -0.001283  -0.064922   0.085377
    35  C   -0.004269   0.002306   0.005659   0.000070   0.011277  -0.017157
    36  H    0.002274   0.000274  -0.000330  -0.000000   0.000205   0.000011
    37  H    0.000970   0.000488   0.000600   0.000000  -0.000095  -0.000612
    38  H   -0.000008  -0.000004  -0.000172  -0.000000   0.000185  -0.000145
    39  H    0.000147   0.000017   0.000187   0.000000  -0.000081  -0.000093
    40  H    0.000175   0.000023  -0.000315  -0.000000   0.000120   0.000653
               7          8          9         10         11         12
     1  C    0.001180  -0.011315   2.873608  -5.077373  -6.021494  -6.155243
     2  N    0.076431  -0.022838  -0.188904  -0.050601  -0.051898   0.250150
     3  C    0.443145  -0.329705  -0.807023  -1.859450  -0.190419   0.420438
     4  O    0.029954  -0.001907  -0.105929  -0.019240   0.026862   0.184985
     5  N   -0.075870  -0.046290  -0.289390  -0.048435   0.057484   0.041374
     6  C   -1.288776   0.526802  -0.209822  -0.126882  -0.016820   0.013433
     7  C    6.804217  -0.552360   0.022763   0.002762  -0.001467  -0.005778
     8  C   -0.552360   6.596092  -0.005416  -0.000840  -0.000441  -0.000434
     9  C    0.022763  -0.005416  16.959970   8.149899 -10.164273  -5.385672
    10  C    0.002762  -0.000840   8.149899  50.810810 -23.409874 -15.573181
    11  C   -0.001467  -0.000441 -10.164273 -23.409874  47.897961   7.961804
    12  C   -0.005778  -0.000434  -5.385672 -15.573181   7.961804  27.081428
    13  C   -0.013044  -0.007930  -4.217039 -10.416866  -2.770778   0.916625
    14  H   -0.009589   0.000354   0.062536   0.053241   0.038317  -0.019313
    15  H   -0.045041   0.012075   0.025555  -0.000664  -0.004689  -0.003912
    16  H   -0.001155  -0.012065   0.003254   0.000436  -0.000263  -0.002242
    17  H   -0.048754  -0.025632   0.000699   0.000231   0.000037  -0.000165
    18  H    0.462199  -0.062062   0.000862   0.000053  -0.000010  -0.000078
    19  H    0.434230  -0.062369   0.000111   0.000020   0.000004  -0.000006
    20  H    0.042699   0.328125   0.000010  -0.000000   0.000000   0.000000
    21  H   -0.156251   0.414887  -0.000024  -0.000001   0.000000   0.000003
    22  H    0.015515   0.389465   0.000037   0.000001  -0.000001  -0.000010
    23  H    0.000024   0.000008   0.233472  -0.048721   0.109747  -0.014923
    24  Cl  -0.000052  -0.000006   0.483858  -2.193230   0.224082   0.594059
    25  C   -0.000166  -0.000008  -1.022607   4.431735  -6.471418  -3.978302
    26  H    0.000005  -0.000000  -0.010004  -0.066963   0.034400   0.336217
    27  H   -0.000593   0.000122  -0.017859  -0.023852   0.002585  -0.101370
    28  F   -0.000000   0.000000  -0.020595  -0.235986  -0.110227   0.173478
    29  F   -0.000000  -0.000000   0.018069  -0.221673   0.295963   0.050874
    30  F    0.000000  -0.000000   0.017009  -0.189615   0.277852   0.029766
    31  O   -0.001985  -0.000302   0.255367  -0.017000  -0.009950   0.010060
    32  O   -0.014553   0.010700  -0.001374  -0.001877  -0.000238   0.000024
    33  C    0.001245  -0.013037  -0.147889  -0.036756   0.011464  -0.019913
    34  C   -0.041717   0.010171   0.170266   0.065669  -0.002912  -0.015339
    35  C    0.012621  -0.004659  -0.001960   0.006689   0.000784  -0.000172
    36  H   -0.000205  -0.000023  -0.000162  -0.001158  -0.000078   0.000023
    37  H    0.000592   0.000019  -0.000831  -0.000737  -0.000082   0.000022
    38  H    0.000434   0.000187   0.000047  -0.000056  -0.000004   0.000000
    39  H   -0.000030  -0.000004  -0.000169  -0.000036  -0.000002   0.000001
    40  H   -0.000395  -0.000035   0.000004  -0.000034  -0.000000   0.000000
              13         14         15         16         17         18
     1  C   -0.210566  -0.151870  -0.027212   0.011460   0.011525  -0.002215
     2  N   -0.138383   0.058450   0.028549   0.009378   0.005991  -0.001448
     3  C   -0.199235  -0.044052  -0.042268   0.064126   0.042164  -0.013817
     4  O    0.388760  -0.003966  -0.008764   0.002557  -0.003530  -0.000217
     5  N    0.109615   0.028823   0.115208  -0.070188  -0.058334   0.008504
     6  C   -0.150165   0.039065   0.034310   0.335841   0.402063  -0.061022
     7  C   -0.013044  -0.009589  -0.045041  -0.001155  -0.048754   0.462199
     8  C   -0.007930   0.000354   0.012075  -0.012065  -0.025632  -0.062062
     9  C   -4.217039   0.062536   0.025555   0.003254   0.000699   0.000862
    10  C  -10.416866   0.053241  -0.000664   0.000436   0.000231   0.000053
    11  C   -2.770778   0.038317  -0.004689  -0.000263   0.000037  -0.000010
    12  C    0.916625  -0.019313  -0.003912  -0.002242  -0.000165  -0.000078
    13  C   23.269350  -0.010890  -0.037725  -0.010060  -0.001828  -0.001152
    14  H   -0.010890   0.322688   0.027657  -0.000166  -0.000044   0.000061
    15  H   -0.037725   0.027657   0.329744   0.002222   0.001895   0.004804
    16  H   -0.010060  -0.000166   0.002222   0.482741  -0.052540   0.005859
    17  H   -0.001828  -0.000044   0.001895  -0.052540   0.472287  -0.008811
    18  H   -0.001152   0.000061   0.004804   0.005859  -0.008811   0.439566
    19  H   -0.000307   0.000075   0.001361  -0.009585   0.006319  -0.036716
    20  H   -0.000001   0.000000  -0.000039  -0.000816   0.003226  -0.007792
    21  H    0.000059   0.000000  -0.000072  -0.000183  -0.000080  -0.003704
    22  H   -0.000116  -0.000000   0.000013   0.003610  -0.000707   0.006528
    23  H    0.001070   0.013819  -0.000211   0.000000   0.000000  -0.000001
    24  Cl   0.482461   0.001996  -0.000015   0.000001   0.000001   0.000000
    25  C   -1.105641   0.001380  -0.000260  -0.000006   0.000003  -0.000000
    26  H   -0.045753  -0.000001  -0.000000  -0.000000  -0.000000   0.000000
    27  H    0.309164  -0.000361   0.000046  -0.000025  -0.000026   0.000000
    28  F    0.224166   0.000003  -0.000000  -0.000000  -0.000000   0.000000
    29  F   -0.001519  -0.000003  -0.000000   0.000000  -0.000000   0.000000
    30  F   -0.012947  -0.000003  -0.000000  -0.000000   0.000000  -0.000000
    31  O    0.002049   0.079740   0.011947  -0.000020  -0.000027  -0.000045
    32  O   -0.009189   0.012360   0.072995  -0.000949   0.000292  -0.005224
    33  C   -0.060294  -0.013427  -0.008109  -0.000693   0.000645   0.003211
    34  C   -0.064243   0.051451   0.050713  -0.000523   0.000100  -0.001006
    35  C   -0.000484  -0.003184  -0.006151   0.000104   0.000013   0.002052
    36  H    0.000255  -0.000416  -0.000089   0.000000   0.000000   0.000004
    37  H    0.000176  -0.000246  -0.000030   0.000000   0.000000   0.000001
    38  H   -0.000004  -0.000013  -0.000297  -0.000000   0.000000  -0.000056
    39  H    0.000018  -0.000001   0.000053  -0.000000   0.000000  -0.000001
    40  H    0.000007  -0.000023  -0.000325  -0.000000  -0.000000  -0.000047
              19         20         21         22         23         24
     1  C    0.002161   0.000044   0.000128  -0.000221   0.024714  -0.348495
     2  N   -0.000690   0.000020  -0.000002  -0.000057  -0.030511  -0.019271
     3  C    0.011556   0.002284   0.006482  -0.006529  -0.013612  -0.063275
     4  O   -0.000300  -0.000020   0.000019  -0.000061   0.000122  -0.000069
     5  N    0.006235   0.000304  -0.001985   0.000536   0.002530  -0.000452
     6  C   -0.061213  -0.027666   0.087676  -0.054839  -0.000317  -0.002270
     7  C    0.434230   0.042699  -0.156251   0.015515   0.000024  -0.000052
     8  C   -0.062369   0.328125   0.414887   0.389465   0.000008  -0.000006
     9  C    0.000111   0.000010  -0.000024   0.000037   0.233472   0.483858
    10  C    0.000020  -0.000000  -0.000001   0.000001  -0.048721  -2.193230
    11  C    0.000004   0.000000   0.000000  -0.000001   0.109747   0.224082
    12  C   -0.000006   0.000000   0.000003  -0.000010  -0.014923   0.594059
    13  C   -0.000307  -0.000001   0.000059  -0.000116   0.001070   0.482461
    14  H    0.000075   0.000000   0.000000  -0.000000   0.013819   0.001996
    15  H    0.001361  -0.000039  -0.000072   0.000013  -0.000211  -0.000015
    16  H   -0.009585  -0.000816  -0.000183   0.003610   0.000000   0.000001
    17  H    0.006319   0.003226  -0.000080  -0.000707   0.000000   0.000001
    18  H   -0.036716  -0.007792  -0.003704   0.006528  -0.000001   0.000000
    19  H    0.442844   0.006705  -0.004088  -0.008424  -0.000000   0.000000
    20  H    0.006705   0.462971  -0.026623  -0.039018  -0.000000  -0.000000
    21  H   -0.004088  -0.026623   0.445449  -0.026375   0.000000   0.000000
    22  H   -0.008424  -0.039018  -0.026375   0.466952  -0.000000  -0.000000
    23  H   -0.000000  -0.000000   0.000000  -0.000000   0.330612  -0.015222
    24  Cl   0.000000  -0.000000   0.000000  -0.000000  -0.015222  17.760087
    25  C    0.000000   0.000000   0.000000  -0.000000   0.024138  -0.254909
    26  H   -0.000000   0.000000  -0.000000   0.000000   0.000039  -0.000385
    27  H    0.000000  -0.000000   0.000000  -0.000000  -0.000022   0.000085
    28  F   -0.000000  -0.000000   0.000000  -0.000000   0.000024   0.013649
    29  F   -0.000000  -0.000000   0.000000  -0.000000  -0.000028  -0.016336
    30  F    0.000000   0.000000   0.000000  -0.000000  -0.000031  -0.015631
    31  O   -0.000121   0.000001   0.000000  -0.000002   0.007376   0.000243
    32  O   -0.002103   0.000073   0.000030  -0.000084   0.001125  -0.000038
    33  C    0.001236   0.000217  -0.000148  -0.000011   0.011358  -0.003226
    34  C    0.000989  -0.000001   0.000111  -0.000046  -0.003787   0.002012
    35  C    0.000349   0.000015  -0.000071   0.000028   0.000385   0.000048
    36  H    0.000001   0.000000  -0.000000   0.000000  -0.000139   0.000042
    37  H   -0.000002   0.000000  -0.000000   0.000000   0.000036  -0.000011
    38  H   -0.000011  -0.000000   0.000000  -0.000000   0.000001   0.000000
    39  H    0.000000  -0.000000  -0.000000  -0.000000  -0.000001   0.000000
    40  H   -0.000003   0.000000   0.000001  -0.000000  -0.000001   0.000000
              25         26         27         28         29         30
     1  C   -2.002450   0.031985   0.058473   0.045158   0.034938   0.031586
     2  N    0.030814  -0.001977  -0.030017  -0.000027  -0.000077  -0.000098
     3  C   -0.155612   0.004158   0.100232   0.000814  -0.000227  -0.000260
     4  O    0.001395  -0.000022   0.002979   0.000001   0.000000  -0.000000
     5  N    0.009080  -0.000005   0.007966   0.000008  -0.000000  -0.000001
     6  C   -0.002255   0.000027   0.013626   0.000008  -0.000003  -0.000003
     7  C   -0.000166   0.000005  -0.000593  -0.000000  -0.000000   0.000000
     8  C   -0.000008  -0.000000   0.000122   0.000000  -0.000000  -0.000000
     9  C   -1.022607  -0.010004  -0.017859  -0.020595   0.018069   0.017009
    10  C    4.431735  -0.066963  -0.023852  -0.235986  -0.221673  -0.189615
    11  C   -6.471418   0.034400   0.002585  -0.110227   0.295963   0.277852
    12  C   -3.978302   0.336217  -0.101370   0.173478   0.050874   0.029766
    13  C   -1.105641  -0.045753   0.309164   0.224166  -0.001519  -0.012947
    14  H    0.001380  -0.000001  -0.000361   0.000003  -0.000003  -0.000003
    15  H   -0.000260  -0.000000   0.000046  -0.000000  -0.000000  -0.000000
    16  H   -0.000006  -0.000000  -0.000025  -0.000000   0.000000  -0.000000
    17  H    0.000003  -0.000000  -0.000026  -0.000000  -0.000000   0.000000
    18  H   -0.000000   0.000000   0.000000   0.000000   0.000000  -0.000000
    19  H    0.000000  -0.000000   0.000000  -0.000000  -0.000000   0.000000
    20  H    0.000000   0.000000  -0.000000  -0.000000  -0.000000   0.000000
    21  H    0.000000  -0.000000   0.000000   0.000000   0.000000   0.000000
    22  H   -0.000000   0.000000  -0.000000  -0.000000  -0.000000  -0.000000
    23  H    0.024138   0.000039  -0.000022   0.000024  -0.000028  -0.000031
    24  Cl  -0.254909  -0.000385   0.000085   0.013649  -0.016336  -0.015631
    25  C   15.428019   0.033380   0.005707   0.052012  -0.024594  -0.001992
    26  H    0.033380   0.398834  -0.002590   0.011718   0.000205   0.000189
    27  H    0.005707  -0.002590   0.370773  -0.000004   0.000027   0.000025
    28  F    0.052012   0.011718  -0.000004   9.073641  -0.035890  -0.036348
    29  F   -0.024594   0.000205   0.000027  -0.035890   9.007233  -0.053740
    30  F   -0.001992   0.000189   0.000025  -0.036348  -0.053740   9.008260
    31  O   -0.002461  -0.000005   0.000017   0.000001  -0.000004  -0.000004
    32  O    0.000048   0.000000   0.000002   0.000000  -0.000000   0.000000
    33  C   -0.005129  -0.000005   0.000379   0.000007  -0.000011  -0.000012
    34  C    0.000040  -0.000001   0.000056  -0.000000   0.000000   0.000001
    35  C   -0.000032   0.000000  -0.000001   0.000000  -0.000000  -0.000000
    36  H    0.000005  -0.000000   0.000000   0.000000  -0.000000  -0.000000
    37  H   -0.000004  -0.000000  -0.000000  -0.000000  -0.000000  -0.000000
    38  H    0.000000  -0.000000   0.000000   0.000000   0.000000   0.000000
    39  H   -0.000000  -0.000000  -0.000000  -0.000000  -0.000000  -0.000000
    40  H    0.000000  -0.000000   0.000000   0.000000   0.000000   0.000000
              31         32         33         34         35         36
     1  C   -0.191071   0.008885   0.155898  -0.178226  -0.004269   0.002274
     2  N    0.031772  -0.048763   0.000607  -0.053007   0.002306   0.000274
     3  C    0.007880  -0.061158   0.023311  -0.068190   0.005659  -0.000330
     4  O   -0.000945   0.000291  -0.002098  -0.001283   0.000070  -0.000000
     5  N   -0.058927   0.007092   0.031415  -0.064922   0.011277   0.000205
     6  C   -0.014890   0.069110   0.018568   0.085377  -0.017157   0.000011
     7  C   -0.001985  -0.014553   0.001245  -0.041717   0.012621  -0.000205
     8  C   -0.000302   0.010700  -0.013037   0.010171  -0.004659  -0.000023
     9  C    0.255367  -0.001374  -0.147889   0.170266  -0.001960  -0.000162
    10  C   -0.017000  -0.001877  -0.036756   0.065669   0.006689  -0.001158
    11  C   -0.009950  -0.000238   0.011464  -0.002912   0.000784  -0.000078
    12  C    0.010060   0.000024  -0.019913  -0.015339  -0.000172   0.000023
    13  C    0.002049  -0.009189  -0.060294  -0.064243  -0.000484   0.000255
    14  H    0.079740   0.012360  -0.013427   0.051451  -0.003184  -0.000416
    15  H    0.011947   0.072995  -0.008109   0.050713  -0.006151  -0.000089
    16  H   -0.000020  -0.000949  -0.000693  -0.000523   0.000104   0.000000
    17  H   -0.000027   0.000292   0.000645   0.000100   0.000013   0.000000
    18  H   -0.000045  -0.005224   0.003211  -0.001006   0.002052   0.000004
    19  H   -0.000121  -0.002103   0.001236   0.000989   0.000349   0.000001
    20  H    0.000001   0.000073   0.000217  -0.000001   0.000015   0.000000
    21  H    0.000000   0.000030  -0.000148   0.000111  -0.000071  -0.000000
    22  H   -0.000002  -0.000084  -0.000011  -0.000046   0.000028   0.000000
    23  H    0.007376   0.001125   0.011358  -0.003787   0.000385  -0.000139
    24  Cl   0.000243  -0.000038  -0.003226   0.002012   0.000048   0.000042
    25  C   -0.002461   0.000048  -0.005129   0.000040  -0.000032   0.000005
    26  H   -0.000005   0.000000  -0.000005  -0.000001   0.000000  -0.000000
    27  H    0.000017   0.000002   0.000379   0.000056  -0.000001   0.000000
    28  F    0.000001   0.000000   0.000007  -0.000000   0.000000   0.000000
    29  F   -0.000004  -0.000000  -0.000011   0.000000  -0.000000  -0.000000
    30  F   -0.000004   0.000000  -0.000012   0.000001  -0.000000  -0.000000
    31  O    8.469745  -0.138651   0.273026  -0.224730   0.018709  -0.004917
    32  O   -0.138651   8.328709   0.359077  -0.139701   0.004465   0.001495
    33  C    0.273026   0.359077   6.466391  -1.488525   0.376919  -0.019058
    34  C   -0.224730  -0.139701  -1.488525   8.067435  -0.570761   0.397122
    35  C    0.018709   0.004465   0.376919  -0.570761   6.094126  -0.041888
    36  H   -0.004917   0.001495  -0.019058   0.397122  -0.041888   0.452101
    37  H   -0.005345   0.000988  -0.013599   0.399424  -0.046228  -0.034083
    38  H    0.000118  -0.007533  -0.010916  -0.023265   0.389560  -0.007268
    39  H   -0.000715   0.004148   0.059844  -0.118938   0.404187  -0.003202
    40  H   -0.000299  -0.008075  -0.003756  -0.030210   0.389604   0.005898
              37         38         39         40
     1  C    0.000970  -0.000008   0.000147   0.000175
     2  N    0.000488  -0.000004   0.000017   0.000023
     3  C    0.000600  -0.000172   0.000187  -0.000315
     4  O    0.000000  -0.000000   0.000000  -0.000000
     5  N   -0.000095   0.000185  -0.000081   0.000120
     6  C   -0.000612  -0.000145  -0.000093   0.000653
     7  C    0.000592   0.000434  -0.000030  -0.000395
     8  C    0.000019   0.000187  -0.000004  -0.000035
     9  C   -0.000831   0.000047  -0.000169   0.000004
    10  C   -0.000737  -0.000056  -0.000036  -0.000034
    11  C   -0.000082  -0.000004  -0.000002  -0.000000
    12  C    0.000022   0.000000   0.000001   0.000000
    13  C    0.000176  -0.000004   0.000018   0.000007
    14  H   -0.000246  -0.000013  -0.000001  -0.000023
    15  H   -0.000030  -0.000297   0.000053  -0.000325
    16  H    0.000000  -0.000000  -0.000000  -0.000000
    17  H    0.000000   0.000000   0.000000  -0.000000
    18  H    0.000001  -0.000056  -0.000001  -0.000047
    19  H   -0.000002  -0.000011   0.000000  -0.000003
    20  H    0.000000  -0.000000  -0.000000   0.000000
    21  H   -0.000000   0.000000  -0.000000   0.000001
    22  H    0.000000  -0.000000  -0.000000  -0.000000
    23  H    0.000036   0.000001  -0.000001  -0.000001
    24  Cl  -0.000011   0.000000   0.000000   0.000000
    25  C   -0.000004   0.000000  -0.000000   0.000000
    26  H   -0.000000  -0.000000  -0.000000  -0.000000
    27  H   -0.000000   0.000000  -0.000000   0.000000
    28  F   -0.000000   0.000000  -0.000000   0.000000
    29  F   -0.000000   0.000000  -0.000000   0.000000
    30  F   -0.000000   0.000000  -0.000000   0.000000
    31  O   -0.005345   0.000118  -0.000715  -0.000299
    32  O    0.000988  -0.007533   0.004148  -0.008075
    33  C   -0.013599  -0.010916   0.059844  -0.003756
[...]
 98,-0.00000306,-0.00002294,0.00001143,-0.00000007,0.00000647,-0.000005
 24,-0.00000434,0.00000431,-0.00001137,0.00000278,-0.00000088,-0.000008
 22,-0.00000634,-0.00000077,-0.00004412,-0.00001800,-0.00003557,0.00001
 885,0.00002438,0.00000307,-0.00002894,-0.00001005,-0.00001995,0.000001
 43,-0.00000053,-0.00000175,-0.00000898,0.00000654,-0.00000384,0.000003
 00,0.00000364,0.00000274,0.00001390,0.00000689,0.00001328,0.00000650,0
 .00000332,0.00000340,0.00190979,-0.00013314,0.00347661,-0.00197528,-0.
 00613213,0.00410145,-0.02281185,-0.00385990,-0.02756674,-0.03691940,-0
 .05743512,-0.04257717,0.01415560,0.00336257,0.01479633,0.03785353,0.06
 346024,-0.00017765,0.00006427,-0.00000764,0.00014550,-0.00008755,0.000
 01713,-0.00016300,0.00008118,-0.00001007,0.00003077,-0.00007709,0.0000
 0751,0.00005819,-0.00013049,0.00003886,0.00001956,0.00000403,-0.000009
 49,-0.00000378,0.00000951,-0.00000615,0.00000527,-0.00000583,0.0000023
 6,0.00007072,0.00001569,0.00000358,-0.00008194,-0.00004587,0.00000174,
 0.00005292,0.00000444,0.00000340,-0.00003373,0.00000583,0.00000005,0.0
 0004261,-0.00003249,0.00000326,-0.00000561,0.00012742,-0.00002581,0.00
 002032,0.00016340,-0.00004698,-0.00000260,-0.00000630,-0.00000351,-0.0
 0000147,-0.00000534,0.00000698,0.00000797,0.00000031,-0.00001126,0.000
 00493,0.00000388,0.00001129,-0.00000364,-0.00000241,0.00000492,0.00000
 016,0.00000181,-0.00000090,-0.00000390,-0.00000363,-0.00000325,-0.0000
 3194,-0.00003750,-0.00001646,0.00004006,0.00003928,-0.00000180,-0.0000
 4258,-0.00002243,-0.00000716,0.00000214,0.00000074,-0.00000057,-0.0000
 0696,0.00000635,-0.00000142,0.00000457,0.00001028,0.00000019,0.0000175
 6,0.00001102,0.00000966,0.00001392,0.00000872,-0.00000444,0.00161448,-
 0.00087860,0.00042233,0.00067066,-0.00005172,-0.00057202,0.00025403,0.
 00310306,0.00089105,-0.12794534,-0.04019870,-0.17539058,0.00515558,0.0
 0192435,0.00501162,0.13949108,0.04261257,0.18891506,0.00006369,-0.0000
 1200,0.00000731,0.00003474,0.00011348,0.00001913,-0.00018576,0.0000113
 1,0.00001833,0.00004892,-0.00001505,-0.00000979,0.00004031,-0.00020377
 ,-0.00001057,0.00001229,-0.00000655,0.00000106,-0.00000373,0.00001160,
 0.00003993,0.00000151,-0.00000477,-0.00001070,-0.00003164,-0.00001769,
 0.00000162,0.00004493,0.00002024,-0.00000279,-0.00002036,0.00000273,-0
 .00000123,0.00000650,0.00000280,0.00000474,-0.00001242,0.00000500,-0.0
 0001026,-0.00004602,-0.00022807,-0.00004746,-0.00000159,0.00028747,-0.
 00002887,-0.00000284,-0.00001084,-0.00000071,-0.00000273,0.00000200,-0
 .00000188,0.00000689,0.00000445,-0.00001609,-0.00000064,0.00000299,-0.
 00000412,0.00000124,0.00000403,-0.00000186,0.00000157,0.00000142,0.000
 00553,-0.00000440,-0.00000785,-0.00000223,0.00003486,0.00000001,-0.000
 00677,-0.00001620,-0.00001813,0.00000271,0.00002562,0.00000629,0.00000
 552,-0.00000176,0.00000020,0.00000127,-0.00000010,0.00000024,0.0000026
 5,-0.00000489,0.00000012,-0.00000114,-0.00001005,-0.00000345,-0.000006
 06,-0.00000729,-0.00000152,0.00000044,-0.00011376,0.00194472,-0.000800
 82,-0.00029861,-0.00244193,-0.00139688,-0.00524536,-0.00213824,0.00730
 127,-0.09121620,-0.02333010,0.09914441,-0.01173457,-0.00600083,0.02449
 899,0.00977094,0.00595451,-0.01998840,0.10114787,-0.00015504,0.0000698
 4,-0.00000972,0.00017158,0.00001178,0.00007298,-0.00032561,0.00017994,
 0.00001471,0.00006584,-0.00019212,-0.00000722,0.00007672,-0.00053591,0
 .00007201,0.00011622,0.00001756,-0.00000400,-0.00002472,0.00000545,0.0
 0001160,0.00000885,-0.00000808,-0.00000378,0.00006104,0.00001141,-0.00
 001553,-0.00004220,-0.00001501,0.00000238,0.00004350,-0.00001378,-0.00
 000060,-0.00002690,0.00000295,-0.00000118,0.00003528,-0.00004110,-0.00
 000003,-0.00004331,0.00011420,-0.00015723,0.00005244,0.00085107,-0.000
 18987,-0.00002304,-0.00002321,-0.00000441,-0.00001794,-0.00001343,0.00
 001134,0.00003073,0.00000002,-0.00002750,0.00001164,0.00001007,0.00001
 549,-0.00000440,-0.00000447,0.00000341,-0.00001146,0.00000328,-0.00000
 088,-0.00000879,-0.00000770,-0.00000137,-0.00004390,0.00001271,0.00001
 740,0.00001685,0.00001807,-0.00000454,-0.00004769,0.00001275,0.0000153
 7,0.00000136,-0.00000119,0.00000190,-0.00000737,0.00000622,0.00000192,
 0.00000733,-0.00000772,-0.00000171,0.00001354,0.00000099,0.00000132,0.
 00001882,0.00000109,-0.00001534,0.00106009,-0.00030343,-0.00442575,-0.
 00275710,-0.00542518,-0.00387159,-0.01262124,-0.00444228,0.03375707,-0
 .02340553,-0.05893742,0.05583512,0.00864209,0.00364211,-0.01857561,0.0
 0352113,0.00117918,-0.00701979,0.02363569,0.06455311,0.00014658,-0.000
 05471,-0.00000528,-0.00013398,0.00007395,0.00001021,0.00018149,-0.0000
 8394,-0.00001227,-0.00003589,0.00008194,0.00000127,-0.00005379,0.00017
 877,0.00002729,-0.00002375,-0.00000176,0.00000024,0.00000289,-0.000012
 07,-0.00001851,-0.00000438,0.00000498,0.00000373,-0.00005866,-0.000008
 00,0.00001811,0.00006399,0.00002931,-0.00000482,-0.00004334,-0.0000005
 5,0.00000168,0.00002907,-0.00000618,-0.00000046,-0.00003576,0.00003028
 ,0.00000281,0.00001278,-0.00008178,0.00000678,-0.00003152,-0.00022836,
 -0.00004340,0.00000462,0.00001249,0.00000399,0.00000113,0.00000123,-0.
 00000271,-0.00001045,0.00000162,0.00001591,-0.00000085,-0.00000427,-0.
 00000467,0.00000112,-0.00000084,-0.00000218,-0.00000031,-0.00000269,-0
 .00000223,0.00000570,0.00000800,0.00000409,0.00002076,0.00002359,-0.00
 002555,-0.00003217,-0.00003026,0.00000551,0.00004052,0.00001095,-0.000
 02249,-0.00000163,-0.00000044,-0.00000171,0.00000619,-0.00000622,-0.00
 000328,-0.00000474,-0.00000497,0.00000410,-0.00001135,-0.00000540,0.00
 000261,-0.00001830,-0.00000708,0.00001716,-0.00101880,0.00028880,0.001
 30174,-0.00074451,0.00080222,-0.00019683,0.00137655,-0.00226342,-0.000
 69889,0.09796124,0.05230804,-0.25129339,0.00077004,0.00010006,-0.00215
 050,0.00944995,0.00580036,-0.02117365,-0.10855861,-0.05558104,0.271959
 28,0.00002465,0.00000037,0.00001262,-0.00000741,0.00007591,-0.00002838
 ,-0.00001192,-0.00002023,0.00001844,0.00000452,0.00002782,-0.00001110,
 -0.00000575,0.00002399,-0.00003002,0.00000958,-0.00000071,0.00001832,-
 0.00000663,-0.00000842,-0.00002311,-0.00000172,-0.00000066,0.00000565,
 -0.00001181,-0.00001309,-0.00001573,0.00000510,-0.00000476,0.00000145,
 -0.00000662,0.00000457,-0.00000234,-0.00000110,0.00000384,0.00000075,-
 0.00000295,0.00000719,-0.00000641,-0.00000702,-0.00012441,0.00002859,-
 0.00000581,-0.00003935,0.00002643,-0.00000367,0.00000521,-0.00000162,0
 .00000219,0.00000554,-0.00000384,0.00000894,-0.00000713,0.00001940,0.0
 0000104,-0.00000077,-0.00000471,0.00000222,0.00000058,-0.00000257,-0.0
 0000728,-0.00000141,-0.00000403,0.00000155,0.00000544,0.00000255,0.000
 01098,-0.00001422,0.00001959,-0.00000055,0.00000194,-0.00000199,0.0000
 1717,-0.00000513,0.00001931,-0.00000048,0.00000130,0.00000145,0.000000
 73,0.00000073,0.00000315,-0.00000388,0.00000529,-0.00000353,-0.0000087
 2,-0.00000026,-0.00001025,-0.00000207,0.00000306,-0.00000586,0.0003278
 0,0.00035959,-0.00037007,0.00118031,0.00032499,-0.00054043,-0.00074405
 ,-0.00154360,0.00028836,-0.01225215,-0.00573710,0.02613390,-0.09293356
 ,-0.02348055,0.09838339,0.00070530,-0.00096034,-0.00035291,-0.00414484
 ,0.00376331,0.00027780,0.10180132,0.00009543,-0.00003508,0.00000047,-0
 .00008639,0.00005009,0.00000106,0.00012297,-0.00009081,0.00000819,-0.0
 0002123,0.00008201,-0.00000452,-0.00002456,0.00016448,0.00000415,-0.00
 002551,-0.00000226,0.00000497,0.00000146,-0.00002307,-0.00003173,-0.00
 000697,0.00001081,0.00000776,-0.00003781,-0.00001071,0.00000804,0.0000
 3387,0.00000818,-0.00000218,-0.00002920,0.00000767,-0.00000163,0.00001
 648,-0.00000084,0.00000103,-0.00002116,0.00002278,-0.00000404,0.000012
 05,-0.00009569,0.00000161,-0.00004209,-0.00024014,-0.00000422,0.000002
 17,0.00001372,0.00000423,0.00000212,0.00000135,-0.00000572,-0.00001893
 ,0.00000135,0.00002186,-0.00000234,-0.00000233,-0.00000201,0.00000104,
 0.00000070,-0.00000341,0.00000239,-0.00000367,0.00000003,0.00000867,0.
 00000717,0.00000352,0.00001629,-0.00000402,-0.00000491,-0.00001370,-0.
 00001141,0.00000129,0.00004001,-0.00000766,0.00000081,-0.00000093,0.00
 000093,-0.00000030,0.00000433,-0.00000343,-0.00000079,-0.00000676,0.00
 000545,-0.00000060,-0.00001387,-0.00000109,-0.00000597,-0.00001322,0.0
 0000013,0.00000636,-0.00057524,0.00021502,0.00032226,-0.00038809,-0.00
 014651,0.00046353,0.00107946,0.00042758,-0.00110007,0.00755595,0.00398
 568,-0.01796296,-0.02430709,-0.05947401,0.05196729,-0.00080503,0.00073
 054,0.00041994,0.00331105,-0.00197864,-0.00064580,0.02295903,0.0614513
 5,0.00003570,-0.00002324,-0.00000646,-0.00008753,-0.00006438,0.0000266
 7,0.00015216,-0.00003305,-0.00001434,-0.00004016,0.00001669,0.00000707
 ,-0.00006029,0.00007306,0.00002881,0.00003637,0.00000785,0.00000556,-0
 .00001183,-0.00003073,-0.00006373,-0.00000295,0.00000711,0.00001686,-0
 .00001108,0.00000456,0.00001022,0.00001203,0.00001208,-0.00000373,-0.0
 0001204,-0.00000208,0.00000332,0.00001266,-0.00000402,0.00000051,-0.00
 000998,0.00000977,0.00000240,0.00002330,0.00008315,-0.00002760,-0.0000
 0733,-0.00007241,-0.00003510,-0.00000891,0.00001381,0.00000141,-0.0000
 0586,-0.00000559,0.00000225,0.00000116,-0.00001288,0.00002920,0.000004
 96,-0.00000051,0.00000387,-0.00000138,-0.00000652,-0.00000022,-0.00001
 260,-0.00000313,-0.00001032,0.00000681,0.00001503,0.00000635,0.0000000
 4,0.00000637,-0.00000890,-0.00000904,-0.00000998,0.00000184,0.00000365
 ,0.00000836,-0.00001215,0.00000025,-0.00000079,-0.00000115,0.00000319,
 -0.00000283,-0.00000196,0.00000086,-0.00000611,0.00000236,-0.00000026,
 -0.00000311,0.00000258,-0.00000402,-0.00000412,0.00000671,-0.00071427,
 -0.00052360,0.00004607,-0.00177078,0.00032751,0.00085418,0.00231916,0.
 00152386,-0.00031939,0.00124186,-0.00009476,-0.00296237,0.09901645,0.0
 4996098,-0.26246848,0.00032675,-0.00034409,0.00069432,0.00059723,-0.00
 041502,0.00154862,-0.10930087,-0.05613999,0.28176331,0.00012321,-0.000
 01526,0.00000233,0.00005199,0.00034921,-0.00003552,-0.00020172,-0.0000
 1100,0.00000650,0.00006333,0.00005680,-0.00000643,0.00005552,-0.000023
 47,0.00000379,-0.00004880,-0.00001526,-0.00000170,0.00001215,0.0000190
 6,0.00000777,0.00000642,-0.00000760,-0.00000109,-0.00005338,-0.0000372
 3,0.00000146,0.00005154,0.00001467,-0.00000191,-0.00003219,0.00001420,
 -0.00000177,0.00000898,0.00000646,-0.00000130,-0.00002687,0.00002069,-
 0.00000187,-0.00008462,-0.00051441,0.00005365,-0.00001036,-0.00000558,
 0.00000233,0.00000924,-0.00000255,-0.00000172,0.00001055,0.00000173,0.
 00000068,-0.00000308,0.00000796,-0.00001871,-0.00000405,0.00000730,0.0
 0001120,-0.00000179,-0.00000082,0.00000331,0.00000985,0.00000258,0.000
 00099,-0.00000385,-0.00000553,-0.00000304,0.00004600,-0.00001190,0.000
 00381,-0.00001997,-0.00001331,0.00000144,0.00004581,-0.00000834,0.0000
 0231,-0.00000276,0.00000169,0.00000002,0.00000070,-0.00000015,0.000000
 14,-0.00000861,0.00000836,-0.00000105,-0.00001556,-0.00000126,-0.00000
 748,-0.00001463,0.00000033,0.00000670,-0.00039505,0.00341660,0.0000030
 6,0.00215782,-0.00053191,-0.00027083,-0.00679207,-0.00171242,0.0011863
 1,0.00766934,0.03046407,-0.00115561,-0.06085851,-0.05752348,0.00141197
 ,0.00104480,-0.00084927,-0.00054215,0.00113018,-0.00097552,0.00015483,
 -0.00397997,-0.01222810,-0.00139896,0.06477937,-0.00034091,0.00009342,
 -0.00000618,0.00013888,-0.00048726,0.00003595,-0.00002485,0.00025191,-
 0.00002257,-0.00002929,-0.00026935,0.00002373,-0.00001470,-0.00031650,
 0.00001212,0.00010072,0.00002958,-0.00001915,-0.00001219,0.00001782,0.
 00002167,0.00001149,-0.00000847,-0.00000624,0.00014040,0.00007343,-0.0
 0000732,-0.00013963,-0.00002287,0.00000253,0.00010729,-0.00004557,0.00
 000514,-0.00003987,-0.00000805,0.00000011,0.00007448,-0.00007604,0.000
 00708,0.00004412,0.00081926,-0.00006557,0.00011486,0.00052068,-0.00000
 359,-0.00001543,-0.00002595,-0.00000754,-0.00001604,-0.00001445,0.0000
 1722,0.00002879,0.00000293,-0.00003435,0.00000945,0.00000866,0.0000200
 8,-0.00000628,-0.00000594,0.00000894,-0.00000822,0.00000796,-0.0000007
 5,-0.00001077,-0.00001315,-0.00000558,-0.00008858,0.00004206,-0.000002
 49,0.00005014,0.00003109,-0.00000347,-0.00017297,0.00005231,-0.0000039
 7,0.00000462,-0.00000526,0.00000079,-0.00001007,0.00000726,-0.00000004
 ,0.00003261,-0.00003592,0.00000378,0.00005762,-0.00000086,0.00002389,0
 .00005644,-0.00000616,-0.00002517,0.00157686,-0.00328994,-0.00013397,0
 .00039753,-0.00111759,-0.00006805,0.00199415,0.00279900,-0.00040606,-0
 .00599262,-0.01625318,0.00080550,-0.05686786,-0.29849778,0.00747834,0.
 00020838,0.00043619,0.00055281,-0.00000726,0.00049037,-0.00059304,-0.0
 0127182,-0.00552646,0.00032514,0.06114509,0.32542471,-0.00002061,0.000
 00310,0.00000463,-0.00001034,-0.00006276,0.00000389,0.00003358,0.00000
 649,-0.00000394,-0.00001114,-0.00001482,0.00000093,-0.00001033,-0.0000
 0317,0.00002289,0.00000595,0.00000268,-0.00000044,-0.00000192,-0.00000
 981,-0.00001785,0.00000040,0.00000209,0.00000606,0.00000875,0.00000533
 ,-0.00001009,-0.00000782,-0.00000087,0.00000206,0.00000573,-0.00000465
 ,-0.00000090,-0.00000182,-0.00000074,0.00000096,0.00000518,-0.00000427
 ,-0.00000083,0.00001516,0.00009837,-0.00001120,0.00000421,0.00001085,-
 0.00002399,-0.00000230,0.00000068,0.00000041,-0.00000058,-0.00000444,0
 .00000155,-0.00000221,0.00000151,-0.00000505,0.00000187,0.00000683,0.0
 0001105,-0.00000234,-0.00000278,0.00000098,0.00000014,0.00000016,-0.00
 000165,0.00000095,0.00000090,0.00000043,-0.00000826,0.00000414,0.00000
 391,0.00000262,0.00000156,-0.00000091,-0.00000852,0.00000508,0.0000078
 5,0.00000050,-0.00000039,0.00000055,-0.00000005,0.00000003,0.00000038,
 0.00000163,-0.00000298,-0.00000086,0.00000130,-0.00000115,-0.00000199,
 0.00000426,-0.00000013,-0.00000497,0.00012603,-0.00059500,0.00005119,-
 0.00016324,-0.00003547,0.00057183,0.00113002,0.00021244,0.00051290,-0.
 00158781,-0.00511783,-0.00107596,0.00143882,0.00761307,-0.05028630,0.0
 0004888,0.00043595,0.00007027,-0.00041673,-0.00014215,0.00000947,0.005
 45926,0.02918325,0.00119196,-0.00258933,-0.00793493,0.04740010,-0.0000
 0752,0.00001012,-0.00001279,0.00004480,0.00009212,0.00001435,-0.000105
 57,0.00000033,-0.00001611,0.00002739,0.00001125,0.00000660,0.00003011,
 -0.00002404,0.00003992,-0.00000501,-0.00000098,-0.00000420,-0.00000336
 ,0.00000281,-0.00002891,0.00000234,-0.00000444,0.00000714,0.00000151,-
 0.00000793,0.00001798,-0.00000119,-0.00001332,-0.00000113,-0.00000012,
 0.00001259,0.00000123,-0.00000715,0.00000350,-0.00000149,0.00000209,0.
 00000042,0.00000543,-0.00001460,-0.00012678,-0.00000174,-0.00000278,0.
 00001100,-0.00003745,0.00000130,0.00000525,-0.00000063,0.00000220,-0.0
 0000277,0.00000329,0.00000616,0.00000370,0.00000786,0.00000533,0.00000
 116,0.00000620,-0.00000334,-0.00000268,0.00000286,-0.00000124,-0.00000
 145,-0.00000364,0.00000040,0.00000483,0.00000050,0.00000659,-0.0000191
 5,-0.00001406,0.00000470,0.00000971,0.00000122,0.00001492,-0.00002165,
 -0.00001548,-0.00000021,0.00000119,-0.00000157,-0.00000152,0.00000136,
 -0.00000301,-0.00000408,0.00001181,0.00000138,-0.00000111,0.00000574,0
 .00000528,-0.00000721,0.00000354,0.00000884,0.00075477,0.00050313,0.00
 018168,0.00176140,0.00024015,0.00055148,-0.00177951,-0.00191518,-0.000
 08933,-0.01977380,-0.00508801,-0.02051498,-0.17237297,-0.03651942,-0.1
 3070225,-0.00375654,0.00365195,0.00166461,0.00073370,-0.00081226,0.000
 31553,0.01004659,0.00340345,0.00967554,-0.00471893,-0.00122455,-0.0034
 4987,0.18912146,0.00010218,-0.00003896,0.00000733,-0.00009570,0.000054
 76,-0.00000389,0.00014126,-0.00009922,0.00000638,-0.00002467,0.0000900
 0,-0.00001072,-0.00003438,0.00017807,-0.00001492,-0.00001706,-0.000006
 35,0.00001245,0.00000023,-0.00001617,0.00000822,-0.00001261,0.00001293
 ,-0.00000378,-0.00004073,-0.00001218,-0.00000557,0.00003419,0.00001095
 ,0.00000603,-0.00003091,0.00000787,-0.00000561,0.00001825,-0.00000094,
 0.00000115,-0.00002343,0.00002518,-0.00000194,0.00000910,-0.00010477,0
 .00000651,-0.00004300,-0.00025513,-0.00000291,0.00000215,0.00001141,0.
 00000366,0.00000025,0.00001014,-0.00001077,-0.00001300,-0.00000396,0.0
 0003092,-0.00000450,-0.00001199,-0.00003042,0.00000819,0.00000660,-0.0
 0000692,0.00000049,-0.00000507,0.00000192,0.00000745,0.00000745,0.0000
 0309,0.00001952,-0.00000285,0.00000231,-0.00001379,-0.00001278,0.00000
 052,0.00004085,-0.00000843,0.00000119,-0.00000100,0.00000103,0.0000000
 3,0.00000456,-0.00000356,0.00000080,-0.00000680,0.00000576,-0.00000063
 ,-0.00001396,-0.00000129,-0.00000613,-0.00001374,0.00000020,0.00000645
 ,-0.00076316,0.00023207,-0.00014354,-0.00062859,-0.00015690,-0.0001755
 7,0.00148870,0.00037008,0.00076774,0.01290342,0.00385720,0.01457787,-0
 .03781206,-0.05748978,-0.03950223,0.00328128,-0.00203643,-0.00056514,-
 0.00087430,0.00075648,-0.00013373,0.00565426,0.00047086,0.00540759,-0.
 02104242,-0.00508188,-0.02365619,0.03779350,0.05923957,-0.00004347,0.0
 0002095,-0.00000224,0.00009138,0.00003709,0.00000392,-0.00015166,0.000
 03994,-0.00000884,0.00004003,-0.00002729,0.00000558,0.00006589,-0.0000
 8086,0.00002133,-0.00004913,-0.00000617,-0.00001854,0.00001479,0.00001
 478,0.00002642,0.00000445,-0.00000186,-0.00000865,0.00001586,0.0000014
 0,0.00000448,-0.00001227,-0.00000950,-0.00000124,0.00001266,0.00000292
 ,0.00000151,-0.00001181,0.00000215,0.00000030,0.00001012,-0.00001252,0
 .00000119,-0.00002067,-0.00003451,-0.00000552,0.00000539,0.00008288,-0
 .00002016,0.00000966,-0.00001106,0.00000061,0.00000796,-0.00000798,0.0
 0000565,-0.00001003,0.00002064,-0.00005121,-0.00000715,0.00002005,0.00
 002669,-0.00000444,-0.00000491,0.00000827,0.00002203,0.00000351,0.0000
 0349,-0.00000573,-0.00001285,-0.00000501,-0.00000399,-0.00000061,-0.00
 000321,0.00000864,0.00000951,-0.00000047,-0.00000844,-0.00001071,-0.00
 000566,0.00000010,0.00000003,-0.00000065,-0.00000347,0.00000218,-0.000
 00143,0.00000043,0.00000540,0.00000043,0.00000500,0.00000403,0.0000052
 1,0.00000247,0.00000268,-0.00000018,0.00054216,0.00037232,-0.00018351,
 0.00152773,-0.00043923,0.00017071,-0.00194778,-0.00102989,0.00031471,0
 .00463958,0.00200606,0.00471182,-0.13125208,-0.03762327,-0.18522442,0.
 00127904,-0.00090008,0.00117756,-0.00032819,0.00064185,0.00071823,-0.0
 2000064,-0.00651077,-0.02032055,0.00317587,0.00000522,0.00157068,0.142
 37974,0.04342848,0.19708272\\0.00000202,0.00000108,-0.00000291,-0.0000
 0699,0.00000141,0.00000589,0.00000344,-0.00000282,0.00000098,-0.000002
 52,0.00000017,0.00000447,-0.00000257,-0.00000237,0.00000481,-0.0000021
 0,0.00000290,0.00000528,-0.00000087,-0.00000129,0.00000012,-0.00000041
 ,-0.00000096,0.00000394,0.00000218,-0.00000155,-0.00000066,-0.00000110
 ,0.00000080,0.00000062,0.00000097,0.00000024,0.00000165,0.00000275,0.0
 0000300,0.00000412,0.00000110,-0.00000299,0.00000638,0.00000138,0.0000
 0960,-0.00000495,-0.00000033,0.00000161,-0.00000117,0.00000084,-0.0000
 0193,0.00000440,0.00000326,0.00000141,0.00000292,-0.00000009,-0.000000
 25,0.00000081,-0.00000021,-0.00000382,0.00000050,0.00000072,0.00000047
 ,0.00000401,-0.00000046,-0.00000212,0.00000257,0.00000030,-0.00000259,
 0.00000492,0.00000088,-0.00000077,-0.00000081,0.00000016,0.00000061,-0
 .00000343,0.00000019,0.00000236,0.00000275,0.00000091,0.00000133,0.000
 00613,0.00000335,0.00000140,0.00000574,0.00000178,0.00000181,0.0000045
 6,0.00000128,0.00000302,0.00000096,0.00000013,-0.00000008,0.00000197,0
 .00000855,-0.00000317,-0.00000408,-0.00000498,-0.00000652,-0.00000262,
 -0.00000154,0.00000040,-0.00000210,-0.00000935,-0.00000032,-0.00000475
 ,-0.00000009,0.00000052,-0.00000930,0.00000048,0.00000097,-0.00000976,
 -0.00000024,-0.00000120,-0.00000863,-0.00000093,0.00000192,-0.00000817
 ,-0.00000093,0.00000037,-0.00001044,-0.00000100,-0.00000266,-0.0000067
 3\\\@


 REALITY IS FOR PEOPLE WHO CAN'T FACE SCIENCE FICTION.
 Job cpu time:       0 days 11 hours 52 minutes 25.0 seconds.
 File lengths (MBytes):  RWF=   1417 Int=      0 D2E=      0 Chk=     34 Scr=      1
 Normal termination of Gaussian 09 at Thu Nov 14 23:25:01 2019.
pbs_rusage has been removed.
Please contact help@nci.org.au if you require this functionality.
