 Entering Gaussian System, Link 0=/apps/gaussian/g09e01/g09/g09
 Initial command:
 /apps/gaussian/g09e01/g09/l1.exe "/jobfs/local/3595036.r-man2/Gau-22168.inp" -scrdir="/jobfs/local/3595036.r-man2/"
 Entering Link 1 = /apps/gaussian/g09e01/g09/l1.exe PID=     22169.
  
 Copyright (c) 1988,1990,1992,1993,1995,1998,2003,2009,2015,
            Gaussian, Inc.  All Rights Reserved.
  
 This is part of the Gaussian(R) 09 program.  It is based on
 the Gaussian(R) 03 system (copyright 2003, Gaussian, Inc.),
 the Gaussian(R) 98 system (copyright 1998, Gaussian, Inc.),
 the Gaussian(R) 94 system (copyright 1995, Gaussian, Inc.),
 the Gaussian 92(TM) system (copyright 1992, Gaussian, Inc.),
 the Gaussian 90(TM) system (copyright 1990, Gaussian, Inc.),
 the Gaussian 88(TM) system (copyright 1988, Gaussian, Inc.),
 the Gaussian 86(TM) system (copyright 1986, Carnegie Mellon
 University), and the Gaussian 82(TM) system (copyright 1983,
 Carnegie Mellon University). Gaussian is a federally registered
 trademark of Gaussian, Inc.
  
 This software contains proprietary and confidential information,
 including trade secrets, belonging to Gaussian, Inc.
  
 This software is provided under written license and may be
 used, copied, transmitted, or stored only in accord with that
 written license.
  
 The following legend is applicable only to US Government
 contracts under FAR:
  
                    RESTRICTED RIGHTS LEGEND
  
 Use, reproduction and disclosure by the US Government is
 subject to restrictions as set forth in subparagraphs (a)
 and (c) of the Commercial Computer Software - Restricted
 Rights clause in FAR 52.227-19.
  
 Gaussian, Inc.
 340 Quinnipiac St., Bldg. 40, Wallingford CT 06492
  
  
 ---------------------------------------------------------------
 Warning -- This program may not be used in any manner that
 competes with the business of Gaussian, Inc. or will provide
 assistance to any competitor of Gaussian, Inc.  The licensee
 of this program is prohibited from giving any competitor of
 Gaussian, Inc. access to this program.  By using this program,
 the user acknowledges that Gaussian, Inc. is engaged in the
 business of creating and licensing software in the field of
 computational chemistry and represents and warrants to the
 licensee that it is not a competitor of Gaussian, Inc. and that
 it will not use this program in any manner prohibited above.
 ---------------------------------------------------------------
  

 Cite this work as:
 Gaussian 09, Revision E.01,
 M. J. Frisch, G. W. Trucks, H. B. Schlegel, G. E. Scuseria, 
 M. A. Robb, J. R. Cheeseman, G. Scalmani, V. Barone, B. Mennucci, 
 G. A. Petersson, H. Nakatsuji, M. Caricato, X. Li, H. P. Hratchian, 
 A. F. Izmaylov, J. Bloino, G. Zheng, J. L. Sonnenberg, M. Hada, 
 M. Ehara, K. Toyota, R. Fukuda, J. Hasegawa, M. Ishida, T. Nakajima, 
 Y. Honda, O. Kitao, H. Nakai, T. Vreven, J. A. Montgomery, Jr., 
 J. E. Peralta, F. Ogliaro, M. Bearpark, J. J. Heyd, E. Brothers, 
 K. N. Kudin, V. N. Staroverov, T. Keith, R. Kobayashi, J. Normand, 
 K. Raghavachari, A. Rendell, J. C. Burant, S. S. Iyengar, J. Tomasi, 
 M. Cossi, N. Rega, J. M. Millam, M. Klene, J. E. Knox, J. B. Cross, 
 V. Bakken, C. Adamo, J. Jaramillo, R. Gomperts, R. E. Stratmann, 
 O. Yazyev, A. J. Austin, R. Cammi, C. Pomelli, J. W. Ochterski, 
 R. L. Martin, K. Morokuma, V. G. Zakrzewski, G. A. Voth, 
 P. Salvador, J. J. Dannenberg, S. Dapprich, A. D. Daniels, 
 O. Farkas, J. B. Foresman, J. V. Ortiz, J. Cioslowski, 
 and D. J. Fox, Gaussian, Inc., Wallingford CT, 2013.
 
 ******************************************
 Gaussian 09:  ES64L-G09RevE.01 30-Nov-2015
                14-Nov-2019 
 ******************************************
 %chk=CP19_c2_carboxy.M062X_6-311pGd_opt_water_GD3.chk
 %mem=196608000
 %nproc=8
 Will use up to    8 processors via shared memory.
 ----------------------------------------------------------------------
 # M062X/6-311+G* SCF=Tight INT(grid=ultrafine) OPT IOP(2/17=4) Empiric
 alDispersion=GD3 SCRF=(SMD,Solvent=h2o) maxdisk=2684354560
 ----------------------------------------------------------------------
 1/14=-1,18=20,19=15,26=4,38=1/1,3;
 2/9=110,12=2,17=4,18=5,40=1/2;
 3/5=4,6=6,7=11,11=2,16=1,25=1,30=1,70=32201,71=1,72=1,74=-55,75=-5,124=31/1,2,3;
 4//1;
 5/5=2,32=2,38=5,53=1/2;
 6/7=2,8=2,9=2,10=2,28=1/1;
 7//1,2,3,16;
 1/14=-1,18=20,19=15,26=4/3(2);
 2/9=110,17=4/2;
 99//99;
 2/9=110,17=4/2;
 3/5=4,6=6,7=11,11=2,16=1,25=1,30=1,70=32205,71=1,72=1,74=-55,75=-5,124=31/1,2,3;
 4/5=5,16=3,69=1/1;
 5/5=2,32=2,38=5,53=1/2;
 7//1,2,3,16;
 1/14=-1,18=20,19=15,26=4/3(-5);
 2/9=110,17=4/2;
 6/7=2,8=2,9=2,10=2,19=2,28=1/1;
 99/9=1/99;
 --------------------------------------------
 CP19_c2_carboxy.M062X_6-311pGd_opt_water_GD3
 --------------------------------------------
 Symbolic Z-matrix:
 Charge = -1 Multiplicity = 1
 C                    -6.22232   1.28021  -0.1034 
 N                    -4.97339   0.67904  -0.07648 
 C                    -3.7447    1.31468  -0.02256 
 O                    -3.61741   2.54381   0.04131 
 N                    -2.69749   0.47147  -0.03083 
 C                    -1.33382   0.97429   0.04874 
 C                    -0.34547  -0.18093   0.03186 
 C                     1.09016   0.32289   0.11323 
 C                    -7.3189    0.45954   0.21299 
 C                    -8.60013   0.96863   0.18241 
 C                    -8.8451    2.3021   -0.15542 
 C                    -7.75451   3.10512  -0.47493 
 C                    -6.45767   2.61496  -0.45799 
 H                    -4.97067  -0.34229   0.05638 
 H                    -2.8441   -0.53711  -0.13493 
 H                    -1.21046   1.55935   0.96533 
 H                    -1.13683   1.64729  -0.79189 
 H                    -0.48733  -0.76462  -0.88316 
 H                    -0.55762  -0.8505    0.8713 
 H                     1.32519   0.97659  -0.73085 
 H                     1.80041  -0.506     0.10132 
 H                     1.25527   0.89155   1.03215 
 H                    -7.1547   -0.57713   0.4837 
 Cl                   -9.91317  -0.10748   0.59066 
 C                    -10.23038   2.86548  -0.18689 
 H                    -7.91861   4.13894  -0.75265 
 H                    -5.64029   3.26368  -0.72911 
 F                    -10.2393   4.15775  -0.54224 
 F                    -11.03275   2.22598  -1.05978 
 F                    -10.84755   2.79585   1.00866 
 O                    -5.07159  -2.13757   0.3483 
 O                    -2.96509  -2.39933  -0.32751 
 C                    -4.07063  -2.85582   0.06043 
 C                    -4.24874  -4.36347   0.20343 
 C                    -3.03212  -5.1971   -0.1663 
 H                    -5.11193  -4.64135  -0.40889 
 H                    -4.54849  -4.55059   1.23914 
 H                    -2.74199  -5.03627  -1.20661 
 H                    -3.24307  -6.26097  -0.03819 
 H                    -2.17415  -4.94775   0.46129 
 
 Add virtual bond connecting atoms O31        and H14        Dist= 3.44D+00.
 Add virtual bond connecting atoms O32        and H15        Dist= 3.55D+00.

 GradGradGradGradGradGradGradGradGradGradGradGradGradGradGradGradGradGrad
 Berny optimization.
 Initialization pass.
                           ----------------------------
                           !    Initial Parameters    !
                           ! (Angstroms and Degrees)  !
 --------------------------                            --------------------------
 ! Name  Definition              Value          Derivative Info.                !
 --------------------------------------------------------------------------------
 ! R1    R(1,2)                  1.3863         estimate D2E/DX2                !
 ! R2    R(1,9)                  1.4057         estimate D2E/DX2                !
 ! R3    R(1,13)                 1.401          estimate D2E/DX2                !
 ! R4    R(2,3)                  1.3844         estimate D2E/DX2                !
 ! R5    R(2,14)                 1.0299         estimate D2E/DX2                !
 ! R6    R(3,4)                  1.2374         estimate D2E/DX2                !
 ! R7    R(3,5)                  1.3445         estimate D2E/DX2                !
 ! R8    R(5,6)                  1.4556         estimate D2E/DX2                !
 ! R9    R(5,15)                 1.0245         estimate D2E/DX2                !
 ! R10   R(6,7)                  1.5204         estimate D2E/DX2                !
 ! R11   R(6,16)                 1.0944         estimate D2E/DX2                !
 ! R12   R(6,17)                 1.0947         estimate D2E/DX2                !
 ! R13   R(7,8)                  1.5236         estimate D2E/DX2                !
 ! R14   R(7,18)                 1.0946         estimate D2E/DX2                !
 ! R15   R(7,19)                 1.0945         estimate D2E/DX2                !
 ! R16   R(8,20)                 1.0932         estimate D2E/DX2                !
 ! R17   R(8,21)                 1.0916         estimate D2E/DX2                !
 ! R18   R(8,22)                 1.0932         estimate D2E/DX2                !
 ! R19   R(9,10)                 1.379          estimate D2E/DX2                !
 ! R20   R(9,23)                 1.0839         estimate D2E/DX2                !
 ! R21   R(10,11)                1.3972         estimate D2E/DX2                !
 ! R22   R(10,24)                1.7461         estimate D2E/DX2                !
 ! R23   R(11,12)                1.3915         estimate D2E/DX2                !
 ! R24   R(11,25)                1.4958         estimate D2E/DX2                !
 ! R25   R(12,13)                1.3865         estimate D2E/DX2                !
 ! R26   R(12,26)                1.083          estimate D2E/DX2                !
 ! R27   R(13,27)                1.0782         estimate D2E/DX2                !
 ! R28   R(14,31)                1.8217         estimate D2E/DX2                !
 ! R29   R(15,32)                1.8761         estimate D2E/DX2                !
 ! R30   R(25,28)                1.3403         estimate D2E/DX2                !
 ! R31   R(25,29)                1.3471         estimate D2E/DX2                !
 ! R32   R(25,30)                1.3473         estimate D2E/DX2                !
 ! R33   R(31,33)                1.2652         estimate D2E/DX2                !
 ! R34   R(32,33)                1.2574         estimate D2E/DX2                !
 ! R35   R(33,34)                1.5249         estimate D2E/DX2                !
 ! R36   R(34,35)                1.5205         estimate D2E/DX2                !
 ! R37   R(34,36)                1.0942         estimate D2E/DX2                !
 ! R38   R(34,37)                1.0943         estimate D2E/DX2                !
 ! R39   R(35,38)                1.0919         estimate D2E/DX2                !
 ! R40   R(35,39)                1.0921         estimate D2E/DX2                !
 ! R41   R(35,40)                1.0919         estimate D2E/DX2                !
 ! A1    A(2,1,9)              116.4376         estimate D2E/DX2                !
 ! A2    A(2,1,13)             124.7082         estimate D2E/DX2                !
 ! A3    A(9,1,13)             118.825          estimate D2E/DX2                !
 ! A4    A(1,2,3)              126.9559         estimate D2E/DX2                !
 ! A5    A(1,2,14)             115.7785         estimate D2E/DX2                !
 ! A6    A(3,2,14)             116.611          estimate D2E/DX2                !
 ! A7    A(2,3,4)              123.3257         estimate D2E/DX2                !
 ! A8    A(2,3,5)              113.7706         estimate D2E/DX2                !
 ! A9    A(4,3,5)              122.8997         estimate D2E/DX2                !
 ! A10   A(3,5,6)              120.8446         estimate D2E/DX2                !
 ! A11   A(3,5,15)             120.4362         estimate D2E/DX2                !
 ! A12   A(6,5,15)             118.6656         estimate D2E/DX2                !
 ! A13   A(5,6,7)              110.2383         estimate D2E/DX2                !
 ! A14   A(5,6,16)             109.6369         estimate D2E/DX2                !
 ! A15   A(5,6,17)             109.8142         estimate D2E/DX2                !
 ! A16   A(7,6,16)             110.0126         estimate D2E/DX2                !
 ! A17   A(7,6,17)             109.9749         estimate D2E/DX2                !
 ! A18   A(16,6,17)            107.1102         estimate D2E/DX2                !
 ! A19   A(6,7,8)              111.1413         estimate D2E/DX2                !
 ! A20   A(6,7,18)             109.2816         estimate D2E/DX2                !
 ! A21   A(6,7,19)             109.2869         estimate D2E/DX2                !
 ! A22   A(8,7,18)             110.0651         estimate D2E/DX2                !
 ! A23   A(8,7,19)             110.1183         estimate D2E/DX2                !
 ! A24   A(18,7,19)            106.8454         estimate D2E/DX2                !
 ! A25   A(7,8,20)             111.0436         estimate D2E/DX2                !
 ! A26   A(7,8,21)             111.1857         estimate D2E/DX2                !
 ! A27   A(7,8,22)             111.0513         estimate D2E/DX2                !
 ! A28   A(20,8,21)            107.8033         estimate D2E/DX2                !
 ! A29   A(20,8,22)            107.7888         estimate D2E/DX2                !
 ! A30   A(21,8,22)            107.8117         estimate D2E/DX2                !
 ! A31   A(1,9,10)             120.2816         estimate D2E/DX2                !
 ! A32   A(1,9,23)             119.7616         estimate D2E/DX2                !
 ! A33   A(10,9,23)            119.9567         estimate D2E/DX2                !
 ! A34   A(9,10,11)            121.371          estimate D2E/DX2                !
 ! A35   A(9,10,24)            117.7733         estimate D2E/DX2                !
 ! A36   A(11,10,24)           120.8546         estimate D2E/DX2                !
 ! A37   A(10,11,12)           117.9598         estimate D2E/DX2                !
 ! A38   A(10,11,25)           121.7972         estimate D2E/DX2                !
 ! A39   A(12,11,25)           120.2418         estimate D2E/DX2                !
 ! A40   A(11,12,13)           121.7522         estimate D2E/DX2                !
 ! A41   A(11,12,26)           119.4073         estimate D2E/DX2                !
 ! A42   A(13,12,26)           118.8386         estimate D2E/DX2                !
 ! A43   A(1,13,12)            119.8046         estimate D2E/DX2                !
 ! A44   A(1,13,27)            120.633          estimate D2E/DX2                !
 ! A45   A(12,13,27)           119.5588         estimate D2E/DX2                !
 ! A46   A(11,25,28)           112.018          estimate D2E/DX2                !
 ! A47   A(11,25,29)           112.7339         estimate D2E/DX2                !
 ! A48   A(11,25,30)           112.7131         estimate D2E/DX2                !
 ! A49   A(28,25,29)           106.3768         estimate D2E/DX2                !
 ! A50   A(28,25,30)           106.3833         estimate D2E/DX2                !
 ! A51   A(29,25,30)           106.1185         estimate D2E/DX2                !
 ! A52   A(14,31,33)           118.6329         estimate D2E/DX2                !
 ! A53   A(15,32,33)           112.6683         estimate D2E/DX2                !
 ! A54   A(31,33,32)           124.035          estimate D2E/DX2                !
 ! A55   A(31,33,34)           116.5866         estimate D2E/DX2                !
 ! A56   A(32,33,34)           119.3783         estimate D2E/DX2                !
 ! A57   A(33,34,35)           115.2028         estimate D2E/DX2                !
 ! A58   A(33,34,36)           106.9035         estimate D2E/DX2                !
 ! A59   A(33,34,37)           106.8471         estimate D2E/DX2                !
 ! A60   A(35,34,36)           110.8495         estimate D2E/DX2                !
 ! A61   A(35,34,37)           110.8283         estimate D2E/DX2                !
 ! A62   A(36,34,37)           105.6713         estimate D2E/DX2                !
 ! A63   A(34,35,38)           111.3171         estimate D2E/DX2                !
 ! A64   A(34,35,39)           110.5494         estimate D2E/DX2                !
 ! A65   A(34,35,40)           111.3319         estimate D2E/DX2                !
 ! A66   A(38,35,39)           107.8528         estimate D2E/DX2                !
 ! A67   A(38,35,40)           107.7698         estimate D2E/DX2                !
 ! A68   A(39,35,40)           107.8676         estimate D2E/DX2                !
 ! A69   L(2,14,31,7,-1)       183.3274         estimate D2E/DX2                !
 ! A70   L(5,15,32,7,-1)       175.4772         estimate D2E/DX2                !
 ! A71   L(2,14,31,7,-2)       178.1742         estimate D2E/DX2                !
 ! A72   L(5,15,32,7,-2)       180.2588         estimate D2E/DX2                !
 ! D1    D(9,1,2,3)           -162.9105         estimate D2E/DX2                !
 ! D2    D(9,1,2,14)             7.4378         estimate D2E/DX2                !
 ! D3    D(13,1,2,3)            19.0839         estimate D2E/DX2                !
 ! D4    D(13,1,2,14)         -170.5678         estimate D2E/DX2                !
 ! D5    D(2,1,9,10)          -178.6023         estimate D2E/DX2                !
 ! D6    D(2,1,9,23)             1.511          estimate D2E/DX2                !
 ! D7    D(13,1,9,10)           -0.4737         estimate D2E/DX2                !
 ! D8    D(13,1,9,23)          179.6397         estimate D2E/DX2                !
 ! D9    D(2,1,13,12)          178.7556         estimate D2E/DX2                !
 ! D10   D(2,1,13,27)           -0.5595         estimate D2E/DX2                !
 ! D11   D(9,1,13,12)            0.794          estimate D2E/DX2                !
 ! D12   D(9,1,13,27)         -178.5211         estimate D2E/DX2                !
 ! D13   D(1,2,3,4)              1.787          estimate D2E/DX2                !
 ! D14   D(1,2,3,5)           -178.9175         estimate D2E/DX2                !
 ! D15   D(14,2,3,4)          -168.4914         estimate D2E/DX2                !
 ! D16   D(14,2,3,5)            10.8041         estimate D2E/DX2                !
 ! D17   D(1,2,31,33)          161.8962         estimate D2E/DX2                !
 ! D18   D(3,2,31,33)          -27.9459         estimate D2E/DX2                !
 ! D19   D(2,3,5,6)           -178.7332         estimate D2E/DX2                !
 ! D20   D(2,3,5,15)             3.9647         estimate D2E/DX2                !
 ! D21   D(4,3,5,6)              0.5657         estimate D2E/DX2                !
 ! D22   D(4,3,5,15)          -176.7364         estimate D2E/DX2                !
 ! D23   D(3,5,6,7)            179.5506         estimate D2E/DX2                !
 ! D24   D(3,5,6,16)            58.2974         estimate D2E/DX2                !
 ! D25   D(3,5,6,17)           -59.1281         estimate D2E/DX2                !
 ! D26   D(15,5,6,7)            -3.1004         estimate D2E/DX2                !
 ! D27   D(15,5,6,16)         -124.3536         estimate D2E/DX2                !
 ! D28   D(15,5,6,17)          118.2209         estimate D2E/DX2                !
 ! D29   D(3,5,32,33)          -26.1676         estimate D2E/DX2                !
 ! D30   D(6,5,32,33)          156.638          estimate D2E/DX2                !
 ! D31   D(5,6,7,8)            179.9537         estimate D2E/DX2                !
 ! D32   D(5,6,7,18)            58.2865         estimate D2E/DX2                !
 ! D33   D(5,6,7,19)           -58.3089         estimate D2E/DX2                !
 ! D34   D(16,6,7,8)           -59.0173         estimate D2E/DX2                !
 ! D35   D(16,6,7,18)          179.3155         estimate D2E/DX2                !
 ! D36   D(16,6,7,19)           62.7201         estimate D2E/DX2                !
 ! D37   D(17,6,7,8)            58.7281         estimate D2E/DX2                !
 ! D38   D(17,6,7,18)          -62.9391         estimate D2E/DX2                !
 ! D39   D(17,6,7,19)         -179.5344         estimate D2E/DX2                !
 ! D40   D(6,7,8,20)           -59.9784         estimate D2E/DX2                !
 ! D41   D(6,7,8,21)           179.9909         estimate D2E/DX2                !
 ! D42   D(6,7,8,22)            59.9444         estimate D2E/DX2                !
 ! D43   D(18,7,8,20)           61.2305         estimate D2E/DX2                !
 ! D44   D(18,7,8,21)          -58.8001         estimate D2E/DX2                !
 ! D45   D(18,7,8,22)         -178.8466         estimate D2E/DX2                !
 ! D46   D(19,7,8,20)          178.7701         estimate D2E/DX2                !
 ! D47   D(19,7,8,21)           58.7394         estimate D2E/DX2                !
 ! D48   D(19,7,8,22)          -61.3071         estimate D2E/DX2                !
 ! D49   D(1,9,10,11)           -0.2329         estimate D2E/DX2                !
 ! D50   D(1,9,10,24)         -179.8599         estimate D2E/DX2                !
 ! D51   D(23,9,10,11)         179.6535         estimate D2E/DX2                !
 ! D52   D(23,9,10,24)           0.0265         estimate D2E/DX2                !
 ! D53   D(9,10,11,12)           0.6049         estimate D2E/DX2                !
 ! D54   D(9,10,11,25)        -179.7801         estimate D2E/DX2                !
 ! D55   D(24,10,11,12)       -179.7795         estimate D2E/DX2                !
 ! D56   D(24,10,11,25)         -0.1645         estimate D2E/DX2                !
 ! D57   D(10,11,12,13)         -0.2744         estimate D2E/DX2                !
 ! D58   D(10,11,12,26)        179.2187         estimate D2E/DX2                !
 ! D59   D(25,11,12,13)       -179.8957         estimate D2E/DX2                !
 ! D60   D(25,11,12,26)         -0.4026         estimate D2E/DX2                !
 ! D61   D(10,11,25,28)       -179.6398         estimate D2E/DX2                !
 ! D62   D(10,11,25,29)        -59.693          estimate D2E/DX2                !
 ! D63   D(10,11,25,30)         60.4197         estimate D2E/DX2                !
 ! D64   D(12,11,25,28)         -0.0334         estimate D2E/DX2                !
 ! D65   D(12,11,25,29)        119.9134         estimate D2E/DX2                !
 ! D66   D(12,11,25,30)       -119.9739         estimate D2E/DX2                !
 ! D67   D(11,12,13,1)          -0.4246         estimate D2E/DX2                !
 ! D68   D(11,12,13,27)        178.898          estimate D2E/DX2                !
 ! D69   D(26,12,13,1)        -179.9205         estimate D2E/DX2                !
 ! D70   D(26,12,13,27)         -0.5979         estimate D2E/DX2                !
 ! D71   D(14,31,33,32)          5.3906         estimate D2E/DX2                !
 ! D72   D(14,31,33,34)       -174.6171         estimate D2E/DX2                !
 ! D73   D(15,32,33,31)         10.63           estimate D2E/DX2                !
 ! D74   D(15,32,33,34)       -169.3621         estimate D2E/DX2                !
 ! D75   D(31,33,34,35)        179.3031         estimate D2E/DX2                !
 ! D76   D(31,33,34,36)         55.6516         estimate D2E/DX2                !
 ! D77   D(31,33,34,37)        -57.1161         estimate D2E/DX2                !
 ! D78   D(32,33,34,35)         -0.7042         estimate D2E/DX2                !
 ! D79   D(32,33,34,36)       -124.3557         estimate D2E/DX2                !
 ! D80   D(32,33,34,37)        122.8766         estimate D2E/DX2                !
 ! D81   D(33,34,35,38)        -60.0496         estimate D2E/DX2                !
 ! D82   D(33,34,35,39)       -179.8997         estimate D2E/DX2                !
 ! D83   D(33,34,35,40)         60.2218         estimate D2E/DX2                !
 ! D84   D(36,34,35,38)         61.4913         estimate D2E/DX2                !
 ! D85   D(36,34,35,39)        -58.3589         estimate D2E/DX2                !
 ! D86   D(36,34,35,40)       -178.2374         estimate D2E/DX2                !
 ! D87   D(37,34,35,38)        178.501          estimate D2E/DX2                !
 ! D88   D(37,34,35,39)         58.6508         estimate D2E/DX2                !
 ! D89   D(37,34,35,40)        -61.2276         estimate D2E/DX2                !
 --------------------------------------------------------------------------------
 Trust Radius=3.00D-01 FncErr=1.00D-07 GrdErr=1.00D-06
 Number of steps in this run=    212 maximum allowed number of steps=    240.
 GradGradGradGradGradGradGradGradGradGradGradGradGradGradGradGradGradGrad

                          Input orientation:                          
 ---------------------------------------------------------------------
 Center     Atomic      Atomic             Coordinates (Angstroms)
 Number     Number       Type             X           Y           Z
 ---------------------------------------------------------------------
      1          6           0       -6.222322    1.280213   -0.103401
      2          7           0       -4.973389    0.679045   -0.076481
      3          6           0       -3.744701    1.314682   -0.022557
      4          8           0       -3.617408    2.543810    0.041308
      5          7           0       -2.697492    0.471473   -0.030832
      6          6           0       -1.333815    0.974294    0.048738
      7          6           0       -0.345470   -0.180927    0.031860
      8          6           0        1.090162    0.322886    0.113225
      9          6           0       -7.318896    0.459539    0.212987
     10          6           0       -8.600130    0.968628    0.182413
     11          6           0       -8.845104    2.302096   -0.155421
     12          6           0       -7.754512    3.105122   -0.474927
     13          6           0       -6.457673    2.614960   -0.457992
     14          1           0       -4.970670   -0.342287    0.056382
     15          1           0       -2.844099   -0.537108   -0.134929
     16          1           0       -1.210460    1.559355    0.965326
     17          1           0       -1.136826    1.647286   -0.791891
     18          1           0       -0.487327   -0.764620   -0.883157
     19          1           0       -0.557622   -0.850504    0.871301
     20          1           0        1.325195    0.976587   -0.730854
     21          1           0        1.800412   -0.506002    0.101321
     22          1           0        1.255267    0.891554    1.032147
     23          1           0       -7.154701   -0.577131    0.483703
     24         17           0       -9.913174   -0.107484    0.590661
     25          6           0      -10.230378    2.865476   -0.186888
     26          1           0       -7.918613    4.138945   -0.752650
     27          1           0       -5.640290    3.263682   -0.729105
     28          9           0      -10.239297    4.157747   -0.542239
     29          9           0      -11.032750    2.225981   -1.059781
     30          9           0      -10.847550    2.795847    1.008665
     31          8           0       -5.071588   -2.137575    0.348295
     32          8           0       -2.965090   -2.399332   -0.327510
     33          6           0       -4.070627   -2.855824    0.060426
     34          6           0       -4.248737   -4.363469    0.203431
     35          6           0       -3.032124   -5.197103   -0.166302
     36          1           0       -5.111928   -4.641352   -0.408886
     37          1           0       -4.548489   -4.550593    1.239139
     38          1           0       -2.741993   -5.036270   -1.206608
     39          1           0       -3.243070   -6.260971   -0.038186
     40          1           0       -2.174150   -4.947746    0.461291
 ---------------------------------------------------------------------
                    Distance matrix (angstroms):
                    1          2          3          4          5
     1  C    0.000000
     2  N    1.386348   0.000000
     3  C    2.479179   1.384419   0.000000
     4  O    2.898826   2.308659   1.237351   0.000000
     5  N    3.617148   2.285800   1.344514   2.268487   0.000000
     6  C    4.900432   3.653677   2.435840   2.770963   1.455601
     7  C    6.057278   4.708389   3.714106   4.257918   2.441631
     8  C    7.378064   6.076964   4.937408   5.205660   3.793303
     9  C    1.405732   2.373473   3.682610   4.251432   4.627847
    10  C    2.415108   3.647483   4.872059   5.227679   5.927375
    11  C    2.815304   4.198893   5.196802   5.236977   6.415594
    12  C    2.411624   3.712042   4.414623   4.206804   5.718985
    13  C    1.400955   2.469092   3.039826   2.884695   4.349249
    14  H    2.055401   1.029941   2.062711   3.187648   2.416020
    15  H    3.836150   2.452820   2.062241   3.181372   1.024483
    16  H    5.132140   4.002492   2.730962   2.759776   2.094536
    17  H    5.145001   4.021010   2.739254   2.766092   2.097004
    18  H    6.138365   4.781177   3.959118   4.647339   2.671930
    19  H    6.130158   4.768314   3.955312   4.644627   2.672174
    20  H    7.579637   6.339471   5.130286   5.242304   4.114265
    21  H    8.221724   6.878978   5.837681   6.217535   4.604787
    22  H    7.573299   6.330117   5.127487   5.239721   4.114692
    23  H    2.159572   2.578741   3.932348   4.737978   4.607715
    24  Cl   4.003724   5.046303   6.359925   6.853306   7.265501
    25  C    4.310979   5.694611   6.670530   6.624719   7.905693
    26  H    3.386927   4.593741   5.092253   4.655662   6.421174
    27  H    2.159725   2.747912   2.809104   2.281184   4.116319
    28  F    4.960733   6.328356   7.108648   6.840668   8.410053
    29  F    4.994933   6.330541   7.417679   7.503380   8.579835
    30  F    4.992652   6.337520   7.328556   7.298922   8.538544
    31  O    3.634487   2.850162   3.717020   4.911644   3.547844
    32  O    4.919232   3.684113   3.807189   4.999620   2.898474
    33  C    4.665130   3.650893   4.184045   5.418655   3.600657
    34  C    5.986680   5.102002   5.704956   6.937966   5.083100
    35  C    7.220592   6.189160   6.552235   7.765784   5.680061
    36  H    6.032514   5.332570   6.123145   7.352742   5.666869
    37  H    6.213086   5.409299   6.053050   7.254811   5.500924
    38  H    7.295733   6.238681   6.537736   7.731834   5.632021
    39  H    8.108616   7.152573   7.592259   8.813094   6.754518
    40  H    7.449433   6.307592   6.474469   7.640864   5.466627
                    6          7          8          9         10
     6  C    0.000000
     7  C    1.520410   0.000000
     8  C    2.510807   1.523642   0.000000
     9  C    6.009421   7.005118   8.410759   0.000000
    10  C    7.267547   8.335680   9.712030   1.379010   0.000000
    11  C    7.630479   8.856876  10.134049   2.420755   1.397240
    12  C    6.785279   8.120890   9.290588   2.768050   2.389932
    13  C    5.403932   6.739137   7.908837   2.416146   2.776806
    14  H    3.867836   4.628079   6.097488   2.486286   3.861006
    15  H    2.144534   2.529393   4.034795   4.597626   5.958175
    16  H    1.094370   2.155956   2.747324   6.252087   7.454471
    17  H    1.094706   2.155731   2.744585   6.374834   7.557166
    18  H    2.146810   1.094568   2.159611   7.026409   8.364040
    19  H    2.146852   1.094533   2.160258   6.918412   8.274403
    20  H    2.770939   2.170874   1.093177   8.710825   9.967256
    21  H    3.466615   2.171476   1.091629   9.170961  10.504875
    22  H    2.770791   2.170978   1.093188   8.624032   9.892261
    23  H    6.039771   6.835698   8.302111   1.083943   2.137618
    24  Cl   8.664255   9.584289  11.022094   2.682243   1.746072
    25  C    9.098402  10.346005  11.606440   3.798047   2.528265
    26  H    7.349613   8.753813   9.821918   3.850992   3.374865
    27  H    4.938833   6.362352   7.393023   3.401246   3.854710
    28  F    9.475824  10.818572  11.978833   4.772406   3.658206
    29  F    9.841996  11.009217  12.327316   4.304994   3.006929
    30  F    9.733996  10.959426  12.224006   4.306140   3.012029
    31  O    4.872823   5.124918   6.638997   3.437107   4.703895
    32  O    3.766162   3.451504   4.904058   5.236497   6.584592
    33  C    4.707449   4.586140   6.061412   4.643938   5.929394
    34  C    6.083783   5.723512   7.104498   5.717287   6.882320
    35  C    6.404423   5.693804   6.895046   7.107593   8.315079
    36  H    6.783733   6.542841   7.961293   5.592541   6.632425
    37  H    6.501966   6.181980   7.537431   5.816319   6.927790
    38  H    6.299661   5.554410   6.719220   7.291585   8.503291
    39  H    7.483439   6.735572   7.883336   7.863886   9.000770
    40  H    5.995575   5.123577   6.209383   7.467851   8.739250
                   11         12         13         14         15
    11  C    0.000000
    12  C    1.391519   0.000000
    13  C    2.426780   1.386484   0.000000
    14  H    4.695622   4.462813   3.349787   0.000000
    15  H    6.638793   6.123202   4.806020   2.144029   0.000000
    16  H    7.752131   6.876652   5.538355   4.310638   2.876542
    17  H    7.762179   6.783769   5.418422   4.401855   2.849203
    18  H    8.932345   8.243393   6.873671   4.600159   2.483139
    19  H    8.926109   8.321932   6.970443   4.516345   2.517676
    20  H   10.272443   9.329375   7.958125   6.480515   4.475423
    21  H   11.012645  10.230780   8.845858   6.773210   4.650620
    22  H   10.267300   9.399323   8.042393   6.421586   4.495324
    23  H    3.399396   3.851978   3.400307   2.237800   4.354952
    24  Cl   2.739249   4.014490   4.522373   4.976840   7.119191
    25  C    1.495784   2.504058   3.790720   6.165505   8.132490
    26  H    2.142214   1.082981   2.131595   5.424605   6.928041
    27  H    3.394789   2.135341   1.078173   3.750786   4.755811
    28  F    2.353050   2.699390   4.085092   6.954646   8.769067
    29  F    2.368429   3.444095   4.630852   6.677623   8.691607
    30  F    2.368265   3.444355   4.631936   6.729967   8.744807
    31  O    5.848404   5.946566   5.015767   1.821663   2.785086
    32  O    7.530445   7.297898   6.112143   2.898475   1.876061
    33  C    7.031810   7.027837   5.991346   2.669824   2.630395
    34  C    8.104636   8.278314   7.349514   4.088119   4.090053
    35  C    9.488353   9.556315   8.535093   5.232283   4.663892
    36  H    7.887478   8.185076   7.380210   4.326475   4.697118
    37  H    8.207621   8.475057   7.607259   4.391696   4.571769
    38  H    9.602321   9.588690   8.538620   5.347487   4.626162
    39  H   10.233408  10.405170   9.449448   6.166390   5.738566
    40  H    9.871280   9.842034   8.740033   5.403215   4.500893
                   16         17         18         19         20
    16  H    0.000000
    17  H    1.760955   0.000000
    18  H    3.056251   2.499494   0.000000
    19  H    2.498491   3.056247   1.757965   0.000000
    20  H    3.105832   2.552471   2.517982   3.074111   0.000000
    21  H    3.752007   3.749913   2.503963   2.504371   1.765338
    22  H    2.555432   3.101670   3.073750   2.519365   1.766436
    23  H    6.334867   6.541406   6.808622   6.614108   8.706195
    24  Cl   8.868819   9.056210   9.562978   9.389206  11.367609
    25  C    9.186537   9.194710  10.420625  10.415877  11.721564
    26  H    7.389523   7.225132   8.904268   9.039691   9.769799
    27  H    5.039764   4.785171   6.542475   6.732113   7.331356
    28  F    9.515477   9.445619  10.929174  10.991612  11.995534
    29  F   10.051012   9.916449  10.962702  11.087027  12.425296
    30  F    9.716188   9.942805  11.117111  10.917756  12.430260
    31  O    5.381108   5.577414   4.941348   4.722920   7.195929
    32  O    4.518999   4.464675   3.019990   3.103534   5.474127
    33  C    5.337902   5.441657   4.254823   4.125534   6.665462
    34  C    6.700108   6.841333   5.317950   5.139193   7.775462
    35  C    7.088636   7.129459   5.161083   5.108102   7.577559
    36  H    7.453769   7.449503   6.053174   6.062270   8.549939
    37  H    6.967702   7.360587   5.943969   5.454630   8.302455
    38  H    7.110917   6.886107   4.840984   5.158470   7.274806
    39  H    8.142237   8.218569   6.206285   6.108351   8.586681
    40  H    6.597356   6.792714   4.706533   4.423648   6.983147
                   21         22         23         24         25
    21  H    0.000000
    22  H    1.765442   0.000000
    23  H    8.963556   8.554846   0.000000
    24  Cl  11.730574  11.221722   2.800210   0.000000
    25  C   12.497593  11.717613   4.664871   3.089286   0.000000
    26  H   10.805751   9.893995   4.934927   4.880052   2.699271
    27  H    8.382373   7.501847   4.303044   5.600363   4.639124
    28  F   12.927465  12.052872   5.743376   4.425157   1.340268
    29  F   13.172014  12.536037   5.027827   3.069604   1.347107
    30  F   13.103299  12.251738   5.028887   3.078493   1.347255
    31  O    7.067348   7.047862   2.606277   5.255565   7.206251
    32  O    5.145737   5.521776   4.640186   7.373701   8.973426
    33  C    6.323957   6.584241   3.857864   6.478416   8.410527
    34  C    7.175143   7.654808   4.781165   7.095717   9.390954
    35  C    6.740286   7.542529   6.225937   8.592210  10.808352
    36  H    8.071052   8.557499   4.635464   6.678848   9.088469
    37  H    7.613271   7.958856   4.811593   6.995826   9.450688
    38  H    6.547323   7.491942   6.497158   8.885322  10.934044
    39  H    7.653486   8.516998   6.919484   9.096765  11.495069
    40  H    5.971249   6.795896   6.626362   9.128930  11.241414
                   26         27         28         29         30
    26  H    0.000000
    27  H    2.440778   0.000000
    28  F    2.330279   4.688831   0.000000
    29  F    3.667643   5.501345   2.151543   0.000000
    30  F    3.672167   5.509471   2.151754   2.153489   0.000000
    31  O    6.979422   5.536947   8.193251   7.520556   7.624729
    32  O    8.213842   6.275962   9.795687   9.328284   9.534592
    33  C    8.024642   6.366753   9.359801   8.691994   8.875091
    34  C    9.309840   7.808936  10.442891   9.541457   9.769778
    35  C   10.553832   8.871537  11.815156  10.950366  11.240494
    36  H    9.224384   7.929140  10.184883   9.090658   9.498355
    37  H    9.530636   8.131968  10.554326   9.656741   9.679953
    38  H   10.544574   8.804393  11.881958  11.022636  11.486930
    39  H   11.424947   9.845966  12.559895  11.565082  11.872236
    40  H   10.818524   8.992148  12.205068  11.500036  11.640049
                   31         32         33         34         35
    31  O    0.000000
    32  O    2.227681   0.000000
    33  C    1.265177   1.257414   0.000000
    34  C    2.377535   2.405718   1.524850   0.000000
    35  C    3.712807   2.803213   2.571281   1.520459   0.000000
    36  H    2.616075   3.105187   2.119593   1.094190   2.166401
    37  H    2.624861   3.096686   2.118953   1.094330   2.166242
    38  H    4.030778   2.788552   2.850436   2.170518   1.091915
    39  H    4.527167   3.882427   3.505653   2.161078   1.092120
    40  H    4.037942   2.782482   2.851922   2.170664   1.091866
                   36         37         38         39         40
    36  H    0.000000
    37  H    1.744044   0.000000
    38  H    2.531584   3.079122   0.000000
    39  H    2.500643   2.502213   1.765271   0.000000
    40  H    3.079226   2.529875   1.764134   1.765397   0.000000
 Stoichiometry    C14H17ClF3N2O3(1-)
 Framework group  C1[X(C14H17ClF3N2O3)]
 Deg. of freedom   114
 Full point group                 C1      NOp   1
 Largest Abelian subgroup         C1      NOp   1
 Largest concise Abelian subgroup C1      NOp   1
                         Standard orientation:                         
 ---------------------------------------------------------------------
 Center     Atomic      Atomic             Coordinates (Angstroms)
 Number     Number       Type             X           Y           Z
 ---------------------------------------------------------------------
      1          6           0        0.663626   -0.640617   -0.061778
      2          7           0       -0.722299   -0.610688   -0.045150
      3          6           0       -1.576952   -1.694288    0.064370
      4          8           0       -1.183338   -2.859927    0.196248
      5          7           0       -2.879508   -1.362870    0.029338
      6          6           0       -3.912238   -2.380340    0.159720
      7          6           0       -5.290601   -1.741595    0.098341
      8          6           0       -6.388402   -2.789688    0.231833
      9          6           0        1.319009    0.577063    0.190832
     10          6           0        2.696154    0.643956    0.165053
     11          6           0        3.474275   -0.484686   -0.105086
     12          6           0        2.817035   -1.684031   -0.361860
     13          6           0        1.433627   -1.775348   -0.348409
     14          1           0       -1.149245    0.323346    0.032811
     15          1           0       -3.163816   -0.391812   -0.131227
     16          1           0       -3.787513   -2.911511    1.108374
     17          1           0       -3.807083   -3.120416   -0.640037
     18          1           0       -5.397934   -1.203909   -0.848998
     19          1           0       -5.380536   -0.998403    0.896827
     20          1           0       -6.325843   -3.528203   -0.571732
     21          1           0       -7.378399   -2.331823    0.188018
     22          1           0       -6.308479   -3.323143    1.182674
     23          1           0        0.737916    1.465831    0.408445
     24         17           0        3.441974    2.188529    0.491878
     25          6           0        4.968610   -0.424036   -0.130678
     26          1           0        3.396905   -2.570644   -0.586619
     27          1           0        0.960672   -2.718583   -0.569943
     28          9           0        5.514968   -1.614077   -0.416360
     29          9           0        5.438867    0.440461   -1.050569
     30          9           0        5.493837   -0.037966    1.048383
     31          8           0       -1.803915    2.012262    0.226266
     32          8           0       -3.824966    1.339062   -0.425436
     33          6           0       -3.010814    2.233668   -0.082032
     34          6           0       -3.475007    3.684954   -0.023189
     35          6           0       -4.925478    3.917198   -0.415611
     36          1           0       -2.801041    4.260802   -0.664610
     37          1           0       -3.286340    4.037228    0.995568
     38          1           0       -5.116268    3.592534   -1.440536
     39          1           0       -5.175624    4.978160   -0.348427
     40          1           0       -5.606624    3.370280    0.239440
 ---------------------------------------------------------------------
 Rotational constants (GHZ):      0.3529870      0.0966989      0.0776531
 Standard basis: 6-311+G(d) (5D, 7F)
 There are   588 symmetry adapted cartesian basis functions of A   symmetry.
 There are   565 symmetry adapted basis functions of A   symmetry.
   565 basis functions,   930 primitive gaussians,   588 cartesian basis functions
    92 alpha electrons       92 beta electrons
       nuclear repulsion energy      2086.2034891749 Hartrees.
 NAtoms=   40 NActive=   40 NUniq=   40 SFac= 1.00D+00 NAtFMM=   60 NAOKFM=F Big=F
 Integral buffers will be    131072 words long.
 Raffenetti 2 integral format.
 Two-electron integral symmetry is turned on.
 Nuclear repulsion after empirical dispersion term =     2086.2011369538 Hartrees.
 ------------------------------------------------------------------------------
 Polarizable Continuum Model (PCM)
 =================================
 Model                : PCM (using non-symmetric T matrix).
 Atomic radii         : SMD-Coulomb.
 Polarization charges : Total charges.
 Charge compensation  : None.
 Solution method      : On-the-fly selection.
 Cavity type          : VdW (van der Waals Surface) (Alpha=1.000).
 Cavity algorithm     : GePol (No added spheres)
                        Default sphere list used, NSphG=   40.
                        Lebedev-Laikov grids with approx.  5.0 points / Ang**2.
                        Smoothing algorithm: York/Karplus (Gamma=1.0000).
                        Polarization charges: spherical gaussians, with
                                              point-specific exponents (IZeta= 3).
                        Self-potential: point-specific (ISelfS= 7).
                        Self-field    : sphere-specific E.n sum rule (ISelfD= 2).
 1st derivatives      : Analytical E(r).r(x)/FMM algorithm (CHGder, D1EAlg=3).
                        Cavity 1st derivative terms included.
 Solvent              : Water, Eps=  78.355300 Eps(inf)=   1.777849
 ------------------------------------------------------------------------------
 ------------------------------------------------------------------------------
 Atomic radii for non-electrostatic terms: SMD-CDS.
 ------------------------------------------------------------------------------
 Nuclear repulsion after PCM non-electrostatic terms =     2086.2157516570 Hartrees.
 One-electron integrals computed using PRISM.
 NBasis=   565 RedAO= T EigKep=  1.37D-06  NBF=   565
 NBsUse=   563 1.00D-06 EigRej=  8.56D-07 NBFU=   563
 ExpMin= 4.38D-02 ExpMax= 1.06D+05 ExpMxC= 3.62D+03 IAcc=3 IRadAn=         5 AccDes= 0.00D+00
 Harris functional with IExCor= 1009 and IRadAn=       5 diagonalized for initial guess.
 HarFok:  IExCor= 1009 AccDes= 0.00D+00 IRadAn=         5 IDoV= 1 UseB2=F ITyADJ=14
 ICtDFT=  3500011 ScaDFX=  1.000000  1.000000  1.000000  1.000000
 FoFCou: FMM=F IPFlag=           0 FMFlag=      100000 FMFlg1=           0
         NFxFlg=           0 DoJE=T BraDBF=F KetDBF=T FulRan=T
         wScrn=  0.000000 ICntrl=     500 IOpCl=  0 I1Cent=   200000004 NGrid=           0
         NMat0=    1 NMatS0=      1 NMatT0=    0 NMatD0=    1 NMtDS0=    0 NMtDT0=    0
 Petite list used in FoFCou.
 Requested convergence on RMS density matrix=1.00D-08 within 128 cycles.
 Requested convergence on MAX density matrix=1.00D-06.
 Requested convergence on             energy=1.00D-06.
 No special actions if energy rises.
 Inv3:  Mode=1 IEnd=    29203200.
 Iteration    1 A*A^-1 deviation from unit magnitude is 5.77D-15 for   3119.
 Iteration    1 A*A^-1 deviation from orthogonality  is 3.43D-15 for   2317    862.
 Iteration    1 A^-1*A deviation from unit magnitude is 5.77D-15 for   3119.
 Iteration    1 A^-1*A deviation from orthogonality  is 1.01D-07 for   2474   2455.
 Iteration    2 A*A^-1 deviation from unit magnitude is 3.00D-15 for    615.
 Iteration    2 A*A^-1 deviation from orthogonality  is 3.42D-15 for   2467    126.
 Iteration    2 A^-1*A deviation from unit magnitude is 9.99D-16 for    346.
 Iteration    2 A^-1*A deviation from orthogonality  is 3.42D-16 for   2216    305.
 Error on total polarization charges =  0.06010
 SCF Done:  E(RM062X) =  -1638.74769591     A.U. after   15 cycles
            NFock= 15  Conv=0.39D-08     -V/T= 2.0030
 SMD-CDS (non-electrostatic) energy       (kcal/mol) =       9.17
 (included in total energy above)

 **********************************************************************

            Population analysis using the SCF density.

 **********************************************************************

 Orbital symmetries:
       Occupied  (A) (A) (A) (A) (A) (A) (A) (A) (A) (A) (A) (A)
                 (A) (A) (A) (A) (A) (A) (A) (A) (A) (A) (A) (A)
                 (A) (A) (A) (A) (A) (A) (A) (A) (A) (A) (A) (A)
                 (A) (A) (A) (A) (A) (A) (A) (A) (A) (A) (A) (A)
                 (A) (A) (A) (A) (A) (A) (A) (A) (A) (A) (A) (A)
                 (A) (A) (A) (A) (A) (A) (A) (A) (A) (A) (A) (A)
                 (A) (A) (A) (A) (A) (A) (A) (A) (A) (A) (A) (A)
                 (A) (A) (A) (A) (A) (A) (A) (A)
       Virtual   (A) (A) (A) (A) (A) (A) (A) (A) (A) (A) (A) (A)
                 (A) (A) (A) (A) (A) (A) (A) (A) (A) (A) (A) (A)
                 (A) (A) (A) (A) (A) (A) (A) (A) (A) (A) (A) (A)
                 (A) (A) (A) (A) (A) (A) (A) (A) (A) (A) (A) (A)
                 (A) (A) (A) (A) (A) (A) (A) (A) (A) (A) (A) (A)
                 (A) (A) (A) (A) (A) (A) (A) (A) (A) (A) (A) (A)
                 (A) (A) (A) (A) (A) (A) (A) (A) (A) (A) (A) (A)
                 (A) (A) (A) (A) (A) (A) (A) (A) (A) (A) (A) (A)
                 (A) (A) (A) (A) (A) (A) (A) (A) (A) (A) (A) (A)
                 (A) (A) (A) (A) (A) (A) (A) (A) (A) (A) (A) (A)
                 (A) (A) (A) (A) (A) (A) (A) (A) (A) (A) (A) (A)
                 (A) (A) (A) (A) (A) (A) (A) (A) (A) (A) (A) (A)
                 (A) (A) (A) (A) (A) (A) (A) (A) (A) (A) (A) (A)
                 (A) (A) (A) (A) (A) (A) (A) (A) (A) (A) (A) (A)
                 (A) (A) (A) (A) (A) (A) (A) (A) (A) (A) (A) (A)
                 (A) (A) (A) (A) (A) (A) (A) (A) (A) (A) (A) (A)
                 (A) (A) (A) (A) (A) (A) (A) (A) (A) (A) (A) (A)
                 (A) (A) (A) (A) (A) (A) (A) (A) (A) (A) (A) (A)
                 (A) (A) (A) (A) (A) (A) (A) (A) (A) (A) (A) (A)
                 (A) (A) (A) (A) (A) (A) (A) (A) (A) (A) (A) (A)
                 (A) (A) (A) (A) (A) (A) (A) (A) (A) (A) (A) (A)
                 (A) (A) (A) (A) (A) (A) (A) (A) (A) (A) (A) (A)
                 (A) (A) (A) (A) (A) (A) (A) (A) (A) (A) (A) (A)
                 (A) (A) (A) (A) (A) (A) (A) (A) (A) (A) (A) (A)
                 (A) (A) (A) (A) (A) (A) (A) (A) (A) (A) (A) (A)
                 (A) (A) (A) (A) (A) (A) (A) (A) (A) (A) (A) (A)
                 (A) (A) (A) (A) (A) (A) (A) (A) (A) (A) (A) (A)
                 (A) (A) (A) (A) (A) (A) (A) (A) (A) (A) (A) (A)
                 (A) (A) (A) (A) (A) (A) (A) (A) (A) (A) (A) (A)
                 (A) (A) (A) (A) (A) (A) (A) (A) (A) (A) (A) (A)
                 (A) (A) (A) (A) (A) (A) (A) (A) (A) (A) (A) (A)
                 (A) (A) (A) (A) (A) (A) (A) (A) (A) (A) (A) (A)
                 (A) (A) (A) (A) (A) (A) (A) (A) (A) (A) (A) (A)
                 (A) (A) (A) (A) (A) (A) (A) (A) (A) (A) (A) (A)
                 (A) (A) (A) (A) (A) (A) (A) (A) (A) (A) (A) (A)
                 (A) (A) (A) (A) (A) (A) (A) (A) (A) (A) (A) (A)
                 (A) (A) (A) (A) (A) (A) (A) (A) (A) (A) (A) (A)
                 (A) (A) (A) (A) (A) (A) (A) (A) (A) (A) (A) (A)
                 (A) (A) (A) (A) (A) (A) (A) (A) (A) (A) (A) (A)
                 (A) (A) (A)
 The electronic state is 1-A.
 Alpha  occ. eigenvalues -- -102.68797 -25.28504 -25.28056 -25.28054 -19.59369
 Alpha  occ. eigenvalues --  -19.57939 -19.57635 -14.77367 -14.75566 -10.81027
 Alpha  occ. eigenvalues --  -10.67615 -10.63889 -10.62746 -10.61153 -10.57769
 Alpha  occ. eigenvalues --  -10.56660 -10.56121 -10.55973 -10.54988 -10.52690
 Alpha  occ. eigenvalues --  -10.52472 -10.51550 -10.51357  -9.83084  -7.55596
 Alpha  occ. eigenvalues --   -7.54922  -7.54906  -1.47611  -1.38277  -1.37839
 Alpha  occ. eigenvalues --   -1.17884  -1.16705  -1.06874  -1.05932  -1.02753
 Alpha  occ. eigenvalues --   -1.00877  -0.94786  -0.89675  -0.87275  -0.85745
 Alpha  occ. eigenvalues --   -0.84882  -0.81341  -0.77632  -0.73243  -0.72767
 Alpha  occ. eigenvalues --   -0.72129  -0.69958  -0.69595  -0.68121  -0.67665
 Alpha  occ. eigenvalues --   -0.65388  -0.63015  -0.61082  -0.58921  -0.58255
 Alpha  occ. eigenvalues --   -0.58166  -0.55659  -0.55316  -0.54871  -0.54265
 Alpha  occ. eigenvalues --   -0.53960  -0.53318  -0.52991  -0.52894  -0.51976
 Alpha  occ. eigenvalues --   -0.51917  -0.51600  -0.50703  -0.50385  -0.49645
 Alpha  occ. eigenvalues --   -0.48397  -0.46490  -0.46281  -0.45527  -0.45422
 Alpha  occ. eigenvalues --   -0.44340  -0.43315  -0.42155  -0.41763  -0.41464
 Alpha  occ. eigenvalues --   -0.39688  -0.39489  -0.39084  -0.38999  -0.38124
 Alpha  occ. eigenvalues --   -0.35895  -0.34006  -0.32949  -0.32506  -0.32341
 Alpha  occ. eigenvalues --   -0.31612  -0.27848
 Alpha virt. eigenvalues --   -0.00489   0.00181   0.01199   0.02185   0.02550
 Alpha virt. eigenvalues --    0.03262   0.03308   0.03477   0.04349   0.04601
 Alpha virt. eigenvalues --    0.04882   0.05111   0.05433   0.05935   0.06262
 Alpha virt. eigenvalues --    0.06532   0.06976   0.07201   0.07464   0.07775
 Alpha virt. eigenvalues --    0.07974   0.08201   0.08649   0.09196   0.09365
 Alpha virt. eigenvalues --    0.09746   0.09946   0.10230   0.10543   0.10630
 Alpha virt. eigenvalues --    0.11348   0.11881   0.12221   0.12487   0.12877
 Alpha virt. eigenvalues --    0.13360   0.13609   0.13816   0.14300   0.14799
 Alpha virt. eigenvalues --    0.15321   0.15699   0.16714   0.17006   0.17115
 Alpha virt. eigenvalues --    0.17583   0.17900   0.18672   0.18898   0.18990
 Alpha virt. eigenvalues --    0.19305   0.19852   0.20159   0.20610   0.20853
 Alpha virt. eigenvalues --    0.20967   0.21471   0.21614   0.21741   0.22200
 Alpha virt. eigenvalues --    0.22561   0.23026   0.23179   0.23644   0.23956
 Alpha virt. eigenvalues --    0.24223   0.24255   0.24753   0.24964   0.25176
 Alpha virt. eigenvalues --    0.25497   0.25794   0.26332   0.26437   0.26892
 Alpha virt. eigenvalues --    0.27006   0.27372   0.27677   0.27870   0.28210
 Alpha virt. eigenvalues --    0.28325   0.28619   0.28910   0.29287   0.29494
 Alpha virt. eigenvalues --    0.29724   0.30033   0.30409   0.30540   0.31494
 Alpha virt. eigenvalues --    0.31673   0.32126   0.32511   0.32661   0.32902
 Alpha virt. eigenvalues --    0.33267   0.33558   0.33780   0.34208   0.34300
 Alpha virt. eigenvalues --    0.34563   0.34835   0.35662   0.36171   0.36582
 Alpha virt. eigenvalues --    0.36887   0.37314   0.37881   0.38313   0.38512
 Alpha virt. eigenvalues --    0.38896   0.39946   0.40149   0.40457   0.41107
 Alpha virt. eigenvalues --    0.42198   0.42663   0.43039   0.43344   0.44117
 Alpha virt. eigenvalues --    0.44661   0.44930   0.45079   0.45966   0.46808
 Alpha virt. eigenvalues --    0.46844   0.47555   0.48861   0.49522   0.49670
 Alpha virt. eigenvalues --    0.50175   0.50709   0.51037   0.51673   0.52345
 Alpha virt. eigenvalues --    0.53250   0.54368   0.54822   0.55352   0.55484
 Alpha virt. eigenvalues --    0.56344   0.57274   0.57904   0.58217   0.59172
 Alpha virt. eigenvalues --    0.60453   0.60915   0.61501   0.62169   0.63056
 Alpha virt. eigenvalues --    0.63536   0.64128   0.65275   0.65335   0.66395
 Alpha virt. eigenvalues --    0.67399   0.67547   0.68144   0.69069   0.69380
 Alpha virt. eigenvalues --    0.70553   0.70656   0.71136   0.71444   0.72129
 Alpha virt. eigenvalues --    0.72559   0.72773   0.73827   0.73856   0.74250
 Alpha virt. eigenvalues --    0.74965   0.75170   0.75861   0.76112   0.76626
 Alpha virt. eigenvalues --    0.76913   0.77407   0.78358   0.79423   0.79749
 Alpha virt. eigenvalues --    0.80047   0.80522   0.81097   0.82042   0.82475
 Alpha virt. eigenvalues --    0.84134   0.85141   0.85768   0.87800   0.89372
 Alpha virt. eigenvalues --    0.89617   0.91353   0.91536   0.93174   0.93660
 Alpha virt. eigenvalues --    0.94304   0.95303   0.96205   0.96328   0.96811
 Alpha virt. eigenvalues --    0.97316   0.97710   0.99414   0.99878   1.01523
 Alpha virt. eigenvalues --    1.02997   1.04168   1.04935   1.05715   1.06064
 Alpha virt. eigenvalues --    1.07662   1.08112   1.08742   1.10771   1.11625
 Alpha virt. eigenvalues --    1.12736   1.13312   1.14004   1.16339   1.16981
 Alpha virt. eigenvalues --    1.18033   1.19255   1.20129   1.21604   1.22269
 Alpha virt. eigenvalues --    1.23346   1.24045   1.25428   1.25843   1.27485
 Alpha virt. eigenvalues --    1.28453   1.29573   1.29826   1.30471   1.32643
 Alpha virt. eigenvalues --    1.33335   1.33992   1.35762   1.38087   1.38791
 Alpha virt. eigenvalues --    1.40164   1.40730   1.42059   1.44024   1.44884
 Alpha virt. eigenvalues --    1.45720   1.46655   1.48113   1.48759   1.49952
 Alpha virt. eigenvalues --    1.50714   1.50905   1.53158   1.53436   1.53640
 Alpha virt. eigenvalues --    1.54663   1.55117   1.57181   1.57678   1.58524
 Alpha virt. eigenvalues --    1.58855   1.59810   1.60258   1.62172   1.62237
 Alpha virt. eigenvalues --    1.62895   1.63357   1.64391   1.64870   1.65995
 Alpha virt. eigenvalues --    1.67883   1.69692   1.70503   1.73679   1.75393
 Alpha virt. eigenvalues --    1.75490   1.77149   1.78161   1.78763   1.79083
 Alpha virt. eigenvalues --    1.80212   1.80754   1.81730   1.82017   1.83411
 Alpha virt. eigenvalues --    1.84855   1.85706   1.86095   1.87963   1.88259
 Alpha virt. eigenvalues --    1.88745   1.92302   1.93074   1.93331   1.95421
 Alpha virt. eigenvalues --    1.96490   1.98051   1.99627   2.00163   2.01690
 Alpha virt. eigenvalues --    2.04325   2.08554   2.09145   2.10046   2.11080
 Alpha virt. eigenvalues --    2.13103   2.15950   2.16968   2.17438   2.21015
 Alpha virt. eigenvalues --    2.23137   2.24605   2.26693   2.28514   2.31305
 Alpha virt. eigenvalues --    2.31972   2.34863   2.36828   2.37738   2.40134
 Alpha virt. eigenvalues --    2.42971   2.45922   2.47193   2.50558   2.54744
 Alpha virt. eigenvalues --    2.54912   2.56329   2.56726   2.57399   2.58629
 Alpha virt. eigenvalues --    2.59629   2.60125   2.60813   2.61676   2.61931
 Alpha virt. eigenvalues --    2.62590   2.66342   2.66866   2.68327   2.70210
 Alpha virt. eigenvalues --    2.72001   2.73319   2.76103   2.81235   2.82691
 Alpha virt. eigenvalues --    2.84700   2.86684   2.86779   2.91124   2.92401
 Alpha virt. eigenvalues --    2.93948   2.94883   2.95368   2.98087   2.99621
 Alpha virt. eigenvalues --    3.00532   3.01132   3.01658   3.02659   3.03706
 Alpha virt. eigenvalues --    3.04946   3.08329   3.09574   3.10677   3.11510
 Alpha virt. eigenvalues --    3.13449   3.16263   3.18847   3.21618   3.23555
 Alpha virt. eigenvalues --    3.25364   3.25747   3.26724   3.29024   3.30747
 Alpha virt. eigenvalues --    3.31199   3.31812   3.34415   3.35887   3.39124
 Alpha virt. eigenvalues --    3.40027   3.40487   3.40852   3.41879   3.43417
 Alpha virt. eigenvalues --    3.45256   3.45769   3.51598   3.59851   3.62492
 Alpha virt. eigenvalues --    3.67722   3.69779   3.71452   3.75454   3.78473
 Alpha virt. eigenvalues --    3.80006   3.82337   3.83744   3.84058   3.85090
 Alpha virt. eigenvalues --    3.86347   3.86926   3.88151   3.88552   3.97047
 Alpha virt. eigenvalues --    4.00236   4.00916   4.01614   4.01994   4.05234
 Alpha virt. eigenvalues --    4.06337   4.08354   4.13330   4.20418   4.21811
 Alpha virt. eigenvalues --    4.22476   4.26613   4.30902   4.63766   4.67865
 Alpha virt. eigenvalues --    4.77097   4.82021   4.92687   4.97565   5.01363
 Alpha virt. eigenvalues --    5.19201   5.19712   5.20999   5.22942   5.39101
 Alpha virt. eigenvalues --    5.40745   5.42744   5.74456   5.89545   6.01474
 Alpha virt. eigenvalues --    6.44316   6.48507   6.49869   6.52481   6.54862
 Alpha virt. eigenvalues --    6.57658   6.63251   6.85859   6.90338   9.99807
 Alpha virt. eigenvalues --   23.45629  23.61352  23.63574  23.66128  23.76202
 Alpha virt. eigenvalues --   23.81766  23.83209  23.90879  23.94018  23.95336
 Alpha virt. eigenvalues --   23.99418  24.08544  24.12640  24.20286  25.95577
 Alpha virt. eigenvalues --   26.32381  26.82336  35.64420  35.73679  50.06390
 Alpha virt. eigenvalues --   50.14907  50.15318  66.88451  66.91306  66.96961
 Alpha virt. eigenvalues --  216.10745
          Condensed to atoms (all electrons):
               1          2          3          4          5          6
     1  C   17.956098   0.184310  -1.026791  -0.067651  -0.225744  -0.527766
     2  N    0.184310   8.045072   0.487036  -0.134668  -0.533690  -0.434554
     3  C   -1.026791   0.487036   7.972606   0.650208   0.179651  -1.123443
     4  O   -0.067651  -0.134668   0.650208   8.316488  -0.161062  -0.103591
     5  N   -0.225744  -0.533690   0.179651  -0.161062   7.857641   0.445892
     6  C   -0.527766  -0.434554  -1.123443  -0.103591   0.445892   8.412385
     7  C   -0.030659   0.039743   0.230886   0.022576  -0.058235  -0.978626
     8  C   -0.011506  -0.017111  -0.227327  -0.001361  -0.045079   0.360190
     9  C    1.970050  -0.100758  -0.526761  -0.025421  -0.126001  -0.103787
    10  C   -3.896007  -0.066676  -0.878350  -0.008759   0.013654  -0.048665
    11  C   -2.524543  -0.058547   0.056687  -0.011140   0.054618   0.006003
    12  C   -1.421513   0.135539  -0.223411  -0.008642  -0.007766  -0.008990
    13  C   -1.753777  -0.267432   0.343239   0.092466   0.023109  -0.017556
    14  H   -0.023926   0.122730  -0.044396  -0.004663   0.040631   0.016729
    15  H   -0.028247   0.050205  -0.006296  -0.007610   0.149130  -0.028775
    16  H    0.003300   0.013825   0.088237   0.002168  -0.057539   0.311269
    17  H    0.010645  -0.001969  -0.004730  -0.000785  -0.056087   0.445709
    18  H    0.000315   0.000126   0.014078  -0.000127   0.008920  -0.080612
    19  H   -0.000065  -0.001504  -0.004118  -0.000305   0.010128  -0.065629
    20  H   -0.000120  -0.000024  -0.000833  -0.000031   0.000302  -0.044657
    21  H    0.000136   0.000004   0.006090   0.000013  -0.001695   0.086432
    22  H   -0.000077  -0.000048  -0.003821  -0.000030   0.000386  -0.035324
    23  H    0.013560  -0.030588  -0.003728  -0.000022   0.001225  -0.000381
    24  Cl  -0.289188  -0.012951  -0.043842  -0.000203   0.000201  -0.001361
    25  C   -1.666344   0.021185  -0.128497  -0.001885   0.008387  -0.000460
    26  H    0.032674  -0.001393   0.006058   0.000040   0.000007   0.000063
    27  H   -0.062251  -0.011945   0.028062  -0.008639   0.000282   0.004002
    28  F    0.032530   0.000021   0.000726  -0.000003   0.000005   0.000004
    29  F    0.029998  -0.000122  -0.000858   0.000001   0.000000  -0.000004
    30  F    0.034408  -0.000109   0.000498  -0.000002  -0.000000   0.000001
    31  O   -0.120869   0.012526  -0.006731  -0.001272  -0.035845  -0.004626
    32  O    0.010878  -0.031232  -0.039866  -0.000427  -0.013727   0.043453
    33  C    0.079962   0.002058   0.007502  -0.000224   0.018250   0.006423
    34  C   -0.062090  -0.018736  -0.026534  -0.000734  -0.049620   0.024575
    35  C    0.001875  -0.000725   0.001035   0.000021   0.007067  -0.008934
    36  H    0.000192   0.000206  -0.000708  -0.000000   0.000314   0.000305
    37  H    0.000678   0.000317   0.000748   0.000001  -0.000113  -0.000858
    38  H   -0.000100  -0.000009   0.000089   0.000000   0.000105  -0.000383
    39  H    0.000027   0.000014   0.000065  -0.000000  -0.000048   0.000004
    40  H    0.000048   0.000037  -0.000395  -0.000000  -0.000008   0.000969
               7          8          9         10         11         12
     1  C   -0.030659  -0.011506   1.970050  -3.896007  -2.524543  -1.421513
     2  N    0.039743  -0.017111  -0.100758  -0.066676  -0.058547   0.135539
     3  C    0.230886  -0.227327  -0.526761  -0.878350   0.056687  -0.223411
     4  O    0.022576  -0.001361  -0.025421  -0.008759  -0.011140  -0.008642
     5  N   -0.058235  -0.045079  -0.126001   0.013654   0.054618  -0.007766
     6  C   -0.978626   0.360190  -0.103787  -0.048665   0.006003  -0.008990
     7  C    6.594500  -0.459134   0.007821  -0.000210  -0.001047  -0.002577
     8  C   -0.459134   6.623957  -0.002988  -0.000244   0.000008   0.000072
     9  C    0.007821  -0.002988  15.397345   5.707317  -9.233990  -1.811525
    10  C   -0.000210  -0.000244   5.707317  35.012211 -16.336507  -6.985125
    11  C   -0.001047   0.000008  -9.233990 -16.336507  38.154753   1.465663
    12  C   -0.002577   0.000072  -1.811525  -6.985125   1.465663  20.834955
    13  C   -0.004915  -0.000258  -4.713960  -8.207156   1.783557  -3.723726
    14  H   -0.003854   0.000321  -0.072988   0.006753   0.030460  -0.001279
    15  H   -0.026295   0.007102   0.007926  -0.003756  -0.003124   0.001942
    16  H   -0.013367  -0.024691  -0.002349  -0.000165   0.000101   0.001841
    17  H   -0.037317  -0.014252   0.003791   0.000480  -0.000092  -0.003390
    18  H    0.459141  -0.073515  -0.000327  -0.000055   0.000008   0.000129
    19  H    0.456153  -0.065222   0.000663   0.000077   0.000000  -0.000099
    20  H    0.042889   0.346298   0.000003  -0.000001   0.000000   0.000001
    21  H   -0.157221   0.416530  -0.000005   0.000000   0.000000   0.000000
    22  H    0.027601   0.355455   0.000013   0.000000  -0.000000  -0.000002
    23  H    0.000064   0.000006   0.197629  -0.055005   0.148933  -0.018814
    24  Cl  -0.000053  -0.000002   0.594262  -1.789911  -0.132988   0.399128
    25  C   -0.000153   0.000008  -0.862496   2.579270  -6.327001  -2.194902
    26  H    0.000003  -0.000000  -0.018980  -0.073385   0.036036   0.289434
    27  H   -0.000133   0.000046  -0.017508   0.000485   0.045121   0.065638
    28  F    0.000000   0.000000  -0.021100  -0.148358  -0.086278   0.077587
    29  F   -0.000000  -0.000000   0.047321  -0.152897   0.211084   0.027003
    30  F   -0.000000   0.000000   0.012917  -0.161396   0.235564   0.018334
    31  O   -0.002000   0.000350   0.180991  -0.009345  -0.008724   0.002798
    32  O   -0.001709   0.009932  -0.002575  -0.000642  -0.000099  -0.000553
    33  C   -0.000774  -0.015602  -0.123057  -0.011174   0.004988   0.001674
    34  C   -0.019636   0.005944   0.097133   0.001729  -0.012953  -0.002533
    35  C    0.005921  -0.004414  -0.003428   0.003327   0.000423  -0.000001
    36  H   -0.000519  -0.000046   0.001190  -0.000422  -0.000037   0.000000
    37  H    0.001059   0.000088  -0.001013  -0.000203  -0.000012   0.000014
    38  H    0.000768   0.000335   0.000061  -0.000005  -0.000001  -0.000001
    39  H   -0.000071   0.000000  -0.000056  -0.000008  -0.000001   0.000000
    40  H   -0.000677  -0.000320   0.000032  -0.000018  -0.000001   0.000000
              13         14         15         16         17         18
     1  C   -1.753777  -0.023926  -0.028247   0.003300   0.010645   0.000315
     2  N   -0.267432   0.122730   0.050205   0.013825  -0.001969   0.000126
     3  C    0.343239  -0.044396  -0.006296   0.088237  -0.004730   0.014078
     4  O    0.092466  -0.004663  -0.007610   0.002168  -0.000785  -0.000127
     5  N    0.023109   0.040631   0.149130  -0.057539  -0.056087   0.008920
     6  C   -0.017556   0.016729  -0.028775   0.311269   0.445709  -0.080612
     7  C   -0.004915  -0.003854  -0.026295  -0.013367  -0.037317   0.459141
     8  C   -0.000258   0.000321   0.007102  -0.024691  -0.014252  -0.073515
     9  C   -4.713960  -0.072988   0.007926  -0.002349   0.003791  -0.000327
    10  C   -8.207156   0.006753  -0.003756  -0.000165   0.000480  -0.000055
    11  C    1.783557   0.030460  -0.003124   0.000101  -0.000092   0.000008
    12  C   -3.723726  -0.001279   0.001942   0.001841  -0.003390   0.000129
    13  C   22.596872   0.063470  -0.005388   0.010025  -0.014780   0.000859
    14  H    0.063470   0.290536   0.017487  -0.000273   0.000250   0.000046
    15  H   -0.005388   0.017487   0.310813   0.003052   0.000406   0.001677
    16  H    0.010025  -0.000273   0.003052   0.440861  -0.047782   0.005635
    17  H   -0.014780   0.000250   0.000406  -0.047782   0.447136  -0.008526
    18  H    0.000859   0.000046   0.001677   0.005635  -0.008526   0.443085
    19  H   -0.000953   0.000048   0.000149  -0.008588   0.005855  -0.039896
    20  H    0.000036  -0.000000  -0.000047  -0.000673   0.003174  -0.008034
    21  H    0.000011   0.000000  -0.000044  -0.000040  -0.000018  -0.003880
    22  H   -0.000050   0.000000  -0.000034   0.002881  -0.000744   0.006513
    23  H    0.028382   0.012527  -0.000092   0.000001   0.000000  -0.000000
    24  Cl   0.403975   0.001418   0.000002   0.000001   0.000001   0.000000
    25  C   -1.110456   0.002387  -0.000150   0.000003   0.000002   0.000000
    26  H    0.037664   0.000004  -0.000000  -0.000000  -0.000000  -0.000000
    27  H    0.268538  -0.000199   0.000029  -0.000008   0.000011  -0.000000
    28  F    0.194276   0.000003  -0.000000  -0.000000   0.000000   0.000000
    29  F    0.000956  -0.000002  -0.000000   0.000000  -0.000000   0.000000
    30  F   -0.002371  -0.000002   0.000000  -0.000000   0.000000  -0.000000
    31  O   -0.012127   0.050008   0.017268  -0.000001  -0.000040   0.000212
    32  O   -0.004936   0.012077   0.049264  -0.000293  -0.000061  -0.001768
    33  C    0.002079  -0.005421  -0.004922   0.000010  -0.000257   0.002485
    34  C   -0.018398   0.015230   0.027462  -0.000366  -0.000049  -0.000303
    35  C    0.000884  -0.000393  -0.003615   0.000061   0.000014   0.000484
    36  H   -0.000023  -0.000252  -0.000129   0.000000  -0.000000   0.000002
    37  H    0.000095  -0.000080   0.000055   0.000000   0.000000  -0.000001
    38  H   -0.000016   0.000002  -0.000070   0.000000   0.000000  -0.000027
    39  H    0.000002  -0.000002   0.000029  -0.000000  -0.000000   0.000000
    40  H   -0.000005  -0.000013  -0.000200  -0.000000  -0.000000  -0.000008
              19         20         21         22         23         24
     1  C   -0.000065  -0.000120   0.000136  -0.000077   0.013560  -0.289188
     2  N   -0.001504  -0.000024   0.000004  -0.000048  -0.030588  -0.012951
     3  C   -0.004118  -0.000833   0.006090  -0.003821  -0.003728  -0.043842
     4  O   -0.000305  -0.000031   0.000013  -0.000030  -0.000022  -0.000203
     5  N    0.010128   0.000302  -0.001695   0.000386   0.001225   0.000201
     6  C   -0.065629  -0.044657   0.086432  -0.035324  -0.000381  -0.001361
     7  C    0.456153   0.042889  -0.157221   0.027601   0.000064  -0.000053
     8  C   -0.065222   0.346298   0.416530   0.355455   0.000006  -0.000002
     9  C    0.000663   0.000003  -0.000005   0.000013   0.197629   0.594262
    10  C    0.000077  -0.000001   0.000000   0.000000  -0.055005  -1.789911
    11  C    0.000000   0.000000   0.000000  -0.000000   0.148933  -0.132988
    12  C   -0.000099   0.000001   0.000000  -0.000002  -0.018814   0.399128
    13  C   -0.000953   0.000036   0.000011  -0.000050   0.028382   0.403975
    14  H    0.000048  -0.000000   0.000000   0.000000   0.012527   0.001418
    15  H    0.000149  -0.000047  -0.000044  -0.000034  -0.000092   0.000002
    16  H   -0.008588  -0.000673  -0.000040   0.002881   0.000001   0.000001
    17  H    0.005855   0.003174  -0.000018  -0.000744   0.000000   0.000001
    18  H   -0.039896  -0.008034  -0.003880   0.006513  -0.000000   0.000000
    19  H    0.443362   0.006518  -0.003896  -0.007621  -0.000000   0.000000
    20  H    0.006518   0.446931  -0.024136  -0.036632   0.000000  -0.000000
    21  H   -0.003896  -0.024136   0.426046  -0.024150   0.000000   0.000000
    22  H   -0.007621  -0.036632  -0.024150   0.446519  -0.000000  -0.000000
    23  H   -0.000000   0.000000   0.000000  -0.000000   0.344212  -0.014643
    24  Cl   0.000000  -0.000000   0.000000  -0.000000  -0.014643  17.717172
    25  C   -0.000000  -0.000000   0.000000  -0.000000   0.019907  -0.207313
    26  H   -0.000000   0.000000  -0.000000   0.000000   0.000037  -0.000248
    27  H   -0.000000  -0.000000   0.000000  -0.000000  -0.000034   0.000383
    28  F   -0.000000  -0.000000   0.000000  -0.000000   0.000033   0.012898
    29  F   -0.000000  -0.000000  -0.000000  -0.000000  -0.000052  -0.015270
    30  F    0.000000   0.000000   0.000000  -0.000000  -0.000043  -0.012461
    31  O   -0.000209   0.000000  -0.000001  -0.000000   0.003468   0.000842
    32  O   -0.002047   0.000032  -0.000046  -0.000007   0.000455   0.000030
    33  C    0.002614   0.000041  -0.000164   0.000171   0.007997  -0.000495
    34  C   -0.001553  -0.000028   0.000170  -0.000036  -0.004160   0.000720
    35  C    0.001272   0.000012  -0.000083   0.000032   0.000068   0.000089
    36  H    0.000001   0.000000  -0.000000   0.000000  -0.000053   0.000021
    37  H    0.000000   0.000000  -0.000000   0.000000   0.000019  -0.000008
    38  H   -0.000010  -0.000000   0.000000  -0.000000   0.000000  -0.000000
    39  H    0.000000  -0.000000  -0.000000  -0.000000  -0.000000   0.000000
    40  H   -0.000037   0.000000   0.000001  -0.000000  -0.000000   0.000000
              25         26         27         28         29         30
     1  C   -1.666344   0.032674  -0.062251   0.032530   0.029998   0.034408
     2  N    0.021185  -0.001393  -0.011945   0.000021  -0.000122  -0.000109
     3  C   -0.128497   0.006058   0.028062   0.000726  -0.000858   0.000498
     4  O   -0.001885   0.000040  -0.008639  -0.000003   0.000001  -0.000002
     5  N    0.008387   0.000007   0.000282   0.000005   0.000000  -0.000000
     6  C   -0.000460   0.000063   0.004002   0.000004  -0.000004   0.000001
     7  C   -0.000153   0.000003  -0.000133   0.000000  -0.000000  -0.000000
     8  C    0.000008  -0.000000   0.000046   0.000000  -0.000000   0.000000
     9  C   -0.862496  -0.018980  -0.017508  -0.021100   0.047321   0.012917
    10  C    2.579270  -0.073385   0.000485  -0.148358  -0.152897  -0.161396
    11  C   -6.327001   0.036036   0.045121  -0.086278   0.211084   0.235564
    12  C   -2.194902   0.289434   0.065638   0.077587   0.027003   0.018334
    13  C   -1.110456   0.037664   0.268538   0.194276   0.000956  -0.002371
    14  H    0.002387   0.000004  -0.000199   0.000003  -0.000002  -0.000002
    15  H   -0.000150  -0.000000   0.000029  -0.000000  -0.000000   0.000000
    16  H    0.000003  -0.000000  -0.000008  -0.000000   0.000000  -0.000000
    17  H    0.000002  -0.000000   0.000011   0.000000  -0.000000   0.000000
    18  H    0.000000  -0.000000  -0.000000   0.000000   0.000000  -0.000000
    19  H   -0.000000  -0.000000  -0.000000  -0.000000  -0.000000   0.000000
    20  H   -0.000000   0.000000  -0.000000  -0.000000  -0.000000   0.000000
    21  H    0.000000  -0.000000   0.000000   0.000000  -0.000000   0.000000
    22  H   -0.000000   0.000000  -0.000000  -0.000000  -0.000000  -0.000000
    23  H    0.019907   0.000037  -0.000034   0.000033  -0.000052  -0.000043
    24  Cl  -0.207313  -0.000248   0.000383   0.012898  -0.015270  -0.012461
    25  C   14.896226   0.007234   0.014135   0.089750  -0.009483   0.015311
    26  H    0.007234   0.361713  -0.002898   0.010990   0.000206   0.000079
    27  H    0.014135  -0.002898   0.368884   0.000018   0.000029   0.000035
    28  F    0.089750   0.010990   0.000018   9.056308  -0.034734  -0.035283
    29  F   -0.009483   0.000206   0.000029  -0.034734   9.009455  -0.047828
    30  F    0.015311   0.000079   0.000035  -0.035283  -0.047828   9.007387
    31  O   -0.001462  -0.000002   0.000024   0.000001  -0.000001  -0.000002
    32  O    0.000007  -0.000000   0.000006   0.000000  -0.000000  -0.000000
    33  C   -0.001919   0.000000  -0.000069   0.000001  -0.000001  -0.000005
    34  C    0.000326  -0.000000   0.000001  -0.000001  -0.000000   0.000001
    35  C   -0.000003   0.000000  -0.000000   0.000000  -0.000000  -0.000000
    36  H    0.000005  -0.000000   0.000000   0.000000   0.000000   0.000000
    37  H   -0.000003  -0.000000  -0.000000  -0.000000  -0.000000  -0.000000
    38  H   -0.000000  -0.000000  -0.000000   0.000000  -0.000000  -0.000000
    39  H   -0.000000  -0.000000  -0.000000  -0.000000  -0.000000  -0.000000
    40  H    0.000000  -0.000000   0.000000   0.000000   0.000000   0.000000
              31         32         33         34         35         36
     1  C   -0.120869   0.010878   0.079962  -0.062090   0.001875   0.000192
     2  N    0.012526  -0.031232   0.002058  -0.018736  -0.000725   0.000206
     3  C   -0.006731  -0.039866   0.007502  -0.026534   0.001035  -0.000708
     4  O   -0.001272  -0.000427  -0.000224  -0.000734   0.000021  -0.000000
     5  N   -0.035845  -0.013727   0.018250  -0.049620   0.007067   0.000314
     6  C   -0.004626   0.043453   0.006423   0.024575  -0.008934   0.000305
     7  C   -0.002000  -0.001709  -0.000774  -0.019636   0.005921  -0.000519
     8  C    0.000350   0.009932  -0.015602   0.005944  -0.004414  -0.000046
     9  C    0.180991  -0.002575  -0.123057   0.097133  -0.003428   0.001190
    10  C   -0.009345  -0.000642  -0.011174   0.001729   0.003327  -0.000422
    11  C   -0.008724  -0.000099   0.004988  -0.012953   0.000423  -0.000037
    12  C    0.002798  -0.000553   0.001674  -0.002533  -0.000001   0.000000
    13  C   -0.012127  -0.004936   0.002079  -0.018398   0.000884  -0.000023
    14  H    0.050008   0.012077  -0.005421   0.015230  -0.000393  -0.000252
    15  H    0.017268   0.049264  -0.004922   0.027462  -0.003615  -0.000129
    16  H   -0.000001  -0.000293   0.000010  -0.000366   0.000061   0.000000
    17  H   -0.000040  -0.000061  -0.000257  -0.000049   0.000014  -0.000000
    18  H    0.000212  -0.001768   0.002485  -0.000303   0.000484   0.000002
    19  H   -0.000209  -0.002047   0.002614  -0.001553   0.001272   0.000001
    20  H    0.000000   0.000032   0.000041  -0.000028   0.000012   0.000000
    21  H   -0.000001  -0.000046  -0.000164   0.000170  -0.000083  -0.000000
    22  H   -0.000000  -0.000007   0.000171  -0.000036   0.000032   0.000000
    23  H    0.003468   0.000455   0.007997  -0.004160   0.000068  -0.000053
    24  Cl   0.000842   0.000030  -0.000495   0.000720   0.000089   0.000021
    25  C   -0.001462   0.000007  -0.001919   0.000326  -0.000003   0.000005
    26  H   -0.000002  -0.000000   0.000000  -0.000000   0.000000  -0.000000
    27  H    0.000024   0.000006  -0.000069   0.000001  -0.000000   0.000000
    28  F    0.000001   0.000000   0.000001  -0.000001   0.000000   0.000000
    29  F   -0.000001  -0.000000  -0.000001  -0.000000  -0.000000   0.000000
    30  F   -0.000002  -0.000000  -0.000005   0.000001  -0.000000   0.000000
    31  O    8.622574  -0.143963   0.254497  -0.181107   0.015305  -0.003151
    32  O   -0.143963   8.503961   0.327000  -0.132570  -0.002531  -0.000826
    33  C    0.254497   0.327000   5.920136  -0.904605   0.285260  -0.051336
    34  C   -0.181107  -0.132570  -0.904605   7.225329  -0.376705   0.425032
    35  C    0.015305  -0.002531   0.285260  -0.376705   6.020407  -0.039861
    36  H   -0.003151  -0.000826  -0.051336   0.425032  -0.039861   0.422125
    37  H   -0.005625   0.003618  -0.010497   0.394139  -0.048312  -0.031443
    38  H   -0.000204  -0.001894  -0.009130  -0.029254   0.387023  -0.007053
    39  H   -0.000719   0.002366   0.053682  -0.110024   0.405887  -0.002582
    40  H   -0.000431  -0.004377  -0.030142  -0.002988   0.382211   0.005370
              37         38         39         40
     1  C    0.000678  -0.000100   0.000027   0.000048
     2  N    0.000317  -0.000009   0.000014   0.000037
     3  C    0.000748   0.000089   0.000065  -0.000395
     4  O    0.000001   0.000000  -0.000000  -0.000000
     5  N   -0.000113   0.000105  -0.000048  -0.000008
     6  C   -0.000858  -0.000383   0.000004   0.000969
     7  C    0.001059   0.000768  -0.000071  -0.000677
     8  C    0.000088   0.000335   0.000000  -0.000320
     9  C   -0.001013   0.000061  -0.000056   0.000032
    10  C   -0.000203  -0.000005  -0.000008  -0.000018
    11  C   -0.000012  -0.000001  -0.000001  -0.000001
    12  C    0.000014  -0.000001   0.000000   0.000000
    13  C    0.000095  -0.000016   0.000002  -0.000005
    14  H   -0.000080   0.000002  -0.000002  -0.000013
    15  H    0.000055  -0.000070   0.000029  -0.000200
    16  H    0.000000   0.000000  -0.000000  -0.000000
    17  H    0.000000   0.000000  -0.000000  -0.000000
    18  H   -0.000001  -0.000027   0.000000  -0.000008
    19  H    0.000000  -0.000010   0.000000  -0.000037
    20  H    0.000000  -0.000000  -0.000000   0.000000
    21  H   -0.000000   0.000000  -0.000000   0.000001
    22  H    0.000000  -0.000000  -0.000000  -0.000000
    23  H    0.000019   0.000000  -0.000000  -0.000000
    24  Cl  -0.000008  -0.000000   0.000000   0.000000
    25  C   -0.000003  -0.000000  -0.000000   0.000000
    26  H   -0.000000  -0.000000  -0.000000  -0.000000
    27  H   -0.000000  -0.000000  -0.000000   0.000000
    28  F   -0.000000   0.000000  -0.000000   0.000000
[...]
 0001068,-0.00000834,0.00000193,-0.00000059,0.00000053,-0.00000292,0.00
 000192,0.00000095,-0.00000074,-0.00000082,-0.00000086,0.00000064,-0.00
 000320,-0.00000004,-0.00000018,-0.00000132,-0.00000142,-0.00000116,-0.
 00001331,-0.00000097,-0.00000135,0.00000343,0.00000413,-0.00000037,-0.
 00001095,0.00000230,-0.00000163,0.00000084,-0.00000059,-0.00000038,-0.
 00000018,0.00000131,-0.00000061,0.00000166,-0.00000200,0.00000069,0.00
 000397,0.00000048,0.00000211,0.00000331,-0.00000018,-0.00000183,0.0016
 8067,0.00008259,0.00314495,-0.00133176,-0.00586715,0.00500412,-0.02561
 765,-0.00607161,-0.02381310,-0.05475532,-0.06513184,-0.04315598,0.0160
 5679,0.00445588,0.01193023,0.05645176,0.07124859,-0.00002701,0.0000024
 1,-0.00000026,0.00000884,-0.00005458,0.00001500,0.00000789,0.00000998,
 0.00000678,-0.00000424,-0.00001635,-0.00000657,-0.00000028,-0.00000003
 ,0.00002050,0.00000484,0.00000045,0.00000209,-0.00000178,-0.00000175,-
 0.00000408,0.00000065,-0.00000119,0.00000038,0.00000687,0.00000261,-0.
 00000117,-0.00000441,-0.00000066,-0.00000035,0.00000462,0.00000010,0.0
 0000152,-0.00000454,-0.00000059,0.,0.00000760,-0.00000569,0.00000051,-
 0.00000779,0.00008898,-0.00002988,-0.00000084,0.00000099,-0.00004193,-
 0.00000074,-0.00000069,-0.00000020,-0.00000151,-0.00000134,0.00000093,
 0.00000039,0.00000086,-0.00000030,-0.00000060,0.00000031,0.00000189,-0
 .00000065,-0.00000020,0.00000052,-0.00000037,0.00000012,0.00000003,-0.
 00000026,0.00000015,-0.00000032,-0.00000261,-0.00000265,-0.00000029,0.
 00000300,0.00000182,-0.00000088,-0.00000418,-0.00000087,0.00000041,0.0
 0000059,-0.00000013,0.00000004,-0.00000015,0.00000065,0.00000006,0.000
 00057,-0.00000006,-0.00000008,0.00000160,0.00000058,0.00000035,0.00000
 159,0.00000032,-0.00000117,0.00074659,-0.00113972,0.00013321,0.0001186
 9,0.00077927,-0.00125737,0.00431043,0.00355196,0.00243670,-0.11951562,
 -0.04139126,-0.12980401,0.00812708,0.00306618,0.00559746,0.12929465,0.
 04414987,0.13899738,0.00002983,0.00000455,-0.00000025,0.00001958,0.000
 07871,0.00001780,-0.00010773,0.00001028,-0.00000159,0.00002837,-0.0000
 1182,-0.00000213,0.00002169,-0.00012735,-0.00001041,0.00001952,-0.0000
 0416,0.00000214,-0.00000221,-0.00000006,0.00000865,0.00000085,0.000000
 21,-0.00000324,-0.00000477,-0.00000761,0.00000212,0.00000700,0.0000030
 1,-0.00000251,-0.00000616,-0.00000003,-0.00000011,0.00000182,0.0000026
 1,-0.00000038,-0.00000744,0.00000223,-0.00000146,-0.00001031,-0.000181
 78,-0.00002080,-0.00000221,0.00016631,0.00000298,-0.00000352,-0.000003
 53,-0.00000137,-0.00000371,-0.00000154,0.00000039,0.00000021,0.0000022
 9,-0.00000218,-0.00000130,0.00000238,-0.00000012,-0.00000006,-0.000000
 01,0.00000003,-0.00000064,-0.00000015,0.00000040,-0.00000050,-0.000000
 93,-0.00000047,0.00000481,-0.00000179,-0.00000072,-0.00000127,-0.00000
 188,0.00000111,0.00000495,-0.00000106,0.00000087,-0.00000069,0.0000005
 7,0.00000016,0.00000050,0.00000029,0.00000003,-0.00000086,0.00000097,-
 0.00000033,-0.00000170,-0.00000040,-0.00000072,-0.00000126,-0.00000015
 ,0.00000028,-0.00037732,0.00227041,-0.00083500,-0.00032955,-0.00216988
 ,-0.00093145,-0.00385061,-0.00278050,0.00670011,-0.06212594,-0.0106486
 9,0.06819913,-0.00749776,-0.00451272,0.02583254,0.00698622,0.00569055,
 -0.02403108,0.06891211,-0.00005085,0.00002374,-0.00000789,0.00007444,-
 0.00000194,0.00005262,-0.00020974,0.00010895,0.00001276,0.00004369,-0.
 00013785,-0.00002005,0.00007351,-0.00040916,0.00000960,0.00008209,-0.0
 0000034,0.00000809,-0.00001083,-0.00000427,-0.00000857,0.00000447,0.00
 000136,0.00000160,0.00001794,0.00000043,0.00000140,-0.00000803,-0.0000
 0334,-0.00000398,0.00001177,-0.00000147,0.00000434,-0.00000780,-0.0000
 0176,-0.00000345,0.00001223,-0.00001269,0.00000539,-0.00003930,0.00012
 498,-0.00009358,0.00002497,0.00066094,-0.00002804,-0.00001749,-0.00001
 199,-0.00000404,-0.00001747,-0.00001230,0.00000167,0.00000174,0.000004
 59,-0.00000628,-0.00000626,0.00000036,0.00000700,-0.00000194,-0.000002
 08,0.00000072,-0.00000429,-0.00000006,-0.00000001,-0.00000199,-0.00000
 209,-0.00000141,-0.00000896,0.00000590,0.00000035,0.00000196,0.0000026
 4,-0.00000069,-0.00001167,0.00000348,0.00000124,0.00000085,-0.00000043
 ,0.00000068,-0.00000016,0.00000240,0.,0.00000169,-0.00000215,0.0000001
 2,0.00000393,0.00000050,0.00000104,0.00000386,-0.00000089,-0.00000272,
 -0.00041125,-0.00029120,-0.00355195,-0.00382809,-0.00611343,-0.0028657
 0,-0.00578373,-0.00311289,0.03519969,-0.01044669,-0.05490556,0.0482592
 8,0.00519610,0.00263718,-0.01935773,0.00286518,0.00140736,-0.00908022,
 0.01031938,0.06049170,0.00001615,-0.00000669,0.00000294,-0.00002223,0.
 00001628,-0.00001617,0.00006589,-0.00002786,-0.00000439,-0.00001247,0.
 00003454,0.00000424,-0.00001045,0.00009295,0.00001236,-0.00002055,0.00
 000452,-0.00000187,0.00000105,0.00000286,-0.00000155,-0.00000169,-0.00
 000128,0.00000077,-0.00000485,-0.00000041,-0.00000384,0.00000068,0.000
 00100,0.00000196,-0.00000323,-0.00000441,-0.00000290,0.00000276,0.0000
 0273,0.00000216,-0.00000430,0.00000411,-0.00000207,0.00001154,0.000000
 91,0.00002845,-0.00002249,-0.00013228,-0.00002756,0.00000448,0.0000039
 2,0.00000168,0.00000454,0.00000378,0.00000008,0.00000049,-0.00000121,0
 .00000381,0.00000185,0.00000012,-0.00000341,0.00000104,0.00000045,-0.0
 0000019,0.00000099,-0.00000020,-0.00000036,0.00000131,0.00000117,0.000
 00074,-0.00000061,0.00000285,0.00000071,-0.00000288,-0.00000012,0.0000
 0007,0.00000419,0.00000166,-0.00000122,-0.00000016,0.00000006,-0.00000
 014,-0.00000013,-0.00000090,-0.00000025,-0.00000035,0.00000003,0.00000
 048,-0.00000122,-0.00000065,0.00000072,-0.00000149,-0.00000005,0.00000
 098,-0.00031824,-0.00028874,0.00162687,-0.00033289,0.00128639,-0.00008
 678,0.00140482,-0.00120774,-0.00333623,0.06736926,0.04594943,-0.286685
 73,0.00141922,0.00033322,-0.00540140,0.00436814,0.00368934,-0.01762617
 ,-0.07522142,-0.04852680,0.30941895,0.00001803,-0.00000175,0.00000079,
 -0.00000626,0.00004437,-0.00000619,-0.00000162,-0.00001139,-0.00000090
 ,0.00000290,0.00001719,0.00000122,-0.00000053,0.00002492,-0.00000313,-
 0.00000650,-0.00000219,0.00000094,0.00000144,0.00000072,-0.00000323,-0
 .00000121,0.00000060,0.00000101,-0.00000441,-0.00000329,0.00000005,0.0
 0000214,-0.00000085,-0.00000007,-0.00000297,0.00000197,0.00000050,0.00
 000235,0.00000028,-0.00000149,-0.00000495,0.00000397,-0.00000030,0.000
 00165,-0.00007681,0.00000896,-0.00000958,-0.00004421,-0.00000189,0.000
 00108,0.00000114,0.00000035,0.00000169,0.00000189,-0.00000006,0.000001
 14,0.00000072,0.00000153,0.00000134,0.00000158,-0.00000003,0.00000033,
 -0.00000028,-0.00000061,0.00000009,0.00000027,-0.00000021,0.00000023,-
 0.00000018,0.00000072,0.00000269,0.00000002,0.00000161,-0.00000092,-0.
 00000071,0.,0.00000358,-0.00000122,0.00000135,-0.00000036,0.00000019,0
 .00000014,0.00000002,-0.00000015,0.00000051,-0.00000066,0.00000092,-0.
 00000047,-0.00000145,-0.00000019,-0.00000112,-0.00000098,0.00000019,0.
 00000011,-0.00004391,0.00046236,-0.00027554,0.00069733,0.00030655,-0.0
 0044598,0.00006440,-0.00172358,0.00016067,-0.00744326,-0.00446405,0.02
 702596,-0.06538154,-0.01088389,0.06509704,0.00101377,-0.00094725,-0.00
 041074,-0.00379564,0.00366470,0.00110325,0.06994594,0.00000392,-0.0000
 0161,-0.00000308,-0.00000590,-0.00000304,0.00000041,0.00001626,-0.0000
 1130,-0.00000026,-0.00000260,0.00000818,0.00000163,-0.00000352,0.00002
 565,0.00000267,-0.00000248,0.00000186,-0.00000056,-0.00000012,0.000004
 88,-0.00000313,0.00000123,0.00000105,-0.00000007,-0.00000191,-0.000000
 33,0.00000079,0.00000258,0.00000248,0.00000051,-0.00000223,-0.00000097
 ,-0.00000096,-0.00000064,0.00000026,-0.00000001,0.00000007,0.00000053,
 0.00000277,0.00000067,0.00000264,0.00000528,-0.00000645,-0.00003787,-0
 .00001094,-0.00000104,0.00000177,0.00000097,-0.00000007,0.00000075,-0.
 00000076,-0.00000096,-0.00000078,0.00000423,-0.00000199,-0.00000317,-0
 .00000138,0.00000031,-0.00000062,-0.00000046,-0.00000090,0.00000004,-0
 .00000013,0.00000069,-0.00000014,0.00000094,-0.00000078,-0.00000033,-0
 .00000057,-0.00000045,-0.00000055,0.00000026,0.00000146,-0.00000041,-0
 .00000027,-0.00000005,0.00000023,-0.00000022,0.00000033,-0.00000016,-0
 .00000052,-0.00000015,0.00000002,0.00000015,-0.00000035,-0.00000002,0.
 00000016,-0.00000041,0.00000008,0.00000021,0.00010422,-0.00000375,0.00
 028450,0.00021697,-0.00032814,-0.00027516,-0.00067847,0.00044983,-0.00
 061088,0.00439610,0.00256893,-0.01889829,-0.01129509,-0.05353199,0.041
 19951,-0.00074197,0.00065275,0.00052456,0.00309560,-0.00172256,-0.0008
 9421,0.00919892,0.05485672,-0.00001195,-0.00000078,0.00000337,-0.00000
 416,-0.00004280,0.00000845,0.00002176,0.00000147,-0.00000078,-0.000006
 32,-0.00000656,-0.00000014,-0.00000133,0.00000287,0.00000963,0.0000027
 9,0.00000177,-0.00000075,-0.00000286,-0.00000359,-0.00000725,0.0000009
 5,-0.00000040,0.00000178,0.00000375,0.00000163,-0.00000263,-0.00000236
 ,0.00000217,0.00000309,0.00000143,-0.00000424,-0.00000312,0.,0.0000013
 2,0.00000195,0.00000294,-0.00000175,-0.00000141,0.00000220,0.00006459,
 -0.00001262,-0.00000635,-0.00000263,-0.00000556,-0.00000046,0.00000183
 ,0.00000043,-0.00000062,-0.00000053,0.00000040,0.00000023,-0.00000073,
 0.00000347,-0.00000031,0.00000012,-0.00000038,-0.00000047,-0.00000064,
 0.00000057,-0.00000142,0.00000057,-0.00000076,0.00000056,0.00000106,0.
 00000043,-0.00000151,-0.00000041,-0.00000149,0.00000037,0.00000004,-0.
 00000011,-0.00000095,0.00000232,-0.00000166,0.00000040,-0.00000046,0.,
 -0.00000040,-0.00000042,-0.00000042,0.00000030,-0.00000089,0.00000059,
 0.00000062,-0.00000019,0.00000099,0.00000022,-0.00000021,0.00000039,-0
 .00019620,-0.00063861,0.00009520,-0.00109035,0.00040699,0.00076627,0.0
 0122621,0.00144435,-0.00036099,0.00161847,0.00033843,-0.00610127,0.066
 24051,0.03913516,-0.29618142,0.00028463,-0.00018858,0.00066638,0.00136
 162,-0.00083032,0.00121649,-0.07413114,-0.04375723,0.31821871,0.000081
 74,-0.00000483,-0.00000294,0.00000587,0.00023083,-0.00003222,-0.000075
 67,-0.00003051,-0.00001147,0.00002754,0.00005734,0.00000761,0.00000882
 ,0.00003555,0.00000248,-0.00001819,-0.00000525,-0.00000063,0.00000326,
 0.00000546,0.00000019,0.00000005,-0.00000120,-0.00000007,-0.00002052,-
 0.00001545,0.00000360,0.00001269,0.00000033,-0.00000099,-0.00001344,0.
 00000549,0.00000018,0.00000857,0.00000287,-0.00000278,-0.00002208,0.00
 001515,-0.00000114,-0.00001190,-0.00037043,0.00006058,-0.00001117,-0.0
 0007203,-0.00000148,0.00000411,0.00000179,0.00000043,0.00000443,0.0000
 0204,0.00000005,-0.00000018,-0.00000009,-0.00000112,0.00000042,0.00000
 054,0.00000088,0.00000020,-0.00000004,0.,0.00000188,0.00000011,0.00000
 011,0.00000002,-0.00000009,0.00000002,0.00000981,0.00000232,-0.0000001
 2,-0.00000504,-0.00000324,0.00000125,0.00001460,-0.00000514,0.00000023
 ,-0.00000176,0.00000064,0.,0.00000028,-0.00000093,0.00000036,-0.000002
 44,0.00000326,-0.00000077,-0.00000502,-0.00000029,-0.00000203,-0.00000
 471,0.00000089,0.00000270,-0.00095692,0.00354108,0.00010247,0.00137632
 ,-0.00012707,-0.00040602,-0.00506708,-0.00146615,0.00213327,0.00613420
 ,0.02923983,-0.00407307,-0.05864001,-0.05460098,0.00636053,0.00111307,
 -0.00083660,-0.00056515,0.00108563,-0.00092940,-0.00004716,-0.00282478
 ,-0.00709976,-0.00005085,0.06222858,-0.00009184,0.00000667,-0.00000457
 ,0.00001549,-0.00020326,0.00002462,0.00002756,0.00005962,0.00000988,-0
 .00001778,-0.00008402,-0.00000804,-0.00000691,-0.00010765,-0.00000893,
 0.00003106,0.00000459,0.00000039,-0.00000235,-0.00000382,-0.00000103,0
 .00000194,0.00000162,0.00000013,0.00002312,0.00002059,0.00000204,-0.00
 001453,-0.00000698,-0.00000848,0.00001956,0.00000619,0.00001236,-0.000
 00851,-0.00001201,-0.00000417,0.00002320,-0.00001263,0.00000775,-0.000
 00407,0.00037696,-0.00005468,0.00004190,0.00020532,0.00001905,-0.00000
 694,-0.00000461,-0.00000232,-0.00000707,-0.00000534,0.00000120,0.00000
 059,0.00000182,-0.00000268,0.00000005,0.00000071,0.00000334,-0.0000012
 9,-0.00000100,0.00000075,-0.00000205,0.00000068,0.00000018,-0.00000135
 ,-0.00000099,-0.00000102,-0.00000975,-0.00000105,0.00000079,0.00000623
 ,0.00000225,-0.00000053,-0.00002123,0.00000340,-0.00000166,0.00000171,
 -0.00000138,-0.00000006,-0.00000022,0.00000092,0.00000006,0.00000321,-
 0.00000424,0.00000042,0.00000680,0.00000102,0.00000152,0.00000592,-0.0
 0000104,-0.00000205,0.00125673,-0.00297675,-0.00020340,0.00003281,-0.0
 0112165,0.00005248,0.00232616,0.00298848,-0.00094536,-0.00490535,-0.01
 625741,0.00244797,-0.05276919,-0.30435862,0.03149375,0.00004598,0.0006
 4500,0.00039727,-0.00025537,0.00058005,-0.00038961,-0.00071203,-0.0031
 5157,0.00082955,0.05630883,0.32923974,-0.00002240,0.00000148,0.0000000
 1,-0.00000346,-0.00006709,0.00001141,0.00002326,0.00000767,0.00000365,
 -0.00000803,-0.00001550,-0.00000229,-0.00000267,-0.00000787,0.00000351
 ,0.00000412,0.00000117,-0.00000034,-0.00000069,-0.00000006,-0.00000156
 ,-0.00000048,0.00000033,0.00000063,0.00000498,0.00000406,-0.00000249,-
 0.00000336,-0.00000035,0.00000142,0.00000392,-0.00000168,-0.00000002,-
 0.00000271,-0.00000072,0.00000041,0.00000637,-0.00000410,0.00000094,0.
 00000514,0.00010806,-0.00001530,0.00000295,0.00001274,-0.00000745,-0.0
 0000148,-0.00000044,-0.00000014,-0.00000058,-0.00000061,0.,-0.00000045
 ,0.00000058,0.00000001,-0.00000026,0.00000049,0.00000075,-0.00000019,-
 0.00000008,0.00000008,-0.00000011,-0.00000006,-0.00000015,0.00000007,0
 .00000020,0.,-0.00000245,-0.00000043,0.00000047,0.00000131,0.00000098,
 -0.00000059,-0.00000373,0.00000144,0.00000056,0.00000051,-0.00000016,0
 .,-0.00000002,0.00000024,-0.00000007,0.00000061,-0.00000081,0.00000010
 ,0.00000121,-0.00000006,0.00000027,0.00000133,-0.00000028,-0.00000107,
 0.00030183,-0.00104566,0.00006249,-0.00037948,0.00008920,0.00031231,0.
 00184417,0.00037051,0.00019334,-0.00228226,-0.00912361,-0.00003177,0.0
 0626756,0.03212425,-0.05252192,-0.00006188,0.00043203,0.00011841,-0.00
 063173,0.00010535,0.00020294,0.00592447,0.03050803,-0.00175294,-0.0085
 1809,-0.03416488,0.05089052,0.00001942,-0.00000019,-0.00000100,-0.0000
 0118,0.00005913,-0.00000491,-0.00002245,-0.00000937,-0.00000503,0.0000
 0693,0.00001581,0.00000319,0.00000212,0.00001619,0.00000346,-0.0000059
 3,-0.00000221,-0.00000065,0.00000155,0.00000464,-0.00000344,-0.0000012
 1,0.00000060,0.00000027,-0.00000431,-0.00000443,0.00000266,0.00000362,
 0.00000007,-0.00000028,-0.00000395,0.00000008,-0.00000088,0.00000080,0
 .00000213,0.00000026,-0.00000505,0.00000302,-0.00000093,0.00000323,-0.
 00008949,0.00001611,-0.00000611,-0.00002754,-0.00001127,0.00000177,0.0
 0000114,0.00000043,0.00000173,0.00000050,0.00000050,0.00000059,0.00000
 285,0.00000068,0.00000009,0.00000497,-0.00000185,0.00000016,-0.0000005
 6,-0.00000009,0.00000181,-0.00000038,-0.00000020,0.00000030,0.00000057
 ,0.00000067,0.00000239,-0.00000049,-0.00000178,-0.00000118,0.00000019,
 0.00000043,0.00000451,-0.00000237,-0.00000123,-0.00000046,0.00000038,-
 0.00000015,0.00000007,0.,-0.00000029,-0.00000073,0.00000143,0.00000004
 ,-0.00000124,0.00000033,0.00000038,-0.00000155,0.00000052,0.00000110,0
 .00022338,0.00077646,0.00007618,0.00152099,-0.00003483,-0.00003158,-0.
 00075909,-0.00224445,0.00033529,-0.02116725,-0.00607374,-0.01566287,-0
 .21218561,-0.04947768,-0.12280637,-0.00331700,0.00356662,0.00193805,0.
 00101007,-0.00060854,0.00024715,0.00776943,0.00280900,0.00474003,-0.00
 444116,-0.00134102,-0.00246730,0.23135050,0.00000592,-0.00000163,0.000
 00567,-0.00000564,0.00000539,0.00000177,0.00001483,-0.00000892,0.00000
 108,-0.00000193,0.00000876,-0.00000039,-0.00000792,0.00002385,0.000004
 19,0.,-0.00000059,0.00000043,-0.00000207,-0.00000694,0.00001096,-0.000
 00158,0.00000338,-0.00000336,-0.00000263,-0.00000255,-0.00000256,0.000
 00244,0.00000429,0.00000218,-0.00000310,-0.00000168,-0.00000358,0.0000
 0129,0.00000143,0.00000317,-0.00000138,-0.00000062,-0.00000487,-0.0000
 0407,-0.00000586,-0.00000348,-0.00000221,-0.00003198,-0.00002319,-0.00
 000048,0.00000090,0.00000060,-0.00000040,0.00000177,-0.00000152,0.0000
 0015,0.00000284,0.00000169,0.00000259,0.00000679,-0.00000761,0.0000015
 2,0.00000137,-0.00000056,0.00000017,-0.00000042,0.00000007,0.00000092,
 0.00000071,0.00000058,0.00000023,0.00000013,0.00000020,-0.00000024,-0.
 00000088,0.00000008,0.00000191,0.00000007,0.00000090,-0.00000010,0.000
 00029,0.00000005,0.00000008,-0.00000005,-0.00000018,-0.00000025,-0.000
 00008,0.00000001,-0.00000072,-0.00000033,-0.00000023,-0.00000046,0.000
 00006,-0.00000013,-0.00006799,0.00001501,-0.00030643,0.00048896,-0.000
 49544,0.00012997,-0.00031426,0.00041904,0.00091285,0.01508481,0.004404
 34,0.01206357,-0.05126511,-0.06201513,-0.03809556,0.00310933,-0.001763
 26,-0.00088146,-0.00093893,0.00069389,0.00005087,0.00514056,0.00022064
 ,0.00324574,-0.02388487,-0.00582961,-0.01933438,0.05265067,0.06435103,
 -0.00000221,0.00000119,0.00000103,0.00000871,0.00000932,-0.00000143,-0
 .00002130,0.00000796,-0.00000070,0.00000460,-0.00000630,-0.00000016,0.
 00000448,-0.00001899,-0.00000302,0.00000004,-0.00000088,-0.00000050,0.
 00000306,0.00000423,0.00000226,-0.00000084,0.00000047,-0.00000077,0.00
 000140,-0.00000045,0.00000258,-0.00000037,-0.00000009,-0.00000263,0.00
 000012,-0.00000016,0.00000048,0.00000041,0.00000026,-0.00000060,-0.000
 00004,0.00000023,-0.00000005,-0.00000328,-0.00000849,-0.00000106,0.000
 00773,0.00003586,-0.00000273,-0.00000003,-0.00000146,-0.00000050,0.000
 00032,-0.00000126,0.00000049,-0.00000150,-0.00000038,-0.00000482,0.000
 00024,0.00000444,0.00000194,-0.00000009,-0.00000088,0.00000026,0.00000
 225,-0.00000058,0.00000014,-0.00000042,-0.00000072,-0.00000030,-0.0000
 0061,0.00000035,0.00000018,0.00000015,0.00000045,0.00000014,0.00000007
 ,0.00000022,-0.00000041,-0.00000004,-0.00000003,0.00000005,-0.00000007
 ,0.00000010,-0.00000007,-0.00000004,-0.00000011,0.00000008,0.00000004,
 0.00000017,0.00000025,-0.00000003,0.00000012,0.00000024,0.00008979,0.0
 0021250,-0.00017443,0.00054411,-0.00045031,0.00002222,-0.00090762,-0.0
 0016797,0.00039728,0.00818930,0.00305952,0.00583177,-0.12384697,-0.036
 75590,-0.14080847,0.00173121,-0.00129524,0.00077446,-0.00043090,0.0007
 2047,0.00067485,-0.02404809,-0.00807848,-0.01656286,0.00504119,0.00049
 797,0.00253386,0.13363524,0.04223285,0.14732094\\0.00000708,-0.0000008
 6,-0.00000345,0.00000213,0.00000167,0.00001365,0.00000547,-0.00001006,
 -0.00000587,-0.00000232,0.00001087,0.00000443,-0.00000664,-0.00000212,
 -0.00000006,-0.00000087,0.00000376,0.00000245,-0.00000201,-0.00000189,
 -0.00000301,0.00000044,0.00000252,-0.00000255,-0.00000373,0.00000092,0
 .00000481,0.00000166,0.00000173,0.00000520,-0.00000070,0.00000025,0.00
 000664,-0.00000186,-0.00000276,0.00000759,-0.00000172,0.00000378,0.000
 00542,-0.00000564,-0.00000306,-0.00000265,0.00000055,0.00000350,-0.000
 00484,0.00000043,-0.00000238,0.00000067,-0.00000068,0.00000036,0.00000
 176,0.,0.00000399,-0.00000286,0.00000204,0.00000088,-0.00000389,-0.000
 00061,0.00000093,-0.00000042,-0.00000065,0.00000201,-0.00000435,0.0000
 0081,-0.00000211,-0.00000262,0.00000065,-0.00000472,0.00000174,0.00000
 144,-0.00000385,0.00000101,0.00000140,-0.00000239,0.00000875,-0.000001
 20,0.00000071,0.00000977,-0.00000042,-0.00000066,0.00000884,-0.0000014
 2,-0.00000358,0.00001026,-0.00000069,0.00000321,0.00000985,-0.00000156
 ,0.00000040,0.00000848,0.00001525,0.00000168,-0.00001047,-0.00000361,-
 0.00000248,-0.00000397,-0.00001809,0.00000282,0.00000779,0.00001331,-0
 .00000528,-0.00001111,-0.00000144,-0.00000078,-0.00000769,-0.00000310,
 0.00000212,-0.00001195,0.00000226,0.00000125,-0.00000413,0.00000089,0.
 00000365,-0.00001355,0.,-0.00000309,-0.00001096,0.00000316,-0.00000092
 ,-0.00000875\\\@


 YOU KNOW YOU'RE A TEACHER WHEN YOU SAY 2, WRITE 3, AND MEAN 4.
 -- RONALD ANSTROM, HIGH SCHOOL TEACHER, UNDERWOOD, N.D. 1974
 Job cpu time:       0 days 15 hours 35 minutes 59.4 seconds.
 File lengths (MBytes):  RWF=   1411 Int=      0 D2E=      0 Chk=     34 Scr=      1
 Normal termination of Gaussian 09 at Fri Nov 15 00:02:12 2019.
pbs_rusage has been removed.
Please contact help@nci.org.au if you require this functionality.
