 Entering Gaussian System, Link 0=/apps/gaussian/g09e01/g09/g09
 Initial command:
 /apps/gaussian/g09e01/g09/l1.exe "/jobfs/local/3595025.r-man2/Gau-12481.inp" -scrdir="/jobfs/local/3595025.r-man2/"
 Entering Link 1 = /apps/gaussian/g09e01/g09/l1.exe PID=     12482.
  
 Copyright (c) 1988,1990,1992,1993,1995,1998,2003,2009,2015,
            Gaussian, Inc.  All Rights Reserved.
  
 This is part of the Gaussian(R) 09 program.  It is based on
 the Gaussian(R) 03 system (copyright 2003, Gaussian, Inc.),
 the Gaussian(R) 98 system (copyright 1998, Gaussian, Inc.),
 the Gaussian(R) 94 system (copyright 1995, Gaussian, Inc.),
 the Gaussian 92(TM) system (copyright 1992, Gaussian, Inc.),
 the Gaussian 90(TM) system (copyright 1990, Gaussian, Inc.),
 the Gaussian 88(TM) system (copyright 1988, Gaussian, Inc.),
 the Gaussian 86(TM) system (copyright 1986, Carnegie Mellon
 University), and the Gaussian 82(TM) system (copyright 1983,
 Carnegie Mellon University). Gaussian is a federally registered
 trademark of Gaussian, Inc.
  
 This software contains proprietary and confidential information,
 including trade secrets, belonging to Gaussian, Inc.
  
 This software is provided under written license and may be
 used, copied, transmitted, or stored only in accord with that
 written license.
  
 The following legend is applicable only to US Government
 contracts under FAR:
  
                    RESTRICTED RIGHTS LEGEND
  
 Use, reproduction and disclosure by the US Government is
 subject to restrictions as set forth in subparagraphs (a)
 and (c) of the Commercial Computer Software - Restricted
 Rights clause in FAR 52.227-19.
  
 Gaussian, Inc.
 340 Quinnipiac St., Bldg. 40, Wallingford CT 06492
  
  
 ---------------------------------------------------------------
 Warning -- This program may not be used in any manner that
 competes with the business of Gaussian, Inc. or will provide
 assistance to any competitor of Gaussian, Inc.  The licensee
 of this program is prohibited from giving any competitor of
 Gaussian, Inc. access to this program.  By using this program,
 the user acknowledges that Gaussian, Inc. is engaged in the
 business of creating and licensing software in the field of
 computational chemistry and represents and warrants to the
 licensee that it is not a competitor of Gaussian, Inc. and that
 it will not use this program in any manner prohibited above.
 ---------------------------------------------------------------
  

 Cite this work as:
 Gaussian 09, Revision E.01,
 M. J. Frisch, G. W. Trucks, H. B. Schlegel, G. E. Scuseria, 
 M. A. Robb, J. R. Cheeseman, G. Scalmani, V. Barone, B. Mennucci, 
 G. A. Petersson, H. Nakatsuji, M. Caricato, X. Li, H. P. Hratchian, 
 A. F. Izmaylov, J. Bloino, G. Zheng, J. L. Sonnenberg, M. Hada, 
 M. Ehara, K. Toyota, R. Fukuda, J. Hasegawa, M. Ishida, T. Nakajima, 
 Y. Honda, O. Kitao, H. Nakai, T. Vreven, J. A. Montgomery, Jr., 
 J. E. Peralta, F. Ogliaro, M. Bearpark, J. J. Heyd, E. Brothers, 
 K. N. Kudin, V. N. Staroverov, T. Keith, R. Kobayashi, J. Normand, 
 K. Raghavachari, A. Rendell, J. C. Burant, S. S. Iyengar, J. Tomasi, 
 M. Cossi, N. Rega, J. M. Millam, M. Klene, J. E. Knox, J. B. Cross, 
 V. Bakken, C. Adamo, J. Jaramillo, R. Gomperts, R. E. Stratmann, 
 O. Yazyev, A. J. Austin, R. Cammi, C. Pomelli, J. W. Ochterski, 
 R. L. Martin, K. Morokuma, V. G. Zakrzewski, G. A. Voth, 
 P. Salvador, J. J. Dannenberg, S. Dapprich, A. D. Daniels, 
 O. Farkas, J. B. Foresman, J. V. Ortiz, J. Cioslowski, 
 and D. J. Fox, Gaussian, Inc., Wallingford CT, 2013.
 
 ******************************************
 Gaussian 09:  ES64L-G09RevE.01 30-Nov-2015
                14-Nov-2019 
 ******************************************
 %chk=CP19_carboxy.M062X_6-311pGd_opt_Pentadecane_GD3.chk
 %mem=196608000
 %nproc=8
 Will use up to    8 processors via shared memory.
 ----------------------------------------------------------------------
 # M062X/6-311+G* SCF=Tight INT(grid=ultrafine) OPT IOP(2/17=4) Empiric
 alDispersion=GD3 SCRF=(SMD,Solvent=n-Pentadecane) maxdisk=2684354560
 ----------------------------------------------------------------------
 1/14=-1,18=20,19=15,26=4,38=1/1,3;
 2/9=110,12=2,17=4,18=5,40=1/2;
 3/5=4,6=6,7=11,11=2,16=1,25=1,30=1,70=32201,71=1,72=151,74=-55,75=-5,124=31/1,2,3;
 4//1;
 5/5=2,32=2,38=5,53=151/2;
 6/7=2,8=2,9=2,10=2,28=1/1;
 7//1,2,3,16;
 1/14=-1,18=20,19=15,26=4/3(2);
 2/9=110,17=4/2;
 99//99;
 2/9=110,17=4/2;
 3/5=4,6=6,7=11,11=2,16=1,25=1,30=1,70=32205,71=1,72=151,74=-55,75=-5,124=31/1,2,3;
 4/5=5,16=3,69=1/1;
 5/5=2,32=2,38=5,53=151/2;
 7//1,2,3,16;
 1/14=-1,18=20,19=15,26=4/3(-5);
 2/9=110,17=4/2;
 6/7=2,8=2,9=2,10=2,19=2,28=1/1;
 99/9=1/99;
 -----------------------------------------------
 CP19_carboxy.M062X_6-311pGd_opt_Pentadecane_GD3
 -----------------------------------------------
 Symbolic Z-matrix:
 Charge = -1 Multiplicity = 1
 C                    -6.26468   1.11729  -0.03202 
 N                    -5.00088   0.57657  -0.03195 
 C                    -3.78956   1.25935  -0.04363 
 O                    -3.69714   2.483    -0.06391 
 N                    -2.72194   0.43168  -0.02405 
 C                    -1.37713   0.96707  -0.07606 
 C                    -0.36543  -0.13542   0.20714 
 C                     1.06557   0.38533   0.13877 
 C                    -6.54524   2.49581  -0.03216 
 C                    -7.86154   2.92137  -0.02929 
 C                    -8.93685   2.03309  -0.02601 
 C                    -8.64548   0.66616  -0.02573 
 C                    -7.34425   0.21056  -0.02852 
 H                    -4.96999  -0.46217  -0.02546 
 H                    -2.843    -0.59056  -0.06924 
 H                    -1.27934   1.77206   0.65909 
 H                    -1.17929   1.41571  -1.05849 
 H                    -0.50858  -0.95018  -0.50869 
 H                    -0.56997  -0.55862   1.19536 
 H                     1.2943    0.78576  -0.8531 
 H                     1.78743  -0.40702   0.34969 
 H                     1.23109   1.187     0.86449 
 H                    -5.73946   3.21306  -0.03477 
 Cl                   -8.14324   4.64982  -0.02824 
 C                    -10.35581   2.50002  -0.02212 
 H                    -9.45832  -0.04962  -0.02311 
 H                    -7.12962  -0.85267  -0.02824 
 F                    -11.22069   1.46948  -0.02137 
 F                    -10.66458   3.24702   1.05604 
 F                    -10.67023   3.24973  -1.09668 
 O                    -5.15951  -2.18285  -0.0288 
 O                    -2.93933  -2.39743  -0.1491 
 C                    -4.09966  -2.86039  -0.09291 
 C                    -4.27962  -4.38348  -0.1039 
 C                    -2.98157  -5.17544  -0.14123 
 H                    -4.91037  -4.62455  -0.96565 
 H                    -4.87428  -4.64358   0.77742 
 H                    -2.39636  -4.9259   -1.02811 
 H                    -3.17539  -6.25224  -0.15049 
 H                    -2.35978  -4.94835   0.72677 
 
 Add virtual bond connecting atoms O31        and H14        Dist= 3.27D+00.
 Add virtual bond connecting atoms O32        and H15        Dist= 3.42D+00.

 GradGradGradGradGradGradGradGradGradGradGradGradGradGradGradGradGradGrad
 Berny optimization.
 Initialization pass.
                           ----------------------------
                           !    Initial Parameters    !
                           ! (Angstroms and Degrees)  !
 --------------------------                            --------------------------
 ! Name  Definition              Value          Derivative Info.                !
 --------------------------------------------------------------------------------
 ! R1    R(1,2)                  1.3746         estimate D2E/DX2                !
 ! R2    R(1,9)                  1.4068         estimate D2E/DX2                !
 ! R3    R(1,13)                 1.4098         estimate D2E/DX2                !
 ! R4    R(2,3)                  1.3906         estimate D2E/DX2                !
 ! R5    R(2,14)                 1.0392         estimate D2E/DX2                !
 ! R6    R(3,4)                  1.2273         estimate D2E/DX2                !
 ! R7    R(3,5)                  1.351          estimate D2E/DX2                !
 ! R8    R(5,6)                  1.4484         estimate D2E/DX2                !
 ! R9    R(5,15)                 1.0304         estimate D2E/DX2                !
 ! R10   R(6,7)                  1.5229         estimate D2E/DX2                !
 ! R11   R(6,16)                 1.0945         estimate D2E/DX2                !
 ! R12   R(6,17)                 1.098          estimate D2E/DX2                !
 ! R13   R(7,8)                  1.5243         estimate D2E/DX2                !
 ! R14   R(7,18)                 1.094          estimate D2E/DX2                !
 ! R15   R(7,19)                 1.0943         estimate D2E/DX2                !
 ! R16   R(8,20)                 1.0938         estimate D2E/DX2                !
 ! R17   R(8,21)                 1.0924         estimate D2E/DX2                !
 ! R18   R(8,22)                 1.094          estimate D2E/DX2                !
 ! R19   R(9,10)                 1.3834         estimate D2E/DX2                !
 ! R20   R(9,23)                 1.0788         estimate D2E/DX2                !
 ! R21   R(10,11)                1.3948         estimate D2E/DX2                !
 ! R22   R(10,24)                1.7512         estimate D2E/DX2                !
 ! R23   R(11,12)                1.3976         estimate D2E/DX2                !
 ! R24   R(11,25)                1.4938         estimate D2E/DX2                !
 ! R25   R(12,13)                1.3787         estimate D2E/DX2                !
 ! R26   R(12,26)                1.0831         estimate D2E/DX2                !
 ! R27   R(13,27)                1.0847         estimate D2E/DX2                !
 ! R28   R(14,31)                1.7311         estimate D2E/DX2                !
 ! R29   R(15,32)                1.8112         estimate D2E/DX2                !
 ! R30   R(25,28)                1.3454         estimate D2E/DX2                !
 ! R31   R(25,29)                1.3475         estimate D2E/DX2                !
 ! R32   R(25,30)                1.3474         estimate D2E/DX2                !
 ! R33   R(31,33)                1.2595         estimate D2E/DX2                !
 ! R34   R(32,33)                1.2505         estimate D2E/DX2                !
 ! R35   R(33,34)                1.5337         estimate D2E/DX2                !
 ! R36   R(34,35)                1.521          estimate D2E/DX2                !
 ! R37   R(34,36)                1.0948         estimate D2E/DX2                !
 ! R38   R(34,37)                1.0945         estimate D2E/DX2                !
 ! R39   R(35,38)                1.0915         estimate D2E/DX2                !
 ! R40   R(35,39)                1.0941         estimate D2E/DX2                !
 ! R41   R(35,40)                1.0916         estimate D2E/DX2                !
 ! A1    A(2,1,9)              124.668          estimate D2E/DX2                !
 ! A2    A(2,1,13)             116.8091         estimate D2E/DX2                !
 ! A3    A(9,1,13)             118.5227         estimate D2E/DX2                !
 ! A4    A(1,2,3)              127.4261         estimate D2E/DX2                !
 ! A5    A(1,2,14)             114.8672         estimate D2E/DX2                !
 ! A6    A(3,2,14)             117.7064         estimate D2E/DX2                !
 ! A7    A(2,3,4)              123.7304         estimate D2E/DX2                !
 ! A8    A(2,3,5)              112.7961         estimate D2E/DX2                !
 ! A9    A(4,3,5)              123.4728         estimate D2E/DX2                !
 ! A10   A(3,5,6)              120.4473         estimate D2E/DX2                !
 ! A11   A(3,5,15)             120.9516         estimate D2E/DX2                !
 ! A12   A(6,5,15)             118.3096         estimate D2E/DX2                !
 ! A13   A(5,6,7)              110.0314         estimate D2E/DX2                !
 ! A14   A(5,6,16)             109.3104         estimate D2E/DX2                !
 ! A15   A(5,6,17)             110.5152         estimate D2E/DX2                !
 ! A16   A(7,6,16)             110.3761         estimate D2E/DX2                !
 ! A17   A(7,6,17)             110.0288         estimate D2E/DX2                !
 ! A18   A(16,6,17)            106.5207         estimate D2E/DX2                !
 ! A19   A(6,7,8)              111.5916         estimate D2E/DX2                !
 ! A20   A(6,7,18)             109.3034         estimate D2E/DX2                !
 ! A21   A(6,7,19)             108.8886         estimate D2E/DX2                !
 ! A22   A(8,7,18)             110.3604         estimate D2E/DX2                !
 ! A23   A(8,7,19)             110.3701         estimate D2E/DX2                !
 ! A24   A(18,7,19)            106.1668         estimate D2E/DX2                !
 ! A25   A(7,8,20)             111.2249         estimate D2E/DX2                !
 ! A26   A(7,8,21)             111.3389         estimate D2E/DX2                !
 ! A27   A(7,8,22)             111.2615         estimate D2E/DX2                !
 ! A28   A(20,8,21)            107.6038         estimate D2E/DX2                !
 ! A29   A(20,8,22)            107.5565         estimate D2E/DX2                !
 ! A30   A(21,8,22)            107.6654         estimate D2E/DX2                !
 ! A31   A(1,9,10)             119.4202         estimate D2E/DX2                !
 ! A32   A(1,9,23)             120.1694         estimate D2E/DX2                !
 ! A33   A(10,9,23)            120.4104         estimate D2E/DX2                !
 ! A34   A(9,10,11)            122.5247         estimate D2E/DX2                !
 ! A35   A(9,10,24)            117.1729         estimate D2E/DX2                !
 ! A36   A(11,10,24)           120.3023         estimate D2E/DX2                !
 ! A37   A(10,11,12)           117.5264         estimate D2E/DX2                !
 ! A38   A(10,11,25)           122.2261         estimate D2E/DX2                !
 ! A39   A(12,11,25)           120.2475         estimate D2E/DX2                !
 ! A40   A(11,12,13)           121.329          estimate D2E/DX2                !
 ! A41   A(11,12,26)           119.3341         estimate D2E/DX2                !
 ! A42   A(13,12,26)           119.3368         estimate D2E/DX2                !
 ! A43   A(1,13,12)            120.6769         estimate D2E/DX2                !
 ! A44   A(1,13,27)            118.6143         estimate D2E/DX2                !
 ! A45   A(12,13,27)           120.7088         estimate D2E/DX2                !
 ! A46   A(11,25,28)           111.7902         estimate D2E/DX2                !
 ! A47   A(11,25,29)           113.1429         estimate D2E/DX2                !
 ! A48   A(11,25,30)           113.1723         estimate D2E/DX2                !
 ! A49   A(28,25,29)           106.0737         estimate D2E/DX2                !
 ! A50   A(28,25,30)           106.0586         estimate D2E/DX2                !
 ! A51   A(29,25,30)           106.0318         estimate D2E/DX2                !
 ! A52   A(14,31,33)           116.2743         estimate D2E/DX2                !
 ! A53   A(15,32,33)           114.6261         estimate D2E/DX2                !
 ! A54   A(31,33,32)           125.7245         estimate D2E/DX2                !
 ! A55   A(31,33,34)           115.8383         estimate D2E/DX2                !
 ! A56   A(32,33,34)           118.4371         estimate D2E/DX2                !
 ! A57   A(33,34,35)           114.6522         estimate D2E/DX2                !
 ! A58   A(33,34,36)           106.9725         estimate D2E/DX2                !
 ! A59   A(33,34,37)           107.0956         estimate D2E/DX2                !
 ! A60   A(35,34,36)           110.9592         estimate D2E/DX2                !
 ! A61   A(35,34,37)           111.0807         estimate D2E/DX2                !
 ! A62   A(36,34,37)           105.5728         estimate D2E/DX2                !
 ! A63   A(34,35,38)           111.0062         estimate D2E/DX2                !
 ! A64   A(34,35,39)           111.19           estimate D2E/DX2                !
 ! A65   A(34,35,40)           110.994          estimate D2E/DX2                !
 ! A66   A(38,35,39)           108.2461         estimate D2E/DX2                !
 ! A67   A(38,35,40)           107.0458         estimate D2E/DX2                !
 ! A68   A(39,35,40)           108.2024         estimate D2E/DX2                !
 ! A69   L(2,14,31,7,-1)       188.0025         estimate D2E/DX2                !
 ! A70   L(5,15,32,7,-1)       176.3218         estimate D2E/DX2                !
 ! A71   L(2,14,31,7,-2)       180.062          estimate D2E/DX2                !
 ! A72   L(5,15,32,7,-2)       180.4024         estimate D2E/DX2                !
 ! D1    D(9,1,2,3)             -0.6029         estimate D2E/DX2                !
 ! D2    D(9,1,2,14)           179.6123         estimate D2E/DX2                !
 ! D3    D(13,1,2,3)           179.5523         estimate D2E/DX2                !
 ! D4    D(13,1,2,14)           -0.2325         estimate D2E/DX2                !
 ! D5    D(2,1,9,10)          -179.8608         estimate D2E/DX2                !
 ! D6    D(2,1,9,23)             0.1561         estimate D2E/DX2                !
 ! D7    D(13,1,9,10)           -0.0184         estimate D2E/DX2                !
 ! D8    D(13,1,9,23)          179.9985         estimate D2E/DX2                !
 ! D9    D(2,1,13,12)          179.8743         estimate D2E/DX2                !
 ! D10   D(2,1,13,27)           -0.1355         estimate D2E/DX2                !
 ! D11   D(9,1,13,12)            0.0196         estimate D2E/DX2                !
 ! D12   D(9,1,13,27)         -179.9902         estimate D2E/DX2                !
 ! D13   D(1,2,3,4)             -0.4455         estimate D2E/DX2                !
 ! D14   D(1,2,3,5)            179.2692         estimate D2E/DX2                !
 ! D15   D(14,2,3,4)           179.3339         estimate D2E/DX2                !
 ! D16   D(14,2,3,5)            -0.9514         estimate D2E/DX2                !
 ! D17   D(1,2,31,33)          176.6392         estimate D2E/DX2                !
 ! D18   D(3,2,31,33)           -2.8514         estimate D2E/DX2                !
 ! D19   D(2,3,5,6)            177.9952         estimate D2E/DX2                !
 ! D20   D(2,3,5,15)             4.3008         estimate D2E/DX2                !
 ! D21   D(4,3,5,6)             -2.2892         estimate D2E/DX2                !
 ! D22   D(4,3,5,15)          -175.9837         estimate D2E/DX2                !
 ! D23   D(3,5,6,7)            169.9836         estimate D2E/DX2                !
 ! D24   D(3,5,6,16)            48.6214         estimate D2E/DX2                !
 ! D25   D(3,5,6,17)           -68.3041         estimate D2E/DX2                !
 ! D26   D(15,5,6,7)           -16.158          estimate D2E/DX2                !
 ! D27   D(15,5,6,16)         -137.5202         estimate D2E/DX2                !
 ! D28   D(15,5,6,17)          105.5543         estimate D2E/DX2                !
 ! D29   D(3,5,32,33)           -6.7532         estimate D2E/DX2                !
 ! D30   D(6,5,32,33)          179.4224         estimate D2E/DX2                !
 ! D31   D(5,6,7,8)            179.0715         estimate D2E/DX2                !
 ! D32   D(5,6,7,18)            56.7217         estimate D2E/DX2                !
 ! D33   D(5,6,7,19)           -58.8509         estimate D2E/DX2                !
 ! D34   D(16,6,7,8)           -60.2053         estimate D2E/DX2                !
 ! D35   D(16,6,7,18)          177.4449         estimate D2E/DX2                !
 ! D36   D(16,6,7,19)           61.8723         estimate D2E/DX2                !
 ! D37   D(17,6,7,8)            57.0701         estimate D2E/DX2                !
 ! D38   D(17,6,7,18)          -65.2797         estimate D2E/DX2                !
 ! D39   D(17,6,7,19)          179.1477         estimate D2E/DX2                !
 ! D40   D(6,7,8,20)           -60.4127         estimate D2E/DX2                !
 ! D41   D(6,7,8,21)           179.5842         estimate D2E/DX2                !
 ! D42   D(6,7,8,22)            59.4783         estimate D2E/DX2                !
 ! D43   D(18,7,8,20)           61.3281         estimate D2E/DX2                !
 ! D44   D(18,7,8,21)          -58.675          estimate D2E/DX2                !
 ! D45   D(18,7,8,22)         -178.7808         estimate D2E/DX2                !
 ! D46   D(19,7,8,20)          178.3669         estimate D2E/DX2                !
 ! D47   D(19,7,8,21)           58.3639         estimate D2E/DX2                !
 ! D48   D(19,7,8,22)          -61.742          estimate D2E/DX2                !
 ! D49   D(1,9,10,11)            0.0102         estimate D2E/DX2                !
 ! D50   D(1,9,10,24)          179.9487         estimate D2E/DX2                !
 ! D51   D(23,9,10,11)         179.9933         estimate D2E/DX2                !
 ! D52   D(23,9,10,24)          -0.0683         estimate D2E/DX2                !
 ! D53   D(9,10,11,12)          -0.0024         estimate D2E/DX2                !
 ! D54   D(9,10,11,25)         179.9637         estimate D2E/DX2                !
 ! D55   D(24,10,11,12)       -179.939          estimate D2E/DX2                !
 ! D56   D(24,10,11,25)          0.0271         estimate D2E/DX2                !
 ! D57   D(10,11,12,13)          0.0033         estimate D2E/DX2                !
 ! D58   D(10,11,12,26)        179.9935         estimate D2E/DX2                !
 ! D59   D(25,11,12,13)       -179.9635         estimate D2E/DX2                !
 ! D60   D(25,11,12,26)          0.0267         estimate D2E/DX2                !
 ! D61   D(10,11,25,28)        179.9094         estimate D2E/DX2                !
 ! D62   D(10,11,25,29)        -60.4113         estimate D2E/DX2                !
 ! D63   D(10,11,25,30)         60.2288         estimate D2E/DX2                !
 ! D64   D(12,11,25,28)         -0.1255         estimate D2E/DX2                !
 ! D65   D(12,11,25,29)        119.5539         estimate D2E/DX2                !
 ! D66   D(12,11,25,30)       -119.806          estimate D2E/DX2                !
 ! D67   D(11,12,13,1)          -0.0122         estimate D2E/DX2                !
 ! D68   D(11,12,13,27)        179.9978         estimate D2E/DX2                !
 ! D69   D(26,12,13,1)         179.9976         estimate D2E/DX2                !
 ! D70   D(26,12,13,27)          0.0076         estimate D2E/DX2                !
 ! D71   D(14,31,33,32)          0.2435         estimate D2E/DX2                !
 ! D72   D(14,31,33,34)       -179.639          estimate D2E/DX2                !
 ! D73   D(15,32,33,31)          2.2234         estimate D2E/DX2                !
 ! D74   D(15,32,33,34)       -177.8969         estimate D2E/DX2                !
 ! D75   D(31,33,34,35)       -178.3157         estimate D2E/DX2                !
 ! D76   D(31,33,34,36)         58.2095         estimate D2E/DX2                !
 ! D77   D(31,33,34,37)        -54.5914         estimate D2E/DX2                !
 ! D78   D(32,33,34,35)          1.7927         estimate D2E/DX2                !
 ! D79   D(32,33,34,36)       -121.682          estimate D2E/DX2                !
 ! D80   D(32,33,34,37)        125.517          estimate D2E/DX2                !
 ! D81   D(33,34,35,38)        -59.2624         estimate D2E/DX2                !
 ! D82   D(33,34,35,39)       -179.8311         estimate D2E/DX2                !
 ! D83   D(33,34,35,40)         59.6639         estimate D2E/DX2                !
 ! D84   D(36,34,35,38)         62.0524         estimate D2E/DX2                !
 ! D85   D(36,34,35,39)        -58.5163         estimate D2E/DX2                !
 ! D86   D(36,34,35,40)       -179.0213         estimate D2E/DX2                !
 ! D87   D(37,34,35,38)        179.1664         estimate D2E/DX2                !
 ! D88   D(37,34,35,39)         58.5977         estimate D2E/DX2                !
 ! D89   D(37,34,35,40)        -61.9074         estimate D2E/DX2                !
 --------------------------------------------------------------------------------
 Trust Radius=3.00D-01 FncErr=1.00D-07 GrdErr=1.00D-06
 Number of steps in this run=    212 maximum allowed number of steps=    240.
 GradGradGradGradGradGradGradGradGradGradGradGradGradGradGradGradGradGrad

                          Input orientation:                          
 ---------------------------------------------------------------------
 Center     Atomic      Atomic             Coordinates (Angstroms)
 Number     Number       Type             X           Y           Z
 ---------------------------------------------------------------------
      1          6           0       -6.264676    1.117294   -0.032015
      2          7           0       -5.000882    0.576570   -0.031947
      3          6           0       -3.789556    1.259348   -0.043626
      4          8           0       -3.697139    2.483004   -0.063910
      5          7           0       -2.721942    0.431680   -0.024055
      6          6           0       -1.377127    0.967068   -0.076061
      7          6           0       -0.365434   -0.135423    0.207136
      8          6           0        1.065573    0.385327    0.138767
      9          6           0       -6.545239    2.495807   -0.032161
     10          6           0       -7.861542    2.921373   -0.029290
     11          6           0       -8.936851    2.033088   -0.026009
     12          6           0       -8.645484    0.666155   -0.025731
     13          6           0       -7.344251    0.210562   -0.028524
     14          1           0       -4.969986   -0.462168   -0.025459
     15          1           0       -2.843000   -0.590556   -0.069237
     16          1           0       -1.279345    1.772059    0.659095
     17          1           0       -1.179290    1.415706   -1.058493
     18          1           0       -0.508579   -0.950178   -0.508695
     19          1           0       -0.569973   -0.558619    1.195359
     20          1           0        1.294295    0.785759   -0.853104
     21          1           0        1.787430   -0.407017    0.349691
     22          1           0        1.231088    1.187003    0.864494
     23          1           0       -5.739465    3.213058   -0.034768
     24         17           0       -8.143244    4.649816   -0.028243
     25          6           0      -10.355805    2.500025   -0.022119
     26          1           0       -9.458321   -0.049623   -0.023112
     27          1           0       -7.129624   -0.852675   -0.028245
     28          9           0      -11.220693    1.469478   -0.021371
     29          9           0      -10.664582    3.247018    1.056043
     30          9           0      -10.670232    3.249729   -1.096679
     31          8           0       -5.159507   -2.182849   -0.028796
     32          8           0       -2.939329   -2.397428   -0.149098
     33          6           0       -4.099659   -2.860395   -0.092910
     34          6           0       -4.279617   -4.383479   -0.103899
     35          6           0       -2.981572   -5.175443   -0.141226
     36          1           0       -4.910365   -4.624551   -0.965649
     37          1           0       -4.874277   -4.643578    0.777420
     38          1           0       -2.396358   -4.925904   -1.028108
     39          1           0       -3.175385   -6.252236   -0.150492
     40          1           0       -2.359782   -4.948346    0.726769
 ---------------------------------------------------------------------
                    Distance matrix (angstroms):
                    1          2          3          4          5
     1  C    0.000000
     2  N    1.374612   0.000000
     3  C    2.479220   1.390551   0.000000
     4  O    2.908338   2.309817   1.227308   0.000000
     5  N    3.608476   2.283555   1.351007   2.271680   0.000000
     6  C    4.890055   3.645001   2.430287   2.771400   1.448403
     7  C    6.035523   4.695899   3.705790   4.246160   2.434785
     8  C    7.368683   6.071869   4.936543   5.208142   3.791296
     9  C    1.406775   2.463434   3.020389   2.848306   4.344915
    10  C    2.409292   3.698849   4.398135   4.187555   5.710875
    11  C    2.824754   4.196824   5.205154   5.259130   6.417913
    12  C    2.423183   3.645709   4.892059   5.271482   5.928182
    13  C    1.409843   2.371783   3.706216   4.297287   4.627597
    14  H    2.042294   1.039217   2.087429   3.208684   2.419229
    15  H    3.824395   2.453574   2.078165   3.190039   1.030370
    16  H    5.075419   3.969454   2.656661   2.621813   2.084321
    17  H    5.196523   4.045059   2.804976   2.909962   2.101938
    18  H    6.134681   4.768546   3.982851   4.706536   2.653937
    19  H    6.061747   4.735809   3.899462   4.540528   2.664326
    20  H    7.610661   6.351954   5.169632   5.330843   4.116170
    21  H    8.204001   6.869808   5.833888   6.213194   4.601905
    22  H    7.549508   6.325637   5.102625   5.179668   4.121465
    23  H    2.160575   2.737989   2.760291   2.169084   4.103855
    24  Cl   4.000969   5.144491   5.518162   4.946131   6.869004
    25  C    4.318493   5.689902   6.682467   6.658820   7.909104
    26  H    3.400168   4.501218   5.817966   6.293417   6.753552
    27  H    2.151494   2.564039   3.951826   4.786437   4.590996
    28  F    4.968526   6.283586   7.434141   7.591635   8.561882
    29  F    5.007871   6.355511   7.240586   7.098118   8.495780
    30  F    5.008963   6.357748   7.239767   7.090734   8.501014
    31  O    3.480280   2.763976   3.704822   4.889778   3.574564
    32  O    4.839928   3.620550   3.755798   4.939650   2.840201
    33  C    4.529129   3.553681   4.131692   5.358617   3.569398
    34  C    5.848429   5.012732   5.664388   6.891260   5.061470
    35  C    7.098537   6.097148   6.486055   7.692192   5.614353
    36  H    5.972823   5.285041   6.060249   7.266526   5.589389
    37  H    5.981307   5.284037   6.057662   7.271978   5.570740
    38  H    7.244054   6.168720   6.416195   7.583774   5.460571
    39  H    7.991728   7.069589   7.537409   8.751236   6.700472
    40  H    7.253684   6.170556   6.416637   7.592013   5.444224
                    6          7          8          9         10
     6  C    0.000000
     7  C    1.522895   0.000000
     8  C    2.520190   1.524348   0.000000
     9  C    5.389652   6.720909   7.899861   0.000000
    10  C    6.772675   8.098859   9.281872   1.383390   0.000000
    11  C    7.634679   8.844545  10.138577   2.435971   1.394758
    12  C    7.274757   8.322018   9.716510   2.785444   2.387590
    13  C    6.015075   6.991360   8.413303   2.420905   2.759726
    14  H    3.867028   4.621986   6.096982   3.351280   4.450781
    15  H    2.138930   2.534139   4.033926   4.820122   6.125438
    16  H    1.094543   2.162864   2.773519   5.360157   6.717151
    17  H    1.097993   2.161060   2.744909   5.568966   6.926671
    18  H    2.148809   1.093952   2.163501   6.967292   8.323749
    19  H    2.143765   1.094311   2.163893   6.822032   8.171725
    20  H    2.788041   2.174256   1.093832   8.065762   9.437631
    21  H    3.476176   2.174606   1.092418   8.832076  10.213935
    22  H    2.781331   2.174814   1.093966   7.936511   9.299613
    23  H    4.906747   6.336485   7.371209   1.078762   2.142037
    24  Cl   7.703588   9.135001  10.149684   2.682050   1.751250
    25  C    9.108761  10.334682  11.616614   3.810582   2.529612
    26  H    8.145070   9.096206  10.534123   3.868507   3.372916
    27  H    6.033653   6.806182   8.289861   3.399096   3.844365
    28  F    9.856531  10.975635  12.335046   4.786789   3.659503
    29  F    9.629987  10.873546  12.108973   4.326372   3.023414
    30  F    9.623616  10.924652  12.143321   4.326334   3.022561
    31  O    4.922459   5.218309   6.736114   4.879558   5.775298
    32  O    3.710208   3.445070   4.885267   6.079474   7.247908
    33  C    4.697013   4.632487   6.104753   5.888416   6.898162
    34  C    6.087165   5.784769   7.167388   7.243118   8.136130
    35  C    6.348931   5.689230   6.883309   8.459296   9.454367
    36  H    6.673930   6.494929   7.875942   7.365033   8.156420
    37  H    6.666171   6.401433   7.808942   7.376880   8.173311
    38  H    6.055770   5.347821   6.446374   8.560778   9.614865
    39  H    7.440270   6.740855   7.882046   9.375402  10.301934
    40  H    6.049981   5.235616   6.366072   8.573765   9.631898
                   11         12         13         14         15
    11  C    0.000000
    12  C    1.397641   0.000000
    13  C    2.420327   1.378689   0.000000
    14  H    4.686397   3.844789   2.467733   0.000000
    15  H    6.634786   5.937174   4.572166   2.131307   0.000000
    16  H    7.692523   7.480108   6.300332   4.368205   2.925309
    17  H    7.850282   7.574462   6.365528   4.354646   2.787767
    18  H    8.953693   8.309934   6.950129   4.513958   2.402493
    19  H    8.843830   8.258633   6.926786   4.567255   2.601322
    20  H   10.340033   9.974872   8.696854   6.440772   4.430113
    21  H   11.004793  10.494682   9.160352   6.768046   4.652964
    22  H   10.241867   9.930280   8.676829   6.478047   4.542000
    23  H    3.408179   3.864162   3.404463   3.754926   4.781022
    24  Cl   2.734426   4.015197   4.510585   6.016806   7.453574
    25  C    1.493813   2.507646   3.783007   6.146678   8.123801
    26  H    2.147004   1.083074   2.130028   4.507256   6.637560
    27  H    3.404953   2.145853   1.084683   2.194661   4.294826
    28  F    2.352364   2.697600   4.075749   6.542371   8.627385
    29  F    2.372661   3.450775   4.628278   6.881579   8.784667
    30  F    2.373006   3.452735   4.630296   6.886108   8.778894
    31  O    5.660606   4.502096   3.240605   1.731090   2.811269
    32  O    7.457539   6.477728   5.120496   2.807861   1.811199
    33  C    6.881066   5.753746   4.467918   2.552158   2.594595
    34  C    7.928948   6.675756   5.522940   3.982392   4.056025
    35  C    9.351018   8.137415   6.932151   5.116850   4.587546
    36  H    7.837071   6.544168   5.493662   4.267664   4.620679
    37  H    7.856709   6.562037   5.505723   4.258869   4.611930
    38  H    9.602595   8.445559   7.201673   5.249172   4.462529
    39  H   10.092402   8.820527   7.691688   6.063095   5.672011
    40  H    9.621067   8.461616   7.213164   5.244503   4.456172
                   16         17         18         19         20
    16  H    0.000000
    17  H    1.757016   0.000000
    18  H    3.060782   2.519829   0.000000
    19  H    2.494563   3.057626   1.749539   0.000000
    20  H    3.143749   2.560790   2.526352   3.078807   0.000000
    21  H    3.774813   3.755893   2.510679   2.509081   1.764260
    22  H    2.585875   3.091943   3.078902   2.529919   1.764976
    23  H    4.738206   5.007362   6.702187   6.516319   7.485669
    24  Cl   7.474426   7.747099   9.480447   9.272510  10.231251
    25  C    9.131053   9.298293  10.445502  10.324731  11.804833
    26  H    8.407115   8.471219   9.008034   8.985905  10.816909
    27  H    6.448831   6.450847   6.639169   6.679273   8.621327
    28  F    9.969203  10.094964  10.992798  10.910154  12.561218
    29  F    9.508720   9.889172  11.099967  10.789042  12.357888
    30  F    9.667213   9.666595  11.011091  11.035043  12.218036
    31  O    5.583023   5.463698   4.835381   5.020010   7.151481
    32  O    4.559971   4.297060   2.851734   3.286736   5.343396
    33  C    5.475336   5.267442   4.088723   4.406415   6.554928
    34  C    6.890169   6.644834   5.115871   5.484440   7.638771
    35  C    7.197629   6.894406   4.909540   5.377484   7.370599
    36  H    7.532644   7.100299   5.752004   6.327778   8.232979
    37  H    7.355129   7.330650   5.861280   5.948831   8.377803
    38  H    6.996933   6.457414   4.431692   5.229978   6.802546
    39  H    8.284908   7.975349   5.945753   6.404433   8.366904
    40  H    6.807038   6.714304   4.575879   4.763685   6.980562
                   21         22         23         24         25
    21  H    0.000000
    22  H    1.765061   0.000000
    23  H    8.361035   7.314518   0.000000
    24  Cl  11.150457  10.033253   2.800442   0.000000
    25  C   12.491889  11.694708   4.671100   3.084974   0.000000
    26  H   11.257603  10.797248   4.947234   4.879978   2.702995
    27  H    8.936179   8.652096   4.296833   5.595073   4.652836
    28  F   13.148011  12.486449   5.751880   4.425528   1.345385
    29  F   12.996289  12.074242   5.044582   3.082315   1.347508
    30  F   13.063580  12.236930   5.043953   3.080173   1.347441
    31  O    7.180304   7.279669   5.426988   7.455736   6.995060
    32  O    5.152939   5.591770   6.271474   8.761220   8.888491
    33  C    6.393182   6.761281   6.291198   8.529832   8.238839
    34  C    7.268222   7.895310   7.735846   9.825160   9.182014
    35  C    6.761824   7.696668   8.830870  11.099160  10.644544
    36  H    8.023601   8.651072   7.936125   9.866313   9.016798
    37  H    7.906310   8.442674   7.945749   9.884454   9.039772
    38  H    6.310527   7.355810   8.854705  11.212531  10.932028
    39  H    7.684159   8.705716   9.807125  11.981207  11.321527
    40  H    6.161593   7.110262   8.866269  11.231349  10.953331
                   26         27         28         29         30
    26  H    0.000000
    27  H    2.463281   0.000000
    28  F    2.326720   4.704178   0.000000
    29  F    3.672531   5.520788   2.151681   0.000000
    30  F    3.675187   5.523330   2.151416   2.152731   0.000000
    31  O    4.799009   2.377125   7.076547   7.808084   7.811617
    32  O    6.930030   4.467598   9.140583   9.643219   9.620558
    33  C    6.051493   3.635355   8.334389   9.039845   9.028488
    34  C    6.753355   4.538153   9.079783  10.016872  10.004570
    35  C    8.260524   5.992113  10.585483  11.462982  11.446043
    36  H    6.519375   4.475588   8.823213   9.957904   9.756922
    37  H    6.539017   4.484042   8.847854   9.791158   9.970438
    38  H    8.640571   6.324138  10.944557  11.811176  11.631967
    39  H    8.829718   6.693744  11.152063  12.156464  12.139000
    40  H    8.657313   6.332137  10.966491  11.672280  11.815116
                   31         32         33         34         35
    31  O    0.000000
    32  O    2.233765   0.000000
    33  C    1.259546   1.250544   0.000000
    34  C    2.371206   2.396417   1.533718   0.000000
    35  C    3.702926   2.778348   2.571362   1.521027   0.000000
    36  H    2.627104   3.084124   2.128654   1.094794   2.168732
    37  H    2.605097   3.106066   2.130082   1.094529   2.170051
    38  H    4.019698   2.731423   2.835870   2.166807   1.091469
    39  H    4.528958   3.862030   3.515990   2.171118   1.094136
    40  H    4.007158   2.758660   2.838765   2.166761   1.091610
                   36         37         38         39         40
    36  H    0.000000
    37  H    1.743547   0.000000
    38  H    2.532775   3.078916   0.000000
    39  H    2.514755   2.516949   1.770946   0.000000
    40  H    3.078084   2.533403   1.755402   1.770572   0.000000
 Stoichiometry    C14H17ClF3N2O3(1-)
 Framework group  C1[X(C14H17ClF3N2O3)]
 Deg. of freedom   114
 Full point group                 C1      NOp   1
 Largest Abelian subgroup         C1      NOp   1
 Largest concise Abelian subgroup C1      NOp   1
                         Standard orientation:                         
 ---------------------------------------------------------------------
 Center     Atomic      Atomic             Coordinates (Angstroms)
 Number     Number       Type             X           Y           Z
 ---------------------------------------------------------------------
      1          6           0        0.618968   -0.092543   -0.003856
      2          7           0       -0.743921   -0.271621   -0.008605
      3          6           0       -1.437893   -1.476082   -0.044792
      4          8           0       -0.893533   -2.575277   -0.086346
      5          7           0       -2.778322   -1.308744   -0.023152
      6          6           0       -3.662237   -2.453673   -0.098672
      7          6           0       -5.094914   -2.026673    0.191703
      8          6           0       -6.060427   -3.202620    0.099126
      9          6           0        1.563127   -1.135223   -0.023774
     10          6           0        2.912475   -0.830390   -0.013607
     11          6           0        3.384672    0.481669    0.016106
     12          6           0        2.437122    1.508879    0.035847
     13          6           0        1.085429    1.237553    0.026418
     14          1           0       -1.300077    0.605942    0.014748
     15          1           0       -3.195294   -0.366899   -0.050076
     16          1           0       -3.336641   -3.210462    0.621941
     17          1           0       -3.602791   -2.920938   -1.090498
     18          1           0       -5.386482   -1.238746   -0.508933
     19          1           0       -5.135629   -1.577990    1.188970
     20          1           0       -6.052118   -3.643977   -0.901675
     21          1           0       -7.085576   -2.893220    0.315264
     22          1           0       -5.794780   -3.990895    0.809630
     23          1           0        1.235609   -2.162803   -0.047042
     24         17           0        4.036016   -2.173495   -0.038117
     25          6           0        4.843420    0.803219    0.027725
     26          1           0        2.771467    2.538791    0.059180
     27          1           0        0.358728    2.042662    0.041968
     28          9           0        5.062069    2.130438    0.054968
     29          9           0        5.488883    0.296748    1.096670
     30          9           0        5.497132    0.339930   -1.055613
     31          8           0       -2.014274    2.182602    0.041976
     32          8           0       -4.033532    1.237909   -0.098945
     33          6           0       -3.271408    2.226431   -0.022454
     34          6           0       -3.893085    3.628411   -0.006254
     35          6           0       -5.413492    3.648713   -0.044605
     36          1           0       -3.472566    4.174325   -0.856968
     37          1           0       -3.514937    4.137775    0.885680
     38          1           0       -5.788893    3.153356   -0.941823
     39          1           0       -5.795723    4.673856   -0.033922
     40          1           0       -5.833436    3.119262    0.812682
 ---------------------------------------------------------------------
 Rotational constants (GHZ):      0.3554528      0.0956973      0.0766136
 Standard basis: 6-311+G(d) (5D, 7F)
 There are   588 symmetry adapted cartesian basis functions of A   symmetry.
 There are   565 symmetry adapted basis functions of A   symmetry.
   565 basis functions,   930 primitive gaussians,   588 cartesian basis functions
    92 alpha electrons       92 beta electrons
       nuclear repulsion energy      2087.9793533482 Hartrees.
 NAtoms=   40 NActive=   40 NUniq=   40 SFac= 1.00D+00 NAtFMM=   60 NAOKFM=F Big=F
 Integral buffers will be    131072 words long.
 Raffenetti 2 integral format.
 Two-electron integral symmetry is turned on.
 Nuclear repulsion after empirical dispersion term =     2087.9769994995 Hartrees.
 ------------------------------------------------------------------------------
 Polarizable Continuum Model (PCM)
 =================================
 Model                : PCM (using non-symmetric T matrix).
 Atomic radii         : SMD-Coulomb.
 Polarization charges : Total charges.
 Charge compensation  : None.
 Solution method      : On-the-fly selection.
 Cavity type          : VdW (van der Waals Surface) (Alpha=1.000).
 Cavity algorithm     : GePol (No added spheres)
                        Default sphere list used, NSphG=   40.
                        Lebedev-Laikov grids with approx.  5.0 points / Ang**2.
                        Smoothing algorithm: York/Karplus (Gamma=1.0000).
                        Polarization charges: spherical gaussians, with
                                              point-specific exponents (IZeta= 3).
                        Self-potential: point-specific (ISelfS= 7).
                        Self-field    : sphere-specific E.n sum rule (ISelfD= 2).
 1st derivatives      : Analytical E(r).r(x)/FMM algorithm (CHGder, D1EAlg=3).
                        Cavity 1st derivative terms included.
 Solvent              : n-Pentadecane, Eps=   2.033300 Eps(inf)=   2.049192
 ------------------------------------------------------------------------------
 ------------------------------------------------------------------------------
 Atomic radii for non-electrostatic terms: SMD-CDS.
 ------------------------------------------------------------------------------
 Nuclear repulsion after PCM non-electrostatic terms =     2087.9673972378 Hartrees.
 One-electron integrals computed using PRISM.
 NBasis=   565 RedAO= T EigKep=  1.28D-06  NBF=   565
 NBsUse=   563 1.00D-06 EigRej=  5.59D-07 NBFU=   563
 ExpMin= 4.38D-02 ExpMax= 1.06D+05 ExpMxC= 3.62D+03 IAcc=3 IRadAn=         5 AccDes= 0.00D+00
 Harris functional with IExCor= 1009 and IRadAn=       5 diagonalized for initial guess.
 HarFok:  IExCor= 1009 AccDes= 0.00D+00 IRadAn=         5 IDoV= 1 UseB2=F ITyADJ=14
 ICtDFT=  3500011 ScaDFX=  1.000000  1.000000  1.000000  1.000000
 FoFCou: FMM=F IPFlag=           0 FMFlag=      100000 FMFlg1=           0
         NFxFlg=           0 DoJE=T BraDBF=F KetDBF=T FulRan=T
         wScrn=  0.000000 ICntrl=     500 IOpCl=  0 I1Cent=   200000004 NGrid=           0
         NMat0=    1 NMatS0=      1 NMatT0=    0 NMatD0=    1 NMtDS0=    0 NMtDT0=    0
 Petite list used in FoFCou.
 Requested convergence on RMS density matrix=1.00D-08 within 128 cycles.
 Requested convergence on MAX density matrix=1.00D-06.
 Requested convergence on             energy=1.00D-06.
 No special actions if energy rises.
 Inv3:  Mode=1 IEnd=    29616492.
 Iteration    1 A*A^-1 deviation from unit magnitude is 5.77D-15 for    783.
 Iteration    1 A*A^-1 deviation from orthogonality  is 2.46D-15 for   1395    134.
 Iteration    1 A^-1*A deviation from unit magnitude is 7.66D-15 for    385.
 Iteration    1 A^-1*A deviation from orthogonality  is 1.03D-13 for   2059    946.
 Error on total polarization charges =  0.02413
 SCF Done:  E(RM062X) =  -1638.71742877     A.U. after   17 cycles
            NFock= 17  Conv=0.39D-08     -V/T= 2.0030
 SMD-CDS (non-electrostatic) energy       (kcal/mol) =      -6.03
 (included in total energy above)

 **********************************************************************

            Population analysis using the SCF density.

 **********************************************************************

 Orbital symmetries:
       Occupied  (A) (A) (A) (A) (A) (A) (A) (A) (A) (A) (A) (A)
                 (A) (A) (A) (A) (A) (A) (A) (A) (A) (A) (A) (A)
                 (A) (A) (A) (A) (A) (A) (A) (A) (A) (A) (A) (A)
                 (A) (A) (A) (A) (A) (A) (A) (A) (A) (A) (A) (A)
                 (A) (A) (A) (A) (A) (A) (A) (A) (A) (A) (A) (A)
                 (A) (A) (A) (A) (A) (A) (A) (A) (A) (A) (A) (A)
                 (A) (A) (A) (A) (A) (A) (A) (A) (A) (A) (A) (A)
                 (A) (A) (A) (A) (A) (A) (A) (A)
       Virtual   (A) (A) (A) (A) (A) (A) (A) (A) (A) (A) (A) (A)
                 (A) (A) (A) (A) (A) (A) (A) (A) (A) (A) (A) (A)
                 (A) (A) (A) (A) (A) (A) (A) (A) (A) (A) (A) (A)
                 (A) (A) (A) (A) (A) (A) (A) (A) (A) (A) (A) (A)
                 (A) (A) (A) (A) (A) (A) (A) (A) (A) (A) (A) (A)
                 (A) (A) (A) (A) (A) (A) (A) (A) (A) (A) (A) (A)
                 (A) (A) (A) (A) (A) (A) (A) (A) (A) (A) (A) (A)
                 (A) (A) (A) (A) (A) (A) (A) (A) (A) (A) (A) (A)
                 (A) (A) (A) (A) (A) (A) (A) (A) (A) (A) (A) (A)
                 (A) (A) (A) (A) (A) (A) (A) (A) (A) (A) (A) (A)
                 (A) (A) (A) (A) (A) (A) (A) (A) (A) (A) (A) (A)
                 (A) (A) (A) (A) (A) (A) (A) (A) (A) (A) (A) (A)
                 (A) (A) (A) (A) (A) (A) (A) (A) (A) (A) (A) (A)
                 (A) (A) (A) (A) (A) (A) (A) (A) (A) (A) (A) (A)
                 (A) (A) (A) (A) (A) (A) (A) (A) (A) (A) (A) (A)
                 (A) (A) (A) (A) (A) (A) (A) (A) (A) (A) (A) (A)
                 (A) (A) (A) (A) (A) (A) (A) (A) (A) (A) (A) (A)
                 (A) (A) (A) (A) (A) (A) (A) (A) (A) (A) (A) (A)
                 (A) (A) (A) (A) (A) (A) (A) (A) (A) (A) (A) (A)
                 (A) (A) (A) (A) (A) (A) (A) (A) (A) (A) (A) (A)
                 (A) (A) (A) (A) (A) (A) (A) (A) (A) (A) (A) (A)
                 (A) (A) (A) (A) (A) (A) (A) (A) (A) (A) (A) (A)
                 (A) (A) (A) (A) (A) (A) (A) (A) (A) (A) (A) (A)
                 (A) (A) (A) (A) (A) (A) (A) (A) (A) (A) (A) (A)
                 (A) (A) (A) (A) (A) (A) (A) (A) (A) (A) (A) (A)
                 (A) (A) (A) (A) (A) (A) (A) (A) (A) (A) (A) (A)
                 (A) (A) (A) (A) (A) (A) (A) (A) (A) (A) (A) (A)
                 (A) (A) (A) (A) (A) (A) (A) (A) (A) (A) (A) (A)
                 (A) (A) (A) (A) (A) (A) (A) (A) (A) (A) (A) (A)
                 (A) (A) (A) (A) (A) (A) (A) (A) (A) (A) (A) (A)
                 (A) (A) (A) (A) (A) (A) (A) (A) (A) (A) (A) (A)
                 (A) (A) (A) (A) (A) (A) (A) (A) (A) (A) (A) (A)
                 (A) (A) (A) (A) (A) (A) (A) (A) (A) (A) (A) (A)
                 (A) (A) (A) (A) (A) (A) (A) (A) (A) (A) (A) (A)
                 (A) (A) (A) (A) (A) (A) (A) (A) (A) (A) (A) (A)
                 (A) (A) (A) (A) (A) (A) (A) (A) (A) (A) (A) (A)
                 (A) (A) (A) (A) (A) (A) (A) (A) (A) (A) (A) (A)
                 (A) (A) (A) (A) (A) (A) (A) (A) (A) (A) (A) (A)
                 (A) (A) (A) (A) (A) (A) (A) (A) (A) (A) (A) (A)
                 (A) (A) (A)
 The electronic state is 1-A.
 Alpha  occ. eigenvalues -- -102.63650 -25.23845 -25.23233 -25.23232 -19.52427
 Alpha  occ. eigenvalues --  -19.50118 -19.49879 -14.70879 -14.68928 -10.76208
 Alpha  occ. eigenvalues --  -10.60789 -10.57490 -10.56254 -10.55538 -10.52485
 Alpha  occ. eigenvalues --  -10.51656 -10.51061 -10.50055 -10.49633 -10.48170
 Alpha  occ. eigenvalues --  -10.48123 -10.46886 -10.46558  -9.77940  -7.50448
 Alpha  occ. eigenvalues --   -7.49782  -7.49766  -1.42785  -1.33472  -1.32998
 Alpha  occ. eigenvalues --   -1.11276  -1.09174  -0.99872  -0.99226  -0.96731
 Alpha  occ. eigenvalues --   -0.95256  -0.89433  -0.84351  -0.82510  -0.80165
 Alpha  occ. eigenvalues --   -0.79511  -0.76317  -0.72718  -0.68361  -0.67090
 Alpha  occ. eigenvalues --   -0.66497  -0.65111  -0.64555  -0.63148  -0.61449
 Alpha  occ. eigenvalues --   -0.60745  -0.56838  -0.55204  -0.53512  -0.53320
 Alpha  occ. eigenvalues --   -0.51940  -0.50270  -0.50032  -0.49346  -0.49128
 Alpha  occ. eigenvalues --   -0.48549  -0.47948  -0.47156  -0.46870  -0.46436
 Alpha  occ. eigenvalues --   -0.46329  -0.45495  -0.45365  -0.44206  -0.43165
 Alpha  occ. eigenvalues --   -0.43048  -0.41693  -0.40670  -0.40470  -0.39743
 Alpha  occ. eigenvalues --   -0.38854  -0.37559  -0.37362  -0.36945  -0.36081
 Alpha  occ. eigenvalues --   -0.35189  -0.34531  -0.33999  -0.33945  -0.32423
 Alpha  occ. eigenvalues --   -0.28716  -0.26612  -0.25989  -0.25414  -0.25062
 Alpha  occ. eigenvalues --   -0.24901  -0.21686
 Alpha virt. eigenvalues --    0.04874   0.05620   0.05670   0.05921   0.06374
 Alpha virt. eigenvalues --    0.06808   0.07552   0.07886   0.08083   0.08524
 Alpha virt. eigenvalues --    0.09118   0.09131   0.09766   0.09914   0.10243
 Alpha virt. eigenvalues --    0.10693   0.10792   0.11333   0.11792   0.12126
 Alpha virt. eigenvalues --    0.12343   0.12770   0.12927   0.13558   0.13891
 Alpha virt. eigenvalues --    0.14247   0.14341   0.15024   0.15244   0.15462
 Alpha virt. eigenvalues --    0.16000   0.16331   0.16522   0.16814   0.17164
 Alpha virt. eigenvalues --    0.17614   0.17916   0.18156   0.19113   0.19565
 Alpha virt. eigenvalues --    0.20107   0.20469   0.20694   0.20960   0.21982
 Alpha virt. eigenvalues --    0.22525   0.22832   0.23011   0.23394   0.24141
 Alpha virt. eigenvalues --    0.24669   0.24748   0.25048   0.25284   0.25299
 Alpha virt. eigenvalues --    0.25898   0.26108   0.26128   0.26534   0.26801
 Alpha virt. eigenvalues --    0.27441   0.27655   0.27858   0.28303   0.28487
 Alpha virt. eigenvalues --    0.28997   0.29436   0.29560   0.29670   0.30233
 Alpha virt. eigenvalues --    0.30666   0.30772   0.30908   0.31270   0.31524
 Alpha virt. eigenvalues --    0.31918   0.32318   0.32483   0.32789   0.33188
 Alpha virt. eigenvalues --    0.33508   0.33743   0.34026   0.34408   0.34523
 Alpha virt. eigenvalues --    0.34795   0.35355   0.35582   0.36017   0.36521
 Alpha virt. eigenvalues --    0.36757   0.37043   0.37711   0.37885   0.38334
 Alpha virt. eigenvalues --    0.38621   0.39058   0.39469   0.39579   0.40127
 Alpha virt. eigenvalues --    0.40594   0.40675   0.41092   0.41448   0.41733
 Alpha virt. eigenvalues --    0.42178   0.43350   0.43579   0.44147   0.44484
 Alpha virt. eigenvalues --    0.44773   0.45168   0.45442   0.45783   0.46723
 Alpha virt. eigenvalues --    0.47518   0.48133   0.48708   0.48967   0.49279
 Alpha virt. eigenvalues --    0.49475   0.50082   0.51012   0.51338   0.52375
 Alpha virt. eigenvalues --    0.53553   0.54051   0.54834   0.54993   0.56507
 Alpha virt. eigenvalues --    0.56647   0.57481   0.57539   0.57917   0.58442
 Alpha virt. eigenvalues --    0.59284   0.59463   0.60150   0.60889   0.62050
 Alpha virt. eigenvalues --    0.62738   0.63084   0.63474   0.64012   0.65378
 Alpha virt. eigenvalues --    0.65649   0.65728   0.66773   0.67120   0.68481
 Alpha virt. eigenvalues --    0.69391   0.69863   0.70084   0.71523   0.72045
 Alpha virt. eigenvalues --    0.72577   0.72911   0.73360   0.73792   0.74679
 Alpha virt. eigenvalues --    0.75151   0.75430   0.76032   0.76596   0.77077
 Alpha virt. eigenvalues --    0.77344   0.78148   0.78842   0.79119   0.79137
 Alpha virt. eigenvalues --    0.79726   0.80217   0.81133   0.81695   0.82412
 Alpha virt. eigenvalues --    0.82631   0.83411   0.83995   0.84360   0.84452
 Alpha virt. eigenvalues --    0.85020   0.85858   0.87071   0.87306   0.88747
 Alpha virt. eigenvalues --    0.89291   0.91068   0.93623   0.94379   0.95665
 Alpha virt. eigenvalues --    0.96281   0.98082   0.98375   0.99175   0.99845
 Alpha virt. eigenvalues --    1.01352   1.01557   1.02260   1.02519   1.02800
 Alpha virt. eigenvalues --    1.03918   1.04227   1.06202   1.06466   1.08494
 Alpha virt. eigenvalues --    1.09133   1.10296   1.10545   1.11646   1.11983
 Alpha virt. eigenvalues --    1.13970   1.14689   1.15184   1.15965   1.17704
 Alpha virt. eigenvalues --    1.20095   1.20856   1.21407   1.22779   1.23191
 Alpha virt. eigenvalues --    1.24181   1.25175   1.26627   1.27941   1.28881
 Alpha virt. eigenvalues --    1.30387   1.31088   1.32224   1.33035   1.33241
 Alpha virt. eigenvalues --    1.34632   1.34929   1.36755   1.37080   1.39141
 Alpha virt. eigenvalues --    1.39583   1.41393   1.43410   1.43854   1.45066
 Alpha virt. eigenvalues --    1.47131   1.47874   1.49523   1.50651   1.50759
 Alpha virt. eigenvalues --    1.51313   1.52743   1.53674   1.54399   1.55138
 Alpha virt. eigenvalues --    1.56376   1.56826   1.57886   1.58679   1.58867
 Alpha virt. eigenvalues --    1.60279   1.61589   1.62115   1.62684   1.63319
 Alpha virt. eigenvalues --    1.64310   1.65510   1.66156   1.67129   1.67915
 Alpha virt. eigenvalues --    1.68096   1.69116   1.69447   1.70225   1.71811
 Alpha virt. eigenvalues --    1.74404   1.75041   1.76938   1.78951   1.80469
 Alpha virt. eigenvalues --    1.82295   1.83282   1.83847   1.84340   1.85324
 Alpha virt. eigenvalues --    1.86133   1.86395   1.87079   1.88229   1.89062
 Alpha virt. eigenvalues --    1.89188   1.90180   1.92460   1.93680   1.95958
 Alpha virt. eigenvalues --    1.96618   1.97943   1.98273   1.99756   2.00629
 Alpha virt. eigenvalues --    2.03714   2.03909   2.04429   2.06714   2.08569
 Alpha virt. eigenvalues --    2.11408   2.13794   2.14392   2.15536   2.16886
 Alpha virt. eigenvalues --    2.19742   2.22310   2.23011   2.24195   2.26370
 Alpha virt. eigenvalues --    2.29488   2.31049   2.33709   2.34579   2.36699
 Alpha virt. eigenvalues --    2.38699   2.40141   2.42487   2.44765   2.46145
 Alpha virt. eigenvalues --    2.47341   2.52401   2.54436   2.54762   2.59332
 Alpha virt. eigenvalues --    2.60016   2.60135   2.60656   2.61539   2.63207
 Alpha virt. eigenvalues --    2.65090   2.65380   2.65888   2.66624   2.67504
 Alpha virt. eigenvalues --    2.68905   2.70878   2.72547   2.73805   2.75732
 Alpha virt. eigenvalues --    2.76506   2.78673   2.81914   2.87388   2.88777
 Alpha virt. eigenvalues --    2.91057   2.91792   2.93326   2.95255   2.97611
 Alpha virt. eigenvalues --    3.00602   3.01261   3.03168   3.03986   3.05151
 Alpha virt. eigenvalues --    3.06098   3.06878   3.07463   3.09450   3.10379
 Alpha virt. eigenvalues --    3.12099   3.13253   3.15590   3.17544   3.17938
 Alpha virt. eigenvalues --    3.19889   3.22126   3.23479   3.26548   3.29592
 Alpha virt. eigenvalues --    3.30852   3.31758   3.32396   3.33876   3.35549
 Alpha virt. eigenvalues --    3.38544   3.38957   3.42967   3.45109   3.46298
 Alpha virt. eigenvalues --    3.46538   3.47774   3.49508   3.49532   3.50727
 Alpha virt. eigenvalues --    3.51945   3.54249   3.57231   3.67271   3.70573
 Alpha virt. eigenvalues --    3.73536   3.78344   3.79301   3.84049   3.84612
 Alpha virt. eigenvalues --    3.84777   3.86796   3.88488   3.88867   3.91089
 Alpha virt. eigenvalues --    3.91097   3.92276   3.93013   3.96000   4.02897
 Alpha virt. eigenvalues --    4.04946   4.06528   4.06653   4.07505   4.11779
 Alpha virt. eigenvalues --    4.12941   4.13842   4.19577   4.27041   4.27944
 Alpha virt. eigenvalues --    4.30108   4.30773   4.35539   4.70915   4.76097
 Alpha virt. eigenvalues --    4.82568   4.87835   5.00046   5.02047   5.05756
 Alpha virt. eigenvalues --    5.25066   5.26757   5.28127   5.30632   5.47790
 Alpha virt. eigenvalues --    5.50726   5.52703   5.84893   5.98094   6.10990
 Alpha virt. eigenvalues --    6.48730   6.52806   6.54326   6.57421   6.59941
 Alpha virt. eigenvalues --    6.62300   6.68605   6.90441   6.94466  10.04835
 Alpha virt. eigenvalues --   23.51801  23.65437  23.68752  23.71427  23.81324
 Alpha virt. eigenvalues --   23.86876  23.87606  23.95783  24.01491  24.04957
 Alpha virt. eigenvalues --   24.05469  24.13166  24.18438  24.25699  26.00524
 Alpha virt. eigenvalues --   26.37936  26.85247  35.71370  35.81194  50.15578
 Alpha virt. eigenvalues --   50.23037  50.24075  66.93247  66.96086  67.01706
 Alpha virt. eigenvalues --  216.15795
          Condensed to atoms (all electrons):
               1          2          3          4          5          6
     1  C   26.148691   0.202926  -0.568478  -0.303837  -0.385656  -0.648847
     2  N    0.202926   8.297216   0.361746  -0.065192  -0.628907  -0.664215
     3  C   -0.568478   0.361746   9.337011   0.648969   0.183864  -1.670402
     4  O   -0.303837  -0.065192   0.648969   8.135765  -0.201554  -0.163415
     5  N   -0.385656  -0.628907   0.183864  -0.201554   8.085992   0.621637
     6  C   -0.648847  -0.664215  -1.670402  -0.163415   0.621637   9.338342
     7  C    0.018605   0.072249   0.459113   0.027201  -0.073559  -1.236124
     8  C   -0.015670  -0.023511  -0.352621  -0.002263  -0.044452   0.543959
     9  C    0.080629  -0.326937  -0.569264   0.339361   0.287591  -0.058987
    10  C   -6.968677  -0.036797   0.798519   0.090936   0.191988   0.140190
    11  C   -4.191435  -0.076095  -1.136935  -0.007036   0.000269  -0.099411
    12  C   -5.371174   0.201148  -0.683580  -0.006876  -0.171038  -0.105498
    13  C    1.205284   0.124005  -0.741616  -0.068558  -0.433256  -0.349825
    14  H   -0.088135   0.076163  -0.025237  -0.004049   0.022319   0.038937
    15  H   -0.027585   0.023743  -0.044762  -0.008450   0.117922   0.043232
    16  H    0.003650   0.011796   0.047330   0.003819  -0.074684   0.353145
    17  H    0.012718   0.003922   0.053159  -0.003545  -0.056656   0.397232
    18  H   -0.003368  -0.001290  -0.023127  -0.000261   0.007486  -0.057092
    19  H    0.003185  -0.000688   0.021797  -0.000217   0.006690  -0.069515
    20  H    0.000140   0.000014   0.004566  -0.000000   0.000233  -0.024062
    21  H    0.000116   0.000004   0.006261   0.000016  -0.001895   0.082448
    22  H   -0.000285  -0.000050  -0.008012  -0.000077   0.000742  -0.056594
    23  H    0.053472  -0.031386   0.106705   0.004945   0.008860   0.013642
    24  Cl  -0.357040  -0.004729   0.018459   0.000267   0.002939   0.003839
    25  C   -2.012582   0.027846  -0.288342   0.000163   0.005577  -0.008010
    26  H    0.061874  -0.002740   0.004560  -0.000021  -0.000069   0.000046
    27  H    0.080735  -0.030372  -0.012288   0.000038   0.001085  -0.000220
    28  F    0.048136  -0.000071  -0.000240   0.000002   0.000003  -0.000004
    29  F    0.024910   0.000005  -0.000423  -0.000002  -0.000000  -0.000002
    30  F    0.025245   0.000011  -0.000423  -0.000002  -0.000000  -0.000002
    31  O   -0.283900   0.026882  -0.004018  -0.000975  -0.054085  -0.016954
    32  O   -0.001792  -0.051133  -0.064966   0.000256   0.010930   0.080517
    33  C    0.328683  -0.000564   0.032293  -0.001927   0.029439   0.018921
    34  C   -0.231952  -0.044420  -0.056724  -0.001047  -0.068452   0.073016
    35  C    0.007956   0.000914   0.003112   0.000056   0.012295  -0.013530
    36  H    0.001154   0.000163  -0.000388  -0.000000   0.000261   0.000164
    37  H    0.001582   0.000564   0.000557   0.000001  -0.000124  -0.000675
    38  H   -0.000051   0.000035  -0.000005   0.000000   0.000174  -0.000366
    39  H    0.000182   0.000016   0.000180   0.000000  -0.000082  -0.000077
    40  H   -0.000040   0.000014  -0.000452  -0.000000   0.000117   0.000761
               7          8          9         10         11         12
     1  C    0.018605  -0.015670   0.080629  -6.968677  -4.191435  -5.371174
     2  N    0.072249  -0.023511  -0.326937  -0.036797  -0.076095   0.201148
     3  C    0.459113  -0.352621  -0.569264   0.798519  -1.136935  -0.683580
     4  O    0.027201  -0.002263   0.339361   0.090936  -0.007036  -0.006876
     5  N   -0.073559  -0.044452   0.287591   0.191988   0.000269  -0.171038
     6  C   -1.236124   0.543959  -0.058987   0.140190  -0.099411  -0.105498
     7  C    6.750138  -0.561122  -0.043338  -0.017942  -0.001283   0.007919
     8  C   -0.561122   6.604412  -0.001864   0.003215  -0.000835  -0.001866
     9  C   -0.043338  -0.001864  16.925944   6.335741  -7.349211  -3.692720
    10  C   -0.017942   0.003215   6.335741  41.507527 -16.361463  -8.806453
    11  C   -0.001283  -0.000835  -7.349211 -16.361463  41.376906   2.785361
    12  C    0.007919  -0.001866  -3.692720  -8.806453   2.785361  22.118057
    13  C    0.042868  -0.011706  -5.151858  -9.820745  -1.039707  -0.548071
    14  H   -0.008436   0.000424   0.028655   0.020694   0.004033   0.021615
    15  H   -0.045003   0.012519  -0.044494  -0.005531  -0.003240   0.003135
    16  H    0.004246  -0.007086  -0.010915  -0.001187  -0.000288   0.000300
    17  H   -0.057077  -0.029378   0.002681   0.000661   0.000371  -0.000117
    18  H    0.462629  -0.056382  -0.001238  -0.000049  -0.000032   0.000060
    19  H    0.435714  -0.067958   0.000308   0.000026   0.000029  -0.000028
    20  H    0.042204   0.322860  -0.000029  -0.000005   0.000001   0.000001
    21  H   -0.147640   0.411400   0.000058   0.000002   0.000001  -0.000001
    22  H    0.010832   0.397364  -0.000106  -0.000007  -0.000002   0.000002
    23  H   -0.000606   0.000133   0.277064  -0.088287   0.040687  -0.033974
    24  Cl  -0.000238   0.000039   0.343860  -1.786671   0.407719   0.437699
    25  C   -0.000157  -0.000038  -0.644028  -0.264403  -6.982358  -0.211607
    26  H    0.000000   0.000000  -0.010732  -0.023592   0.114855   0.281713
    27  H   -0.000018   0.000005  -0.002123   0.000024   0.021530  -0.091872
    28  F    0.000000  -0.000000  -0.012324  -0.133593  -0.228143   0.101487
    29  F    0.000000  -0.000000   0.005844  -0.124722   0.186218   0.011792
    30  F   -0.000000  -0.000000   0.011478  -0.130409   0.176079   0.014953
    31  O   -0.002230  -0.000366   0.000391   0.007819  -0.002297   0.042706
    32  O   -0.019101   0.010583  -0.012762  -0.000286  -0.000435  -0.000278
    33  C    0.003612  -0.012368  -0.026542  -0.005011  -0.053733  -0.200946
    34  C   -0.036880   0.009079  -0.085617  -0.023293   0.019190   0.130185
    35  C    0.011617  -0.004345   0.002352   0.000949  -0.001794  -0.003341
    36  H   -0.000200  -0.000020   0.000140   0.000007  -0.000001  -0.000639
    37  H    0.000536   0.000014   0.000291   0.000024  -0.000033  -0.000780
    38  H    0.000513   0.000178  -0.000001  -0.000002   0.000004  -0.000000
    39  H   -0.000046  -0.000004   0.000018   0.000001  -0.000002  -0.000043
    40  H   -0.000371   0.000025  -0.000015  -0.000002   0.000004  -0.000003
              13         14         15         16         17         18
     1  C    1.205284  -0.088135  -0.027585   0.003650   0.012718  -0.003368
     2  N    0.124005   0.076163   0.023743   0.011796   0.003922  -0.001290
     3  C   -0.741616  -0.025237  -0.044762   0.047330   0.053159  -0.023127
     4  O   -0.068558  -0.004049  -0.008450   0.003819  -0.003545  -0.000261
     5  N   -0.433256   0.022319   0.117922  -0.074684  -0.056656   0.007486
     6  C   -0.349825   0.038937   0.043232   0.353145   0.397232  -0.057092
     7  C    0.042868  -0.008436  -0.045003   0.004246  -0.057077   0.462629
     8  C   -0.011706   0.000424   0.012519  -0.007086  -0.029378  -0.056382
     9  C   -5.151858   0.028655  -0.044494  -0.010915   0.002681  -0.001238
    10  C   -9.820745   0.020694  -0.005531  -0.001187   0.000661  -0.000049
    11  C   -1.039707   0.004033  -0.003240  -0.000288   0.000371  -0.000032
    12  C   -0.548071   0.021615   0.003135   0.000300  -0.000117   0.000060
    13  C   23.582096  -0.031267   0.025228   0.002535  -0.000565   0.000738
    14  H   -0.031267   0.311780   0.028153  -0.000123  -0.000069   0.000064
    15  H    0.025228   0.028153   0.331194   0.002438   0.001361   0.006072
    16  H    0.002535  -0.000123   0.002438   0.478090  -0.050838   0.005525
    17  H   -0.000565  -0.000069   0.001361  -0.050838   0.471711  -0.008684
    18  H    0.000738   0.000064   0.006072   0.005525  -0.008684   0.439165
    19  H   -0.000166   0.000082   0.000623  -0.009349   0.006513  -0.036376
    20  H    0.000024   0.000001  -0.000072  -0.000681   0.003447  -0.007720
    21  H   -0.000017   0.000000  -0.000064  -0.000210  -0.000102  -0.003654
    22  H    0.000025  -0.000000   0.000039   0.003407  -0.000759   0.006517
    23  H   -0.023956  -0.000262   0.000040  -0.000010  -0.000026   0.000000
    24  Cl   0.487648   0.000094  -0.000052  -0.000007   0.000001   0.000000
    25  C   -1.546788   0.000383  -0.000272  -0.000011   0.000008  -0.000001
    26  H   -0.095700  -0.000038   0.000001   0.000000  -0.000000   0.000000
    27  H    0.304445   0.012123  -0.000189   0.000000   0.000000  -0.000001
    28  F    0.178306  -0.000005  -0.000000  -0.000000   0.000000  -0.000000
    29  F    0.005112   0.000002  -0.000000  -0.000000   0.000000  -0.000000
    30  F    0.004802   0.000002  -0.000000   0.000000  -0.000000   0.000000
    31  O    0.300964   0.082396   0.012542  -0.000005  -0.000038  -0.000052
    32  O    0.004381   0.013272   0.071107  -0.001000   0.000425  -0.005470
    33  C   -0.153625  -0.015670  -0.006504  -0.000837   0.000738   0.003741
    34  C    0.167116   0.046365   0.050907  -0.000560   0.000130  -0.001257
    35  C   -0.006629  -0.003171  -0.006162   0.000095   0.000021   0.002176
    36  H   -0.000127  -0.000271  -0.000101   0.000000  -0.000000   0.000005
    37  H   -0.001145  -0.000357  -0.000013   0.000000   0.000000   0.000002
    38  H    0.000112  -0.000019  -0.000302  -0.000000   0.000000  -0.000061
    39  H   -0.000205  -0.000001   0.000052  -0.000000  -0.000000  -0.000001
    40  H    0.000131  -0.000017  -0.000314  -0.000000  -0.000000  -0.000043
              19         20         21         22         23         24
     1  C    0.003185   0.000140   0.000116  -0.000285   0.053472  -0.357040
     2  N   -0.000688   0.000014   0.000004  -0.000050  -0.031386  -0.004729
     3  C    0.021797   0.004566   0.006261  -0.008012   0.106705   0.018459
     4  O   -0.000217  -0.000000   0.000016  -0.000077   0.004945   0.000267
     5  N    0.006690   0.000233  -0.001895   0.000742   0.008860   0.002939
     6  C   -0.069515  -0.024062   0.082448  -0.056594   0.013642   0.003839
     7  C    0.435714   0.042204  -0.147640   0.010832  -0.000606  -0.000238
     8  C   -0.067958   0.322860   0.411400   0.397364   0.000133   0.000039
     9  C    0.000308  -0.000029   0.000058  -0.000106   0.277064   0.343860
    10  C    0.000026  -0.000005   0.000002  -0.000007  -0.088287  -1.786671
    11  C    0.000029   0.000001   0.000001  -0.000002   0.040687   0.407719
    12  C   -0.000028   0.000001  -0.000001   0.000002  -0.033974   0.437699
    13  C   -0.000166   0.000024  -0.000017   0.000025  -0.023956   0.487648
    14  H    0.000082   0.000001   0.000000  -0.000000  -0.000262   0.000094
    15  H    0.000623  -0.000072  -0.000064   0.000039   0.000040  -0.000052
    16  H   -0.009349  -0.000681  -0.000210   0.003407  -0.000010  -0.000007
    17  H    0.006513   0.003447  -0.000102  -0.000759  -0.000026   0.000001
    18  H   -0.036376  -0.007720  -0.003654   0.006517   0.000000   0.000000
    19  H    0.443298   0.006647  -0.004161  -0.008388   0.000000   0.000000
    20  H    0.006647   0.461858  -0.026802  -0.038635   0.000000  -0.000000
    21  H   -0.004161  -0.026802   0.446085  -0.026054   0.000000   0.000000
    22  H   -0.008388  -0.038635  -0.026054   0.465934  -0.000000   0.000000
    23  H    0.000000   0.000000   0.000000  -0.000000   0.351281  -0.014706
    24  Cl   0.000000  -0.000000   0.000000   0.000000  -0.014706  17.716227
    25  C    0.000001   0.000000   0.000000  -0.000000   0.004290  -0.626891
    26  H   -0.000000  -0.000000  -0.000000   0.000000   0.000058  -0.000275
    27  H   -0.000000   0.000000   0.000000  -0.000000  -0.000002   0.000195
    28  F    0.000000  -0.000000   0.000000  -0.000000   0.000022   0.011681
    29  F    0.000000   0.000000   0.000000  -0.000000  -0.000056  -0.017250
    30  F   -0.000000   0.000000   0.000000  -0.000000  -0.000052  -0.017981
    31  O   -0.000098   0.000001   0.000000  -0.000002   0.000027   0.000254
    32  O   -0.001876   0.000080   0.000039  -0.000093   0.000001   0.000004
    33  C    0.000944   0.000231  -0.000129  -0.000026   0.000480  -0.000108
    34  C    0.000772   0.000000   0.000113  -0.000049   0.000061  -0.000167
    35  C    0.000483   0.000022  -0.000076   0.000028  -0.000000   0.000009
    36  H    0.000001   0.000000  -0.000000   0.000000   0.000000   0.000000
    37  H   -0.000001   0.000000  -0.000000   0.000000  -0.000000   0.000000
    38  H   -0.000014  -0.000000   0.000001  -0.000000   0.000000  -0.000000
    39  H    0.000000  -0.000000  -0.000000  -0.000000  -0.000000   0.000000
    40  H   -0.000005  -0.000000   0.000001  -0.000000   0.000000  -0.000000
              25         26         27         28         29         30
     1  C   -2.012582   0.061874   0.080735   0.048136   0.024910   0.025245
     2  N    0.027846  -0.002740  -0.030372  -0.000071   0.000005   0.000011
     3  C   -0.288342   0.004560  -0.012288  -0.000240  -0.000423  -0.000423
     4  O    0.000163  -0.000021   0.000038   0.000002  -0.000002  -0.000002
     5  N    0.005577  -0.000069   0.001085   0.000003  -0.000000  -0.000000
     6  C   -0.008010   0.000046  -0.000220  -0.000004  -0.000002  -0.000002
     7  C   -0.000157   0.000000  -0.000018   0.000000   0.000000  -0.000000
     8  C   -0.000038   0.000000   0.000005  -0.000000  -0.000000  -0.000000
     9  C   -0.644028  -0.010732  -0.002123  -0.012324   0.005844   0.011478
    10  C   -0.264403  -0.023592   0.000024  -0.133593  -0.124722  -0.130409
    11  C   -6.982358   0.114855   0.021530  -0.228143   0.186218   0.176079
    12  C   -0.211607   0.281713  -0.091872   0.101487   0.011792   0.014953
    13  C   -1.546788  -0.095700   0.304445   0.178306   0.005112   0.004802
    14  H    0.000383  -0.000038   0.012123  -0.000005   0.000002   0.000002
    15  H   -0.000272   0.000001  -0.000189  -0.000000  -0.000000  -0.000000
    16  H   -0.000011   0.000000   0.000000  -0.000000  -0.000000   0.000000
    17  H    0.000008  -0.000000   0.000000   0.000000   0.000000  -0.000000
    18  H   -0.000001   0.000000  -0.000001  -0.000000  -0.000000   0.000000
    19  H    0.000001  -0.000000  -0.000000   0.000000   0.000000  -0.000000
    20  H    0.000000  -0.000000   0.000000  -0.000000   0.000000   0.000000
    21  H    0.000000  -0.000000   0.000000   0.000000   0.000000   0.000000
    22  H   -0.000000   0.000000  -0.000000  -0.000000  -0.000000  -0.000000
    23  H    0.004290   0.000058  -0.000002   0.000022  -0.000056  -0.000052
    24  Cl  -0.626891  -0.000275   0.000195   0.011681  -0.017250  -0.017981
    25  C   17.258543  -0.013679   0.017974   0.172705   0.044029   0.051382
    26  H   -0.013679   0.398518  -0.002587   0.010396   0.000105   0.000114
    27  H    0.017974  -0.002587   0.347155  -0.000000   0.000033   0.000033
    28  F    0.172705   0.010396  -0.000000   9.070274  -0.034793  -0.034899
    29  F    0.044029   0.000105   0.000033  -0.034793   9.010092  -0.052443
    30  F    0.051382   0.000114   0.000033  -0.034899  -0.052443   9.010373
    31  O   -0.001462   0.000090   0.008657   0.000000  -0.000002  -0.000002
    32  O    0.000012  -0.000002   0.000960  -0.000000   0.000000   0.000000
    33  C   -0.007171  -0.000185   0.008547   0.000009  -0.000004  -0.000004
    34  C    0.000346   0.000102  -0.003188  -0.000001   0.000000   0.000000
    35  C   -0.000068  -0.000003   0.000159  -0.000000  -0.000000  -0.000000
    36  H    0.000004   0.000000  -0.000041  -0.000000  -0.000000   0.000000
    37  H   -0.000002   0.000000  -0.000013  -0.000000   0.000000  -0.000000
    38  H    0.000000   0.000000  -0.000000   0.000000   0.000000   0.000000
    39  H   -0.000000   0.000000  -0.000001  -0.000000  -0.000000  -0.000000
    40  H    0.000000   0.000000  -0.000000   0.000000   0.000000   0.000000
              31         32         33         34         35         36
     1  C   -0.283900  -0.001792   0.328683  -0.231952   0.007956   0.001154
     2  N    0.026882  -0.051133  -0.000564  -0.044420   0.000914   0.000163
     3  C   -0.004018  -0.064966   0.032293  -0.056724   0.003112  -0.000388
     4  O   -0.000975   0.000256  -0.001927  -0.001047   0.000056  -0.000000
     5  N   -0.054085   0.010930   0.029439  -0.068452   0.012295   0.000261
     6  C   -0.016954   0.080517   0.018921   0.073016  -0.013530   0.000164
     7  C   -0.002230  -0.019101   0.003612  -0.036880   0.011617  -0.000200
     8  C   -0.000366   0.010583  -0.012368   0.009079  -0.004345  -0.000020
     9  C    0.000391  -0.012762  -0.026542  -0.085617   0.002352   0.000140
    10  C    0.007819  -0.000286  -0.005011  -0.023293   0.000949   0.000007
    11  C   -0.002297  -0.000435  -0.053733   0.019190  -0.001794  -0.000001
    12  C    0.042706  -0.000278  -0.200946   0.130185  -0.003341  -0.000639
    13  C    0.300964   0.004381  -0.153625   0.167116  -0.006629  -0.000127
    14  H    0.082396   0.013272  -0.015670   0.046365  -0.003171  -0.000271
    15  H    0.012542   0.071107  -0.006504   0.050907  -0.006162  -0.000101
    16  H   -0.000005  -0.001000  -0.000837  -0.000560   0.000095   0.000000
    17  H   -0.000038   0.000425   0.000738   0.000130   0.000021  -0.000000
    18  H   -0.000052  -0.005470   0.003741  -0.001257   0.002176   0.000005
    19  H   -0.000098  -0.001876   0.000944   0.000772   0.000483   0.000001
    20  H    0.000001   0.000080   0.000231   0.000000   0.000022   0.000000
    21  H    0.000000   0.000039  -0.000129   0.000113  -0.000076  -0.000000
    22  H   -0.000002  -0.000093  -0.000026  -0.000049   0.000028   0.000000
    23  H    0.000027   0.000001   0.000480   0.000061  -0.000000   0.000000
    24  Cl   0.000254   0.000004  -0.000108  -0.000167   0.000009   0.000000
    25  C   -0.001462   0.000012  -0.007171   0.000346  -0.000068   0.000004
    26  H    0.000090  -0.000002  -0.000185   0.000102  -0.000003   0.000000
    27  H    0.008657   0.000960   0.008547  -0.003188   0.000159  -0.000041
    28  F    0.000000  -0.000000   0.000009  -0.000001  -0.000000  -0.000000
    29  F   -0.000002   0.000000  -0.000004   0.000000  -0.000000  -0.000000
    30  F   -0.000002   0.000000  -0.000004   0.000000  -0.000000   0.000000
    31  O    8.473464  -0.140826   0.245340  -0.207421   0.020996  -0.004970
    32  O   -0.140826   8.325846   0.356872  -0.131840   0.007281  -0.000201
    33  C    0.245340   0.356872   6.561002  -1.548668   0.378560  -0.022368
    34  C   -0.207421  -0.131840  -1.548668   8.110706  -0.582797   0.402595
    35  C    0.020996   0.007281   0.378560  -0.582797   6.097261  -0.041989
    36  H   -0.004970  -0.000201  -0.022368   0.402595  -0.041989   0.452678
    37  H   -0.006293   0.002442  -0.010476   0.394432  -0.044797  -0.034681
    38  H   -0.000008  -0.007767  -0.002572  -0.031627   0.390421  -0.007246
    39  H   -0.000799   0.004124   0.061484  -0.121099   0.404611  -0.002891
    40  H   -0.000216  -0.007584  -0.013417  -0.020906   0.389125   0.005916
              37         38         39         40
     1  C    0.001582  -0.000051   0.000182  -0.000040
     2  N    0.000564   0.000035   0.000016   0.000014
     3  C    0.000557  -0.000005   0.000180  -0.000452
     4  O    0.000001   0.000000   0.000000  -0.000000
     5  N   -0.000124   0.000174  -0.000082   0.000117
     6  C   -0.000675  -0.000366  -0.000077   0.000761
     7  C    0.000536   0.000513  -0.000046  -0.000371
     8  C    0.000014   0.000178  -0.000004   0.000025
     9  C    0.000291  -0.000001   0.000018  -0.000015
    10  C    0.000024  -0.000002   0.000001  -0.000002
    11  C   -0.000033   0.000004  -0.000002   0.000004
    12  C   -0.000780  -0.000000  -0.000043  -0.000003
    13  C   -0.001145   0.000112  -0.000205   0.000131
    14  H   -0.000357  -0.000019  -0.000001  -0.000017
    15  H   -0.000013  -0.000302   0.000052  -0.000314
    16  H    0.000000  -0.000000  -0.000000  -0.000000
    17  H    0.000000   0.000000  -0.000000  -0.000000
    18  H    0.000002  -0.000061  -0.000001  -0.000043
    19  H   -0.000001  -0.000014   0.000000  -0.000005
    20  H    0.000000  -0.000000  -0.000000  -0.000000
    21  H   -0.000000   0.000001  -0.000000   0.000001
    22  H    0.000000  -0.000000  -0.000000  -0.000000
    23  H   -0.000000   0.000000  -0.000000   0.000000
    24  Cl   0.000000  -0.000000   0.000000  -0.000000
    25  C   -0.000002   0.000000  -0.000000   0.000000
    26  H    0.000000   0.000000   0.000000   0.000000
    27  H   -0.000013  -0.000000  -0.000001  -0.000000
    28  F   -0.000000   0.000000  -0.000000   0.000000
    29  F    0.000000   0.000000  -0.000000   0.000000
    30  F   -0.000000   0.000000  -0.000000   0.000000
    31  O   -0.006293  -0.000008  -0.000799  -0.000216
    32  O    0.002442  -0.007767   0.004124  -0.007584
    33  C   -0.010476  -0.002572   0.061484  -0.013417
    34  C    0.394432  -0.031627  -0.121099  -0.020906
[...]
 0.00000447,-0.00001115,0.00000284,-0.00000098,-0.00000817,-0.00000703,
 -0.00000108,-0.00000931,0.00000567,-0.00000304,0.00000503,-0.00000775,
 -0.00000048,-0.00004490,0.00000745,-0.00001672,0.00000619,-0.00000167,
 -0.00000636,-0.00004681,0.,-0.00002132,0.00001304,0.00000713,0.0000034
 6,0.00000994,-0.00000420,0.00000081,0.00001275,-0.00000909,0.00001160,
 0.00182857,-0.00015579,0.00408570,-0.00189940,-0.00574109,0.00420597,-
 0.01864310,-0.00466029,-0.03101014,-0.03326300,-0.05923053,-0.05175231
 ,0.01118338,0.00349878,0.01589621,0.03351855,0.06487529,-0.00017702,0.
 00006139,-0.00000221,0.00014561,-0.00009723,0.00000860,-0.00017335,0.0
 0008087,-0.00001144,0.00003494,-0.00008517,0.00000653,0.00006385,-0.00
 016180,0.00003510,0.00002416,0.00000574,-0.00001275,-0.00000242,0.0000
 1014,-0.00000420,0.00000499,-0.00000578,0.00000153,0.00004220,-0.00003
 390,-0.00000003,-0.00003333,0.00000268,0.00000224,0.00004653,-0.000003
 96,-0.00000079,-0.00002565,0.00000532,0.00000625,0.00006276,0.00001171
 ,0.00000562,-0.00001108,0.00014216,-0.00000746,0.00001838,0.00020805,-
 0.00003987,-0.00000410,-0.00000800,-0.00000344,-0.00000260,-0.00000766
 ,0.00000842,0.00000751,0.00000205,-0.00001544,0.00000524,0.00000583,0.
 00001361,-0.00000417,-0.00000323,0.00000551,0.00000107,0.00000221,-0.0
 0000079,-0.00000392,-0.00000427,-0.00000366,-0.00000818,0.00000588,-0.
 00000225,0.00000431,0.00000153,0.00000031,-0.00005345,-0.00001888,-0.0
 0001389,0.00001095,-0.00000688,-0.00000445,-0.00003110,-0.00002573,-0.
 00002008,0.00002185,0.00002019,0.00000283,0.00000971,0.00000248,0.0000
 0460,0.00001186,-0.00000130,0.00000598,0.00134831,-0.00065277,0.000839
 16,0.00066673,-0.00042840,-0.00049208,-0.00073232,0.00260661,0.0001750
 5,-0.11930927,-0.04839597,-0.21215205,0.00205577,0.00112648,0.00252387
 ,0.13102528,0.05167465,0.22898327,0.00004026,-0.00000422,0.00000568,0.
 00004923,0.00009413,0.00002405,-0.00020929,0.00001776,0.00001815,0.000
 05460,-0.00002717,-0.00001054,0.00005691,-0.00022060,-0.00002184,0.000
 01128,-0.00000599,-0.00000158,-0.00000423,0.00001642,0.00004217,0.0000
 0334,-0.00000609,-0.00001134,-0.00000850,-0.00000079,-0.00000838,0.000
 00266,-0.00000217,-0.00000075,-0.00000775,0.00000709,-0.00000103,0.000
 01259,0.00000072,-0.00000160,-0.00001571,-0.00001128,0.00000055,-0.000
 03030,-0.00020471,-0.00006069,-0.00000820,0.00029916,-0.00000503,-0.00
 000252,-0.00001262,-0.00000153,-0.00000146,0.00000128,-0.00000104,0.00
 000651,0.00000449,-0.00001911,-0.00000111,0.00000324,-0.00000232,0.000
 00064,0.00000365,-0.00000091,0.00000314,0.00000225,0.00000571,-0.00000
 460,-0.00000940,-0.00000332,-0.00000179,0.00000032,0.00000343,-0.00000
 315,0.00000286,-0.00000005,0.00001653,0.00000400,0.00001174,-0.0000026
 9,0.00000330,0.00000148,0.00002987,0.00000215,0.00000116,-0.00000698,-
 0.00000509,-0.00000180,-0.00000256,-0.00000160,-0.00000435,-0.00000451
 ,0.00000228,-0.00000470,0.00011163,0.00200355,-0.00092517,0.00017721,-
 0.00245699,-0.00105495,-0.00583888,-0.00185322,0.00534834,-0.12077840,
 -0.03319425,0.11638564,-0.01512896,-0.00679589,0.02304922,0.01026984,0
 .00541364,-0.01512886,0.13368756,-0.00016256,0.00007350,-0.00000691,0.
 00018547,0.00002656,0.00007443,-0.00039301,0.00016693,0.00002554,0.000
 08791,-0.00019417,-0.00001915,0.00012110,-0.00058792,0.00005216,0.0001
 1897,0.00002004,-0.00000527,-0.00002283,0.00001302,0.00001696,0.000010
 12,-0.00001059,-0.00000555,0.00003656,-0.00004333,-0.00000274,-0.00002
 852,0.00001289,-0.00000490,0.00004015,-0.00000990,0.00000045,-0.000013
 46,0.00000544,-0.00000328,0.00005687,0.00001330,-0.00001476,-0.0000417
 1,0.00008317,-0.00014251,0.00001909,0.00092686,-0.00015269,-0.00002393
 ,-0.00002544,-0.00000531,-0.00001694,-0.00001330,0.00001107,0.00003454
 ,-0.00000079,-0.00003043,0.00001170,0.00000894,0.00001545,-0.00000448,
 -0.00000451,0.00000327,-0.00001172,0.00000336,-0.00000119,-0.00000966,
 -0.00000877,-0.00000193,-0.00000966,0.00000582,0.00000291,0.00000249,-
 0.00000682,0.00000035,-0.00004171,0.00000693,0.00001743,0.00000634,-0.
 00000155,0.00000563,-0.00003713,0.00000011,0.00001922,0.00001253,0.000
 00659,-0.00000357,0.00001169,-0.00000877,-0.00001164,0.00000909,-0.000
 00372,-0.00000126,0.00127733,0.00028232,-0.00392741,-0.00239262,-0.006
 14624,-0.00393843,-0.01721780,-0.00516887,0.03145567,-0.03321989,-0.06
 160278,0.05601454,0.01052257,0.00387264,-0.01625959,0.00482075,0.00156
 659,-0.00687652,0.03438397,0.06738648,0.00017027,-0.00006079,-0.000004
 76,-0.00014372,0.00008945,0.00001261,0.00018016,-0.00008538,-0.0000086
 1,-0.00003625,0.00008768,0.00000247,-0.00006295,0.00016423,0.00002711,
 -0.00002455,-0.00000420,0.00000182,0.00000264,-0.00001259,-0.00001361,
 -0.00000481,0.00000578,0.00000207,-0.00004063,0.00003381,0.00000271,0.
 00002977,-0.00000324,0.00000153,-0.00004297,0.00000460,-0.00000001,0.0
 0002494,-0.00000561,0.00000490,-0.00006055,-0.00001182,0.00000622,0.00
 001264,-0.00012560,-0.00000744,-0.00002158,-0.00021629,-0.00004711,0.0
 0000475,0.00001175,0.00000410,0.00000083,0.00000236,-0.00000391,-0.000
 01102,0.00000182,0.00001636,-0.00000221,-0.00000426,-0.00000662,0.0000
 0179,-0.00000003,-0.00000275,0.00000004,-0.00000300,-0.00000144,0.0000
 0520,0.00000740,0.00000446,0.00000815,-0.00000558,-0.00000263,-0.00000
 312,0.00000001,0.00000035,0.00005420,0.00001476,-0.00001486,-0.0000103
 0,0.00000628,-0.00000422,0.00002865,0.00002303,-0.00001719,-0.00002183
 ,-0.00001857,0.00000320,-0.00001255,0.00000270,0.00000711,-0.00001035,
 -0.00000134,0.00000399,-0.00137609,0.00047428,0.00094632,-0.00076357,0
 .00046202,-0.00032675,0.00074334,-0.00288984,0.00036232,0.11534524,0.0
 5336023,-0.21978984,-0.00111516,-0.00082953,0.00125063,0.01382571,0.00
 718125,-0.02207488,-0.12682371,-0.05666154,0.23742400,0.00001192,0.000
 00277,0.00000810,0.00000890,0.00008555,-0.00001978,-0.00004870,-0.0000
 1696,0.00001678,0.00001297,0.00002321,-0.00000943,0.00000493,0.0000005
 0,-0.00003301,0.00000728,-0.00000219,0.00001797,-0.00000544,-0.0000037
 7,-0.00001319,-0.00000114,-0.00000252,0.00000384,-0.00000305,0.0000067
 5,-0.00000476,0.00000080,-0.00001131,-0.00000032,-0.00000612,0.0000117
 8,-0.00000006,0.00000697,-0.00000255,-0.00000299,-0.00000459,-0.000013
 10,-0.00001421,-0.00000583,-0.00012714,0.00001486,-0.00000067,-0.00000
 813,0.00003020,-0.00000251,0.00000289,-0.00000224,0.00000239,0.0000074
 0,-0.00000472,0.00001188,-0.00000488,0.00001740,0.00000168,-0.00000234
 ,-0.00000790,0.00000264,0.00000260,-0.00000331,-0.00000704,-0.00000155
 ,-0.00000262,0.00000012,0.00000360,0.00000171,-0.00000054,0.00000051,0
 .00000317,-0.00000288,0.00001146,-0.00000059,0.00001546,-0.00001569,0.
 00001729,0.00000301,-0.00000285,0.00000431,0.00000816,-0.00001196,0.00
 001626,-0.00000211,0.00000405,-0.00000358,-0.00000413,0.00000366,-0.00
 000208,-0.00000693,0.00000866,-0.00001129,0.00054269,0.00045242,-0.000
 33587,0.00139800,-0.00027470,-0.00062256,-0.00122197,-0.00176618,0.000
 35122,-0.01619048,-0.00661209,0.02478400,-0.12249856,-0.03350847,0.117
 00398,0.00079687,-0.00090137,-0.00035083,-0.00438875,0.00367571,-0.000
 55135,0.13484025,0.00010130,-0.00003696,-0.00000299,-0.00009106,0.0000
 5625,0.00000236,0.00013288,-0.00009256,0.00000600,-0.00002511,0.000087
 98,-0.00000069,-0.00003288,0.00017665,0.00000849,-0.00002550,-0.000004
 12,0.00000738,0.00000106,-0.00002644,-0.00003582,-0.00000885,0.0000125
 7,0.00000903,-0.00002368,0.00002733,-0.00000053,0.00001878,-0.00001555
 ,-0.00000195,-0.00002840,0.00001185,0.00000102,0.00001522,-0.00000646,
 -0.00000166,-0.00003415,-0.00001219,0.00000811,0.00001344,-0.00011178,
 -0.00000214,-0.00003458,-0.00025933,-0.00001346,0.00000190,0.00001479,
 0.00000409,0.00000201,0.00000291,-0.00000684,-0.00001647,-0.00000102,0
 .00002687,-0.00000325,-0.00000311,-0.00000355,0.00000169,0.00000111,-0
 .00000386,0.00000212,-0.00000451,-0.00000019,0.00000902,0.00000830,0.0
 0000415,0.00000503,-0.00000312,-0.00000090,-0.00000345,0.00001098,0.00
 000044,0.00004293,-0.00001010,0.00000121,-0.00000221,0.00000015,-0.000
 00029,0.00001809,-0.00000321,-0.00000381,-0.00001248,-0.00000411,-0.00
 000028,-0.00001120,0.00000691,0.00000511,-0.00001151,0.00000742,-0.000
 00619,-0.00069216,0.00023190,0.00026746,-0.00081993,-0.00076729,0.0003
 6589,0.00122594,0.00035220,-0.00098972,0.00926400,0.00432162,-0.015725
 59,-0.03478002,-0.06216526,0.05329352,-0.00084679,0.00069609,0.0002878
 6,0.00326484,-0.00176564,-0.00017017,0.03497841,0.06473079,0.00004092,
 -0.00002039,-0.00000167,-0.00008740,-0.00005528,0.00001332,0.00015519,
 -0.00003149,-0.00000857,-0.00004172,0.00002077,0.00000391,-0.00006397,
 0.00007813,0.00002155,0.00004066,0.00001017,0.00001121,-0.00001050,-0.
 00002982,-0.00006091,-0.00000463,0.00000721,0.00001678,-0.00000916,0.0
 0000823,0.00000193,0.00000789,0.00000706,0.00000160,-0.00000965,-0.000
 00435,-0.00000249,0.00000180,-0.00000122,-0.00000012,-0.00001398,0.000
 00170,0.00000603,0.00001945,0.00006229,-0.00001530,-0.00000626,-0.0000
 8237,-0.00002805,-0.00000910,0.00001385,0.00000004,-0.00000665,-0.0000
 0277,0.00000054,0.00000892,-0.00001558,0.00003569,0.00000531,-0.000004
 68,-0.00000245,-0.00000013,-0.00000451,-0.00000156,-0.00001553,-0.0000
 0482,-0.00001064,0.00000586,0.00001605,0.00000677,0.00000414,-0.000001
 81,-0.00000180,0.00000063,-0.00000639,0.00000031,0.00000769,0.00001074
 ,-0.00000969,-0.00000311,0.00000160,-0.00000130,0.00000257,0.00000226,
 -0.00000554,-0.00000498,-0.00000696,0.00000218,-0.00000134,-0.00000109
 ,0.00000305,0.00000015,-0.00000421,0.00000539,-0.00066546,-0.00049412,
 -0.00003623,-0.00169641,0.00044934,0.00053612,0.00218045,0.00145752,-0
 .00007165,-0.00051245,-0.00096436,0.00060292,0.11756792,0.05124646,-0.
 23020827,0.00032755,-0.00047029,0.00070690,-0.00021112,0.00012434,0.00
 154359,-0.12863009,-0.05805676,0.24624952,0.00013370,-0.00001783,-0.00
 000205,0.00003728,0.00037174,-0.00000256,-0.00020418,-0.00002538,0.000
 00296,0.00006303,0.00006763,-0.00000150,0.00005828,-0.00001262,0.00000
 184,-0.00005235,-0.00001834,-0.00000312,0.00001249,0.00001978,0.000006
 89,0.00000642,-0.00000767,-0.00000084,-0.00003102,0.00002730,-0.000000
 19,0.00001235,-0.00001691,-0.00000084,-0.00003138,0.00002319,0.0000018
 0,0.00002579,-0.00000143,-0.00000003,-0.00004675,-0.00004459,0.0000008
 9,-0.00006507,-0.00055219,0.00000253,-0.00001478,-0.00002130,0.0000051
 8,0.00000967,-0.00000145,-0.00000112,0.00001127,0.00000244,0.00000044,
 -0.00000706,0.00000713,-0.00001739,-0.00000385,0.00000795,0.00001093,-
 0.00000167,-0.00000064,0.00000298,0.00001038,0.00000299,0.00000155,-0.
 00000308,-0.00000530,-0.00000314,0.00000055,-0.00000063,-0.00000007,-0
 .00000521,0.00001930,-0.00000002,0.00005102,-0.00001143,0.00000062,-0.
 00000222,0.00000025,-0.00000011,0.00004690,-0.00000689,0.00000072,-0.0
 0001518,-0.00000479,-0.00000022,-0.00001382,0.00000851,0.00000682,-0.0
 0001386,0.00000887,-0.00000782,-0.00060087,0.00356735,0.00009719,0.002
 16285,-0.00043890,-0.00006274,-0.00695856,-0.00208569,0.00019518,0.006
 91775,0.03176449,0.00011460,-0.05729718,-0.04910783,-0.00047791,0.0011
 5309,-0.00088424,-0.00042159,0.00112723,-0.00090791,0.00036467,-0.0038
 1646,-0.01620246,-0.00236327,0.06120497,-0.00033372,0.00009405,0.00000
 087,0.00015352,-0.00047161,-0.00000134,-0.00004218,0.00024959,-0.00000
 892,-0.00001731,-0.00026654,0.00000674,0.00000241,-0.00031688,-0.00000
 373,0.00009828,0.00003293,-0.00001723,-0.00000896,0.00001988,0.0000217
 4,0.00001178,-0.00000952,-0.00000670,0.00008084,-0.00008906,-0.0000000
 4,-0.00005009,0.00005878,-0.00000085,0.00009055,-0.00005856,0.00000093
 ,-0.00006503,0.00001987,0.00000010,0.00011238,0.00007515,-0.00000152,0
 .00000938,0.00079978,0.00000235,0.00009169,0.00052140,0.00001699,-0.00
 001539,-0.00002597,-0.00000728,-0.00001539,-0.00001526,0.00001717,0.00
 002795,0.00000384,-0.00003630,0.00000997,0.00000969,0.00002124,-0.0000
 0634,-0.00000613,0.00000840,-0.00000772,0.00000840,-0.00000073,-0.0000
 1032,-0.00001340,-0.00000591,-0.00000996,0.00000696,0.00000020,0.00001
 421,-0.00005538,0.00000005,-0.00016534,0.00005242,0.00000102,0.0000025
 7,0.00000351,-0.00000009,-0.00008135,0.00002733,0.00000029,0.00004706,
 0.00000971,0.00000014,0.00004591,-0.00003145,-0.00002498,0.00004631,-0
 .00003145,0.00002404,0.00169245,-0.00311597,-0.00013948,0.00050614,-0.
 00112462,-0.00004528,0.00169112,0.00280059,0.00004601,-0.00523222,-0.0
 1529234,-0.00002419,-0.04840676,-0.30273852,-0.00212947,0.00013487,0.0
 0044139,0.00057702,0.00013553,0.00044363,-0.00057075,-0.00124344,-0.00
 629438,-0.00000236,0.05187299,0.32992087,-0.00000590,0.00000172,0.0000
 0512,0.00000181,-0.00001123,-0.00000393,0.00000225,0.00000410,-0.00000
 217,-0.00000104,-0.00000421,-0.00000085,0.00000153,-0.00000157,0.00002
 378,-0.00000118,0.00000071,0.00000068,0.00000119,-0.00000632,-0.000019
 48,0.00000064,0.00000113,0.00000673,0.00000146,-0.00000180,-0.00000138
 ,-0.00000026,0.00000054,0.00000147,0.00000082,-0.00000055,-0.00000242,
 -0.00000040,-0.00000018,0.00000166,0.00000171,0.00000183,-0.00000989,0
 .00000117,0.00001629,-0.00000122,-0.00000058,0.00000002,-0.00002288,-0
 .00000086,0.00000111,0.,0.00000130,-0.00000360,0.00000139,-0.00000114,
 0.00000061,-0.00000518,0.00000133,0.00000758,0.00001267,-0.00000247,-0
 .00000287,0.00000118,0.00000125,0.00000035,-0.00000174,0.00000067,0.00
 000069,0.00000006,-0.00000010,0.,0.00000053,-0.00000017,-0.00000085,-0
 .00000025,-0.00000245,0.00000075,0.00000732,0.00000016,0.00000006,0.00
 000211,-0.00000119,0.00000036,0.00000411,0.00000077,0.00000010,-0.0000
 0161,0.00000144,-0.00000155,-0.00000311,-0.00000011,0.00000057,-0.0000
 0232,0.00000827,-0.00011169,0.00005562,-0.00010190,0.00005014,0.000526
 24,0.00026572,0.00012959,0.00069369,-0.00018977,-0.00089797,-0.0012816
 2,-0.00050894,-0.00213223,-0.05035243,0.00019604,0.00033092,0.00002211
 ,-0.00023228,-0.00026569,-0.00000747,0.00356916,0.02716369,0.00186644,
 0.00040401,0.00241565,0.04726104,0.00000051,0.00000613,-0.00001041,0.0
 0002350,0.00008204,0.00002105,-0.00007059,-0.00000644,-0.00001677,0.00
 001748,0.00001448,0.00000785,0.00001792,-0.00000782,0.00003702,0.00000
 336,0.00000120,-0.00000374,-0.00000370,0.00000191,-0.00002665,0.000001
 09,-0.00000366,0.00000693,0.00000033,0.00000573,0.00000545,-0.00000340
 ,-0.00001042,0.00000012,-0.00000120,0.00000979,0.00000032,0.00000387,-
 0.00000075,0.00000234,0.00000018,-0.00001388,0.00001566,-0.00000736,-0
 .00012018,-0.00001673,-0.00000468,-0.00000405,-0.00003423,-0.00000003,
 0.00000607,-0.00000094,-0.00000003,-0.00000129,0.00000266,0.00000689,0
 .00000180,0.00001400,0.00000714,-0.00000294,0.00000156,-0.00000242,-0.
 00000144,0.00000138,-0.00000449,-0.00000205,-0.00000309,0.00000083,0.0
 0000567,0.00000112,-0.00000115,0.00000118,-0.00000326,-0.00000032,0.00
 001082,0.00000071,0.00000996,-0.00001510,-0.00001777,0.00000288,-0.000
 00306,-0.00000435,0.00000724,-0.00001229,-0.00001646,-0.00000069,0.000
 00516,0.00000355,-0.00000562,0.00000818,0.00001130,-0.00000285,0.00000
 310,0.00000262,0.00055797,0.00044561,0.00029371,0.00124136,0.00053538,
 0.00048668,-0.00127200,-0.00184091,-0.00022265,-0.01713988,-0.00589677
 ,-0.02426808,-0.13282363,-0.03244783,-0.12153225,-0.00436341,0.0036699
 3,0.00086125,0.00078932,-0.00088943,0.00033630,0.01054098,0.00460750,0
 .01398982,-0.00386046,-0.00116638,-0.00341195,0.14633509,0.00009717,-0
 .00003582,0.00000361,-0.00009082,0.00005385,0.00000108,0.00013241,-0.0
 0008960,0.00000158,-0.00002523,0.00008532,-0.00000498,-0.00003818,0.00
 016859,-0.00000658,-0.00001908,-0.00000725,0.00001184,-0.00000201,-0.0
 0001501,0.00000902,-0.00001116,0.00001135,-0.00000377,-0.00002274,0.00
 002618,-0.00000035,0.00001810,-0.00001400,0.00000194,-0.00002679,0.000
 01078,-0.00000133,0.00001394,-0.00000609,0.00000295,-0.00003325,-0.000
 01065,-0.00000644,0.00001438,-0.00010254,-0.00000050,-0.00003084,-0.00
 024707,-0.00001677,0.00000322,0.00001075,0.00000312,0.00000076,0.00000
 971,-0.00001056,-0.00001132,-0.00000224,0.00002742,-0.00000422,-0.0000
 1173,-0.00002857,0.00000757,0.00000627,-0.00000577,0.00000064,-0.00000
 499,0.00000142,0.00000624,0.00000707,0.00000299,0.00000484,-0.00000307
 ,0.00000066,-0.00000324,0.00000994,-0.00000041,0.00003985,-0.00000907,
 -0.00000067,-0.00000236,0.00000024,0.00000035,0.00001659,-0.00000258,0
 .00000305,-0.00001172,-0.00000403,-0.00000013,-0.00001049,0.00000660,0
 .00000535,-0.00001048,0.00000640,-0.00000504,-0.00064112,0.00020407,-0
 .00020933,-0.00031248,-0.00091452,0.00006980,0.00127505,0.00039476,0.0
 0089678,0.00995830,0.00382382,0.01547592,-0.03358707,-0.05986292,-0.04
 755316,0.00327932,-0.00172993,-0.00002340,-0.00085453,0.00067800,-0.00
 025330,0.00525129,0.00082937,0.00674790,-0.01739553,-0.00564272,-0.026
 68620,0.03302501,0.06237278,-0.00004247,0.00002063,-0.00000316,0.00009
 009,0.00005227,0.00001038,-0.00015821,0.00003448,-0.00001156,0.0000422
 4,-0.00002321,0.00000659,0.00007054,-0.00007581,0.00002965,-0.00004658
 ,-0.00000689,-0.00002020,0.00001480,0.00001450,0.00001207,0.00000465,-
 0.00000296,-0.00000540,0.00000980,-0.00000863,0.00000068,-0.00000958,-
 0.00000525,-0.00000032,0.00001177,0.00000274,0.00000161,-0.00000316,0.
 00000200,0.00000083,0.00001489,-0.00000192,0.00000695,-0.00001946,-0.0
 0005752,-0.00001209,0.00000097,0.00007856,-0.00002799,0.00000840,-0.00
 000841,0.00000107,0.00000862,-0.00000989,0.00000755,-0.00001044,0.0000
 1762,-0.00004850,-0.00000657,0.00002243,0.00003244,-0.00000562,-0.0000
 0734,0.00000926,0.00002144,0.00000468,0.00000209,-0.00000440,-0.000010
 82,-0.00000472,-0.00000420,0.00000199,-0.00000185,0.00000059,0.0000057
 5,0.00000033,-0.00000945,-0.00000989,-0.00000826,0.00000280,-0.0000015
 1,-0.00000176,-0.00000284,-0.00000207,-0.00000480,0.00000519,0.0000069
 8,0.00000141,0.00000032,0.00000346,0.00000401,0.00000181,0.00000113,0.
 00000206,0.00060892,0.00047280,-0.00012746,0.00162498,0.00002438,0.000
 63388,-0.00210931,-0.00129034,0.00010386,0.00153561,0.00125986,0.00208
 698,-0.12223787,-0.04563982,-0.22287305,0.00055386,-0.00034820,0.00150
 426,-0.00035932,0.00050284,0.00070625,-0.01523349,-0.00643530,-0.02116
 955,0.00214473,-0.00013378,0.00122601,0.13348593,0.05155046,0.23793045
 \\0.,0.00000018,0.00000111,0.00000007,0.00000020,0.00000026,0.00000021
 ,-0.00000046,-0.00000056,0.00000004,-0.00000012,-0.00000067,-0.0000001
 5,0.00000004,-0.00000108,0.00000025,-0.00000023,-0.00000214,0.00000026
 ,-0.00000024,-0.00000252,0.00000002,-0.00000050,-0.00000345,0.00000031
 ,0.00000007,0.00000080,0.00000039,0.00000023,0.00000181,0.00000029,0.0
 0000036,0.00000232,0.00000003,0.00000034,0.00000260,0.00000007,0.00000
 034,0.00000172,-0.00000017,0.00000015,0.00000021,0.00000013,-0.0000000
 8,-0.00000107,0.00000069,-0.00000027,-0.00000207,-0.00000047,-0.000000
 40,-0.00000211,-0.00000023,-0.00000027,-0.00000227,0.00000066,-0.00000
 027,-0.00000239,-0.00000041,-0.00000062,-0.00000357,0.00000019,-0.0000
 0055,-0.00000377,0.00000069,-0.00000044,-0.00000356,0.00000030,0.00000
 011,0.00000040,0.00000030,0.00000047,0.00000179,0.00000003,0.00000018,
 0.00000337,0.00000003,0.00000043,0.00000300,-0.00000010,0.00000029,0.0
 0000165,0.00000021,0.00000069,0.00000403,0.00000105,0.00000090,0.00000
 325,-0.00000026,0.00000053,0.00000349,-0.00000077,0.00000028,0.0000014
 2,-0.00000057,0.00000033,-0.00000067,-0.00000018,-0.00000034,-0.000000
 26,-0.00000022,0.00000014,-0.00000035,-0.00000099,0.00000005,0.0000000
 5,-0.00000107,-0.00000015,0.00000085,0.00000014,-0.00000003,0.00000039
 ,-0.00000087,-0.00000052,-0.00000073,-0.00000062,-0.00000008,-0.000000
 23,0.00000069,-0.00000071,-0.00000106\\\@



 IN THIS SHORT LIFE

 THAT ONLY LASTS AN HOUR

 HOW MUCH, HOW LITTLE, IS WITHIN OUR POWER....


 EMILY DICKINSON BOLTS OF MELODY NO. 521
 Job cpu time:       0 days 11 hours 28 minutes 38.0 seconds.
 File lengths (MBytes):  RWF=   1417 Int=      0 D2E=      0 Chk=     34 Scr=      1
 Normal termination of Gaussian 09 at Thu Nov 14 23:20:04 2019.
pbs_rusage has been removed.
Please contact help@nci.org.au if you require this functionality.
