 Entering Gaussian System, Link 0=/apps/gaussian/g09e01/g09/g09
 Initial command:
 /apps/gaussian/g09e01/g09/l1.exe "/jobfs/local/3595022.r-man2/Gau-25927.inp" -scrdir="/jobfs/local/3595022.r-man2/"
 Entering Link 1 = /apps/gaussian/g09e01/g09/l1.exe PID=     25928.
  
 Copyright (c) 1988,1990,1992,1993,1995,1998,2003,2009,2015,
            Gaussian, Inc.  All Rights Reserved.
  
 This is part of the Gaussian(R) 09 program.  It is based on
 the Gaussian(R) 03 system (copyright 2003, Gaussian, Inc.),
 the Gaussian(R) 98 system (copyright 1998, Gaussian, Inc.),
 the Gaussian(R) 94 system (copyright 1995, Gaussian, Inc.),
 the Gaussian 92(TM) system (copyright 1992, Gaussian, Inc.),
 the Gaussian 90(TM) system (copyright 1990, Gaussian, Inc.),
 the Gaussian 88(TM) system (copyright 1988, Gaussian, Inc.),
 the Gaussian 86(TM) system (copyright 1986, Carnegie Mellon
 University), and the Gaussian 82(TM) system (copyright 1983,
 Carnegie Mellon University). Gaussian is a federally registered
 trademark of Gaussian, Inc.
  
 This software contains proprietary and confidential information,
 including trade secrets, belonging to Gaussian, Inc.
  
 This software is provided under written license and may be
 used, copied, transmitted, or stored only in accord with that
 written license.
  
 The following legend is applicable only to US Government
 contracts under FAR:
  
                    RESTRICTED RIGHTS LEGEND
  
 Use, reproduction and disclosure by the US Government is
 subject to restrictions as set forth in subparagraphs (a)
 and (c) of the Commercial Computer Software - Restricted
 Rights clause in FAR 52.227-19.
  
 Gaussian, Inc.
 340 Quinnipiac St., Bldg. 40, Wallingford CT 06492
  
  
 ---------------------------------------------------------------
 Warning -- This program may not be used in any manner that
 competes with the business of Gaussian, Inc. or will provide
 assistance to any competitor of Gaussian, Inc.  The licensee
 of this program is prohibited from giving any competitor of
 Gaussian, Inc. access to this program.  By using this program,
 the user acknowledges that Gaussian, Inc. is engaged in the
 business of creating and licensing software in the field of
 computational chemistry and represents and warrants to the
 licensee that it is not a competitor of Gaussian, Inc. and that
 it will not use this program in any manner prohibited above.
 ---------------------------------------------------------------
  

 Cite this work as:
 Gaussian 09, Revision E.01,
 M. J. Frisch, G. W. Trucks, H. B. Schlegel, G. E. Scuseria, 
 M. A. Robb, J. R. Cheeseman, G. Scalmani, V. Barone, B. Mennucci, 
 G. A. Petersson, H. Nakatsuji, M. Caricato, X. Li, H. P. Hratchian, 
 A. F. Izmaylov, J. Bloino, G. Zheng, J. L. Sonnenberg, M. Hada, 
 M. Ehara, K. Toyota, R. Fukuda, J. Hasegawa, M. Ishida, T. Nakajima, 
 Y. Honda, O. Kitao, H. Nakai, T. Vreven, J. A. Montgomery, Jr., 
 J. E. Peralta, F. Ogliaro, M. Bearpark, J. J. Heyd, E. Brothers, 
 K. N. Kudin, V. N. Staroverov, T. Keith, R. Kobayashi, J. Normand, 
 K. Raghavachari, A. Rendell, J. C. Burant, S. S. Iyengar, J. Tomasi, 
 M. Cossi, N. Rega, J. M. Millam, M. Klene, J. E. Knox, J. B. Cross, 
 V. Bakken, C. Adamo, J. Jaramillo, R. Gomperts, R. E. Stratmann, 
 O. Yazyev, A. J. Austin, R. Cammi, C. Pomelli, J. W. Ochterski, 
 R. L. Martin, K. Morokuma, V. G. Zakrzewski, G. A. Voth, 
 P. Salvador, J. J. Dannenberg, S. Dapprich, A. D. Daniels, 
 O. Farkas, J. B. Foresman, J. V. Ortiz, J. Cioslowski, 
 and D. J. Fox, Gaussian, Inc., Wallingford CT, 2013.
 
 ******************************************
 Gaussian 09:  ES64L-G09RevE.01 30-Nov-2015
                14-Nov-2019 
 ******************************************
 %chk=CP19_c2_carboxy.M062X_6-311pGd_opt_GD3.chk
 %mem=196608000
 %nproc=8
 Will use up to    8 processors via shared memory.
 ----------------------------------------------------------------------
 # M062X/6-311+G* SCF=Tight INT(grid=ultrafine) OPT IOP(2/17=4) Empiric
 alDispersion=GD3 maxdisk=2684354560
 ----------------------------------------------------------------------
 1/14=-1,18=20,19=15,26=4,38=1/1,3;
 2/9=110,12=2,17=4,18=5,40=1/2;
 3/5=4,6=6,7=11,11=2,16=1,25=1,30=1,71=1,74=-55,75=-5,124=31/1,2,3;
 4//1;
 5/5=2,32=2,38=5/2;
 6/7=2,8=2,9=2,10=2,28=1/1;
 7//1,2,3,16;
 1/14=-1,18=20,19=15,26=4/3(2);
 2/9=110,17=4/2;
 99//99;
 2/9=110,17=4/2;
 3/5=4,6=6,7=11,11=2,16=1,25=1,30=1,71=1,74=-55,75=-5,124=31/1,2,3;
 4/5=5,16=3,69=1/1;
 5/5=2,32=2,38=5/2;
 7//1,2,3,16;
 1/14=-1,18=20,19=15,26=4/3(-5);
 2/9=110,17=4/2;
 6/7=2,8=2,9=2,10=2,19=2,28=1/1;
 99/9=1/99;
 --------------------------------------
 CP19_c2_carboxy.M062X_6-311pGd_opt_GD3
 --------------------------------------
 Symbolic Z-matrix:
 Charge = -1 Multiplicity = 1
 C                    -6.18375   1.27251  -0.04382 
 N                    -4.9425    0.68853  -0.00946 
 C                    -3.7085    1.32979  -0.07234 
 O                    -3.56915   2.5451   -0.15913 
 N                    -2.67298   0.46176  -0.0207 
 C                    -1.31467   0.9425   -0.13284 
 C                    -0.34069  -0.19734   0.1369 
 C                     1.10862   0.25536  -0.0072 
 C                    -7.28917   0.39472   0.01508 
 C                    -8.57259   0.89213  -0.01314 
 C                    -8.82881   2.26574  -0.09942 
 C                    -7.73064   3.12148  -0.15712 
 C                    -6.427     2.65475  -0.13079 
 H                    -4.94087  -0.34963   0.05761 
 H                    -2.82982  -0.55784  -0.02593 
 H                    -1.15718   1.7603    0.57849 
 H                    -1.1358    1.36389  -1.13162 
 H                    -0.55586  -1.02451  -0.54558 
 H                    -0.52209  -0.58719   1.1429 
 H                     1.30914   0.61923  -1.01908 
 H                     1.80478  -0.5618    0.19503 
 H                     1.33995   1.06933   0.68626 
 H                    -7.11007  -0.6738    0.08092 
 Cl                   -9.89396  -0.25292   0.06129 
 C                    -10.21633   2.8164   -0.13089 
 H                    -7.90322   4.18878  -0.22451 
 H                    -5.59361   3.33788  -0.17675 
 F                    -10.21918   4.16172  -0.21136 
 F                    -10.93671   2.38016  -1.18268 
 F                    -10.93433   2.50857   0.9668 
 O                    -5.15831  -2.0524    0.14422 
 O                    -2.94957  -2.34805  -0.05013 
 C                    -4.12415  -2.76376   0.05877 
 C                    -4.35309  -4.28183   0.09748 
 C                    -3.08291  -5.11029  -0.03465 
 H                    -5.06703  -4.51945  -0.69713 
 H                    -4.87361  -4.50224   1.03481 
 H                    -2.57582  -4.89284  -0.97625 
 H                    -3.2999   -6.18229   0.00342 
 H                    -2.38005  -4.86954   0.76456 
 
 Add virtual bond connecting atoms O31        and H14        Dist= 3.25D+00.
 Add virtual bond connecting atoms O32        and H15        Dist= 3.39D+00.

 GradGradGradGradGradGradGradGradGradGradGradGradGradGradGradGradGradGrad
 Berny optimization.
 Initialization pass.
                           ----------------------------
                           !    Initial Parameters    !
                           ! (Angstroms and Degrees)  !
 --------------------------                            --------------------------
 ! Name  Definition              Value          Derivative Info.                !
 --------------------------------------------------------------------------------
 ! R1    R(1,2)                  1.3722         estimate D2E/DX2                !
 ! R2    R(1,9)                  1.4128         estimate D2E/DX2                !
 ! R3    R(1,13)                 1.4062         estimate D2E/DX2                !
 ! R4    R(2,3)                  1.3921         estimate D2E/DX2                !
 ! R5    R(2,14)                 1.0403         estimate D2E/DX2                !
 ! R6    R(3,4)                  1.2263         estimate D2E/DX2                !
 ! R7    R(3,5)                  1.3522         estimate D2E/DX2                !
 ! R8    R(5,6)                  1.4452         estimate D2E/DX2                !
 ! R9    R(5,15)                 1.0316         estimate D2E/DX2                !
 ! R10   R(6,7)                  1.5234         estimate D2E/DX2                !
 ! R11   R(6,16)                 1.0953         estimate D2E/DX2                !
 ! R12   R(6,17)                 1.0987         estimate D2E/DX2                !
 ! R13   R(7,8)                  1.5252         estimate D2E/DX2                !
 ! R14   R(7,18)                 1.0938         estimate D2E/DX2                !
 ! R15   R(7,19)                 1.094          estimate D2E/DX2                !
 ! R16   R(8,20)                 1.0938         estimate D2E/DX2                !
 ! R17   R(8,21)                 1.0924         estimate D2E/DX2                !
 ! R18   R(8,22)                 1.0941         estimate D2E/DX2                !
 ! R19   R(9,10)                 1.3767         estimate D2E/DX2                !
 ! R20   R(9,23)                 1.0854         estimate D2E/DX2                !
 ! R21   R(10,11)                1.4            estimate D2E/DX2                !
 ! R22   R(10,24)                1.7501         estimate D2E/DX2                !
 ! R23   R(11,12)                1.3934         estimate D2E/DX2                !
 ! R24   R(11,25)                1.4931         estimate D2E/DX2                !
 ! R25   R(12,13)                1.3849         estimate D2E/DX2                !
 ! R26   R(12,26)                1.0833         estimate D2E/DX2                !
 ! R27   R(13,27)                1.0786         estimate D2E/DX2                !
 ! R28   R(14,31)                1.7188         estimate D2E/DX2                !
 ! R29   R(15,32)                1.7944         estimate D2E/DX2                !
 ! R30   R(25,28)                1.3477         estimate D2E/DX2                !
 ! R31   R(25,29)                1.3474         estimate D2E/DX2                !
 ! R32   R(25,30)                1.3473         estimate D2E/DX2                !
 ! R33   R(31,33)                1.2581         estimate D2E/DX2                !
 ! R34   R(32,33)                1.2507         estimate D2E/DX2                !
 ! R35   R(33,34)                1.5357         estimate D2E/DX2                !
 ! R36   R(34,35)                1.5222         estimate D2E/DX2                !
 ! R37   R(34,36)                1.0943         estimate D2E/DX2                !
 ! R38   R(34,37)                1.0946         estimate D2E/DX2                !
 ! R39   R(35,38)                1.0913         estimate D2E/DX2                !
 ! R40   R(35,39)                1.0944         estimate D2E/DX2                !
 ! R41   R(35,40)                1.0912         estimate D2E/DX2                !
 ! A1    A(2,1,9)              116.2515         estimate D2E/DX2                !
 ! A2    A(2,1,13)             125.1957         estimate D2E/DX2                !
 ! A3    A(9,1,13)             118.5528         estimate D2E/DX2                !
 ! A4    A(1,2,3)              127.2051         estimate D2E/DX2                !
 ! A5    A(1,2,14)             115.3239         estimate D2E/DX2                !
 ! A6    A(3,2,14)             117.4648         estimate D2E/DX2                !
 ! A7    A(2,3,4)              124.0848         estimate D2E/DX2                !
 ! A8    A(2,3,5)              112.4206         estimate D2E/DX2                !
 ! A9    A(4,3,5)              123.4939         estimate D2E/DX2                !
 ! A10   A(3,5,6)              120.2151         estimate D2E/DX2                !
 ! A11   A(3,5,15)             121.1876         estimate D2E/DX2                !
 ! A12   A(6,5,15)             118.1167         estimate D2E/DX2                !
 ! A13   A(5,6,7)              109.772          estimate D2E/DX2                !
 ! A14   A(5,6,16)             109.4581         estimate D2E/DX2                !
 ! A15   A(5,6,17)             110.5561         estimate D2E/DX2                !
 ! A16   A(7,6,16)             110.5951         estimate D2E/DX2                !
 ! A17   A(7,6,17)             110.1125         estimate D2E/DX2                !
 ! A18   A(16,6,17)            106.2964         estimate D2E/DX2                !
 ! A19   A(6,7,8)              111.6377         estimate D2E/DX2                !
 ! A20   A(6,7,18)             109.2445         estimate D2E/DX2                !
 ! A21   A(6,7,19)             108.8711         estimate D2E/DX2                !
 ! A22   A(8,7,18)             110.6379         estimate D2E/DX2                !
 ! A23   A(8,7,19)             110.4997         estimate D2E/DX2                !
 ! A24   A(18,7,19)            105.7629         estimate D2E/DX2                !
 ! A25   A(7,8,20)             111.1202         estimate D2E/DX2                !
 ! A26   A(7,8,21)             111.4725         estimate D2E/DX2                !
 ! A27   A(7,8,22)             111.2148         estimate D2E/DX2                !
 ! A28   A(20,8,21)            107.6544         estimate D2E/DX2                !
 ! A29   A(20,8,22)            107.4635         estimate D2E/DX2                !
 ! A30   A(21,8,22)            107.726          estimate D2E/DX2                !
 ! A31   A(1,9,10)             120.2703         estimate D2E/DX2                !
 ! A32   A(1,9,23)             119.0164         estimate D2E/DX2                !
 ! A33   A(10,9,23)            120.7132         estimate D2E/DX2                !
 ! A34   A(9,10,11)            121.7612         estimate D2E/DX2                !
 ! A35   A(9,10,24)            117.8141         estimate D2E/DX2                !
 ! A36   A(11,10,24)           120.4246         estimate D2E/DX2                !
 ! A37   A(10,11,12)           117.4436         estimate D2E/DX2                !
 ! A38   A(10,11,25)           122.224          estimate D2E/DX2                !
 ! A39   A(12,11,25)           120.3324         estimate D2E/DX2                !
 ! A40   A(11,12,13)           122.2834         estimate D2E/DX2                !
 ! A41   A(11,12,26)           118.8223         estimate D2E/DX2                !
 ! A42   A(13,12,26)           118.8943         estimate D2E/DX2                !
 ! A43   A(1,13,12)            119.6887         estimate D2E/DX2                !
 ! A44   A(1,13,27)            119.443          estimate D2E/DX2                !
 ! A45   A(12,13,27)           120.8683         estimate D2E/DX2                !
 ! A46   A(11,25,28)           111.7993         estimate D2E/DX2                !
 ! A47   A(11,25,29)           113.1958         estimate D2E/DX2                !
 ! A48   A(11,25,30)           113.1906         estimate D2E/DX2                !
 ! A49   A(28,25,29)           105.9889         estimate D2E/DX2                !
 ! A50   A(28,25,30)           105.9974         estimate D2E/DX2                !
 ! A51   A(29,25,30)           106.0866         estimate D2E/DX2                !
 ! A52   A(14,31,33)           116.9197         estimate D2E/DX2                !
 ! A53   A(15,32,33)           113.1475         estimate D2E/DX2                !
 ! A54   A(31,33,32)           126.1528         estimate D2E/DX2                !
 ! A55   A(31,33,34)           115.7642         estimate D2E/DX2                !
 ! A56   A(32,33,34)           118.0829         estimate D2E/DX2                !
 ! A57   A(33,34,35)           114.2931         estimate D2E/DX2                !
 ! A58   A(33,34,36)           107.073          estimate D2E/DX2                !
 ! A59   A(33,34,37)           106.9492         estimate D2E/DX2                !
 ! A60   A(35,34,36)           111.2953         estimate D2E/DX2                !
 ! A61   A(35,34,37)           111.195          estimate D2E/DX2                !
 ! A62   A(36,34,37)           105.5356         estimate D2E/DX2                !
 ! A63   A(34,35,38)           110.7417         estimate D2E/DX2                !
 ! A64   A(34,35,39)           111.3855         estimate D2E/DX2                !
 ! A65   A(34,35,40)           110.7207         estimate D2E/DX2                !
 ! A66   A(38,35,39)           108.5008         estimate D2E/DX2                !
 ! A67   A(38,35,40)           106.7789         estimate D2E/DX2                !
 ! A68   A(39,35,40)           108.5629         estimate D2E/DX2                !
 ! A69   L(2,14,31,7,-1)       187.3717         estimate D2E/DX2                !
 ! A70   L(5,15,32,7,-1)       175.1231         estimate D2E/DX2                !
 ! A71   L(2,14,31,7,-2)       180.6444         estimate D2E/DX2                !
 ! A72   L(5,15,32,7,-2)       180.8244         estimate D2E/DX2                !
 ! D1    D(9,1,2,3)            179.0301         estimate D2E/DX2                !
 ! D2    D(9,1,2,14)            -0.0361         estimate D2E/DX2                !
 ! D3    D(13,1,2,3)            -1.0171         estimate D2E/DX2                !
 ! D4    D(13,1,2,14)          179.9167         estimate D2E/DX2                !
 ! D5    D(2,1,9,10)           179.976          estimate D2E/DX2                !
 ! D6    D(2,1,9,23)            -0.1292         estimate D2E/DX2                !
 ! D7    D(13,1,9,10)            0.0199         estimate D2E/DX2                !
 ! D8    D(13,1,9,23)          179.9147         estimate D2E/DX2                !
 ! D9    D(2,1,13,12)         -179.9767         estimate D2E/DX2                !
 ! D10   D(2,1,13,27)            0.0601         estimate D2E/DX2                !
 ! D11   D(9,1,13,12)           -0.0249         estimate D2E/DX2                !
 ! D12   D(9,1,13,27)         -179.9881         estimate D2E/DX2                !
 ! D13   D(1,2,3,4)              0.6234         estimate D2E/DX2                !
 ! D14   D(1,2,3,5)           -179.6675         estimate D2E/DX2                !
 ! D15   D(14,2,3,4)           179.672          estimate D2E/DX2                !
 ! D16   D(14,2,3,5)            -0.6188         estimate D2E/DX2                !
 ! D17   D(1,2,31,33)          173.356          estimate D2E/DX2                !
 ! D18   D(3,2,31,33)           -5.2661         estimate D2E/DX2                !
 ! D19   D(2,3,5,6)            177.2705         estimate D2E/DX2                !
 ! D20   D(2,3,5,15)             5.3738         estimate D2E/DX2                !
 ! D21   D(4,3,5,6)             -3.0184         estimate D2E/DX2                !
 ! D22   D(4,3,5,15)          -174.9151         estimate D2E/DX2                !
 ! D23   D(3,5,6,7)            172.6279         estimate D2E/DX2                !
 ! D24   D(3,5,6,16)            51.0647         estimate D2E/DX2                !
 ! D25   D(3,5,6,17)           -65.7            estimate D2E/DX2                !
 ! D26   D(15,5,6,7)           -15.2302         estimate D2E/DX2                !
 ! D27   D(15,5,6,16)         -136.7935         estimate D2E/DX2                !
 ! D28   D(15,5,6,17)          106.4418         estimate D2E/DX2                !
 ! D29   D(3,5,32,33)           -8.8477         estimate D2E/DX2                !
 ! D30   D(6,5,32,33)          179.4001         estimate D2E/DX2                !
 ! D31   D(5,6,7,8)            178.4794         estimate D2E/DX2                !
 ! D32   D(5,6,7,18)            55.7883         estimate D2E/DX2                !
 ! D33   D(5,6,7,19)           -59.2617         estimate D2E/DX2                !
 ! D34   D(16,6,7,8)           -60.6412         estimate D2E/DX2                !
 ! D35   D(16,6,7,18)          176.6677         estimate D2E/DX2                !
 ! D36   D(16,6,7,19)           61.6177         estimate D2E/DX2                !
 ! D37   D(17,6,7,8)            56.5422         estimate D2E/DX2                !
 ! D38   D(17,6,7,18)          -66.1489         estimate D2E/DX2                !
 ! D39   D(17,6,7,19)          178.8011         estimate D2E/DX2                !
 ! D40   D(6,7,8,20)           -60.3944         estimate D2E/DX2                !
 ! D41   D(6,7,8,21)           179.5192         estimate D2E/DX2                !
 ! D42   D(6,7,8,22)            59.2776         estimate D2E/DX2                !
 ! D43   D(18,7,8,20)           61.4967         estimate D2E/DX2                !
 ! D44   D(18,7,8,21)          -58.5897         estimate D2E/DX2                !
 ! D45   D(18,7,8,22)         -178.8312         estimate D2E/DX2                !
 ! D46   D(19,7,8,20)          178.2869         estimate D2E/DX2                !
 ! D47   D(19,7,8,21)           58.2005         estimate D2E/DX2                !
 ! D48   D(19,7,8,22)          -62.041          estimate D2E/DX2                !
 ! D49   D(1,9,10,11)           -0.0257         estimate D2E/DX2                !
 ! D50   D(1,9,10,24)          179.9227         estimate D2E/DX2                !
 ! D51   D(23,9,10,11)        -179.9187         estimate D2E/DX2                !
 ! D52   D(23,9,10,24)           0.0297         estimate D2E/DX2                !
 ! D53   D(9,10,11,12)           0.035          estimate D2E/DX2                !
 ! D54   D(9,10,11,25)         179.9935         estimate D2E/DX2                !
 ! D55   D(24,10,11,12)       -179.912          estimate D2E/DX2                !
 ! D56   D(24,10,11,25)          0.0464         estimate D2E/DX2                !
 ! D57   D(10,11,12,13)         -0.0406         estimate D2E/DX2                !
 ! D58   D(10,11,12,26)        179.9837         estimate D2E/DX2                !
 ! D59   D(25,11,12,13)       -179.9998         estimate D2E/DX2                !
 ! D60   D(25,11,12,26)          0.0244         estimate D2E/DX2                !
 ! D61   D(10,11,25,28)        179.7881         estimate D2E/DX2                !
 ! D62   D(10,11,25,29)        -60.5987         estimate D2E/DX2                !
 ! D63   D(10,11,25,30)         60.1675         estimate D2E/DX2                !
 ! D64   D(12,11,25,28)         -0.2546         estimate D2E/DX2                !
 ! D65   D(12,11,25,29)        119.3585         estimate D2E/DX2                !
 ! D66   D(12,11,25,30)       -119.8752         estimate D2E/DX2                !
 ! D67   D(11,12,13,1)           0.0364         estimate D2E/DX2                !
 ! D68   D(11,12,13,27)        179.9991         estimate D2E/DX2                !
 ! D69   D(26,12,13,1)        -179.9878         estimate D2E/DX2                !
 ! D70   D(26,12,13,27)         -0.0251         estimate D2E/DX2                !
 ! D71   D(14,31,33,32)          1.8888         estimate D2E/DX2                !
 ! D72   D(14,31,33,34)       -178.2588         estimate D2E/DX2                !
 ! D73   D(15,32,33,31)          1.8063         estimate D2E/DX2                !
 ! D74   D(15,32,33,34)       -178.0431         estimate D2E/DX2                !
 ! D75   D(31,33,34,35)        178.9044         estimate D2E/DX2                !
 ! D76   D(31,33,34,36)         55.1625         estimate D2E/DX2                !
 ! D77   D(31,33,34,37)        -57.5748         estimate D2E/DX2                !
 ! D78   D(32,33,34,35)         -1.2307         estimate D2E/DX2                !
 ! D79   D(32,33,34,36)       -124.9726         estimate D2E/DX2                !
 ! D80   D(32,33,34,37)        122.2901         estimate D2E/DX2                !
 ! D81   D(33,34,35,38)        -59.4166         estimate D2E/DX2                !
 ! D82   D(33,34,35,39)        179.7396         estimate D2E/DX2                !
 ! D83   D(33,34,35,40)         58.8314         estimate D2E/DX2                !
 ! D84   D(36,34,35,38)         62.0269         estimate D2E/DX2                !
 ! D85   D(36,34,35,39)        -58.8169         estimate D2E/DX2                !
 ! D86   D(36,34,35,40)       -179.7251         estimate D2E/DX2                !
 ! D87   D(37,34,35,38)        179.3798         estimate D2E/DX2                !
 ! D88   D(37,34,35,39)         58.5361         estimate D2E/DX2                !
 ! D89   D(37,34,35,40)        -62.3721         estimate D2E/DX2                !
 --------------------------------------------------------------------------------
 Trust Radius=3.00D-01 FncErr=1.00D-07 GrdErr=1.00D-06
 Number of steps in this run=    212 maximum allowed number of steps=    240.
 GradGradGradGradGradGradGradGradGradGradGradGradGradGradGradGradGradGrad

                          Input orientation:                          
 ---------------------------------------------------------------------
 Center     Atomic      Atomic             Coordinates (Angstroms)
 Number     Number       Type             X           Y           Z
 ---------------------------------------------------------------------
      1          6           0       -6.183750    1.272509   -0.043824
      2          7           0       -4.942505    0.688526   -0.009457
      3          6           0       -3.708496    1.329790   -0.072339
      4          8           0       -3.569147    2.545101   -0.159133
      5          7           0       -2.672977    0.461758   -0.020697
      6          6           0       -1.314666    0.942497   -0.132840
      7          6           0       -0.340689   -0.197337    0.136901
      8          6           0        1.108624    0.255363   -0.007199
      9          6           0       -7.289174    0.394724    0.015083
     10          6           0       -8.572586    0.892131   -0.013138
     11          6           0       -8.828813    2.265744   -0.099418
     12          6           0       -7.730636    3.121480   -0.157120
     13          6           0       -6.427001    2.654746   -0.130794
     14          1           0       -4.940869   -0.349631    0.057611
     15          1           0       -2.829823   -0.557841   -0.025932
     16          1           0       -1.157182    1.760303    0.578489
     17          1           0       -1.135803    1.363895   -1.131620
     18          1           0       -0.555863   -1.024510   -0.545582
     19          1           0       -0.522090   -0.587192    1.142903
     20          1           0        1.309137    0.619234   -1.019078
     21          1           0        1.804783   -0.561804    0.195028
     22          1           0        1.339951    1.069334    0.686262
     23          1           0       -7.110067   -0.673804    0.080925
     24         17           0       -9.893962   -0.252921    0.061286
     25          6           0      -10.216334    2.816402   -0.130889
     26          1           0       -7.903217    4.188775   -0.224515
     27          1           0       -5.593605    3.337882   -0.176755
     28          9           0      -10.219177    4.161716   -0.211357
     29          9           0      -10.936710    2.380160   -1.182678
     30          9           0      -10.934332    2.508571    0.966798
     31          8           0       -5.158313   -2.052397    0.144221
     32          8           0       -2.949572   -2.348054   -0.050129
     33          6           0       -4.124150   -2.763758    0.058768
     34          6           0       -4.353094   -4.281833    0.097478
     35          6           0       -3.082909   -5.110294   -0.034651
     36          1           0       -5.067029   -4.519448   -0.697128
     37          1           0       -4.873607   -4.502237    1.034807
     38          1           0       -2.575824   -4.892836   -0.976252
     39          1           0       -3.299897   -6.182289    0.003420
     40          1           0       -2.380055   -4.869542    0.764563
 ---------------------------------------------------------------------
                    Distance matrix (angstroms):
                    1          2          3          4          5
     1  C    0.000000
     2  N    1.372191   0.000000
     3  C    2.476081   1.392103   0.000000
     4  O    2.910144   2.314171   1.226349   0.000000
     5  N    3.603246   2.280856   1.352200   2.272136   0.000000
     6  C    4.881067   3.638810   2.425712   2.766174   1.445232
     7  C    6.027808   4.688590   3.703784   4.246356   2.428746
     8  C    7.363059   6.066612   4.935917   5.210328   3.787253
     9  C    1.412777   2.365118   3.701790   4.300358   4.616823
    10  C    2.419125   3.635788   4.884099   5.271434   5.915290
    11  C    2.825945   4.195129   5.205228   5.267418   6.415207
    12  C    2.413376   3.703343   4.403971   4.201215   5.715999
    13  C    1.406169   2.466673   3.024764   2.860097   4.349024
    14  H    2.046065   1.040322   2.087124   3.210619   2.409942
    15  H    3.820907   2.452983   2.082635   3.192584   1.031606
    16  H    5.088379   3.977820   2.667980   2.641509   2.083957
    17  H    5.164632   4.025711   2.782442   2.874394   2.100215
    18  H    6.099276   4.739678   3.963051   4.687360   2.639445
    19  H    6.076282   4.742938   3.912137   4.559728   2.660936
    20  H    7.584276   6.333021   5.155370   5.314708   4.108381
    21  H    8.199904   6.865204   5.834883   6.217509   4.598321
    22  H    7.561771   6.332321   5.111763   5.195365   4.119773
    23  H    2.159111   2.561726   3.950768   4.791356   4.581223
    24  Cl   4.012936   5.040660   6.386143   6.919595   7.256729
    25  C    4.318902   5.688223   6.675732   6.652781   7.903083
    26  H    3.390254   4.589534   5.078646   4.635742   6.425544
    27  H    2.152140   2.733315   2.756262   2.174223   4.102013
    28  F    4.965910   6.320371   7.101275   6.843908   8.406615
    29  F    5.011437   6.337868   7.388045   7.440150   8.562695
    30  F    5.011710   6.337795   7.394731   7.450840   8.568231
    31  O    3.484521   2.753697   3.686198   4.873855   3.539078
    32  O    4.854732   3.632389   3.755395   4.933429   2.823547
    33  C    4.532541   3.548609   4.116685   5.342237   3.537821
    34  C    5.849956   5.006327   5.651076   6.876587   5.033728
    35  C    7.096159   6.089749   6.470507   7.671832   5.587129
    36  H    5.934698   5.254654   6.037347   7.241612   5.567895
    37  H    6.018938   5.295210   6.049446   7.265816   5.531556
    38  H    7.204028   6.139011   6.389136   7.548329   5.440055
    39  H    7.993301   7.064448   7.523564   8.733056   6.673603
    40  H    7.269552   6.169066   6.395067   7.565982   5.396777
                    6          7          8          9         10
     6  C    0.000000
     7  C    1.523355   0.000000
     8  C    2.521957   1.525192   0.000000
     9  C    6.001391   6.974727   8.398984   0.000000
    10  C    7.259082   8.305033   9.702130   1.376719   0.000000
    11  C    7.629844   8.841429  10.139171   2.425761   1.399968
    12  C    6.775931   8.106313   9.293526   2.767624   2.387385
    13  C    5.391454   6.726754   7.909359   2.423287   2.779242
    14  H    3.854247   4.603383   6.080015   2.463820   3.838794
    15  H    2.134981   2.520370   4.021568   4.560140   5.922998
    16  H    1.095261   2.166567   2.782400   6.307421   7.489456
    17  H    1.098694   2.163052   2.744197   6.333893   7.535204
    18  H    2.148314   1.093754   2.167590   6.904060   8.259833
    19  H    2.143746   1.094045   2.166071   6.930337   8.266518
    20  H    2.788235   2.173706   1.093849   8.663189   9.936540
    21  H    3.478704   2.176986   1.092381   9.145895  10.480794
    22  H    2.781008   2.175041   1.094052   8.681439   9.938759
    23  H    6.020366   6.786356   8.271517   1.085434   2.144752
    24  Cl   8.664354   9.553733  11.014532   2.684492   1.750062
    25  C    9.096770  10.328731  11.611584   3.801854   2.533494
    26  H    7.345457   8.749882   9.835255   3.850881   3.370549
    27  H    4.903991   6.339501   7.379061   3.402049   3.857823
    28  F    9.468889  10.803108  11.984171   4.777701   3.666162
    29  F    9.785334  10.984554  12.287659   4.322164   3.028389
    30  F    9.808149  10.965215  12.290582   4.319871   3.025062
    31  O    4.880551   5.162442   6.680059   3.247406   4.511348
    32  O    3.675253   3.386272   4.821678   5.134124   6.489873
    33  C    4.654701   4.572440   6.041636   4.471610   5.758409
    34  C    6.048034   5.725736   7.101230   5.522458   6.677294
    35  C    6.306553   5.629064   6.808817   6.928229   8.134256
    36  H    6.650676   6.458679   7.836677   5.440060   6.483977
    37  H    6.608676   6.315517   7.714119   5.554730   6.624186
    38  H    6.029342   5.318143   6.404543   7.152391   8.387763
    39  H    7.397451   6.677903   7.802470   7.692306   8.823205
    40  H    5.976637   5.136388   6.247492   7.236966   8.494065
                   11         12         13         14         15
    11  C    0.000000
    12  C    1.393415   0.000000
    13  C    2.433312   1.384918   0.000000
    14  H    4.688385   4.458421   3.357136   0.000000
    15  H    6.630680   6.129648   4.824044   2.122934   0.000000
    16  H    7.718093   6.753090   5.392041   4.363419   2.921788
    17  H    7.814165   6.894243   5.537574   4.339236   2.790218
    18  H    8.914401   8.295631   6.941126   4.477453   2.378804
    19  H    8.870415   8.210204   6.855687   4.556304   2.587019
    20  H   10.311877   9.419220   8.048614   6.415648   4.416201
    21  H   11.007048  10.228139   8.843904   6.750388   4.639872
    22  H   10.269004   9.337995   7.969106   6.469727   4.532320
    23  H    3.409921   3.853045   3.404504   2.193411   4.283148
    24  Cl   2.739351   4.014258   4.528933   4.954038   7.071255
    25  C    1.493127   2.504486   3.792779   6.155471   8.121396
    26  H    2.137855   1.083257   2.131020   5.426991   6.950477
    27  H    3.409110   2.148050   1.078581   3.752166   4.778902
    28  F    2.353795   2.697753   4.081428   6.948750   8.769901
    29  F    2.372714   3.446771   4.638893   6.703744   8.700088
    30  F    2.372550   3.450003   4.641348   6.702055   8.721896
    31  O    5.672590   5.785902   4.882868   1.718778   2.772097
    32  O    7.473623   7.265385   6.093195   2.823219   1.794377
    33  C    6.888743   6.905750   5.890606   2.548537   2.559010
    34  C    7.933575   8.141355   7.243571   3.976089   4.025382
    35  C    9.350163   9.454019   8.455060   5.111208   4.559491
    36  H    7.781203   8.109882   7.323886   4.239448   4.598905
    37  H    7.920587   8.228267   7.415798   4.266565   4.567328
    38  H    9.545364   9.564116   8.515418   5.225229   4.445200
    39  H   10.096968  10.306180   9.374966   6.059342   5.644134
    40  H    9.656359   9.660987   8.590364   5.242819   4.406580
                   16         17         18         19         20
    16  H    0.000000
    17  H    1.755582   0.000000
    18  H    3.062728   2.526706   0.000000
    19  H    2.496526   3.058895   1.744526   0.000000
    20  H    3.152299   2.558304   2.530675   3.079451   0.000000
    21  H    3.783182   3.757041   2.516993   2.512658   1.764815
    22  H    2.593208   3.085582   3.081514   2.533731   1.764008
    23  H    6.450526   6.427621   6.593413   6.673586   8.588652
    24  Cl   8.980640   8.985681   9.389554   9.440001  11.288811
    25  C    9.148049   9.250258  10.404291  10.353037  11.766601
    26  H    7.214658   7.389228   9.014712   8.897232   9.911631
    27  H    4.768752   4.967937   6.674230   6.547364   7.466486
    28  F    9.407997   9.548946  10.972160  10.882080  12.087333
    29  F    9.956158   9.853587  10.943475  11.076002  12.372889
    30  F    9.813428  10.085872  11.067185  10.864141  12.546547
    31  O    5.543855   5.429495   4.766018   4.963745   7.093574
    32  O    4.526193   4.270591   2.779764   3.227481   5.280176
    33  C    5.435084   5.233045   4.015333   4.345990   6.490531
    34  C    6.852199   6.613311   5.044070   5.424009   7.571526
    35  C    7.161667   6.849065   4.831216   5.329436   7.286059
    36  H    7.506622   7.089220   5.708606   6.285286   8.195437
    37  H    7.296537   7.285334   5.764992   5.854483   8.286992
    38  H    6.978110   6.422186   4.385164   5.219886   6.743713
    39  H    8.246618   7.931993   5.868033   6.349783   8.279457
    40  H    6.744249   6.633205   4.452913   4.683343   6.849684
                   21         22         23         24         25
    21  H    0.000000
    22  H    1.765783   0.000000
    23  H    8.916284   8.649148   0.000000
    24  Cl  11.703586  11.328713   2.815599   0.000000
    25  C   12.491027  11.716130   4.677104   3.092184   0.000000
    26  H   10.816159   9.797785   4.936300   4.875799   2.691223
    27  H    8.371495   7.346108   4.296474   5.607459   4.652275
    28  F   12.924876  11.999250   5.756236   4.434989   1.347721
    29  F   13.149102  12.487097   5.056341   3.093201   1.347408
    30  F   13.126611  12.361559   5.053443   3.086772   1.347293
    31  O    7.121037   7.229554   2.390370   5.066691   7.025985
    32  O    5.084750   5.533608   4.486648   7.254415   8.915377
    33  C    6.326091   6.703935   3.644736   6.292458   8.263708
    34  C    7.194969   7.835331   4.540820   6.850887   9.209489
    35  C    6.680648   7.633427   5.992812   8.366224  10.664311
    36  H    7.980018   8.613805   4.423612   6.486734   8.980572
    37  H    7.799561   8.352975   4.535256   6.648939   9.135976
    38  H    6.270522   7.324255   6.283089   8.726994  10.886890
    39  H    7.595019   8.636000   6.698269   8.868058  11.350401
    40  H    6.032731   7.008197   6.359607   8.846840  11.012849
                   26         27         28         29         30
    26  H    0.000000
    27  H    2.461830   0.000000
    28  F    2.316155   4.698491   0.000000
    29  F    3.659404   5.520677   2.152269   0.000000
    30  F    3.664692   5.524386   2.152297   2.153310   0.000000
    31  O    6.828082   5.417344   8.022094   7.402573   7.405502
    32  O    8.203606   6.271907   9.759624   9.350564   9.400923
    33  C    7.918290   6.280509   9.229546   8.626242   8.660286
    34  C    9.190118   7.724904  10.285905   9.453304   9.496210
    35  C   10.475883   8.814504  11.701612  10.913618  10.986121
    36  H    9.170631   7.892130  10.106593   9.071577   9.305211
    37  H    9.289679   7.965787  10.256322   9.436411   9.267602
    38  H   10.555656   8.802892  11.873956  11.083478  11.332296
    39  H   11.349075   9.794245  12.446728  11.534439  11.607918
    40  H   10.655361   8.864243  11.998662  11.382718  11.298368
                   31         32         33         34         35
    31  O    0.000000
    32  O    2.236900   0.000000
    33  C    1.258106   1.250721   0.000000
    34  C    2.370854   2.393985   1.535729   0.000000
    35  C    3.700004   2.765500   2.568879   1.522227   0.000000
    36  H    2.608168   3.101158   2.131395   1.094333   2.173639
    37  H    2.622197   3.085370   2.129941   1.094576   2.172573
    38  H    3.999100   2.733734   2.828701   2.164465   1.091346
    39  H    4.530954   3.850579   3.516932   2.174811   1.094397
    40  H    4.004978   2.710346   2.823888   2.164090   1.091196
                   36         37         38         39         40
    36  H    0.000000
    37  H    1.742787   0.000000
    38  H    2.534449   3.078430   0.000000
    39  H    2.525582   2.522479   1.773902   0.000000
    40  H    3.078788   2.534906   1.751943   1.774472   0.000000
 Stoichiometry    C14H17ClF3N2O3(1-)
 Framework group  C1[X(C14H17ClF3N2O3)]
 Deg. of freedom   114
 Full point group                 C1      NOp   1
 Largest Abelian subgroup         C1      NOp   1
 Largest concise Abelian subgroup C1      NOp   1
                         Standard orientation:                         
 ---------------------------------------------------------------------
 Center     Atomic      Atomic             Coordinates (Angstroms)
 Number     Number       Type             X           Y           Z
 ---------------------------------------------------------------------
      1          6           0       -0.625519   -0.664305   -0.018506
      2          7           0        0.746043   -0.627171   -0.037161
      3          6           0        1.618129   -1.711416    0.005609
      4          8           0        1.257003   -2.882275    0.056712
      5          7           0        2.915477   -1.331177   -0.021791
      6          6           0        3.965310   -2.319722    0.074772
      7          6           0        5.317733   -1.660023   -0.162626
      8          6           0        6.461821   -2.660309   -0.033401
      9          6           0       -1.284946    0.584723   -0.050534
     10          6           0       -2.660308    0.643942   -0.035448
     11          6           0       -3.447256   -0.512981    0.010952
     12          6           0       -2.785602   -1.738881    0.042428
     13          6           0       -1.404051   -1.834351    0.028317
     14          1           0        1.164968    0.324367   -0.073877
     15          1           0        3.181034   -0.334958    0.013398
     16          1           0        3.788908   -3.112267   -0.660315
     17          1           0        3.949262   -2.804466    1.060619
     18          1           0        5.445369   -0.834954    0.543964
     19          1           0        5.318873   -1.202938   -1.156612
     20          1           0        6.488552   -3.101440    0.967196
     21          1           0        7.429568   -2.186274   -0.212436
     22          1           0        6.354397   -3.479479   -0.750597
     23          1           0       -0.691307    1.492769   -0.085331
     24         17           0       -3.410068    2.224770   -0.074942
     25          6           0       -4.939375   -0.460795    0.027846
     26          1           0       -3.372786   -2.648461    0.078805
     27          1           0       -0.915489   -2.795609    0.053388
     28          9           0       -5.482841   -1.693396    0.068984
     29          9           0       -5.435303    0.199213    1.092719
     30          9           0       -5.461615    0.139157   -1.059593
     31          8           0        1.650229    1.972814   -0.110470
     32          8           0        3.789680    1.351300    0.090011
     33          6           0        2.881979    2.206447   -0.005409
     34          6           0        3.282062    3.689135    0.000493
     35          6           0        4.776472    3.933927    0.155374
     36          1           0        2.715063    4.171719    0.802484
     37          1           0        2.903874    4.125395   -0.929426
     38          1           0        5.143498    3.505639    1.089664
     39          1           0        5.008445    5.003437    0.148871
     40          1           0        5.332113    3.453046   -0.651303
 ---------------------------------------------------------------------
 Rotational constants (GHZ):      0.3591922      0.0983205      0.0784724
 Standard basis: 6-311+G(d) (5D, 7F)
 There are   588 symmetry adapted cartesian basis functions of A   symmetry.
 There are   565 symmetry adapted basis functions of A   symmetry.
   565 basis functions,   930 primitive gaussians,   588 cartesian basis functions
    92 alpha electrons       92 beta electrons
       nuclear repulsion energy      2095.3313419432 Hartrees.
 NAtoms=   40 NActive=   40 NUniq=   40 SFac= 1.00D+00 NAtFMM=   60 NAOKFM=F Big=F
 Integral buffers will be    131072 words long.
 Raffenetti 2 integral format.
 Two-electron integral symmetry is turned on.
 Nuclear repulsion after empirical dispersion term =     2095.3289482695 Hartrees.
 One-electron integrals computed using PRISM.
 NBasis=   565 RedAO= T EigKep=  1.07D-06  NBF=   565
 NBsUse=   563 1.00D-06 EigRej=  5.59D-07 NBFU=   563
 ExpMin= 4.38D-02 ExpMax= 1.06D+05 ExpMxC= 3.62D+03 IAcc=3 IRadAn=         5 AccDes= 0.00D+00
 Harris functional with IExCor= 1009 and IRadAn=       5 diagonalized for initial guess.
 HarFok:  IExCor= 1009 AccDes= 0.00D+00 IRadAn=         5 IDoV= 1 UseB2=F ITyADJ=14
 ICtDFT=  3500011 ScaDFX=  1.000000  1.000000  1.000000  1.000000
 FoFCou: FMM=F IPFlag=           0 FMFlag=      100000 FMFlg1=           0
         NFxFlg=           0 DoJE=T BraDBF=F KetDBF=T FulRan=T
         wScrn=  0.000000 ICntrl=     500 IOpCl=  0 I1Cent=   200000004 NGrid=           0
         NMat0=    1 NMatS0=      1 NMatT0=    0 NMatD0=    1 NMtDS0=    0 NMtDT0=    0
 Petite list used in FoFCou.
 Requested convergence on RMS density matrix=1.00D-08 within 128 cycles.
 Requested convergence on MAX density matrix=1.00D-06.
 Requested convergence on             energy=1.00D-06.
 No special actions if energy rises.
 EnCoef did     2 forward-backward iterations
 SCF Done:  E(RM062X) =  -1638.67680715     A.U. after   17 cycles
            NFock= 17  Conv=0.19D-08     -V/T= 2.0029

 **********************************************************************

            Population analysis using the SCF density.

 **********************************************************************

 Orbital symmetries:
       Occupied  (A) (A) (A) (A) (A) (A) (A) (A) (A) (A) (A) (A)
                 (A) (A) (A) (A) (A) (A) (A) (A) (A) (A) (A) (A)
                 (A) (A) (A) (A) (A) (A) (A) (A) (A) (A) (A) (A)
                 (A) (A) (A) (A) (A) (A) (A) (A) (A) (A) (A) (A)
                 (A) (A) (A) (A) (A) (A) (A) (A) (A) (A) (A) (A)
                 (A) (A) (A) (A) (A) (A) (A) (A) (A) (A) (A) (A)
                 (A) (A) (A) (A) (A) (A) (A) (A) (A) (A) (A) (A)
                 (A) (A) (A) (A) (A) (A) (A) (A)
       Virtual   (A) (A) (A) (A) (A) (A) (A) (A) (A) (A) (A) (A)
                 (A) (A) (A) (A) (A) (A) (A) (A) (A) (A) (A) (A)
                 (A) (A) (A) (A) (A) (A) (A) (A) (A) (A) (A) (A)
                 (A) (A) (A) (A) (A) (A) (A) (A) (A) (A) (A) (A)
                 (A) (A) (A) (A) (A) (A) (A) (A) (A) (A) (A) (A)
                 (A) (A) (A) (A) (A) (A) (A) (A) (A) (A) (A) (A)
                 (A) (A) (A) (A) (A) (A) (A) (A) (A) (A) (A) (A)
                 (A) (A) (A) (A) (A) (A) (A) (A) (A) (A) (A) (A)
                 (A) (A) (A) (A) (A) (A) (A) (A) (A) (A) (A) (A)
                 (A) (A) (A) (A) (A) (A) (A) (A) (A) (A) (A) (A)
                 (A) (A) (A) (A) (A) (A) (A) (A) (A) (A) (A) (A)
                 (A) (A) (A) (A) (A) (A) (A) (A) (A) (A) (A) (A)
                 (A) (A) (A) (A) (A) (A) (A) (A) (A) (A) (A) (A)
                 (A) (A) (A) (A) (A) (A) (A) (A) (A) (A) (A) (A)
                 (A) (A) (A) (A) (A) (A) (A) (A) (A) (A) (A) (A)
                 (A) (A) (A) (A) (A) (A) (A) (A) (A) (A) (A) (A)
                 (A) (A) (A) (A) (A) (A) (A) (A) (A) (A) (A) (A)
                 (A) (A) (A) (A) (A) (A) (A) (A) (A) (A) (A) (A)
                 (A) (A) (A) (A) (A) (A) (A) (A) (A) (A) (A) (A)
                 (A) (A) (A) (A) (A) (A) (A) (A) (A) (A) (A) (A)
                 (A) (A) (A) (A) (A) (A) (A) (A) (A) (A) (A) (A)
                 (A) (A) (A) (A) (A) (A) (A) (A) (A) (A) (A) (A)
                 (A) (A) (A) (A) (A) (A) (A) (A) (A) (A) (A) (A)
                 (A) (A) (A) (A) (A) (A) (A) (A) (A) (A) (A) (A)
                 (A) (A) (A) (A) (A) (A) (A) (A) (A) (A) (A) (A)
                 (A) (A) (A) (A) (A) (A) (A) (A) (A) (A) (A) (A)
                 (A) (A) (A) (A) (A) (A) (A) (A) (A) (A) (A) (A)
                 (A) (A) (A) (A) (A) (A) (A) (A) (A) (A) (A) (A)
                 (A) (A) (A) (A) (A) (A) (A) (A) (A) (A) (A) (A)
                 (A) (A) (A) (A) (A) (A) (A) (A) (A) (A) (A) (A)
                 (A) (A) (A) (A) (A) (A) (A) (A) (A) (A) (A) (A)
                 (A) (A) (A) (A) (A) (A) (A) (A) (A) (A) (A) (A)
                 (A) (A) (A) (A) (A) (A) (A) (A) (A) (A) (A) (A)
                 (A) (A) (A) (A) (A) (A) (A) (A) (A) (A) (A) (A)
                 (A) (A) (A) (A) (A) (A) (A) (A) (A) (A) (A) (A)
                 (A) (A) (A) (A) (A) (A) (A) (A) (A) (A) (A) (A)
                 (A) (A) (A) (A) (A) (A) (A) (A) (A) (A) (A) (A)
                 (A) (A) (A) (A) (A) (A) (A) (A) (A) (A) (A) (A)
                 (A) (A) (A) (A) (A) (A) (A) (A) (A) (A) (A) (A)
                 (A) (A) (A)
 The electronic state is 1-A.
 Alpha  occ. eigenvalues -- -102.58530 -25.18929 -25.18228 -25.18224 -19.47057
 Alpha  occ. eigenvalues --  -19.44599 -19.44334 -14.65469 -14.63548 -10.71215
 Alpha  occ. eigenvalues --  -10.55404 -10.52325 -10.50798 -10.50325 -10.47382
 Alpha  occ. eigenvalues --  -10.46728 -10.46315 -10.45100 -10.44303 -10.44276
 Alpha  occ. eigenvalues --  -10.43669 -10.41794 -10.41745  -9.72820  -7.45331
 Alpha  occ. eigenvalues --   -7.44662  -7.44647  -1.37771  -1.28483  -1.27987
 Alpha  occ. eigenvalues --   -1.05895  -1.03662  -0.94562  -0.93806  -0.91514
 Alpha  occ. eigenvalues --   -0.90064  -0.84342  -0.79450  -0.77821  -0.75097
 Alpha  occ. eigenvalues --   -0.74426  -0.71214  -0.68043  -0.63109  -0.62406
 Alpha  occ. eigenvalues --   -0.61441  -0.60092  -0.59523  -0.58601  -0.56904
 Alpha  occ. eigenvalues --   -0.54601  -0.51730  -0.50193  -0.48540  -0.48274
 Alpha  occ. eigenvalues --   -0.46536  -0.45451  -0.44849  -0.44425  -0.44125
 Alpha  occ. eigenvalues --   -0.43795  -0.42704  -0.42165  -0.41723  -0.41342
 Alpha  occ. eigenvalues --   -0.41140  -0.40538  -0.40251  -0.39267  -0.38250
 Alpha  occ. eigenvalues --   -0.37962  -0.36931  -0.35993  -0.35168  -0.34435
 Alpha  occ. eigenvalues --   -0.33916  -0.33036  -0.32442  -0.31759  -0.31096
 Alpha  occ. eigenvalues --   -0.30654  -0.29973  -0.28924  -0.28815  -0.27404
 Alpha  occ. eigenvalues --   -0.23297  -0.21226  -0.20572  -0.20098  -0.19586
 Alpha  occ. eigenvalues --   -0.19387  -0.16376
 Alpha virt. eigenvalues --    0.09246   0.10012   0.10139   0.10358   0.10640
 Alpha virt. eigenvalues --    0.10917   0.11608   0.11904   0.12111   0.12634
 Alpha virt. eigenvalues --    0.13169   0.13500   0.13790   0.14297   0.14608
 Alpha virt. eigenvalues --    0.14987   0.15160   0.15575   0.16139   0.16453
 Alpha virt. eigenvalues --    0.16625   0.16948   0.17701   0.17947   0.18188
 Alpha virt. eigenvalues --    0.18470   0.18825   0.19068   0.20000   0.20279
 Alpha virt. eigenvalues --    0.20861   0.20888   0.21147   0.21404   0.21795
 Alpha virt. eigenvalues --    0.22249   0.22520   0.23047   0.23361   0.24235
 Alpha virt. eigenvalues --    0.24484   0.25244   0.25280   0.25955   0.26420
 Alpha virt. eigenvalues --    0.26483   0.27105   0.28108   0.28173   0.28527
 Alpha virt. eigenvalues --    0.28957   0.29286   0.29614   0.29835   0.30273
 Alpha virt. eigenvalues --    0.30398   0.30628   0.30893   0.31064   0.31142
 Alpha virt. eigenvalues --    0.31930   0.32300   0.32881   0.33306   0.33411
 Alpha virt. eigenvalues --    0.33913   0.34178   0.34296   0.34715   0.35055
 Alpha virt. eigenvalues --    0.35203   0.35415   0.35557   0.36221   0.36425
 Alpha virt. eigenvalues --    0.36655   0.37169   0.37381   0.37613   0.38103
 Alpha virt. eigenvalues --    0.38227   0.38351   0.38857   0.39218   0.39501
 Alpha virt. eigenvalues --    0.39752   0.39840   0.39972   0.40828   0.41100
 Alpha virt. eigenvalues --    0.41665   0.42549   0.42915   0.43024   0.43162
 Alpha virt. eigenvalues --    0.43455   0.43508   0.43978   0.44335   0.44962
 Alpha virt. eigenvalues --    0.45722   0.45909   0.46016   0.46450   0.46733
 Alpha virt. eigenvalues --    0.47112   0.47448   0.48563   0.49072   0.49276
 Alpha virt. eigenvalues --    0.49688   0.49879   0.50382   0.51060   0.52238
 Alpha virt. eigenvalues --    0.52459   0.52708   0.52788   0.53866   0.54108
 Alpha virt. eigenvalues --    0.54422   0.54551   0.55884   0.56783   0.56877
 Alpha virt. eigenvalues --    0.57723   0.58900   0.59636   0.59897   0.61072
 Alpha virt. eigenvalues --    0.61816   0.62005   0.62513   0.63589   0.63982
 Alpha virt. eigenvalues --    0.64002   0.65161   0.65579   0.66684   0.66862
 Alpha virt. eigenvalues --    0.67165   0.67992   0.68526   0.69022   0.70231
 Alpha virt. eigenvalues --    0.70287   0.70482   0.72259   0.72560   0.72940
 Alpha virt. eigenvalues --    0.73418   0.75536   0.75747   0.75926   0.76702
 Alpha virt. eigenvalues --    0.77095   0.77487   0.78248   0.78895   0.79259
 Alpha virt. eigenvalues --    0.79651   0.80780   0.81108   0.81217   0.81491
 Alpha virt. eigenvalues --    0.82417   0.83239   0.83679   0.83768   0.84259
 Alpha virt. eigenvalues --    0.84516   0.85743   0.86702   0.87028   0.87351
 Alpha virt. eigenvalues --    0.87603   0.88343   0.88646   0.89338   0.89554
 Alpha virt. eigenvalues --    0.90531   0.90704   0.91698   0.92432   0.93799
 Alpha virt. eigenvalues --    0.94494   0.95631   0.98548   0.99290   1.00277
 Alpha virt. eigenvalues --    1.02348   1.02858   1.03739   1.04212   1.05223
 Alpha virt. eigenvalues --    1.06247   1.06440   1.06519   1.07698   1.08062
 Alpha virt. eigenvalues --    1.09515   1.10396   1.11219   1.11673   1.13260
 Alpha virt. eigenvalues --    1.13626   1.15495   1.15700   1.16828   1.17177
 Alpha virt. eigenvalues --    1.18404   1.20315   1.20786   1.20855   1.23399
 Alpha virt. eigenvalues --    1.24965   1.25643   1.26219   1.27966   1.28673
 Alpha virt. eigenvalues --    1.29564   1.30275   1.32162   1.33249   1.34394
 Alpha virt. eigenvalues --    1.34535   1.35553   1.37665   1.37999   1.39260
 Alpha virt. eigenvalues --    1.40165   1.41325   1.42388   1.43308   1.44122
 Alpha virt. eigenvalues --    1.45451   1.46409   1.48361   1.49142   1.50798
 Alpha virt. eigenvalues --    1.51924   1.53420   1.54278   1.56143   1.56277
 Alpha virt. eigenvalues --    1.56759   1.57093   1.58366   1.59133   1.59336
 Alpha virt. eigenvalues --    1.60823   1.62579   1.62797   1.63657   1.63831
 Alpha virt. eigenvalues --    1.64932   1.65855   1.67063   1.67558   1.68912
 Alpha virt. eigenvalues --    1.69800   1.70272   1.71264   1.71642   1.72914
 Alpha virt. eigenvalues --    1.73493   1.73637   1.74539   1.75189   1.76861
 Alpha virt. eigenvalues --    1.79252   1.79604   1.82116   1.83292   1.85224
 Alpha virt. eigenvalues --    1.86801   1.88200   1.88798   1.89114   1.90968
 Alpha virt. eigenvalues --    1.91551   1.92073   1.92591   1.93218   1.94600
 Alpha virt. eigenvalues --    1.95109   1.95505   1.97026   1.98645   1.99910
 Alpha virt. eigenvalues --    2.01137   2.02466   2.03808   2.05207   2.05519
 Alpha virt. eigenvalues --    2.08380   2.09095   2.09318   2.11635   2.13725
 Alpha virt. eigenvalues --    2.16396   2.19529   2.20246   2.20948   2.22088
 Alpha virt. eigenvalues --    2.24515   2.27267   2.27457   2.29513   2.32417
 Alpha virt. eigenvalues --    2.34972   2.36153   2.38805   2.39841   2.41429
 Alpha virt. eigenvalues --    2.43977   2.45431   2.47783   2.49735   2.51212
 Alpha virt. eigenvalues --    2.52969   2.57752   2.59191   2.59917   2.63333
 Alpha virt. eigenvalues --    2.64449   2.64713   2.64899   2.66329   2.67991
 Alpha virt. eigenvalues --    2.69837   2.70176   2.70950   2.72247   2.72451
 Alpha virt. eigenvalues --    2.73468   2.75659   2.77229   2.78686   2.80531
 Alpha virt. eigenvalues --    2.81632   2.83647   2.87779   2.92416   2.93533
 Alpha virt. eigenvalues --    2.96022   2.96169   2.98918   3.02380   3.03450
 Alpha virt. eigenvalues --    3.03837   3.06427   3.08379   3.10030   3.10663
 Alpha virt. eigenvalues --    3.10960   3.12378   3.12984   3.14756   3.15342
 Alpha virt. eigenvalues --    3.17222   3.17877   3.20646   3.22866   3.23345
 Alpha virt. eigenvalues --    3.25175   3.26717   3.28600   3.31467   3.34693
 Alpha virt. eigenvalues --    3.35885   3.36369   3.36626   3.38168   3.40170
 Alpha virt. eigenvalues --    3.43443   3.44808   3.47411   3.50542   3.51225
 Alpha virt. eigenvalues --    3.52075   3.53314   3.55012   3.55042   3.56167
 Alpha virt. eigenvalues --    3.57134   3.60070   3.62519   3.72170   3.75948
 Alpha virt. eigenvalues --    3.79620   3.83544   3.84499   3.89215   3.89763
 Alpha virt. eigenvalues --    3.90285   3.91532   3.93454   3.93889   3.96062
 Alpha virt. eigenvalues --    3.96098   3.97187   3.98001   4.01364   4.07989
 Alpha virt. eigenvalues --    4.09939   4.11357   4.12144   4.12916   4.16962
 Alpha virt. eigenvalues --    4.17935   4.18530   4.24356   4.31887   4.33046
 Alpha virt. eigenvalues --    4.35556   4.35714   4.40499   4.76393   4.81674
 Alpha virt. eigenvalues --    4.87492   4.93003   5.05681   5.07120   5.10501
 Alpha virt. eigenvalues --    5.30590   5.32567   5.33720   5.35981   5.53385
 Alpha virt. eigenvalues --    5.56183   5.58095   5.90471   6.03553   6.16516
 Alpha virt. eigenvalues --    6.53576   6.57733   6.59354   6.61981   6.64721
 Alpha virt. eigenvalues --    6.67520   6.73124   6.95518   6.99052  10.10010
 Alpha virt. eigenvalues --   23.56981  23.69737  23.73673  23.76387  23.85869
 Alpha virt. eigenvalues --   23.91569  23.92362  24.00467  24.06973  24.10588
 Alpha virt. eigenvalues --   24.11031  24.18056  24.23696  24.30410  26.05658
 Alpha virt. eigenvalues --   26.42840  26.93453  35.76969  35.86512  50.21248
 Alpha virt. eigenvalues --   50.28515  50.29579  66.98236  67.01122  67.06873
 Alpha virt. eigenvalues --  216.20986
          Condensed to atoms (all electrons):
               1          2          3          4          5          6
     1  C   26.306638   0.158450  -0.500429  -0.439086  -0.334635  -0.678680
     2  N    0.158450   8.365646   0.426137  -0.065970  -0.685321  -0.664131
     3  C   -0.500429   0.426137   9.683244   0.635426   0.141111  -1.695953
     4  O   -0.439086  -0.065970   0.635426   8.110728  -0.195124  -0.159329
     5  N   -0.334635  -0.685321   0.141111  -0.195124   8.137426   0.631747
     6  C   -0.678680  -0.664131  -1.695953  -0.159329   0.631747   9.489028
     7  C    0.004893   0.076857   0.460415   0.030103  -0.077467  -1.292326
     8  C   -0.011335  -0.024156  -0.343167  -0.001604  -0.047525   0.541883
     9  C    2.966600  -0.214152  -0.781723  -0.104096  -0.302142  -0.196272
    10  C   -5.167881  -0.046869  -1.861522  -0.018825  -0.049597  -0.124310
    11  C   -6.212538  -0.047878  -0.213094   0.026346   0.061068  -0.018434
    12  C   -6.676707   0.271921   0.388122   0.182143   0.044131   0.001432
    13  C   -0.082525  -0.102168  -0.254000   0.402562   0.117718  -0.191939
    14  H   -0.153111   0.060892  -0.045334  -0.003502   0.026251   0.036729
    15  H   -0.028485   0.028551  -0.041006  -0.008626   0.096805   0.038273
    16  H    0.011733   0.009000   0.059696   0.002314  -0.071539   0.333839
    17  H    0.012618   0.007739   0.057589  -0.003480  -0.064911   0.401605
    18  H   -0.002717  -0.001709  -0.016143  -0.000255   0.010055  -0.069766
    19  H    0.002468  -0.000142   0.017220  -0.000239   0.004298  -0.055895
    20  H    0.000066   0.000042   0.002836  -0.000005   0.000276  -0.023673
    21  H    0.000131  -0.000010   0.006331   0.000018  -0.002262   0.087903
    22  H   -0.000248  -0.000060  -0.007232  -0.000072   0.000581  -0.058189
    23  H    0.027661  -0.030289  -0.014428   0.000146   0.002669  -0.000289
    24  Cl  -0.355451  -0.019816  -0.062469  -0.000061  -0.000577  -0.002271
    25  C   -1.998555   0.031586  -0.155580   0.001268   0.009583  -0.002228
    26  H    0.031325  -0.002165   0.003678  -0.000021  -0.000013   0.000016
    27  H    0.081660  -0.032750   0.109843   0.002981   0.009011   0.014769
    28  F    0.045367  -0.000030   0.000760   0.000002   0.000009   0.000008
    29  F    0.033965  -0.000077  -0.000172  -0.000000  -0.000000  -0.000003
    30  F    0.032158  -0.000100  -0.000298  -0.000000  -0.000001  -0.000003
    31  O   -0.191468   0.037663   0.006830  -0.001037  -0.061247  -0.013620
    32  O    0.005878  -0.048923  -0.062522   0.000494   0.008109   0.073604
    33  C    0.157100   0.003385   0.030953  -0.001966   0.032987   0.011654
    34  C   -0.182842  -0.054663  -0.080910  -0.001313  -0.076303   0.100615
    35  C   -0.005444   0.002136   0.006616   0.000085   0.013818  -0.019182
    36  H    0.001493   0.000199  -0.000334  -0.000000   0.000238   0.000118
    37  H    0.001775   0.000531   0.000685   0.000001  -0.000116  -0.000685
    38  H    0.000101  -0.000007  -0.000154   0.000000   0.000186  -0.000140
    39  H    0.000154   0.000026   0.000230   0.000000  -0.000090  -0.000126
    40  H    0.000111  -0.000015  -0.000481  -0.000000   0.000139   0.000848
               7          8          9         10         11         12
     1  C    0.004893  -0.011335   2.966600  -5.167881  -6.212538  -6.676707
     2  N    0.076857  -0.024156  -0.214152  -0.046869  -0.047878   0.271921
     3  C    0.460415  -0.343167  -0.781723  -1.861522  -0.213094   0.388122
     4  O    0.030103  -0.001604  -0.104096  -0.018825   0.026346   0.182143
     5  N   -0.077467  -0.047525  -0.302142  -0.049597   0.061068   0.044131
     6  C   -1.292326   0.541883  -0.196272  -0.124310  -0.018434   0.001432
     7  C    6.840680  -0.582592   0.021765   0.002866  -0.001594  -0.006205
     8  C   -0.582592   6.601328  -0.005155  -0.000822  -0.000455  -0.000582
     9  C    0.021765  -0.005155  17.194098   8.407057 -10.327228  -5.634780
    10  C    0.002866  -0.000822   8.407057  52.267507 -24.212561 -16.227172
    11  C   -0.001594  -0.000455 -10.327228 -24.212561  49.086536   8.439790
    12  C   -0.006205  -0.000582  -5.634780 -16.227172   8.439790  27.873420
    13  C   -0.013395  -0.009082  -4.382040 -10.689029  -3.203557   1.143330
    14  H   -0.009131   0.000315   0.070543   0.057540   0.038711  -0.021889
    15  H   -0.047458   0.012224   0.029964   0.000237  -0.004842  -0.004676
    16  H    0.012137  -0.013098   0.004360   0.000489  -0.000324  -0.002945
    17  H   -0.063252  -0.026757   0.000089   0.000222   0.000049   0.000140
    18  H    0.468451  -0.055746   0.001191   0.000089  -0.000013  -0.000113
    19  H    0.428619  -0.069168  -0.000104   0.000003   0.000006   0.000027
    20  H    0.045082   0.322060   0.000008  -0.000000   0.000000   0.000001
    21  H   -0.159411   0.418148  -0.000026  -0.000001   0.000000   0.000003
    22  H    0.006091   0.403716   0.000041   0.000002  -0.000001  -0.000012
    23  H    0.000014   0.000008   0.236192  -0.049631   0.108912  -0.015838
    24  Cl  -0.000050  -0.000006   0.473509  -2.211569   0.260352   0.607355
    25  C   -0.000174  -0.000008  -1.037703   4.525731  -6.552651  -4.064222
    26  H    0.000005  -0.000000  -0.011091  -0.067285   0.045841   0.334339
    27  H   -0.000625   0.000134  -0.016818  -0.025920  -0.000975  -0.120057
    28  F   -0.000000   0.000000  -0.020576  -0.247712  -0.113771   0.188096
    29  F   -0.000000  -0.000000   0.017490  -0.202061   0.287950   0.037306
    30  F    0.000000  -0.000000   0.018662  -0.191224   0.270062   0.035470
    31  O   -0.003703  -0.000340   0.242898  -0.017388  -0.008823   0.012703
    32  O   -0.016996   0.011517  -0.000520  -0.000801  -0.000005  -0.000073
    33  C    0.004095  -0.014607  -0.144341  -0.032245   0.012301  -0.022752
    34  C   -0.050297   0.012362   0.176206   0.067638  -0.002511  -0.015906
    35  C    0.015318  -0.005310  -0.002112   0.007445   0.001000  -0.000245
    36  H   -0.000226  -0.000023  -0.000037  -0.000756  -0.000047   0.000016
    37  H    0.000608   0.000016  -0.001261  -0.001099  -0.000113   0.000034
    38  H    0.000400   0.000205  -0.000030  -0.000062  -0.000003   0.000001
    39  H   -0.000038  -0.000011  -0.000167  -0.000038  -0.000002   0.000001
    40  H   -0.000448   0.000005   0.000054  -0.000026  -0.000000  -0.000000
              13         14         15         16         17         18
     1  C   -0.082525  -0.153111  -0.028485   0.011733   0.012618  -0.002717
     2  N   -0.102168   0.060892   0.028551   0.009000   0.007739  -0.001709
     3  C   -0.254000  -0.045334  -0.041006   0.059696   0.057589  -0.016143
     4  O    0.402562  -0.003502  -0.008626   0.002314  -0.003480  -0.000255
     5  N    0.117718   0.026251   0.096805  -0.071539  -0.064911   0.010055
     6  C   -0.191939   0.036729   0.038273   0.333839   0.401605  -0.069766
     7  C   -0.013395  -0.009131  -0.047458   0.012137  -0.063252   0.468451
     8  C   -0.009082   0.000315   0.012224  -0.013098  -0.026757  -0.055746
     9  C   -4.382040   0.070543   0.029964   0.004360   0.000089   0.001191
    10  C  -10.689029   0.057540   0.000237   0.000489   0.000222   0.000089
    11  C   -3.203557   0.038711  -0.004842  -0.000324   0.000049  -0.000013
    12  C    1.143330  -0.021889  -0.004676  -0.002945   0.000140  -0.000113
    13  C   23.866159  -0.016580  -0.042181  -0.013678   0.000421  -0.001543
    14  H   -0.016580   0.317320   0.028410  -0.000099  -0.000119   0.000061
    15  H   -0.042181   0.028410   0.342101   0.001564   0.002609   0.005477
    16  H   -0.013678  -0.000099   0.001564   0.492891  -0.054573   0.005842
    17  H    0.000421  -0.000119   0.002609  -0.054573   0.486506  -0.008691
    18  H   -0.001543   0.000061   0.005477   0.005842  -0.008691   0.430490
    19  H    0.000078   0.000063   0.002295  -0.010110   0.006494  -0.035166
    20  H    0.000004   0.000001  -0.000035  -0.000853   0.003253  -0.007669
    21  H    0.000064   0.000001  -0.000076  -0.000223  -0.000101  -0.003727
    22  H   -0.000130  -0.000000   0.000022   0.003798  -0.000814   0.006600
    23  H   -0.000861   0.014045  -0.000243  -0.000000   0.000000  -0.000001
    24  Cl   0.482401   0.002042  -0.000008   0.000001   0.000001   0.000000
    25  C   -1.133519   0.001509  -0.000276  -0.000007   0.000002  -0.000000
    26  H   -0.062525  -0.000001  -0.000000  -0.000000   0.000000  -0.000000
    27  H    0.300537  -0.000440   0.000052  -0.000031  -0.000031   0.000000
    28  F    0.227337   0.000003  -0.000000  -0.000000  -0.000000   0.000000
    29  F   -0.008178  -0.000003  -0.000000   0.000000  -0.000000   0.000000
    30  F   -0.010104  -0.000003  -0.000000  -0.000000   0.000000  -0.000000
    31  O    0.009488   0.081683   0.014125  -0.000018  -0.000031  -0.000136
    32  O   -0.010221   0.009844   0.073328  -0.001097   0.000407  -0.007390
    33  C   -0.068313  -0.015798  -0.008408  -0.000912   0.000754   0.003278
    34  C   -0.069011   0.052481   0.060823  -0.000661   0.000134  -0.001506
    35  C   -0.001031  -0.003458  -0.007689   0.000121   0.000012   0.002591
    36  H    0.000161  -0.000363  -0.000111   0.000000   0.000000   0.000006
    37  H    0.000283  -0.000334  -0.000031   0.000000   0.000000   0.000002
    38  H    0.000013  -0.000015  -0.000348  -0.000000   0.000000  -0.000054
    39  H    0.000020  -0.000002   0.000063  -0.000000   0.000000  -0.000002
    40  H   -0.000005  -0.000016  -0.000385  -0.000000  -0.000000  -0.000055
              19         20         21         22         23         24
     1  C    0.002468   0.000066   0.000131  -0.000248   0.027661  -0.355451
     2  N   -0.000142   0.000042  -0.000010  -0.000060  -0.030289  -0.019816
     3  C    0.017220   0.002836   0.006331  -0.007232  -0.014428  -0.062469
     4  O   -0.000239  -0.000005   0.000018  -0.000072   0.000146  -0.000061
     5  N    0.004298   0.000276  -0.002262   0.000581   0.002669  -0.000577
     6  C   -0.055895  -0.023673   0.087903  -0.058189  -0.000289  -0.002271
     7  C    0.428619   0.045082  -0.159411   0.006091   0.000014  -0.000050
     8  C   -0.069168   0.322060   0.418148   0.403716   0.000008  -0.000006
     9  C   -0.000104   0.000008  -0.000026   0.000041   0.236192   0.473509
    10  C    0.000003  -0.000000  -0.000001   0.000002  -0.049631  -2.211569
    11  C    0.000006   0.000000   0.000000  -0.000001   0.108912   0.260352
    12  C    0.000027   0.000001   0.000003  -0.000012  -0.015838   0.607355
    13  C    0.000078   0.000004   0.000064  -0.000130  -0.000861   0.482401
    14  H    0.000063   0.000001   0.000001  -0.000000   0.014045   0.002042
    15  H    0.002295  -0.000035  -0.000076   0.000022  -0.000243  -0.000008
    16  H   -0.010110  -0.000853  -0.000223   0.003798  -0.000000   0.000001
    17  H    0.006494   0.003253  -0.000101  -0.000814   0.000000   0.000001
    18  H   -0.035166  -0.007669  -0.003727   0.006600  -0.000001   0.000000
    19  H    0.447117   0.006878  -0.004244  -0.008822  -0.000000   0.000000
    20  H    0.006878   0.473366  -0.027999  -0.040657  -0.000000  -0.000000
    21  H   -0.004244  -0.027999   0.459439  -0.027779   0.000000   0.000000
    22  H   -0.008822  -0.040657  -0.027779   0.479159  -0.000000  -0.000000
    23  H   -0.000000  -0.000000   0.000000  -0.000000   0.330413  -0.014943
    24  Cl   0.000000  -0.000000   0.000000  -0.000000  -0.014943  17.748080
    25  C    0.000000   0.000000   0.000000  -0.000000   0.024364  -0.255075
    26  H   -0.000000   0.000000  -0.000000   0.000000   0.000041  -0.000436
    27  H    0.000000  -0.000000   0.000000  -0.000000  -0.000024   0.000099
    28  F   -0.000000  -0.000000   0.000000  -0.000000   0.000025   0.013578
    29  F   -0.000000  -0.000000   0.000000  -0.000000  -0.000030  -0.017356
    30  F    0.000000   0.000000   0.000000  -0.000000  -0.000032  -0.017251
    31  O   -0.000093   0.000001   0.000001  -0.000003   0.007783  -0.000055
    32  O   -0.002446   0.000111   0.000064  -0.000136   0.001032  -0.000055
    33  C    0.001443   0.000301  -0.000171  -0.000063   0.010698  -0.003199
    34  C    0.001344   0.000006   0.000142  -0.000060  -0.003288   0.001865
    35  C    0.000380   0.000020  -0.000092   0.000034   0.000357   0.000028
    36  H    0.000001   0.000000  -0.000000   0.000000  -0.000096   0.000029
    37  H   -0.000002   0.000000  -0.000000   0.000000   0.000005   0.000000
    38  H   -0.000015  -0.000000   0.000001  -0.000000   0.000000   0.000000
    39  H    0.000000  -0.000000   0.000000  -0.000000  -0.000001   0.000000
    40  H    0.000002  -0.000000   0.000001  -0.000000  -0.000000   0.000000
              25         26         27         28         29         30
     1  C   -1.998555   0.031325   0.081660   0.045367   0.033965   0.032158
     2  N    0.031586  -0.002165  -0.032750  -0.000030  -0.000077  -0.000100
     3  C   -0.155580   0.003678   0.109843   0.000760  -0.000172  -0.000298
     4  O    0.001268  -0.000021   0.002981   0.000002  -0.000000  -0.000000
     5  N    0.009583  -0.000013   0.009011   0.000009  -0.000000  -0.000001
     6  C   -0.002228   0.000016   0.014769   0.000008  -0.000003  -0.000003
     7  C   -0.000174   0.000005  -0.000625  -0.000000  -0.000000   0.000000
     8  C   -0.000008  -0.000000   0.000134   0.000000  -0.000000  -0.000000
     9  C   -1.037703  -0.011091  -0.016818  -0.020576   0.017490   0.018662
    10  C    4.525731  -0.067285  -0.025920  -0.247712  -0.202061  -0.191224
    11  C   -6.552651   0.045841  -0.000975  -0.113771   0.287950   0.270062
    12  C   -4.064222   0.334339  -0.120057   0.188096   0.037306   0.035470
    13  C   -1.133519  -0.062525   0.300537   0.227337  -0.008178  -0.010104
    14  H    0.001509  -0.000001  -0.000440   0.000003  -0.000003  -0.000003
    15  H   -0.000276  -0.000000   0.000052  -0.000000  -0.000000  -0.000000
    16  H   -0.000007  -0.000000  -0.000031  -0.000000   0.000000  -0.000000
    17  H    0.000002   0.000000  -0.000031  -0.000000  -0.000000   0.000000
    18  H   -0.000000  -0.000000   0.000000   0.000000   0.000000  -0.000000
    19  H    0.000000  -0.000000   0.000000  -0.000000  -0.000000   0.000000
    20  H    0.000000   0.000000  -0.000000  -0.000000  -0.000000   0.000000
    21  H    0.000000  -0.000000   0.000000   0.000000   0.000000   0.000000
    22  H   -0.000000   0.000000  -0.000000  -0.000000  -0.000000  -0.000000
    23  H    0.024364   0.000041  -0.000024   0.000025  -0.000030  -0.000032
    24  Cl  -0.255075  -0.000436   0.000099   0.013578  -0.017356  -0.017251
    25  C   15.544198   0.041695   0.005489   0.046518  -0.014161  -0.003251
    26  H    0.041695   0.420916  -0.002750   0.011593   0.000163   0.000209
    27  H    0.005489  -0.002750   0.374863  -0.000003   0.000027   0.000024
    28  F    0.046518   0.011593  -0.000003   9.079351  -0.036789  -0.036396
    29  F   -0.014161   0.000163   0.000027  -0.036789   9.006141  -0.055615
    30  F   -0.003251   0.000209   0.000024  -0.036396  -0.055615   9.007177
    31  O   -0.002485  -0.000005   0.000017   0.000001  -0.000003  -0.000004
    32  O    0.000042   0.000000   0.000001   0.000000  -0.000000   0.000000
    33  C   -0.005222  -0.000007   0.000432   0.000007  -0.000012  -0.000011
    34  C    0.000150  -0.000001   0.000064  -0.000000   0.000000   0.000001
    35  C   -0.000037   0.000000  -0.000001   0.000000  -0.000000  -0.000000
    36  H    0.000003  -0.000000   0.000000   0.000000  -0.000000  -0.000000
    37  H   -0.000004  -0.000000  -0.000000  -0.000000  -0.000000  -0.000000
    38  H    0.000000  -0.000000   0.000000   0.000000   0.000000   0.000000
    39  H   -0.000000  -0.000000  -0.000000  -0.000000  -0.000000  -0.000000
    40  H    0.000000  -0.000000   0.000000   0.000000   0.000000   0.000000
              31         32         33         34         35         36
     1  C   -0.191468   0.005878   0.157100  -0.182842  -0.005444   0.001493
     2  N    0.037663  -0.048923   0.003385  -0.054663   0.002136   0.000199
     3  C    0.006830  -0.062522   0.030953  -0.080910   0.006616  -0.000334
     4  O   -0.001037   0.000494  -0.001966  -0.001313   0.000085  -0.000000
     5  N   -0.061247   0.008109   0.032987  -0.076303   0.013818   0.000238
     6  C   -0.013620   0.073604   0.011654   0.100615  -0.019182   0.000118
     7  C   -0.003703  -0.016996   0.004095  -0.050297   0.015318  -0.000226
     8  C   -0.000340   0.011517  -0.014607   0.012362  -0.005310  -0.000023
     9  C    0.242898  -0.000520  -0.144341   0.176206  -0.002112  -0.000037
    10  C   -0.017388  -0.000801  -0.032245   0.067638   0.007445  -0.000756
    11  C   -0.008823  -0.000005   0.012301  -0.002511   0.001000  -0.000047
    12  C    0.012703  -0.000073  -0.022752  -0.015906  -0.000245   0.000016
    13  C    0.009488  -0.010221  -0.068313  -0.069011  -0.001031   0.000161
    14  H    0.081683   0.009844  -0.015798   0.052481  -0.003458  -0.000363
    15  H    0.014125   0.073328  -0.008408   0.060823  -0.007689  -0.000111
    16  H   -0.000018  -0.001097  -0.000912  -0.000661   0.000121   0.000000
    17  H   -0.000031   0.000407   0.000754   0.000134   0.000012   0.000000
    18  H   -0.000136  -0.007390   0.003278  -0.001506   0.002591   0.000006
    19  H   -0.000093  -0.002446   0.001443   0.001344   0.000380   0.000001
    20  H    0.000001   0.000111   0.000301   0.000006   0.000020   0.000000
    21  H    0.000001   0.000064  -0.000171   0.000142  -0.000092  -0.000000
    22  H   -0.000003  -0.000136  -0.000063  -0.000060   0.000034   0.000000
    23  H    0.007783   0.001032   0.010698  -0.003288   0.000357  -0.000096
    24  Cl  -0.000055  -0.000055  -0.003199   0.001865   0.000028   0.000029
    25  C   -0.002485   0.000042  -0.005222   0.000150  -0.000037   0.000003
    26  H   -0.000005   0.000000  -0.000007  -0.000001   0.000000  -0.000000
    27  H    0.000017   0.000001   0.000432   0.000064  -0.000001   0.000000
    28  F    0.000001   0.000000   0.000007  -0.000000   0.000000   0.000000
    29  F   -0.000003  -0.000000  -0.000012   0.000000  -0.000000  -0.000000
    30  F   -0.000004   0.000000  -0.000011   0.000001  -0.000000  -0.000000
    31  O    8.434561  -0.138489   0.294679  -0.235735   0.020214  -0.005577
    32  O   -0.138489   8.317756   0.361279  -0.148674   0.007573   0.001486
    33  C    0.294679   0.361279   6.630479  -1.693249   0.405147  -0.023890
    34  C   -0.235735  -0.148674  -1.693249   8.341956  -0.631275   0.404537
    35  C    0.020214   0.007573   0.405147  -0.631275   6.114749  -0.042594
    36  H   -0.005577   0.001486  -0.023890   0.404537  -0.042594   0.460282
    37  H   -0.006719   0.001718  -0.008923   0.397030  -0.047418  -0.034665
    38  H    0.000031  -0.008652  -0.008590  -0.024404   0.390393  -0.007341
    39  H   -0.000720   0.004406   0.068635  -0.130979   0.404923  -0.003151
    40  H   -0.000194  -0.008969  -0.010229  -0.023719   0.391358   0.005980
              37         38         39         40
     1  C    0.001775   0.000101   0.000154   0.000111
     2  N    0.000531  -0.000007   0.000026  -0.000015
     3  C    0.000685  -0.000154   0.000230  -0.000481
     4  O    0.000001   0.000000   0.000000  -0.000000
     5  N   -0.000116   0.000186  -0.000090   0.000139
     6  C   -0.000685  -0.000140  -0.000126   0.000848
     7  C    0.000608   0.000400  -0.000038  -0.000448
     8  C    0.000016   0.000205  -0.000011   0.000005
     9  C   -0.001261  -0.000030  -0.000167   0.000054
    10  C   -0.001099  -0.000062  -0.000038  -0.000026
    11  C   -0.000113  -0.000003  -0.000002  -0.000000
    12  C    0.000034   0.000001   0.000001  -0.000000
    13  C    0.000283   0.000013   0.000020  -0.000005
    14  H   -0.000334  -0.000015  -0.000002  -0.000016
    15  H   -0.000031  -0.000348   0.000063  -0.000385
    16  H    0.000000  -0.000000  -0.000000  -0.000000
    17  H    0.000000   0.000000   0.000000  -0.000000
    18  H    0.000002  -0.000054  -0.000002  -0.000055
    19  H   -0.000002  -0.000015   0.000000   0.000002
    20  H    0.000000  -0.000000  -0.000000  -0.000000
    21  H   -0.000000   0.000001   0.000000   0.000001
    22  H    0.000000  -0.000000  -0.000000  -0.000000
    23  H    0.000005   0.000000  -0.000001  -0.000000
    24  Cl   0.000000   0.000000   0.000000   0.000000
    25  C   -0.000004   0.000000  -0.000000   0.000000
    26  H   -0.000000  -0.000000  -0.000000  -0.000000
    27  H   -0.000000   0.000000  -0.000000   0.000000
    28  F   -0.000000   0.000000  -0.000000   0.000000
    29  F   -0.000000   0.000000  -0.000000   0.000000
    30  F   -0.000000   0.000000  -0.000000   0.000000
    31  O   -0.006719   0.000031  -0.000720  -0.000194
    32  O    0.001718  -0.008652   0.004406  -0.008969
    33  C   -0.008923  -0.008590   0.068635  -0.010229
    34  C    0.397030  -0.024404  -0.130979  -0.023719
    35  C   -0.047418   0.390393   0.404923   0.391358
    36  H   -0.034665  -0.007341  -0.003151   0.005980
    37  H    0.457073   0.005935  -0.003064  -0.007145
    38  H    0.005935   0.461693  -0.033605  -0.031848
    39  H   -0.003064  -0.033605   0.496768  -0.033755
    40  H   -0.007145  -0.031848  -0.033755   0.461299
 Mulliken charges:
               1
     1  C   -0.860208
     2  N   -0.439358
     3  C    0.099230
     4  O   -0.390002
     5  N   -0.379345
     6  C   -0.496626
     7  C   -0.093014
     8  C   -1.112372
     9  C   -0.678353
    10  C    2.109579
    11  C   -1.717504
    12  C   -0.745605
    13  C   -0.184960
    14  H    0.471756
    15  H    0.457964
    16  H    0.232381
    17  H    0.242115
    18  H    0.278271
    19  H    0.267712
    20  H    0.246576
    21  H    0.253874
    22  H    0.244238
    23  H    0.365629
    24  Cl   0.371304
    25  C    0.993020
    26  H    0.256480
    27  H    0.300420
    28  F   -0.157378
    29  F   -0.048582
    30  F   -0.049469
    31  O   -0.474788
    32  O   -0.422681
    33  C    0.033297
    34  C   -0.190050
    35  C   -1.018429
    36  H    0.244664
    37  H    0.245883
    38  H    0.256309
    39  H    0.230526
    40  H    0.257495
 Sum of Mulliken charges =  -1.00000
 Mulliken charges with hydrogens summed into heavy atoms:
               1
     1  C   -0.860208
     2  N    0.032398
     3  C    0.099230
     4  O   -0.390002
     5  N    0.078619
     6  C   -0.022131
     7  C    0.452969
     8  C   -0.367684
     9  C   -0.312724
    10  C    2.109579
    11  C   -1.717504
    12  C   -0.489125
    13  C    0.115460
    24  Cl   0.371304
    25  C    0.993020
    28  F   -0.157378
    29  F   -0.048582
    30  F   -0.049469
    31  O   -0.474788
    32  O   -0.422681
    33  C    0.033297
    34  C    0.300497
    35  C   -0.274098
 Electronic spatial extent (au):  <R**2>=          12708.9673
 Charge=             -1.0000 electrons
 Dipole moment (field-independent basis, Debye):
    X=             -1.2636    Y=             -1.0769    Z=             -0.0164  Tot=              1.6603
[...]
 0000402,-0.00001347,-0.00001058,0.00001450,0.00004394,-0.00000358,-0.0
 0002549,0.00001248,0.00000051,0.00000721,-0.00000558,-0.00000469,0.000
 00580,-0.00001259,0.00000515,-0.00000119,-0.00001023,-0.00000851,-0.00
 000128,-0.00003667,-0.00002672,-0.00003918,0.00002366,0.00002916,0.000
 00455,-0.00004123,-0.00000680,-0.00001782,0.00000115,-0.00000036,-0.00
 000150,-0.00001191,0.00000834,-0.00000304,0.00000444,0.00000307,0.0000
 0272,0.00001820,0.00000752,0.00001514,0.00001154,0.00000450,-0.0000001
 0,0.00201562,0.00019819,0.00389375,-0.00192108,-0.00592282,0.00421471,
 -0.02168780,-0.00425852,-0.02896159,-0.03724909,-0.05896834,-0.0474860
 0,0.01328297,0.00376404,0.01544657,0.03845409,0.06454989,-0.00022824,0
 .00008562,-0.00000554,0.00019426,-0.00011101,0.00001539,-0.00021577,0.
 00010368,-0.00001060,0.00004260,-0.00009704,0.00000876,0.00008306,-0.0
 0017026,0.00004376,0.00001829,0.00000440,-0.00001184,-0.00000144,0.000
 01444,-0.00000704,0.00000711,-0.00000777,0.00000228,0.00008975,0.00002
 058,0.00000429,-0.00010301,-0.00004826,0.00000122,0.00006867,0.0000004
 0,0.00000269,-0.00004558,0.00000751,0.00000045,0.00005409,-0.00004735,
 0.00000287,-0.00000923,0.00016072,-0.00002352,0.00002096,0.00020119,-0
 .00005285,-0.00000351,-0.00000771,-0.00000368,-0.00000114,-0.00000634,
 0.00000856,0.00001032,0.00000215,-0.00001642,0.00000821,0.00000752,0.0
 0001496,-0.00000442,-0.00000322,0.00000649,0.00000017,0.00000285,-0.00
 000104,-0.00000548,-0.00000561,-0.00000394,-0.00003413,-0.00004073,-0.
 00001991,0.00005158,0.00004837,-0.00000018,-0.00006607,-0.00001948,-0.
 00001012,0.00000245,0.00000057,-0.00000063,-0.00001009,0.00000776,-0.0
 0000168,0.00000834,0.00000797,0.00000141,0.00002620,0.00001199,0.00001
 544,0.00002213,0.00000959,-0.00000735,0.00164427,-0.00085411,0.0007901
 8,0.00079209,-0.00010280,-0.00056298,0.00011493,0.00304109,0.00110658,
 -0.12537898,-0.04464834,-0.18791961,0.00376315,0.00163015,0.00399344,0
 .13709429,0.04749212,0.20261959,0.00005189,-0.00000712,0.00000486,0.00
 005641,0.00011297,0.00002143,-0.00022974,0.00001703,0.00001567,0.00006
 083,-0.00002181,-0.00000889,0.00006534,-0.00022974,-0.00000794,0.00000
 089,-0.00000676,-0.00000315,-0.00000018,0.00001979,0.00004496,0.000002
 19,-0.00000715,-0.00001256,-0.00002355,-0.00001454,0.00000471,0.000041
 10,0.00001607,-0.00000513,-0.00001792,0.00000607,0.00000063,0.00000591
 ,0.00000405,0.00000385,-0.00001167,0.00000014,-0.00000949,-0.00003908,
 -0.00023063,-0.00005400,-0.00001588,0.00030391,-0.00002661,-0.00000128
 ,-0.00001110,-0.00000103,-0.00000016,0.00000237,-0.00000120,0.00000797
 ,0.00000872,-0.00001948,-0.00000207,0.00000240,-0.00000238,0.00000061,
 0.00000383,-0.00000067,0.00000432,0.00000181,0.00000606,-0.00000528,-0
 .00000954,-0.00000307,0.00003170,0.00000305,-0.00000765,-0.00001523,-0
 .00001664,0.00000219,0.00002132,0.00000244,0.00000639,-0.00000167,0.00
 000022,0.00000133,-0.00000160,0.00000089,0.00000268,-0.00000405,0.0000
 0144,-0.00000136,-0.00000883,-0.00000315,-0.00000647,-0.00000576,-0.00
 000149,-0.00000011,0.00021591,0.00180929,-0.00113702,-0.00012909,-0.00
 251614,-0.00136095,-0.00561939,-0.00197843,0.00699996,-0.10234413,-0.0
 2426037,0.10759990,-0.01300869,-0.00580754,0.02414810,0.01023620,0.005
 32316,-0.01854686,0.11322190,-0.00017450,0.00008646,-0.00000891,0.0002
 1367,0.00004267,0.00006829,-0.00041439,0.00017101,0.00001921,0.0000891
 1,-0.00018392,-0.00001027,0.00012734,-0.00057320,0.00007423,0.00010730
 ,0.00001825,-0.00000744,-0.00001958,0.00001528,0.00001218,0.00001127,-
 0.00001325,-0.00000433,0.00006618,0.00000768,-0.00002104,-0.00004231,-
 0.00002253,-0.00000009,0.00004681,-0.00000530,0.00000077,-0.00003435,0
 .00000655,-0.00000157,0.00003880,-0.00004809,0.00000012,-0.00004006,0.
 00004232,-0.00014467,0.00001432,0.00087201,-0.00019481,-0.00002198,-0.
 00002228,-0.00000534,-0.00001447,-0.00001118,0.00001280,0.00003618,0.0
 0000089,-0.00003152,0.00001436,0.00001288,0.00001827,-0.00000499,-0.00
 000510,0.00000495,-0.00001235,0.00000521,-0.00000159,-0.00001041,-0.00
 000891,-0.00000168,-0.00003313,-0.00000543,0.00003076,0.00002018,0.000
 02234,-0.00000590,-0.00004616,0.00000389,0.00001605,0.00000087,-0.0000
 0063,0.00000160,-0.00001007,0.00000738,0.00000202,0.00000634,-0.000002
 42,-0.00000242,0.00001324,0.00000250,0.00000073,0.00001920,0.00000359,
 -0.00001530,0.00121834,-0.00002420,-0.00430392,-0.00256419,-0.00569564
 ,-0.00384710,-0.01481234,-0.00380173,0.03324102,-0.02423676,-0.0571836
 7,0.05139573,0.00952918,0.00341634,-0.01802930,0.00412717,0.00117405,-
 0.00738648,0.02486517,0.06258480,0.00020893,-0.00008094,-0.00000281,-0
 .00019535,0.00009215,0.00000877,0.00025274,-0.00011014,-0.00000897,-0.
 00005199,0.00010444,0.00000024,-0.00008823,0.00022337,0.00002139,-0.00
 002138,-0.00000311,0.00000306,0.00000031,-0.00001922,-0.00001745,-0.00
 000670,0.00000800,0.00000365,-0.00008246,-0.00001591,0.00001720,0.0000
 9078,0.00003982,-0.00000453,-0.00006267,0.00000057,0.00000309,0.000041
 71,-0.00000776,0.00000068,-0.00004891,0.00004629,0.00000107,0.00001493
 ,-0.00011811,0.00000225,-0.00002623,-0.00027431,-0.00003813,0.00000548
 ,0.00001361,0.00000437,-0.00000018,0.00000200,-0.00000458,-0.00001557,
 -0.00000084,0.00002014,-0.00000298,-0.00000584,-0.00000819,0.00000227,
 0.00000017,-0.00000380,-0.00000015,-0.00000391,-0.00000183,0.00000732,
 0.00000990,0.00000484,0.00002743,0.00003014,-0.00003151,-0.00004639,-0
 .00004207,0.00000720,0.00006399,0.00001326,-0.00002143,-0.00000199,-0.
 00000044,-0.00000134,0.00000997,-0.00000777,-0.00000262,-0.00000839,-0
 .00000525,0.00000360,-0.00001954,-0.00000763,-0.00000167,-0.00002708,-
 0.00000922,0.00002043,-0.00148807,0.00054359,0.00144836,-0.00080328,0.
 00079412,-0.00012755,0.00164338,-0.00246215,-0.00094871,0.10624721,0.0
 4809584,-0.24202043,-0.00008707,-0.00029283,-0.00028143,0.01119033,0.0
 0585823,-0.02202806,-0.11720251,-0.05113318,0.26169273,0.00002283,0.00
 000044,0.00000878,0.00000146,0.00008675,-0.00002470,-0.00003808,-0.000
 02694,0.00001566,0.00001205,0.00003237,-0.00001031,0.00000319,0.000014
 52,-0.00003086,0.00000772,-0.00000089,0.00002088,-0.00000894,-0.000010
 15,-0.00002492,-0.00000135,-0.00000217,0.00000645,-0.00001070,-0.00001
 478,-0.00001401,0.00000898,-0.00000838,-0.00000046,-0.00000951,0.00001
 163,-0.00000066,-0.00000131,0.00000516,0.00000058,-0.00000328,0.000006
 26,-0.00000400,-0.00000675,-0.00013430,0.00002589,-0.00000722,-0.00002
 635,0.00002986,-0.00000298,0.00000534,-0.00000253,0.00000316,0.0000066
 7,-0.00000449,0.00001164,-0.00000830,0.00002240,0.00000117,-0.00000017
 ,-0.00000574,0.00000220,0.00000186,-0.00000298,-0.00000726,-0.00000164
 ,-0.00000390,0.00000148,0.00000615,0.00000212,0.00001215,-0.00001861,0
 .00001917,-0.00000106,0.00000361,-0.00000297,0.00002868,-0.00001690,0.
 00001773,-0.00000024,0.00000173,0.00000117,0.00000004,0.00000090,0.000
 00269,-0.00000655,0.00001141,-0.00000340,-0.00001255,0.00000107,-0.000
 01190,-0.00000613,0.00000444,-0.00000352,0.00046312,0.00033123,-0.0003
 9344,0.00117484,0.00016954,-0.00066095,-0.00107491,-0.00155293,0.00039
 771,-0.01400240,-0.00539035,0.02616053,-0.10255958,-0.02538652,0.10678
 889,0.00063771,-0.00098750,-0.00034617,-0.00428353,0.00375140,-0.00020
 864,0.11348780,0.00014524,-0.00005683,-0.00000004,-0.00014250,0.000061
 97,0.00000547,0.00019844,-0.00013025,0.00000950,-0.00003660,0.00011340
 ,-0.00000603,-0.00005593,0.00022173,0.00000991,-0.00002255,-0.00000422
 ,0.00001114,-0.00000574,-0.00004433,-0.00004915,-0.00001362,0.00001912
 ,0.00001385,-0.00005736,-0.00001617,0.00000970,0.00005278,0.00001106,-
 0.00000352,-0.00004616,0.00001264,-0.00000037,0.00002704,-0.00000204,0
 .00000109,-0.00003196,0.00003707,-0.00000433,0.00001895,-0.00011235,-0
 .00000644,-0.00003954,-0.00030442,-0.00001691,0.00000178,0.00001897,0.
 00000523,0.00000056,0.00000152,-0.00000911,-0.00002995,-0.00001014,0.0
 0003081,-0.00000348,-0.00000223,-0.00000222,0.00000199,0.00000172,-0.0
 0000653,0.00000437,-0.00000747,0.00000020,0.00001436,0.00001234,0.0000
 0528,0.00002085,-0.00000370,-0.00000634,-0.00002275,-0.00001817,0.0000
 0135,0.00006854,-0.00001588,0.00000190,-0.00000089,0.00000151,-0.00000
 019,0.00000717,-0.00000473,-0.00000065,-0.00001210,0.00001122,-0.00000
 079,-0.00002395,-0.00000104,-0.00001127,-0.00002327,0.00000040,0.00001
 030,-0.00080750,0.00018561,0.00030326,-0.00090375,-0.00026352,0.000649
 22,0.00169694,0.00057071,-0.00119477,0.00831463,0.00380674,-0.01738055
 ,-0.02638519,-0.05842285,0.04972860,-0.00079162,0.00074566,0.00038093,
 0.00337225,-0.00203610,-0.00040167,0.02519731,0.06042766,0.00003912,-0
 .00002713,-0.00000396,-0.00010971,-0.00008560,0.00002287,0.00019555,-0
 .00002659,-0.00001231,-0.00005544,0.00000874,0.00000710,-0.00008577,0.
 00007328,0.00002310,0.00006241,0.00001257,0.00001136,-0.00001871,-0.00
 003772,-0.00007336,-0.00000390,0.00000820,0.00001992,-0.00001334,0.000
 00592,0.00000719,0.00001087,0.00001358,-0.00000179,-0.00001222,-0.0000
 0805,0.00000269,0.00001494,-0.00000505,0.00000128,-0.00000973,0.000012
 84,0.00000124,0.00002208,0.00011628,-0.00002512,0.00000010,-0.00005587
 ,-0.00003190,-0.00001187,0.00001325,-0.00000026,-0.00000935,-0.0000063
 4,0.00000377,0.00000670,-0.00002596,0.00003198,0.00000724,0.00000110,0
 .00000521,-0.00000126,-0.00000711,-0.00000054,-0.00001723,-0.00000361,
 -0.00001224,0.00000738,0.00001764,0.00000712,-0.00000342,0.00000905,-0
 .00000778,-0.00000978,-0.00001220,0.00000184,0.00000078,0.00001595,-0.
 00001195,0.00000015,-0.00000096,-0.00000083,0.00000477,-0.00000324,-0.
 00000171,0.00000179,-0.00000988,0.00000227,0.00000073,-0.00000363,0.00
 000310,-0.00000323,-0.00000479,0.00000621,-0.00075075,-0.00058718,0.00
 002530,-0.00194125,0.00029507,0.00092903,0.00242085,0.00170158,-0.0002
 4720,0.00066249,-0.00052708,-0.00140970,0.10718606,0.04746754,-0.25227
 004,0.00035109,-0.00039804,0.00070874,0.00018808,-0.00012072,0.0016202
 4,-0.11783301,-0.05363321,0.27095066,0.00009400,-0.00000167,-0.0000003
 2,0.00008597,0.00033922,-0.00002680,-0.00026676,0.00002055,0.00000606,
 0.00007831,0.00002842,-0.00000433,0.00008429,-0.00007855,0.00000671,-0
 .00005760,-0.00001587,-0.00000538,0.00001646,0.00002883,0.00001118,0.0
 0001042,-0.00001124,-0.00000229,-0.00003995,-0.00003442,0.00000162,0.0
 0004523,0.00001355,-0.00000193,-0.00002341,0.00001148,0.00000019,0.000
 00446,0.00000701,-0.00000081,-0.00002037,0.00001229,-0.00000052,-0.000
 07818,-0.00049236,0.00003392,-0.00000815,0.00006626,0.00000359,0.00000
 935,-0.00000573,-0.00000201,0.00001225,0.00000037,0.00000196,-0.000002
 37,0.00001506,-0.00002781,-0.00000205,0.00001233,0.00001635,-0.0000033
 7,-0.00000176,0.00000571,0.00001164,0.00000399,0.00000113,-0.00000668,
 -0.00000895,-0.00000443,0.00003917,-0.00000871,0.00000243,-0.00001863,
 -0.00001247,0.00000071,0.00003518,-0.00000360,0.00000145,-0.00000251,0
 .00000144,0.00000005,-0.00000171,0.00000129,0.00000005,-0.00000679,0.0
 0000571,-0.00000061,-0.00001197,-0.00000135,-0.00000634,-0.00001145,-0
 .00000047,0.00000526,-0.00027842,0.00336116,-0.00003021,0.00232760,-0.
 00068502,-0.00018269,-0.00726505,-0.00180243,0.00085630,0.00766180,0.0
 3087905,-0.00134565,-0.05929272,-0.05372397,0.00169040,0.00101704,-0.0
 0089520,-0.00054967,0.00110183,-0.00096175,0.00031548,-0.00408075,-0.0
 1378289,-0.00157414,0.06325848,-0.00042179,0.00012013,-0.00000594,0.00
 020564,-0.00054077,0.00002795,-0.00006422,0.00031131,-0.00002513,-0.00
 002805,-0.00031860,0.00002463,0.00000289,-0.00036938,0.00001141,0.0001
 1639,0.00003745,-0.00002496,-0.00000349,0.00003074,0.00002355,0.000017
 87,-0.00001379,-0.00000824,0.00017464,0.00008886,-0.00000799,-0.000183
 57,-0.00002286,0.00000191,0.00013852,-0.00006099,0.00000414,-0.0000566
 7,-0.00000761,0.00000091,0.00009136,-0.00009853,0.00000669,0.00002319,
 0.00089106,-0.00004431,0.00011581,0.00058448,-0.00000376,-0.00001861,-
 0.00003140,-0.00000889,-0.00001805,-0.00001767,0.00002457,0.00004003,0
 .00000999,-0.00004546,0.00001576,0.00001528,0.00002722,-0.00000814,-0.
 00000896,0.00001360,-0.00001343,0.00001401,-0.00000203,-0.00001503,-0.
 00001923,-0.00000715,-0.00009759,0.00004817,-0.00000168,0.00007078,0.0
 0004526,-0.00000304,-0.00024408,0.00007601,-0.00000519,0.00000419,-0.0
 0000726,0.00000039,-0.00001262,0.00000761,-0.00000014,0.00004760,-0.00
 005401,0.00000318,0.00008279,-0.00000305,0.00003754,0.00008216,-0.0000
 0750,-0.00003644,0.00167586,-0.00323850,-0.00008472,0.00055073,-0.0010
 6782,-0.00004603,0.00182592,0.00261382,-0.00025521,-0.00582551,-0.0160
 4304,0.00080302,-0.05359123,-0.29749050,0.00920200,0.00026198,0.000390
 87,0.00061461,0.00010248,0.00038952,-0.00067511,-0.00119742,-0.0054534
 7,0.00027242,0.05743689,0.32531911,-0.00000430,-0.00000100,0.00000251,
 -0.00001180,-0.00003096,0.00000142,0.00002742,-0.00000352,-0.00000560,
 -0.00000772,-0.00000204,0.00000024,-0.00000702,0.00001017,0.00002963,0
 .00000028,0.00000172,0.00000182,-0.00000117,-0.00001264,-0.00002661,0.
 00000048,0.00000277,0.00000870,0.00000249,0.00000244,-0.00000760,-0.00
 000155,-0.00000084,-0.00000006,0.00000011,-0.00000105,-0.00000011,0.00
 000086,0.00000008,0.,0.00000076,-0.00000090,0.00000131,0.00000839,0.00
 004626,-0.00000860,-0.00000086,-0.00001261,-0.00002922,-0.00000143,0.0
 0000213,0.00000044,0.00000065,-0.00000500,0.00000153,-0.00000458,-0.00
 000096,-0.00000756,0.00000367,0.00001138,0.00001547,-0.00000308,-0.000
 00355,0.00000142,0.00000098,-0.00000017,-0.00000230,0.00000164,0.00000
 169,0.00000060,-0.00000297,0.00000138,0.00000326,0.00000048,0.,-0.0000
 0098,-0.00000079,0.00000117,0.00000737,0.00000020,-0.00000010,0.000000
 47,0.00000038,-0.00000029,0.00000018,0.00000023,-0.00000077,-0.0000009
 8,-0.00000137,-0.00000106,-0.00000320,0.00000168,0.00000029,-0.0000033
 3,0.00003977,-0.00033490,0.00006379,-0.00014850,0.00005058,0.00064825,
 0.00078947,0.00011838,0.00054834,-0.00096211,-0.00323994,-0.00116850,0
 .00172907,0.00924515,-0.05058394,0.00006773,0.00040483,-0.00000405,-0.
 00031823,-0.00022372,-0.00002518,0.00463650,0.02869411,0.00094241,-0.0
 0258800,-0.01002379,0.04756800,-0.00000335,0.00001000,-0.00001013,0.00
 004430,0.00010154,0.00001336,-0.00011160,-0.00001172,-0.00001068,0.000
 03038,0.00002137,0.00000467,0.00003644,-0.00001565,0.00003868,-0.00000
 635,-0.00000125,-0.00000075,-0.00000593,-0.00000046,-0.00003450,0.0000
 0255,-0.00000413,0.00000918,-0.00000300,-0.00001369,0.00001704,0.00000
 302,-0.00001292,0.00000038,-0.00000139,0.00001451,-0.00000024,-0.00000
 882,0.00000415,-0.00000151,0.00000294,0.00000202,0.00000371,-0.0000120
 9,-0.00014522,-0.00000761,-0.00000862,-0.00000107,-0.00003821,0.000001
 07,0.00000704,-0.00000070,0.00000274,-0.00000108,0.00000144,0.00000612
 ,0.00000172,0.00001530,0.00000779,0.00000177,0.00000244,-0.00000302,-0
 .00000137,0.00000183,-0.00000273,-0.00000191,-0.00000361,0.00000097,0.
 00000631,0.00000073,0.00001062,-0.00002332,-0.00001499,0.00000380,0.00
 001030,0.00000210,0.00002573,-0.00002561,-0.00001367,-0.00000010,0.000
 00174,-0.00000130,-0.00000198,0.00000179,-0.00000264,-0.00000688,0.000
 01548,0.00000149,-0.00000490,0.00000663,0.00000344,-0.00001079,0.00000
 443,0.00000959,0.00074829,0.00044646,0.00023696,0.00179084,0.00001639,
 0.00058698,-0.00174997,-0.00188977,-0.00014285,-0.01925041,-0.00575849
 ,-0.02206480,-0.15635797,-0.03889075,-0.12783559,-0.00399008,0.0036860
 4,0.00143286,0.00064248,-0.00086262,0.00037349,0.01024490,0.00409610,0
 .01128094,-0.00441460,-0.00128400,-0.00324777,0.17234960,0.00015166,-0
 .00005992,0.00001015,-0.00015051,0.00006895,-0.00000417,0.00021092,-0.
 00013840,0.00000732,-0.00003867,0.00012154,-0.00001123,-0.00006571,0.0
 0023194,-0.00002106,-0.00001349,-0.00000830,0.00001501,-0.00000701,-0.
 00002761,0.00001267,-0.00002051,0.00002025,-0.00000521,-0.00006029,-0.
 00001786,-0.00000742,0.00005397,0.00001297,0.00000706,-0.00004783,0.00
 001297,-0.00000640,0.00002834,-0.00000214,0.00000195,-0.00003386,0.000
 03940,-0.00000380,0.00001787,-0.00012256,0.00000851,-0.00003787,-0.000
 31619,0.00000334,0.00000276,0.00001553,0.00000450,-0.00000144,0.000012
 58,-0.00001515,-0.00001944,-0.00001092,0.00004629,-0.00001309,-0.00002
 442,-0.00004319,0.00001184,0.00000878,-0.00001056,0.00000339,-0.000008
 88,0.00000267,0.00001167,0.00001191,0.00000463,0.00002302,-0.00000272,
 0.00000350,-0.00002300,-0.00001897,0.00000050,0.00007048,-0.00001735,0
 .00000070,-0.00000096,0.00000163,0.,0.00000737,-0.00000494,0.00000057,
 -0.00001244,0.00001197,-0.00000052,-0.00002402,-0.00000079,-0.00001057
 ,-0.00002451,0.00000043,0.00001147,-0.00090888,0.00021868,-0.00013990,
 -0.00098916,-0.00041002,-0.00040952,0.00192314,0.00052370,0.00081827,0
 .01199213,0.00430127,0.01503667,-0.04044949,-0.06076699,-0.04674708,0.
 00338376,-0.00207728,-0.00029971,-0.00085741,0.00075796,-0.00019811,0.
 00513452,0.00064887,0.00554497,-0.01971651,-0.00611876,-0.02469472,0.0
 4048927,0.06313371,-0.00005372,0.00002951,-0.00000404,0.00012014,0.000
 06003,0.00000249,-0.00020191,0.00004149,-0.00000790,0.00005603,-0.0000
 2431,0.00000564,0.00009436,-0.00008747,0.00002792,-0.00007286,-0.00000
 960,-0.00002133,0.00002208,0.00001933,0.00002491,0.00000572,-0.0000018
 3,-0.00000918,0.00001944,-0.00000056,0.00000615,-0.00001531,-0.0000115
 1,-0.00000232,0.00001683,0.00000496,0.00000185,-0.00001627,0.00000421,
 -0.00000054,0.00001257,-0.00001730,0.00000245,-0.00002158,-0.00007332,
 -0.00000507,-0.00000042,0.00007402,-0.00002378,0.00001162,-0.00001002,
 0.00000204,0.00001164,-0.00000901,0.00000563,-0.00001426,0.00002832,-0
 .00006144,-0.00000632,0.00002725,0.00003274,-0.00000527,-0.00000720,0.
 00001093,0.00002631,0.00000373,0.00000265,-0.00000669,-0.00001459,-0.0
 0000509,-0.00000076,-0.00000388,-0.00000334,0.00001114,0.00001267,0.00
 000022,-0.00001118,-0.00001282,-0.00000663,0.00000002,0.00000031,-0.00
 000061,-0.00000528,0.00000309,-0.00000144,0.00000043,0.00000694,0.0000
 0088,0.00000604,0.00000458,0.00000616,0.00000345,0.00000326,-0.0000003
 7,0.00064563,0.00047294,-0.00017348,0.00180042,-0.00038622,0.00035453,
 -0.00217451,-0.00134786,0.00027215,0.00303965,0.00176517,0.00336396,-0
 .12820841,-0.04466675,-0.19647038,0.00100039,-0.00064544,0.00134392,-0
 .00031402,0.00060259,0.00069688,-0.01856347,-0.00713778,-0.02122397,0.
 00339337,0.00021548,0.00203066,0.13939494,0.05108757,0.20982617\\-0.00
 000126,0.00000068,0.00000049,0.00000123,-0.00000097,-0.00000022,0.0000
 0236,0.00000092,0.00000045,0.00000066,-0.00000027,-0.00000045,-0.00000
 150,-0.00000179,0.00000234,0.00000007,0.00000027,0.00000080,-0.0000019
 3,0.00000151,-0.00000193,-0.00000056,-0.00000013,0.00000113,0.00000062
 ,0.00000096,-0.00000016,-0.00000029,-0.00000018,0.00000002,0.00000048,
 0.00000002,0.00000012,0.00000063,0.00000045,-0.00000021,0.00000007,-0.
 00000145,-0.00000019,-0.00000078,-0.00000111,0.00000073,-0.00000131,0.
 00000024,-0.00000069,-0.00000023,0.00000045,-0.00000072,0.00000116,0.0
 0000095,-0.00000046,0.00000038,-0.00000128,0.00000108,0.00000062,-0.00
 000111,-0.00000005,0.00000024,-0.00000033,0.00000032,-0.00000007,-0.00
 000027,-0.00000086,0.00000019,0.00000003,0.00000011,0.00000007,-0.0000
 0030,0.00000016,0.,0.00000033,-0.00000012,-0.00000011,0.00000048,0.000
 00022,0.00000014,0.00000018,0.,0.00000030,0.00000035,0.00000014,0.0000
 0019,-0.00000004,0.00000004,0.00000022,0.00000043,0.00000006,0.0000003
 4,0.00000038,-0.00000040,-0.00000193,0.00000124,-0.00000084,0.00000040
 ,0.00000057,-0.00000007,0.00000248,-0.00000047,-0.00000145,0.00000063,
 -0.00000057,-0.00000032,-0.00000031,0.00000128,0.00000129,-0.00000254,
 0.00000029,0.00000149,0.00000074,-0.00000052,-0.00000014,-0.00000197,-
 0.00000026,-0.00000012,-0.00000075,-0.00000048,0.,0.00000131,-0.000000
 49,-0.00000158\\\@


 NATURE REVEALS EVERY SECRET ONCE.
                    - RALPH WALDO EMERSON
 Job cpu time:       0 days 12 hours 16 minutes 45.2 seconds.
 File lengths (MBytes):  RWF=   1253 Int=      0 D2E=      0 Chk=     23 Scr=      1
 Normal termination of Gaussian 09 at Thu Nov 14 23:25:09 2019.
pbs_rusage has been removed.
Please contact help@nci.org.au if you require this functionality.
