 Entering Gaussian System, Link 0=/apps/gaussian/g16c01/g16/g16
 Initial command:
 /apps/gaussian/g16c01/g16/l1.exe "/jobfs/13164465.gadi-pbs/Gau-566897.inp" -scrdir="/jobfs/13164465.gadi-pbs/"
 Entering Link 1 = /apps/gaussian/g16c01/g16/l1.exe PID=    566898.
  
 Copyright (c) 1988-2019, Gaussian, Inc.  All Rights Reserved.
  
 This is part of the Gaussian(R) 16 program.  It is based on
 the Gaussian(R) 09 system (copyright 2009, Gaussian, Inc.),
 the Gaussian(R) 03 system (copyright 2003, Gaussian, Inc.),
 the Gaussian(R) 98 system (copyright 1998, Gaussian, Inc.),
 the Gaussian(R) 94 system (copyright 1995, Gaussian, Inc.),
 the Gaussian 92(TM) system (copyright 1992, Gaussian, Inc.),
 the Gaussian 90(TM) system (copyright 1990, Gaussian, Inc.),
 the Gaussian 88(TM) system (copyright 1988, Gaussian, Inc.),
 the Gaussian 86(TM) system (copyright 1986, Carnegie Mellon
 University), and the Gaussian 82(TM) system (copyright 1983,
 Carnegie Mellon University). Gaussian is a federally registered
 trademark of Gaussian, Inc.
  
 This software contains proprietary and confidential information,
 including trade secrets, belonging to Gaussian, Inc.
  
 This software is provided under written license and may be
 used, copied, transmitted, or stored only in accord with that
 written license.
  
 The following legend is applicable only to US Government
 contracts under FAR:
  
                    RESTRICTED RIGHTS LEGEND
  
 Use, reproduction and disclosure by the US Government is
 subject to restrictions as set forth in subparagraphs (a)
 and (c) of the Commercial Computer Software - Restricted
 Rights clause in FAR 52.227-19.
  
 Gaussian, Inc.
 340 Quinnipiac St., Bldg. 40, Wallingford CT 06492
  
  
 ---------------------------------------------------------------
 Warning -- This program may not be used in any manner that
 competes with the business of Gaussian, Inc. or will provide
 assistance to any competitor of Gaussian, Inc.  The licensee
 of this program is prohibited from giving any competitor of
 Gaussian, Inc. access to this program.  By using this program,
 the user acknowledges that Gaussian, Inc. is engaged in the
 business of creating and licensing software in the field of
 computational chemistry and represents and warrants to the
 licensee that it is not a competitor of Gaussian, Inc. and that
 it will not use this program in any manner prohibited above.
 ---------------------------------------------------------------
  

 Cite this work as:
 Gaussian 16, Revision C.01,
 M. J. Frisch, G. W. Trucks, H. B. Schlegel, G. E. Scuseria, 
 M. A. Robb, J. R. Cheeseman, G. Scalmani, V. Barone, 
 G. A. Petersson, H. Nakatsuji, X. Li, M. Caricato, A. V. Marenich, 
 J. Bloino, B. G. Janesko, R. Gomperts, B. Mennucci, H. P. Hratchian, 
 J. V. Ortiz, A. F. Izmaylov, J. L. Sonnenberg, D. Williams-Young, 
 F. Ding, F. Lipparini, F. Egidi, J. Goings, B. Peng, A. Petrone, 
 T. Henderson, D. Ranasinghe, V. G. Zakrzewski, J. Gao, N. Rega, 
 G. Zheng, W. Liang, M. Hada, M. Ehara, K. Toyota, R. Fukuda, 
 J. Hasegawa, M. Ishida, T. Nakajima, Y. Honda, O. Kitao, H. Nakai, 
 T. Vreven, K. Throssell, J. A. Montgomery, Jr., J. E. Peralta, 
 F. Ogliaro, M. J. Bearpark, J. J. Heyd, E. N. Brothers, K. N. Kudin, 
 V. N. Staroverov, T. A. Keith, R. Kobayashi, J. Normand, 
 K. Raghavachari, A. P. Rendell, J. C. Burant, S. S. Iyengar, 
 J. Tomasi, M. Cossi, J. M. Millam, M. Klene, C. Adamo, R. Cammi, 
 J. W. Ochterski, R. L. Martin, K. Morokuma, O. Farkas, 
 J. B. Foresman, and D. J. Fox, Gaussian, Inc., Wallingford CT, 2019.
 
 ******************************************
 Gaussian 16:  ES64L-G16RevC.01  3-Jul-2019
                 3-Nov-2020 
 ******************************************
 %NprocShared=32
 Will use up to   32 processors via shared memory.
 %Mem=1194000MB
 %chk=CP19_c2_carboxy.DSDPBEP86_AUG-cc-PVTZ.chk
 ----------------------------------------------------------------------
 # DSDPBEP86/AUG-cc-PVTZ SCF=Tight INT(grid=ultrafine) Pop=NBO MaxDisk=
 1400000MB
 ----------------------------------------------------------------------
 1/38=1,172=1/1;
 2/12=2,17=6,18=5,40=1/2;
 3/5=16,6=1,7=10,11=9,25=1,30=1,74=-77,75=-5/1,2,3;
 4//1;
 5/5=2,32=2,38=5/2;
 8/10=1/1;
 9/16=-3/6;
 6/7=2,8=2,9=2,10=2,40=1/1,7;
 99/5=1,9=1/99;
 -------------------------------------
 CP19_c2_carboxy.DSDPBEP86_AUG-cc-PVTZ
 -------------------------------------
 Symbolic Z-matrix:
 Charge = -1 Multiplicity = 1
 C                    -6.18375   1.27251  -0.04382 
 N                    -4.9425    0.68853  -0.00946 
 C                    -3.7085    1.32979  -0.07234 
 O                    -3.56915   2.5451   -0.15913 
 N                    -2.67298   0.46176  -0.0207 
 C                    -1.31467   0.9425   -0.13284 
 C                    -0.34069  -0.19734   0.1369 
 C                     1.10862   0.25536  -0.0072 
 C                    -7.28917   0.39472   0.01508 
 C                    -8.57259   0.89213  -0.01314 
 C                    -8.82881   2.26574  -0.09942 
 C                    -7.73064   3.12148  -0.15712 
 C                    -6.427     2.65475  -0.13079 
 H                    -4.94087  -0.34963   0.05761 
 H                    -2.82982  -0.55784  -0.02593 
 H                    -1.15718   1.7603    0.57849 
 H                    -1.1358    1.36389  -1.13162 
 H                    -0.55586  -1.02451  -0.54558 
 H                    -0.52209  -0.58719   1.1429 
 H                     1.30914   0.61923  -1.01908 
 H                     1.80478  -0.5618    0.19503 
 H                     1.33995   1.06933   0.68626 
 H                    -7.11007  -0.6738    0.08092 
 Cl                   -9.89396  -0.25292   0.06129 
 C                    -10.21633   2.8164   -0.13089 
 H                    -7.90322   4.18878  -0.22451 
 H                    -5.59361   3.33788  -0.17675 
 F                    -10.21918   4.16172  -0.21136 
 F                    -10.93671   2.38016  -1.18268 
 F                    -10.93433   2.50857   0.9668 
 O                    -5.15831  -2.0524    0.14422 
 O                    -2.94957  -2.34805  -0.05013 
 C                    -4.12415  -2.76376   0.05877 
 C                    -4.35309  -4.28183   0.09748 
 C                    -3.08291  -5.11029  -0.03465 
 H                    -5.06703  -4.51945  -0.69713 
 H                    -4.87361  -4.50224   1.03481 
 H                    -2.57582  -4.89284  -0.97625 
 H                    -3.2999   -6.18229   0.00342 
 H                    -2.38005  -4.86954   0.76456 
 
                          Input orientation:                          
 ---------------------------------------------------------------------
 Center     Atomic      Atomic             Coordinates (Angstroms)
 Number     Number       Type             X           Y           Z
 ---------------------------------------------------------------------
      1          6           0       -6.183750    1.272509   -0.043824
      2          7           0       -4.942505    0.688526   -0.009457
      3          6           0       -3.708496    1.329790   -0.072339
      4          8           0       -3.569147    2.545101   -0.159133
      5          7           0       -2.672977    0.461758   -0.020697
      6          6           0       -1.314666    0.942497   -0.132840
      7          6           0       -0.340689   -0.197337    0.136901
      8          6           0        1.108624    0.255363   -0.007199
      9          6           0       -7.289174    0.394724    0.015083
     10          6           0       -8.572586    0.892131   -0.013138
     11          6           0       -8.828813    2.265744   -0.099418
     12          6           0       -7.730636    3.121480   -0.157120
     13          6           0       -6.427001    2.654746   -0.130794
     14          1           0       -4.940869   -0.349631    0.057611
     15          1           0       -2.829823   -0.557841   -0.025932
     16          1           0       -1.157182    1.760303    0.578489
     17          1           0       -1.135803    1.363895   -1.131620
     18          1           0       -0.555863   -1.024510   -0.545582
     19          1           0       -0.522090   -0.587192    1.142903
     20          1           0        1.309137    0.619234   -1.019078
     21          1           0        1.804783   -0.561804    0.195028
     22          1           0        1.339951    1.069334    0.686262
     23          1           0       -7.110067   -0.673804    0.080925
     24         17           0       -9.893962   -0.252921    0.061286
     25          6           0      -10.216334    2.816402   -0.130889
     26          1           0       -7.903217    4.188775   -0.224515
     27          1           0       -5.593605    3.337882   -0.176755
     28          9           0      -10.219177    4.161716   -0.211357
     29          9           0      -10.936710    2.380160   -1.182678
     30          9           0      -10.934332    2.508571    0.966798
     31          8           0       -5.158313   -2.052397    0.144221
     32          8           0       -2.949572   -2.348054   -0.050129
     33          6           0       -4.124150   -2.763758    0.058768
     34          6           0       -4.353094   -4.281833    0.097478
     35          6           0       -3.082909   -5.110294   -0.034651
     36          1           0       -5.067029   -4.519448   -0.697128
     37          1           0       -4.873607   -4.502237    1.034807
     38          1           0       -2.575824   -4.892836   -0.976252
     39          1           0       -3.299897   -6.182289    0.003420
     40          1           0       -2.380055   -4.869542    0.764563
 ---------------------------------------------------------------------
                    Distance matrix (angstroms):
                    1          2          3          4          5
     1  C    0.000000
     2  N    1.372191   0.000000
     3  C    2.476081   1.392103   0.000000
     4  O    2.910144   2.314171   1.226349   0.000000
     5  N    3.603246   2.280856   1.352200   2.272136   0.000000
     6  C    4.881067   3.638810   2.425712   2.766174   1.445232
     7  C    6.027808   4.688590   3.703784   4.246356   2.428746
     8  C    7.363059   6.066612   4.935917   5.210328   3.787253
     9  C    1.412777   2.365118   3.701790   4.300358   4.616823
    10  C    2.419125   3.635788   4.884099   5.271434   5.915290
    11  C    2.825945   4.195129   5.205228   5.267418   6.415207
    12  C    2.413376   3.703343   4.403971   4.201215   5.715999
    13  C    1.406169   2.466673   3.024764   2.860097   4.349024
    14  H    2.046065   1.040322   2.087124   3.210619   2.409942
    15  H    3.820907   2.452983   2.082635   3.192584   1.031606
    16  H    5.088379   3.977820   2.667980   2.641509   2.083957
    17  H    5.164632   4.025711   2.782442   2.874394   2.100215
    18  H    6.099276   4.739678   3.963051   4.687360   2.639445
    19  H    6.076282   4.742938   3.912137   4.559728   2.660936
    20  H    7.584276   6.333021   5.155370   5.314708   4.108381
    21  H    8.199904   6.865204   5.834883   6.217509   4.598321
    22  H    7.561771   6.332321   5.111763   5.195365   4.119773
    23  H    2.159111   2.561726   3.950768   4.791356   4.581223
    24  Cl   4.012936   5.040660   6.386143   6.919595   7.256729
    25  C    4.318902   5.688223   6.675732   6.652781   7.903083
    26  H    3.390254   4.589534   5.078646   4.635742   6.425544
    27  H    2.152140   2.733315   2.756262   2.174223   4.102013
    28  F    4.965910   6.320371   7.101275   6.843908   8.406615
    29  F    5.011437   6.337868   7.388045   7.440150   8.562695
    30  F    5.011710   6.337795   7.394731   7.450840   8.568231
    31  O    3.484521   2.753697   3.686198   4.873855   3.539078
    32  O    4.854732   3.632389   3.755395   4.933429   2.823547
    33  C    4.532541   3.548609   4.116685   5.342237   3.537821
    34  C    5.849956   5.006327   5.651076   6.876587   5.033728
    35  C    7.096159   6.089749   6.470507   7.671832   5.587129
    36  H    5.934698   5.254654   6.037347   7.241612   5.567895
    37  H    6.018938   5.295210   6.049446   7.265816   5.531556
    38  H    7.204028   6.139011   6.389136   7.548329   5.440055
    39  H    7.993301   7.064448   7.523564   8.733056   6.673603
    40  H    7.269552   6.169066   6.395067   7.565982   5.396777
                    6          7          8          9         10
     6  C    0.000000
     7  C    1.523355   0.000000
     8  C    2.521957   1.525192   0.000000
     9  C    6.001391   6.974727   8.398984   0.000000
    10  C    7.259082   8.305033   9.702130   1.376719   0.000000
    11  C    7.629844   8.841429  10.139171   2.425761   1.399968
    12  C    6.775931   8.106313   9.293526   2.767624   2.387385
    13  C    5.391454   6.726754   7.909359   2.423287   2.779242
    14  H    3.854247   4.603383   6.080015   2.463820   3.838794
    15  H    2.134981   2.520370   4.021568   4.560140   5.922998
    16  H    1.095261   2.166567   2.782400   6.307421   7.489456
    17  H    1.098694   2.163052   2.744197   6.333893   7.535204
    18  H    2.148314   1.093754   2.167590   6.904060   8.259833
    19  H    2.143746   1.094045   2.166071   6.930337   8.266518
    20  H    2.788235   2.173706   1.093849   8.663189   9.936540
    21  H    3.478704   2.176986   1.092381   9.145895  10.480794
    22  H    2.781008   2.175041   1.094052   8.681439   9.938759
    23  H    6.020366   6.786356   8.271517   1.085434   2.144752
    24  Cl   8.664354   9.553733  11.014532   2.684492   1.750062
    25  C    9.096770  10.328731  11.611584   3.801854   2.533494
    26  H    7.345457   8.749882   9.835255   3.850881   3.370549
    27  H    4.903991   6.339501   7.379061   3.402049   3.857823
    28  F    9.468889  10.803108  11.984171   4.777701   3.666162
    29  F    9.785334  10.984554  12.287659   4.322164   3.028389
    30  F    9.808149  10.965215  12.290582   4.319871   3.025062
    31  O    4.880551   5.162442   6.680059   3.247406   4.511348
    32  O    3.675253   3.386272   4.821678   5.134124   6.489873
    33  C    4.654701   4.572440   6.041636   4.471610   5.758409
    34  C    6.048034   5.725736   7.101230   5.522458   6.677294
    35  C    6.306553   5.629064   6.808817   6.928229   8.134256
    36  H    6.650676   6.458679   7.836677   5.440060   6.483977
    37  H    6.608676   6.315517   7.714119   5.554730   6.624186
    38  H    6.029342   5.318143   6.404543   7.152391   8.387763
    39  H    7.397451   6.677903   7.802470   7.692306   8.823205
    40  H    5.976637   5.136388   6.247492   7.236966   8.494065
                   11         12         13         14         15
    11  C    0.000000
    12  C    1.393415   0.000000
    13  C    2.433312   1.384918   0.000000
    14  H    4.688385   4.458421   3.357136   0.000000
    15  H    6.630680   6.129648   4.824044   2.122934   0.000000
    16  H    7.718093   6.753090   5.392041   4.363419   2.921788
    17  H    7.814165   6.894243   5.537574   4.339236   2.790218
    18  H    8.914401   8.295631   6.941126   4.477453   2.378804
    19  H    8.870415   8.210204   6.855687   4.556304   2.587019
    20  H   10.311877   9.419220   8.048614   6.415648   4.416201
    21  H   11.007048  10.228139   8.843904   6.750388   4.639872
    22  H   10.269004   9.337995   7.969106   6.469727   4.532320
    23  H    3.409921   3.853045   3.404504   2.193411   4.283148
    24  Cl   2.739351   4.014258   4.528933   4.954038   7.071255
    25  C    1.493127   2.504486   3.792779   6.155471   8.121396
    26  H    2.137855   1.083257   2.131020   5.426991   6.950477
    27  H    3.409110   2.148050   1.078581   3.752166   4.778902
    28  F    2.353795   2.697753   4.081428   6.948750   8.769901
    29  F    2.372714   3.446771   4.638893   6.703744   8.700088
    30  F    2.372550   3.450003   4.641348   6.702055   8.721896
    31  O    5.672590   5.785902   4.882868   1.718778   2.772097
    32  O    7.473623   7.265385   6.093195   2.823219   1.794377
    33  C    6.888743   6.905750   5.890606   2.548537   2.559010
    34  C    7.933575   8.141355   7.243571   3.976089   4.025382
    35  C    9.350163   9.454019   8.455060   5.111208   4.559491
    36  H    7.781203   8.109882   7.323886   4.239448   4.598905
    37  H    7.920587   8.228267   7.415798   4.266565   4.567328
    38  H    9.545364   9.564116   8.515418   5.225229   4.445200
    39  H   10.096968  10.306180   9.374966   6.059342   5.644134
    40  H    9.656359   9.660987   8.590364   5.242819   4.406580
                   16         17         18         19         20
    16  H    0.000000
    17  H    1.755582   0.000000
    18  H    3.062728   2.526706   0.000000
    19  H    2.496526   3.058895   1.744526   0.000000
    20  H    3.152299   2.558304   2.530675   3.079451   0.000000
    21  H    3.783182   3.757041   2.516993   2.512658   1.764815
    22  H    2.593208   3.085582   3.081514   2.533731   1.764008
    23  H    6.450526   6.427621   6.593413   6.673586   8.588652
    24  Cl   8.980640   8.985681   9.389554   9.440001  11.288811
    25  C    9.148049   9.250258  10.404291  10.353037  11.766601
    26  H    7.214658   7.389228   9.014712   8.897232   9.911631
    27  H    4.768752   4.967937   6.674230   6.547364   7.466486
    28  F    9.407997   9.548946  10.972160  10.882080  12.087333
    29  F    9.956158   9.853587  10.943475  11.076002  12.372889
    30  F    9.813428  10.085872  11.067185  10.864141  12.546547
    31  O    5.543855   5.429495   4.766018   4.963745   7.093574
    32  O    4.526193   4.270591   2.779764   3.227481   5.280176
    33  C    5.435084   5.233045   4.015333   4.345990   6.490531
    34  C    6.852199   6.613311   5.044070   5.424009   7.571526
    35  C    7.161667   6.849065   4.831216   5.329436   7.286059
    36  H    7.506622   7.089220   5.708606   6.285286   8.195437
    37  H    7.296537   7.285334   5.764992   5.854483   8.286992
    38  H    6.978110   6.422186   4.385164   5.219886   6.743713
    39  H    8.246618   7.931993   5.868033   6.349783   8.279457
    40  H    6.744249   6.633205   4.452913   4.683343   6.849684
                   21         22         23         24         25
    21  H    0.000000
    22  H    1.765783   0.000000
    23  H    8.916284   8.649148   0.000000
    24  Cl  11.703586  11.328713   2.815599   0.000000
    25  C   12.491027  11.716130   4.677104   3.092184   0.000000
    26  H   10.816159   9.797785   4.936300   4.875799   2.691223
    27  H    8.371495   7.346108   4.296474   5.607459   4.652275
    28  F   12.924876  11.999250   5.756236   4.434989   1.347721
    29  F   13.149102  12.487097   5.056341   3.093201   1.347408
    30  F   13.126611  12.361559   5.053443   3.086772   1.347293
    31  O    7.121037   7.229554   2.390370   5.066691   7.025985
    32  O    5.084750   5.533608   4.486648   7.254415   8.915377
    33  C    6.326091   6.703935   3.644736   6.292458   8.263708
    34  C    7.194969   7.835331   4.540820   6.850887   9.209489
    35  C    6.680648   7.633427   5.992812   8.366224  10.664311
    36  H    7.980018   8.613805   4.423612   6.486734   8.980572
    37  H    7.799561   8.352975   4.535256   6.648939   9.135976
    38  H    6.270522   7.324255   6.283089   8.726994  10.886890
    39  H    7.595019   8.636000   6.698269   8.868058  11.350401
    40  H    6.032731   7.008197   6.359607   8.846840  11.012849
                   26         27         28         29         30
    26  H    0.000000
    27  H    2.461830   0.000000
    28  F    2.316155   4.698491   0.000000
    29  F    3.659404   5.520677   2.152269   0.000000
    30  F    3.664692   5.524386   2.152297   2.153310   0.000000
    31  O    6.828082   5.417344   8.022094   7.402573   7.405502
    32  O    8.203606   6.271907   9.759624   9.350564   9.400923
    33  C    7.918290   6.280509   9.229546   8.626242   8.660286
    34  C    9.190118   7.724904  10.285905   9.453304   9.496210
    35  C   10.475883   8.814504  11.701612  10.913618  10.986121
    36  H    9.170631   7.892130  10.106593   9.071577   9.305211
    37  H    9.289679   7.965787  10.256322   9.436411   9.267602
    38  H   10.555656   8.802892  11.873956  11.083478  11.332296
    39  H   11.349075   9.794245  12.446728  11.534439  11.607918
    40  H   10.655361   8.864243  11.998662  11.382718  11.298368
                   31         32         33         34         35
    31  O    0.000000
    32  O    2.236900   0.000000
    33  C    1.258106   1.250721   0.000000
    34  C    2.370854   2.393985   1.535729   0.000000
    35  C    3.700004   2.765500   2.568879   1.522227   0.000000
    36  H    2.608168   3.101158   2.131395   1.094333   2.173639
    37  H    2.622197   3.085370   2.129941   1.094576   2.172573
    38  H    3.999100   2.733734   2.828701   2.164465   1.091346
    39  H    4.530954   3.850579   3.516932   2.174811   1.094397
    40  H    4.004978   2.710346   2.823888   2.164090   1.091196
                   36         37         38         39         40
    36  H    0.000000
    37  H    1.742787   0.000000
    38  H    2.534449   3.078430   0.000000
    39  H    2.525582   2.522479   1.773902   0.000000
    40  H    3.078788   2.534906   1.751943   1.774472   0.000000
 Stoichiometry    C14H17ClF3N2O3(1-)
 Framework group  C1[X(C14H17ClF3N2O3)]
 Deg. of freedom   114
 Full point group                 C1      NOp   1
 Largest Abelian subgroup         C1      NOp   1
 Largest concise Abelian subgroup C1      NOp   1
                         Standard orientation:                         
 ---------------------------------------------------------------------
 Center     Atomic      Atomic             Coordinates (Angstroms)
 Number     Number       Type             X           Y           Z
 ---------------------------------------------------------------------
      1          6           0       -0.625519   -0.664305   -0.018506
      2          7           0        0.746043   -0.627171   -0.037161
      3          6           0        1.618129   -1.711416    0.005609
      4          8           0        1.257003   -2.882275    0.056712
      5          7           0        2.915477   -1.331177   -0.021791
      6          6           0        3.965310   -2.319722    0.074772
      7          6           0        5.317733   -1.660023   -0.162626
      8          6           0        6.461821   -2.660309   -0.033401
      9          6           0       -1.284946    0.584723   -0.050534
     10          6           0       -2.660308    0.643942   -0.035448
     11          6           0       -3.447256   -0.512981    0.010952
     12          6           0       -2.785602   -1.738881    0.042428
     13          6           0       -1.404051   -1.834351    0.028317
     14          1           0        1.164968    0.324367   -0.073877
     15          1           0        3.181034   -0.334958    0.013398
     16          1           0        3.788908   -3.112267   -0.660315
     17          1           0        3.949262   -2.804466    1.060619
     18          1           0        5.445369   -0.834954    0.543964
     19          1           0        5.318873   -1.202938   -1.156612
     20          1           0        6.488552   -3.101440    0.967196
     21          1           0        7.429568   -2.186274   -0.212436
     22          1           0        6.354397   -3.479479   -0.750597
     23          1           0       -0.691307    1.492769   -0.085331
     24         17           0       -3.410068    2.224770   -0.074942
     25          6           0       -4.939375   -0.460795    0.027846
     26          1           0       -3.372786   -2.648461    0.078805
     27          1           0       -0.915489   -2.795609    0.053388
     28          9           0       -5.482841   -1.693396    0.068984
     29          9           0       -5.435303    0.199213    1.092719
     30          9           0       -5.461615    0.139157   -1.059593
     31          8           0        1.650229    1.972814   -0.110470
     32          8           0        3.789680    1.351300    0.090011
     33          6           0        2.881979    2.206447   -0.005409
     34          6           0        3.282062    3.689135    0.000493
     35          6           0        4.776472    3.933927    0.155374
     36          1           0        2.715063    4.171719    0.802484
     37          1           0        2.903874    4.125395   -0.929426
     38          1           0        5.143498    3.505639    1.089664
     39          1           0        5.008445    5.003437    0.148871
     40          1           0        5.332113    3.453046   -0.651303
 ---------------------------------------------------------------------
 Rotational constants (GHZ):           0.3591922           0.0983205           0.0784724
 Standard basis: Aug-CC-pVTZ (5D, 7F)
 There are  1694 symmetry adapted cartesian basis functions of A   symmetry.
 There are  1453 symmetry adapted basis functions of A   symmetry.
  1453 basis functions,  2157 primitive gaussians,  1694 cartesian basis functions
    92 alpha electrons       92 beta electrons
       nuclear repulsion energy      2095.3313511691 Hartrees.
 NAtoms=   40 NActive=   40 NUniq=   40 SFac= 1.00D+00 NAtFMM=   60 NAOKFM=F Big=F
 Integral buffers will be    131072 words long.
 Regular integral format.
 Two-electron integral symmetry is turned on.
 Nuclear repulsion after empirical dispersion term =     2095.3017465164 Hartrees.
 One-electron integrals computed using PRISM.
 NBasis=  1453 RedAO= T EigKep=  1.29D-06  NBF=  1453
 NBsUse=  1448 1.00D-06 EigRej=  8.48D-07 NBFU=  1448
 ExpMin= 2.53D-02 ExpMax= 4.56D+05 ExpMxC= 1.44D+03 IAcc=3 IRadAn=         5 AccDes= 0.00D+00
 Harris functional with IExCor= 1004 and IRadAn=       5 diagonalized for initial guess.
 HarFok:  IExCor= 1004 AccDes= 0.00D+00 IRadAn=         5 IDoV= 1 UseB2=F ITyADJ=14
 ICtDFT=  3500011 ScaDFX=  1.000000  1.000000  1.000000  1.000000
 FoFCou: FMM=F IPFlag=           0 FMFlag=      100000 FMFlg1=           0
         NFxFlg=           0 DoJE=T BraDBF=F KetDBF=T FulRan=T
         wScrn=  0.000000 ICntrl=       500 IOpCl=  0 I1Cent=   200000004 NGrid=           0
         NMat0=    1 NMatS0=      1 NMatT0=    0 NMatD0=    1 NMtDS0=    0 NMtDT0=    0
 Petite list used in FoFCou.
 Requested convergence on RMS density matrix=1.00D-08 within 128 cycles.
 Requested convergence on MAX density matrix=1.00D-06.
 Requested convergence on             energy=1.00D-06.
 No special actions if energy rises.
 SCF Done:  E(RDSDPBEP86) =  -1634.82572093     A.U. after   14 cycles
            NFock= 14  Conv=0.33D-08     -V/T= 2.0027
 DoSCS=T DFT=T ScalE2(SS,OS)=  0.220000  0.520000
 ExpMin= 2.53D-02 ExpMax= 4.56D+05 ExpMxC= 1.44D+03 IAcc=3 IRadAn=         5 AccDes= 0.00D+00
 HarFok:  IExCor=  205 AccDes= 0.00D+00 IRadAn=         5 IDoV=-2 UseB2=F ITyADJ=14
 ICtDFT= 12500011 ScaDFX=  1.000000  1.000000  1.000000  1.000000
 GSVD:  LWork=        -945 too small for GESVD, short by        4050 words or        4050 for optimal perf.
 Range of M.O.s used for correlation:    28  1448
 NBasis=  1453 NAE=    92 NBE=    92 NFC=    27 NFV=     0
 NROrb=   1421 NOA=    65 NOB=    65 NVA=  1356 NVB=  1356

 **** Warning!!: The largest alpha MO coefficient is  0.96393195D+02

 DoSCS=T DFT=T ScalE2(SS,OS)=  0.220000  0.520000
 Fully direct method using O(OVN) memory.
 JobTyp=1 Pass  1:  I=   1 to  52 NPSUse= 32 ParTrn=T ParDer=T DoDerP=F.
 JobTyp=1 Pass  2:  I=  53 to  65 NPSUse= 32 ParTrn=T ParDer=T DoDerP=F.
 Spin components of T(2) and E(2):
     alpha-alpha T2 =       0.2275301245D+00 E2=     -0.1425250786D+00
     alpha-beta  T2 =       0.1186694320D+01 E2=     -0.1924707182D+01
     beta-beta   T2 =       0.2275301245D+00 E2=     -0.1425250786D+00
 E2(DSDPBEP86) =    -0.2209757339D+01 E(DSDPBEP86) =    -0.16370354782664D+04

 **********************************************************************

            Population analysis using the SCF Density.

 **********************************************************************

 Orbital symmetries:
       Occupied  (A) (A) (A) (A) (A) (A) (A) (A) (A) (A) (A) (A)
                 (A) (A) (A) (A) (A) (A) (A) (A) (A) (A) (A) (A)
                 (A) (A) (A) (A) (A) (A) (A) (A) (A) (A) (A) (A)
                 (A) (A) (A) (A) (A) (A) (A) (A) (A) (A) (A) (A)
                 (A) (A) (A) (A) (A) (A) (A) (A) (A) (A) (A) (A)
                 (A) (A) (A) (A) (A) (A) (A) (A) (A) (A) (A) (A)
                 (A) (A) (A) (A) (A) (A) (A) (A) (A) (A) (A) (A)
                 (A) (A) (A) (A) (A) (A) (A) (A)
       Virtual   (A) (A) (A) (A) (A) (A) (A) (A) (A) (A) (A) (A)
                 (A) (A) (A) (A) (A) (A) (A) (A) (A) (A) (A) (A)
                 (A) (A) (A) (A) (A) (A) (A) (A) (A) (A) (A) (A)
                 (A) (A) (A) (A) (A) (A) (A) (A) (A) (A) (A) (A)
                 (A) (A) (A) (A) (A) (A) (A) (A) (A) (A) (A) (A)
                 (A) (A) (A) (A) (A) (A) (A) (A) (A) (A) (A) (A)
                 (A) (A) (A) (A) (A) (A) (A) (A) (A) (A) (A) (A)
                 (A) (A) (A) (A) (A) (A) (A) (A) (A) (A) (A) (A)
                 (A) (A) (A) (A) (A) (A) (A) (A) (A) (A) (A) (A)
                 (A) (A) (A) (A) (A) (A) (A) (A) (A) (A) (A) (A)
                 (A) (A) (A) (A) (A) (A) (A) (A) (A) (A) (A) (A)
                 (A) (A) (A) (A) (A) (A) (A) (A) (A) (A) (A) (A)
                 (A) (A) (A) (A) (A) (A) (A) (A) (A) (A) (A) (A)
                 (A) (A) (A) (A) (A) (A) (A) (A) (A) (A) (A) (A)
                 (A) (A) (A) (A) (A) (A) (A) (A) (A) (A) (A) (A)
                 (A) (A) (A) (A) (A) (A) (A) (A) (A) (A) (A) (A)
                 (A) (A) (A) (A) (A) (A) (A) (A) (A) (A) (A) (A)
                 (A) (A) (A) (A) (A) (A) (A) (A) (A) (A) (A) (A)
                 (A) (A) (A) (A) (A) (A) (A) (A) (A) (A) (A) (A)
                 (A) (A) (A) (A) (A) (A) (A) (A) (A) (A) (A) (A)
                 (A) (A) (A) (A) (A) (A) (A) (A) (A) (A) (A) (A)
                 (A) (A) (A) (A) (A) (A) (A) (A) (A) (A) (A) (A)
                 (A) (A) (A) (A) (A) (A) (A) (A) (A) (A) (A) (A)
                 (A) (A) (A) (A) (A) (A) (A) (A) (A) (A) (A) (A)
                 (A) (A) (A) (A) (A) (A) (A) (A) (A) (A) (A) (A)
                 (A) (A) (A) (A) (A) (A) (A) (A) (A) (A) (A) (A)
                 (A) (A) (A) (A) (A) (A) (A) (A) (A) (A) (A) (A)
                 (A) (A) (A) (A) (A) (A) (A) (A) (A) (A) (A) (A)
                 (A) (A) (A) (A) (A) (A) (A) (A) (A) (A) (A) (A)
                 (A) (A) (A) (A) (A) (A) (A) (A) (A) (A) (A) (A)
                 (A) (A) (A) (A) (A) (A) (A) (A) (A) (A) (A) (A)
                 (A) (A) (A) (A) (A) (A) (A) (A) (A) (A) (A) (A)
                 (A) (A) (A) (A) (A) (A) (A) (A) (A) (A) (A) (A)
                 (A) (A) (A) (A) (A) (A) (A) (A) (A) (A) (A) (A)
                 (A) (A) (A) (A) (A) (A) (A) (A) (A) (A) (A) (A)
                 (A) (A) (A) (A) (A) (A) (A) (A) (A) (A) (A) (A)
                 (A) (A) (A) (A) (A) (A) (A) (A) (A) (A) (A) (A)
                 (A) (A) (A) (A) (A) (A) (A) (A) (A) (A) (A) (A)
                 (A) (A) (A) (A) (A) (A) (A) (A) (A) (A) (A) (A)
                 (A) (A) (A) (A) (A) (A) (A) (A) (A) (A) (A) (A)
                 (A) (A) (A) (A) (A) (A) (A) (A) (A) (A) (A) (A)
                 (A) (A) (A) (A) (A) (A) (A) (A) (A) (A) (A) (A)
                 (A) (A) (A) (A) (A) (A) (A) (A) (A) (A) (A) (A)
                 (A) (A) (A) (A) (A) (A) (A) (A) (A) (A) (A) (A)
                 (A) (A) (A) (A) (A) (A) (A) (A) (A) (A) (A) (A)
                 (A) (A) (A) (A) (A) (A) (A) (A) (A) (A) (A) (A)
                 (A) (A) (A) (A) (A) (A) (A) (A) (A) (A) (A) (A)
                 (A) (A) (A) (A) (A) (A) (A) (A) (A) (A) (A) (A)
                 (A) (A) (A) (A) (A) (A) (A) (A) (A) (A) (A) (A)
                 (A) (A) (A) (A) (A) (A) (A) (A) (A) (A) (A) (A)
                 (A) (A) (A) (A) (A) (A) (A) (A) (A) (A) (A) (A)
                 (A) (A) (A) (A) (A) (A) (A) (A) (A) (A) (A) (A)
                 (A) (A) (A) (A) (A) (A) (A) (A) (A) (A) (A) (A)
                 (A) (A) (A) (A) (A) (A) (A) (A) (A) (A) (A) (A)
                 (A) (A) (A) (A) (A) (A) (A) (A) (A) (A) (A) (A)
                 (A) (A) (A) (A) (A) (A) (A) (A) (A) (A) (A) (A)
                 (A) (A) (A) (A) (A) (A) (A) (A) (A) (A) (A) (A)
                 (A) (A) (A) (A) (A) (A) (A) (A) (A) (A) (A) (A)
                 (A) (A) (A) (A) (A) (A) (A) (A) (A) (A) (A) (A)
                 (A) (A) (A) (A) (A) (A) (A) (A) (A) (A) (A) (A)
                 (A) (A) (A) (A) (A) (A) (A) (A) (A) (A) (A) (A)
                 (A) (A) (A) (A) (A) (A) (A) (A) (A) (A) (A) (A)
                 (A) (A) (A) (A) (A) (A) (A) (A) (A) (A) (A) (A)
                 (A) (A) (A) (A) (A) (A) (A) (A) (A) (A) (A) (A)
                 (A) (A) (A) (A) (A) (A) (A) (A) (A) (A) (A) (A)
                 (A) (A) (A) (A) (A) (A) (A) (A) (A) (A) (A) (A)
                 (A) (A) (A) (A) (A) (A) (A) (A) (A) (A) (A) (A)
                 (A) (A) (A) (A) (A) (A) (A) (A) (A) (A) (A) (A)
                 (A) (A) (A) (A) (A) (A) (A) (A) (A) (A) (A) (A)
                 (A) (A) (A) (A) (A) (A) (A) (A) (A) (A) (A) (A)
                 (A) (A) (A) (A) (A) (A) (A) (A) (A) (A) (A) (A)
                 (A) (A) (A) (A) (A) (A) (A) (A) (A) (A) (A) (A)
                 (A) (A) (A) (A) (A) (A) (A) (A) (A) (A) (A) (A)
                 (A) (A) (A) (A) (A) (A) (A) (A) (A) (A) (A) (A)
                 (A) (A) (A) (A) (A) (A) (A) (A) (A) (A) (A) (A)
                 (A) (A) (A) (A) (A) (A) (A) (A) (A) (A) (A) (A)
                 (A) (A) (A) (A) (A) (A) (A) (A) (A) (A) (A) (A)
                 (A) (A) (A) (A) (A) (A) (A) (A) (A) (A) (A) (A)
                 (A) (A) (A) (A) (A) (A) (A) (A) (A) (A) (A) (A)
                 (A) (A) (A) (A) (A) (A) (A) (A) (A) (A) (A) (A)
                 (A) (A) (A) (A) (A) (A) (A) (A) (A) (A) (A) (A)
                 (A) (A) (A) (A) (A) (A) (A) (A) (A) (A) (A) (A)
                 (A) (A) (A) (A) (A) (A) (A) (A) (A) (A) (A) (A)
                 (A) (A) (A) (A) (A) (A) (A) (A) (A) (A) (A) (A)
                 (A) (A) (A) (A) (A) (A) (A) (A) (A) (A) (A) (A)
                 (A) (A) (A) (A) (A) (A) (A) (A) (A) (A) (A) (A)
                 (A) (A) (A) (A) (A) (A) (A) (A) (A) (A) (A) (A)
                 (A) (A) (A) (A) (A) (A) (A) (A) (A) (A) (A) (A)
                 (A) (A) (A) (A) (A) (A) (A) (A) (A) (A) (A) (A)
                 (A) (A) (A) (A) (A) (A) (A) (A) (A) (A) (A) (A)
                 (A) (A) (A) (A) (A) (A) (A) (A) (A) (A) (A) (A)
                 (A) (A) (A) (A) (A) (A) (A) (A) (A) (A) (A) (A)
                 (A) (A) (A) (A) (A) (A) (A) (A) (A) (A) (A) (A)
                 (A) (A) (A) (A) (A) (A) (A) (A) (A) (A) (A) (A)
                 (A) (A) (A) (A) (A) (A) (A) (A) (A) (A) (A) (A)
                 (A) (A) (A) (A) (A) (A) (A) (A) (A) (A) (A) (A)
                 (A) (A) (A) (A) (A) (A) (A) (A) (A) (A) (A) (A)
                 (A) (A) (A) (A) (A) (A) (A) (A) (A) (A) (A) (A)
                 (A) (A) (A) (A) (A) (A) (A) (A) (A) (A) (A) (A)
                 (A) (A) (A) (A) (A) (A) (A) (A) (A) (A) (A) (A)
                 (A) (A) (A) (A) (A) (A) (A) (A) (A) (A) (A) (A)
                 (A) (A) (A) (A) (A) (A) (A) (A) (A) (A) (A) (A)
                 (A) (A) (A) (A) (A) (A) (A) (A) (A) (A) (A) (A)
                 (A) (A) (A) (A) (A) (A) (A) (A) (A) (A) (A) (A)
                 (A) (A) (A) (A) (A) (A) (A) (A) (A) (A) (A) (A)
                 (A) (A) (A) (A) (A) (A) (A) (A) (A) (A) (A) (A)
                 (A) (A) (A) (A) (A) (A) (A) (A) (A) (A) (A) (A)
                 (A) (A) (A) (A) (A) (A) (A) (A) (A) (A) (A) (A)
                 (A) (A) (A) (A) (A) (A) (A) (A) (A) (A) (A) (A)
                 (A) (A) (A) (A) (A) (A) (A) (A) (A) (A) (A) (A)
                 (A) (A) (A) (A) (A) (A) (A) (A) (A) (A) (A) (A)
                 (A) (A) (A) (A) (A) (A) (A) (A) (A) (A) (A) (A)
                 (A) (A) (A) (A) (A) (A) (A) (A) (A) (A) (A) (A)
 The electronic state is 1-A.
 Alpha  occ. eigenvalues -- -103.47914 -25.62074 -25.61388 -25.61384 -19.84554
 Alpha  occ. eigenvalues --  -19.82139 -19.81858 -14.98346 -14.96320 -10.99373
 Alpha  occ. eigenvalues --  -10.83526 -10.80382 -10.78898 -10.78287 -10.74816
 Alpha  occ. eigenvalues --  -10.74569 -10.73805 -10.72577 -10.71959 -10.71738
 Alpha  occ. eigenvalues --  -10.71199 -10.69666 -10.69594 -10.05424  -7.63100
 Alpha  occ. eigenvalues --   -7.62638  -7.62620  -1.48110  -1.38831  -1.38360
 Alpha  occ. eigenvalues --   -1.14859  -1.12650  -1.03027  -1.02428  -0.99560
 Alpha  occ. eigenvalues --   -0.97897  -0.91691  -0.86378  -0.84650  -0.82260
 Alpha  occ. eigenvalues --   -0.81222  -0.77020  -0.73825  -0.68287  -0.67603
 Alpha  occ. eigenvalues --   -0.67112  -0.64247  -0.63966  -0.63478  -0.61584
 Alpha  occ. eigenvalues --   -0.59101  -0.55729  -0.54076  -0.52890  -0.52590
 Alpha  occ. eigenvalues --   -0.50872  -0.48934  -0.48705  -0.48283  -0.48281
 Alpha  occ. eigenvalues --   -0.47379  -0.46534  -0.46519  -0.44938  -0.44736
 Alpha  occ. eigenvalues --   -0.44108  -0.43808  -0.43655  -0.42651  -0.41505
 Alpha  occ. eigenvalues --   -0.40815  -0.39939  -0.38524  -0.38501  -0.37031
 Alpha  occ. eigenvalues --   -0.36989  -0.35836  -0.35449  -0.34051  -0.33969
 Alpha  occ. eigenvalues --   -0.33209  -0.32442  -0.31650  -0.31302  -0.29090
 Alpha  occ. eigenvalues --   -0.26150  -0.22783  -0.22447  -0.22252  -0.22004
 Alpha  occ. eigenvalues --   -0.21732  -0.17257
 Alpha virt. eigenvalues --    0.08113   0.08945   0.09588   0.10050   0.10173
 Alpha virt. eigenvalues --    0.10940   0.11140   0.11257   0.11786   0.12578
 Alpha virt. eigenvalues --    0.12646   0.12944   0.13306   0.13444   0.13939
 Alpha virt. eigenvalues --    0.14037   0.14346   0.14619   0.14808   0.15440
 Alpha virt. eigenvalues --    0.15702   0.16105   0.16658   0.17149   0.17433
 Alpha virt. eigenvalues --    0.17777   0.18018   0.18247   0.18387   0.18485
 Alpha virt. eigenvalues --    0.18665   0.19055   0.19225   0.19591   0.19625
 Alpha virt. eigenvalues --    0.19782   0.20376   0.20761   0.21141   0.21260
 Alpha virt. eigenvalues --    0.21392   0.21727   0.21879   0.22258   0.22438
 Alpha virt. eigenvalues --    0.22585   0.22972   0.23337   0.23465   0.23838
 Alpha virt. eigenvalues --    0.23979   0.24101   0.24469   0.24566   0.25160
 Alpha virt. eigenvalues --    0.25454   0.25672   0.26240   0.26306   0.26599
 Alpha virt. eigenvalues --    0.26909   0.27071   0.27505   0.27708   0.28031
 Alpha virt. eigenvalues --    0.28265   0.28464   0.29012   0.29184   0.29408
 Alpha virt. eigenvalues --    0.29996   0.30281   0.30506   0.30720   0.31109
 Alpha virt. eigenvalues --    0.31365   0.31528   0.31983   0.32184   0.32347
 Alpha virt. eigenvalues --    0.32571   0.32594   0.33071   0.33296   0.33638
 Alpha virt. eigenvalues --    0.33942   0.33968   0.34364   0.34695   0.35087
 Alpha virt. eigenvalues --    0.35212   0.35701   0.36090   0.36391   0.36426
 Alpha virt. eigenvalues --    0.36697   0.37044   0.37155   0.37307   0.37550
 Alpha virt. eigenvalues --    0.37763   0.37903   0.38121   0.38368   0.38625
 Alpha virt. eigenvalues --    0.38902   0.39070   0.39386   0.39459   0.39943
 Alpha virt. eigenvalues --    0.40191   0.40265   0.40630   0.40899   0.41034
 Alpha virt. eigenvalues --    0.41246   0.41268   0.41468   0.41853   0.41969
 Alpha virt. eigenvalues --    0.42267   0.42448   0.42682   0.43017   0.43199
 Alpha virt. eigenvalues --    0.43445   0.43848   0.43985   0.44141   0.44353
 Alpha virt. eigenvalues --    0.44690   0.44770   0.45131   0.45203   0.45553
 Alpha virt. eigenvalues --    0.45776   0.45973   0.46027   0.46468   0.46704
 Alpha virt. eigenvalues --    0.46736   0.47116   0.47351   0.47507   0.47884
 Alpha virt. eigenvalues --    0.48003   0.48204   0.48707   0.48865   0.49091
 Alpha virt. eigenvalues --    0.49427   0.49707   0.49832   0.50278   0.50368
 Alpha virt. eigenvalues --    0.50553   0.50846   0.51182   0.51454   0.51594
 Alpha virt. eigenvalues --    0.51989   0.52073   0.52292   0.52477   0.52652
 Alpha virt. eigenvalues --    0.52957   0.53116   0.53354   0.53794   0.53944
 Alpha virt. eigenvalues --    0.54164   0.54433   0.54591   0.54647   0.54770
 Alpha virt. eigenvalues --    0.54946   0.55192   0.55357   0.55733   0.55794
 Alpha virt. eigenvalues --    0.56155   0.56262   0.56505   0.57014   0.57445
 Alpha virt. eigenvalues --    0.57615   0.57816   0.58220   0.58310   0.58520
 Alpha virt. eigenvalues --    0.58571   0.58717   0.58881   0.59214   0.59622
 Alpha virt. eigenvalues --    0.59899   0.60386   0.60448   0.60515   0.60799
 Alpha virt. eigenvalues --    0.61123   0.61246   0.61600   0.61967   0.62200
 Alpha virt. eigenvalues --    0.62665   0.62811   0.63157   0.63350   0.63732
 Alpha virt. eigenvalues --    0.64116   0.64328   0.64428   0.64775   0.65064
 Alpha virt. eigenvalues --    0.65484   0.65824   0.66497   0.66564   0.66716
 Alpha virt. eigenvalues --    0.67033   0.67413   0.67716   0.67797   0.68302
 Alpha virt. eigenvalues --    0.68811   0.69013   0.69380   0.69732   0.69839
 Alpha virt. eigenvalues --    0.70153   0.70419   0.70586   0.71354   0.71497
 Alpha virt. eigenvalues --    0.71754   0.72179   0.72546   0.73223   0.73508
 Alpha virt. eigenvalues --    0.74012   0.74335   0.74559   0.74650   0.74930
 Alpha virt. eigenvalues --    0.75258   0.75625   0.76048   0.76507   0.77074
 Alpha virt. eigenvalues --    0.77383   0.77515   0.77903   0.78123   0.78307
 Alpha virt. eigenvalues --    0.78841   0.79542   0.79603   0.79876   0.80389
 Alpha virt. eigenvalues --    0.80629   0.81183   0.81597   0.82131   0.82496
 Alpha virt. eigenvalues --    0.82814   0.83363   0.83667   0.84025   0.84612
 Alpha virt. eigenvalues --    0.85091   0.85308   0.85579   0.85969   0.86542
 Alpha virt. eigenvalues --    0.86846   0.86899   0.87103   0.87511   0.87808
 Alpha virt. eigenvalues --    0.88013   0.88278   0.88907   0.89176   0.89440
 Alpha virt. eigenvalues --    0.89588   0.90063   0.90257   0.90361   0.90928
 Alpha virt. eigenvalues --    0.91149   0.91696   0.91950   0.92355   0.92560
 Alpha virt. eigenvalues --    0.92760   0.93061   0.93348   0.93638   0.93937
 Alpha virt. eigenvalues --    0.94232   0.94322   0.94575   0.95123   0.95220
 Alpha virt. eigenvalues --    0.95385   0.95788   0.95844   0.96228   0.96447
 Alpha virt. eigenvalues --    0.96640   0.96748   0.96862   0.97211   0.97570
 Alpha virt. eigenvalues --    0.97687   0.97846   0.98218   0.98368   0.98614
 Alpha virt. eigenvalues --    0.99230   0.99271   0.99786   1.00126   1.00291
 Alpha virt. eigenvalues --    1.00554   1.00853   1.01369   1.01410   1.01693
 Alpha virt. eigenvalues --    1.02152   1.02508   1.02761   1.03018   1.03210
 Alpha virt. eigenvalues --    1.03596   1.04562   1.04668   1.04838   1.05335
 Alpha virt. eigenvalues --    1.05615   1.05835   1.05915   1.06059   1.06261
 Alpha virt. eigenvalues --    1.06504   1.06810   1.06953   1.07366   1.07789
 Alpha virt. eigenvalues --    1.08102   1.08178   1.08658   1.08932   1.09246
 Alpha virt. eigenvalues --    1.09711   1.09804   1.10278   1.10588   1.11010
 Alpha virt. eigenvalues --    1.11125   1.11898   1.11970   1.12281   1.12552
 Alpha virt. eigenvalues --    1.12669   1.13521   1.13620   1.13879   1.14021
 Alpha virt. eigenvalues --    1.14074   1.14539   1.14846   1.15021   1.15145
 Alpha virt. eigenvalues --    1.15391   1.15723   1.15816   1.16413   1.16761
 Alpha virt. eigenvalues --    1.16920   1.17199   1.17276   1.17848   1.18107
 Alpha virt. eigenvalues --    1.18289   1.18446   1.18644   1.19059   1.19328
 Alpha virt. eigenvalues --    1.19615   1.19665   1.20249   1.20296   1.20522
 Alpha virt. eigenvalues --    1.20888   1.21168   1.21844   1.22360   1.22531
 Alpha virt. eigenvalues --    1.22749   1.23209   1.23447   1.23854   1.23874
 Alpha virt. eigenvalues --    1.24255   1.24566   1.25103   1.25363   1.25872
 Alpha virt. eigenvalues --    1.26361   1.26405   1.26784   1.27021   1.27542
 Alpha virt. eigenvalues --    1.27722   1.27851   1.28370   1.28420   1.28873
 Alpha virt. eigenvalues --    1.29192   1.29386   1.29905   1.30220   1.30414
 Alpha virt. eigenvalues --    1.30915   1.31306   1.31750   1.32175   1.32263
 Alpha virt. eigenvalues --    1.32371   1.32877   1.33219   1.33486   1.33940
 Alpha virt. eigenvalues --    1.34248   1.34627   1.34849   1.35212   1.35982
 Alpha virt. eigenvalues --    1.36054   1.36266   1.36456   1.36705   1.36910
 Alpha virt. eigenvalues --    1.37166   1.37689   1.38451   1.38764   1.38954
 Alpha virt. eigenvalues --    1.39508   1.39772   1.40261   1.40562   1.41074
 Alpha virt. eigenvalues --    1.41549   1.41696   1.41889   1.42394   1.42949
 Alpha virt. eigenvalues --    1.43396   1.43750   1.44379   1.44690   1.45366
 Alpha virt. eigenvalues --    1.45496   1.45937   1.46246   1.46529   1.46718
 Alpha virt. eigenvalues --    1.47105   1.47591   1.47756   1.48444   1.48845
 Alpha virt. eigenvalues --    1.49196   1.49803   1.50051   1.50893   1.50971
 Alpha virt. eigenvalues --    1.51457   1.52031   1.52257   1.52886   1.53381
 Alpha virt. eigenvalues --    1.53503   1.53827   1.53969   1.54617   1.55174
 Alpha virt. eigenvalues --    1.55391   1.56171   1.56481   1.56691   1.56957
 Alpha virt. eigenvalues --    1.57526   1.57866   1.58026   1.58756   1.59443
 Alpha virt. eigenvalues --    1.59737   1.60069   1.60208   1.60559   1.61403
 Alpha virt. eigenvalues --    1.61545   1.61860   1.61959   1.62469   1.63015
 Alpha virt. eigenvalues --    1.63266   1.63393   1.63968   1.64418   1.64761
 Alpha virt. eigenvalues --    1.65483   1.66114   1.66651   1.66676   1.66861
 Alpha virt. eigenvalues --    1.67519   1.67820   1.68213   1.68452   1.68725
 Alpha virt. eigenvalues --    1.68970   1.69497   1.69752   1.69830   1.70431
 Alpha virt. eigenvalues --    1.70634   1.71205   1.71308   1.71963   1.72128
 Alpha virt. eigenvalues --    1.72634   1.73184   1.73516   1.73724   1.73932
 Alpha virt. eigenvalues --    1.74665   1.74810   1.74963   1.75364   1.75504
 Alpha virt. eigenvalues --    1.76060   1.76320   1.76404   1.76906   1.77200
 Alpha virt. eigenvalues --    1.77739   1.77974   1.78264   1.78641   1.79588
 Alpha virt. eigenvalues --    1.79899   1.80044   1.80399   1.80948   1.81546
 Alpha virt. eigenvalues --    1.81796   1.82043   1.82329   1.82696   1.83011
 Alpha virt. eigenvalues --    1.83212   1.83587   1.83881   1.84080   1.84761
 Alpha virt. eigenvalues --    1.84923   1.85367   1.85680   1.86058   1.86200
 Alpha virt. eigenvalues --    1.86920   1.87503   1.87792   1.88582   1.89249
 Alpha virt. eigenvalues --    1.89561   1.90179   1.90414   1.90546   1.90804
 Alpha virt. eigenvalues --    1.91482   1.91678   1.91988   1.92469   1.93012
 Alpha virt. eigenvalues --    1.93490   1.94016   1.94178   1.94550   1.94917
 Alpha virt. eigenvalues --    1.95379   1.95469   1.95951   1.96308   1.97173
 Alpha virt. eigenvalues --    1.97243   1.97814   1.97960   1.98612   1.98958
 Alpha virt. eigenvalues --    1.99631   1.99999   2.00178   2.00446   2.01023
 Alpha virt. eigenvalues --    2.01807   2.01998   2.02694   2.02956   2.03607
 Alpha virt. eigenvalues --    2.04129   2.04265   2.04604   2.05382   2.05665
 Alpha virt. eigenvalues --    2.06104   2.06451   2.06809   2.07203   2.07749
 Alpha virt. eigenvalues --    2.07944   2.08480   2.09478   2.09707   2.10023
 Alpha virt. eigenvalues --    2.10182   2.10615   2.11248   2.11705   2.11958
 Alpha virt. eigenvalues --    2.12374   2.12713   2.14198   2.14599   2.15069
 Alpha virt. eigenvalues --    2.15191   2.16114   2.16757   2.17614   2.17796
 Alpha virt. eigenvalues --    2.18500   2.19181   2.19554   2.20100   2.20346
 Alpha virt. eigenvalues --    2.21054   2.21425   2.21802   2.22513   2.23464
 Alpha virt. eigenvalues --    2.23740   2.24085   2.24817   2.25167   2.25731
 Alpha virt. eigenvalues --    2.26391   2.26644   2.27625   2.27700   2.28295
 Alpha virt. eigenvalues --    2.28652   2.29467   2.30117   2.30380   2.30539
 Alpha virt. eigenvalues --    2.31471   2.32937   2.33721   2.34102   2.34347
 Alpha virt. eigenvalues --    2.35101   2.35891   2.36242   2.36433   2.36932
 Alpha virt. eigenvalues --    2.37936   2.38759   2.39095   2.39602   2.40163
 Alpha virt. eigenvalues --    2.40951   2.41629   2.42534   2.42815   2.43457
 Alpha virt. eigenvalues --    2.44197   2.45524   2.45799   2.46875   2.47691
 Alpha virt. eigenvalues --    2.48130   2.48566   2.49186   2.49885   2.50528
 Alpha virt. eigenvalues --    2.51005   2.51461   2.52143   2.52367   2.52723
 Alpha virt. eigenvalues --    2.53093   2.53787   2.54348   2.55347   2.55598
 Alpha virt. eigenvalues --    2.56117   2.56942   2.58679   2.59359   2.60030
 Alpha virt. eigenvalues --    2.60239   2.61152   2.61710   2.62249   2.62925
 Alpha virt. eigenvalues --    2.63525   2.64116   2.65530   2.65976   2.66407
 Alpha virt. eigenvalues --    2.67118   2.68437   2.68727   2.69439   2.70922
 Alpha virt. eigenvalues --    2.71769   2.72031   2.73234   2.73566   2.73783
 Alpha virt. eigenvalues --    2.74140   2.75070   2.75430   2.76123   2.77629
 Alpha virt. eigenvalues --    2.78094   2.78379   2.79272   2.79832   2.80055
 Alpha virt. eigenvalues --    2.80966   2.81138   2.82149   2.82587   2.83996
 Alpha virt. eigenvalues --    2.84297   2.84803   2.85706   2.85878   2.86531
 Alpha virt. eigenvalues --    2.87668   2.88418   2.89539   2.90103   2.90343
 Alpha virt. eigenvalues --    2.91055   2.91795   2.92050   2.92470   2.92911
 Alpha virt. eigenvalues --    2.94405   2.95617   2.96663   2.96904   2.97943
 Alpha virt. eigenvalues --    2.98213   2.99700   2.99810   3.00513   3.01342
 Alpha virt. eigenvalues --    3.01546   3.03014   3.04127   3.04636   3.05239
 Alpha virt. eigenvalues --    3.06118   3.06841   3.07768   3.07792   3.09045
 Alpha virt. eigenvalues --    3.09505   3.09806   3.10735   3.11066   3.12026
 Alpha virt. eigenvalues --    3.12231   3.13173   3.13928   3.14836   3.15603
 Alpha virt. eigenvalues --    3.15794   3.16554   3.16765   3.17317   3.17961
 Alpha virt. eigenvalues --    3.18960   3.19825   3.20485   3.20780   3.22592
 Alpha virt. eigenvalues --    3.23251   3.23515   3.24149   3.24719   3.25555
 Alpha virt. eigenvalues --    3.26382   3.27542   3.28308   3.28837   3.29403
 Alpha virt. eigenvalues --    3.29928   3.30462   3.32067   3.32301   3.33004
 Alpha virt. eigenvalues --    3.33653   3.34047   3.34735   3.35139   3.36043
 Alpha virt. eigenvalues --    3.36868   3.38336   3.39204   3.39571   3.39846
 Alpha virt. eigenvalues --    3.40446   3.40819   3.41612   3.41930   3.42172
 Alpha virt. eigenvalues --    3.43122   3.43213   3.43673   3.44605   3.45620
 Alpha virt. eigenvalues --    3.46362   3.46664   3.47076   3.47490   3.48402
 Alpha virt. eigenvalues --    3.48986   3.49683   3.50011   3.50259   3.51844
 Alpha virt. eigenvalues --    3.52409   3.52896   3.53103   3.53707   3.54721
 Alpha virt. eigenvalues --    3.54896   3.55283   3.56202   3.56916   3.57334
 Alpha virt. eigenvalues --    3.57537   3.57953   3.58818   3.59042   3.59820
 Alpha virt. eigenvalues --    3.60117   3.60333   3.61802   3.62217   3.62415
 Alpha virt. eigenvalues --    3.63041   3.64305   3.64769   3.65510   3.65689
 Alpha virt. eigenvalues --    3.66490   3.66908   3.67365   3.67769   3.68002
 Alpha virt. eigenvalues --    3.69020   3.69140   3.70889   3.71199   3.71334
 Alpha virt. eigenvalues --    3.71758   3.71984   3.72154   3.72667   3.73200
 Alpha virt. eigenvalues --    3.73441   3.74210   3.74585   3.74771   3.75003
 Alpha virt. eigenvalues --    3.75277   3.76014   3.76751   3.77745   3.78340
 Alpha virt. eigenvalues --    3.79280   3.79910   3.80169   3.80653   3.80942
 Alpha virt. eigenvalues --    3.81415   3.81521   3.82292   3.83241   3.83803
 Alpha virt. eigenvalues --    3.84040   3.84533   3.85169   3.85944   3.86494
 Alpha virt. eigenvalues --    3.86798   3.86868   3.87572   3.87874   3.88354
 Alpha virt. eigenvalues --    3.88737   3.89289   3.90123   3.90554   3.90722
 Alpha virt. eigenvalues --    3.91534   3.91610   3.92755   3.92920   3.93434
 Alpha virt. eigenvalues --    3.93628   3.93811   3.94638   3.95192   3.95408
 Alpha virt. eigenvalues --    3.96627   3.97074   3.97647   3.98186   3.98726
 Alpha virt. eigenvalues --    3.99305   3.99605   4.00564   4.01096   4.01485
 Alpha virt. eigenvalues --    4.02619   4.03027   4.03342   4.04103   4.04417
 Alpha virt. eigenvalues --    4.04516   4.04789   4.05430   4.06130   4.06637
 Alpha virt. eigenvalues --    4.07849   4.07980   4.08985   4.09713   4.10801
 Alpha virt. eigenvalues --    4.11910   4.12081   4.12868   4.12997   4.13552
 Alpha virt. eigenvalues --    4.14114   4.14856   4.15852   4.16323   4.16843
 Alpha virt. eigenvalues --    4.17111   4.17992   4.18548   4.18863   4.19339
 Alpha virt. eigenvalues --    4.19419   4.19698   4.20029   4.20529   4.21620
 Alpha virt. eigenvalues --    4.21873   4.22066   4.22649   4.22927   4.23293
 Alpha virt. eigenvalues --    4.24596   4.24984   4.25896   4.26801   4.27054
 Alpha virt. eigenvalues --    4.27648   4.28126   4.28730   4.29419   4.29878
 Alpha virt. eigenvalues --    4.30342   4.30555   4.31466   4.32225   4.33074
 Alpha virt. eigenvalues --    4.33636   4.34249   4.34431   4.35015   4.35353
 Alpha virt. eigenvalues --    4.36111   4.36428   4.37709   4.38335   4.39709
 Alpha virt. eigenvalues --    4.40545   4.40747   4.41480   4.42124   4.42167
 Alpha virt. eigenvalues --    4.42637   4.43765   4.44154   4.45028   4.46170
 Alpha virt. eigenvalues --    4.46547   4.47665   4.48701   4.49088   4.49680
 Alpha virt. eigenvalues --    4.50094   4.51029   4.51535   4.51877   4.52727
 Alpha virt. eigenvalues --    4.53450   4.54130   4.55457   4.56935   4.57736
 Alpha virt. eigenvalues --    4.58182   4.58763   4.59762   4.59894   4.60252
 Alpha virt. eigenvalues --    4.60569   4.61468   4.63709   4.63996   4.64212
 Alpha virt. eigenvalues --    4.65055   4.65320   4.65972   4.66732   4.67384
 Alpha virt. eigenvalues --    4.68262   4.68708   4.68917   4.70163   4.70395
 Alpha virt. eigenvalues --    4.70975   4.71771   4.73112   4.73603   4.74079
 Alpha virt. eigenvalues --    4.74770   4.75505   4.76011   4.76968   4.77707
 Alpha virt. eigenvalues --    4.78897   4.79044   4.79615   4.80747   4.81439
 Alpha virt. eigenvalues --    4.81816   4.82212   4.83167   4.83438   4.83641
 Alpha virt. eigenvalues --    4.84035   4.85219   4.85583   4.86218   4.87498
 Alpha virt. eigenvalues --    4.88406   4.90311   4.91288   4.92737   4.93225
 Alpha virt. eigenvalues --    4.93935   4.94696   4.95423   4.96131   4.96495
 Alpha virt. eigenvalues --    4.96598   4.97494   4.97871   4.98983   4.99635
 Alpha virt. eigenvalues --    5.00655   5.02125   5.02570   5.03625   5.03889
 Alpha virt. eigenvalues --    5.05240   5.05812   5.06949   5.07961   5.08835
 Alpha virt. eigenvalues --    5.09043   5.09556   5.10749   5.11535   5.12426
 Alpha virt. eigenvalues --    5.12763   5.12857   5.14048   5.15124   5.15550
 Alpha virt. eigenvalues --    5.16200   5.17283   5.18400   5.18775   5.19532
 Alpha virt. eigenvalues --    5.19767   5.21205   5.21686   5.22580   5.23533
 Alpha virt. eigenvalues --    5.24104   5.24840   5.25351   5.26187   5.26574
 Alpha virt. eigenvalues --    5.27544   5.27848   5.28245   5.28852   5.29725
 Alpha virt. eigenvalues --    5.30999   5.32159   5.32477   5.33111   5.34649
 Alpha virt. eigenvalues --    5.34782   5.35720   5.36415   5.37391   5.39784
 Alpha virt. eigenvalues --    5.40814   5.41503   5.42428   5.43738   5.45165
 Alpha virt. eigenvalues --    5.46876   5.47006   5.47287   5.49364   5.49891
 Alpha virt. eigenvalues --    5.50559   5.52186   5.53322   5.55501   5.56709
 Alpha virt. eigenvalues --    5.57576   5.58195   5.58543   5.58879   5.61173
 Alpha virt. eigenvalues --    5.61612   5.62851   5.63091   5.64715   5.66363
 Alpha virt. eigenvalues --    5.67600   5.67663   5.68148   5.68947   5.69154
 Alpha virt. eigenvalues --    5.71649   5.72012   5.73473   5.74501   5.77569
 Alpha virt. eigenvalues --    5.77992   5.78830   5.80000   5.80495   5.82036
 Alpha virt. eigenvalues --    5.82299   5.83318   5.83959   5.84437   5.84818
 Alpha virt. eigenvalues --    5.86542   5.88647   5.90493   5.91681   5.92500
 Alpha virt. eigenvalues --    5.95061   5.95710   5.97477   5.98669   5.99285
 Alpha virt. eigenvalues --    6.00390   6.01369   6.05099   6.05687   6.06057
 Alpha virt. eigenvalues --    6.08052   6.10722   6.11383   6.13519   6.13749
 Alpha virt. eigenvalues --    6.14520   6.15880   6.16320   6.16654   6.17831
 Alpha virt. eigenvalues --    6.18491   6.19671   6.21378   6.23521   6.23860
 Alpha virt. eigenvalues --    6.25632   6.28623   6.31157   6.32499   6.35475
 Alpha virt. eigenvalues --    6.36191   6.37191   6.39884   6.41543   6.43613
 Alpha virt. eigenvalues --    6.45748   6.47084   6.51198   6.56068   6.60827
 Alpha virt. eigenvalues --    6.64554   6.67868   6.70230   6.71130   6.71534
 Alpha virt. eigenvalues --    6.75330   6.77950   6.78242   6.79267   6.79527
 Alpha virt. eigenvalues --    6.82102   6.82700   6.85001   6.87162   6.90254
 Alpha virt. eigenvalues --    6.91225   6.92542   6.93262   6.95155   6.97536
 Alpha virt. eigenvalues --    6.99629   7.00281   7.03921   7.05587   7.06931
 Alpha virt. eigenvalues --    7.07890   7.10261   7.13308   7.16805   7.17294
 Alpha virt. eigenvalues --    7.17932   7.19359   7.22312   7.23212   7.23548
 Alpha virt. eigenvalues --    7.29225   7.35511   7.36360   7.36913   7.37440
 Alpha virt. eigenvalues --    7.38226   7.39786   7.43772   7.47164   7.48950
 Alpha virt. eigenvalues --    7.52267   7.64748   7.65662   7.68161   7.69997
 Alpha virt. eigenvalues --    7.71734   7.76211   7.79352   7.88632   7.95389
 Alpha virt. eigenvalues --    7.99001   8.01733   8.08273   8.09830   8.13146
 Alpha virt. eigenvalues --    8.33044   8.46091   8.57048   8.81472   8.84290
 Alpha virt. eigenvalues --    8.86068   8.89799   8.90851   8.95635   9.04419
 Alpha virt. eigenvalues --    9.05503   9.17168   9.20331   9.22097   9.22512
 Alpha virt. eigenvalues --    9.23163   9.26013   9.27899   9.29826   9.31637
 Alpha virt. eigenvalues --    9.32959   9.36510   9.37800   9.38309   9.40757
 Alpha virt. eigenvalues --    9.43694   9.45943   9.47111   9.47392   9.55663
 Alpha virt. eigenvalues --    9.56745   9.59077   9.60089   9.69336   9.79644
 Alpha virt. eigenvalues --    9.80857   9.87434  10.01635  10.09170  15.30152
 Alpha virt. eigenvalues --   15.78195  15.80571  15.97375  16.29471  16.33023
 Alpha virt. eigenvalues --   16.50431  16.96743  17.42918  17.80877  18.17706
 Alpha virt. eigenvalues --   18.40385  18.54786  18.66300  18.99174  19.41325
 Alpha virt. eigenvalues --   19.72522  20.52384  20.75228  21.13837  21.79388
 Alpha virt. eigenvalues --   22.18908
          Condensed to atoms (all electrons):
               1          2          3          4          5          6
     1  C    9.867801  -0.472991  -0.968170   0.080311   0.024938  -0.018264
     2  N   -0.472991   9.135805   0.884332  -0.221364  -0.815544  -0.172902
     3  C   -0.968170   0.884332   7.197201   0.384853  -0.018083  -0.560011
     4  O    0.080311  -0.221364   0.384853   9.179778  -0.195143   0.026190
     5  N    0.024938  -0.815544  -0.018083  -0.195143   8.668418   0.459453
     6  C   -0.018264  -0.172902  -0.560011   0.026190   0.459453   6.676091
     7  C   -0.000552  -0.009163   0.040456  -0.011006   0.025909  -0.091897
     8  C    0.001829  -0.000300   0.002654   0.001144  -0.040336   0.006512
     9  C   -1.067914  -0.304318  -0.054612  -0.011548  -0.029528  -0.016849
    10  C   -0.513898   0.212233  -0.039833   0.004800   0.015317  -0.000601
    11  C   -0.307054  -0.016661   0.027582  -0.007888   0.013783   0.001008
    12  C   -0.151997   0.146121  -0.003283   0.022434   0.000550   0.003597
    13  C   -0.880744  -0.394012  -0.064968  -0.127848  -0.099237  -0.049897
    14  H   -0.408717  -0.668068  -0.438674  -0.008889   0.348332  -0.015492
    15  H   -0.099410   0.276571  -0.172195  -0.079212  -0.821274  -0.439149
    16  H   -0.000156   0.012194  -0.060856  -0.012611  -0.094678   0.361794
    17  H    0.001713  -0.000278  -0.050004   0.015155  -0.023350   0.418114
    18  H    0.002617   0.000215   0.011238  -0.003400  -0.026729  -0.005275
    19  H    0.000065   0.001383   0.017280   0.001287  -0.020901  -0.022686
    20  H    0.000295  -0.000094   0.002143  -0.000467   0.003619  -0.012215
    21  H   -0.000107  -0.000006   0.000079   0.000091  -0.000399  -0.006589
    22  H    0.000351  -0.000351   0.002894   0.000480   0.002678  -0.009855
    23  H   -0.327874  -0.047866   0.052656  -0.000278   0.024126   0.011351
    24  Cl   0.088151  -0.015634   0.013017  -0.000178   0.000047   0.000621
    25  C   -0.055643   0.006168  -0.001704  -0.000844   0.000830   0.000154
    26  H   -0.001668  -0.011748   0.027679   0.000871   0.001589   0.001588
    27  H    0.136331   0.026621  -0.044082  -0.039406  -0.025707  -0.013801
    28  F   -0.021305   0.003714   0.000591   0.000020   0.000105   0.000015
    29  F   -0.003706  -0.000570  -0.000619   0.000021  -0.000034  -0.000007
    30  F   -0.006579  -0.000077  -0.000913  -0.000001  -0.000046  -0.000028
    31  O    0.004853  -0.060095   0.000125  -0.002575  -0.025807  -0.010079
    32  O    0.005436   0.022656  -0.002039  -0.004468  -0.055565  -0.063438
    33  C   -0.028057  -0.054402   0.005842  -0.005902  -0.012068   0.011378
    34  C    0.011709  -0.024536  -0.015140  -0.000950   0.008309   0.007640
    35  C   -0.000960  -0.001605  -0.000477  -0.000043   0.000752  -0.001225
    36  H    0.001869  -0.004315  -0.000887  -0.000030   0.003796   0.000879
    37  H    0.001897  -0.003968  -0.000801  -0.000041   0.003050   0.000891
    38  H   -0.000285   0.000001   0.000018   0.000002  -0.000949   0.000575
    39  H   -0.000190   0.000240   0.000283  -0.000002  -0.000406  -0.000574
    40  H   -0.000090  -0.000134  -0.000112  -0.000011   0.000576  -0.000067
               7          8          9         10         11         12
     1  C   -0.000552   0.001829  -1.067914  -0.513898  -0.307054  -0.151997
     2  N   -0.009163  -0.000300  -0.304318   0.212233  -0.016661   0.146121
     3  C    0.040456   0.002654  -0.054612  -0.039833   0.027582  -0.003283
     4  O   -0.011006   0.001144  -0.011548   0.004800  -0.007888   0.022434
     5  N    0.025909  -0.040336  -0.029528   0.015317   0.013783   0.000550
     6  C   -0.091897   0.006512  -0.016849  -0.000601   0.001008   0.003597
     7  C    5.742961   0.022744   0.003510  -0.000325   0.000063  -0.000083
     8  C    0.022744   5.918941  -0.000245  -0.000141   0.000024  -0.000064
     9  C    0.003510  -0.000245   9.827572  -0.591090   0.299010  -0.484017
    10  C   -0.000325  -0.000141  -0.591090   7.406342  -0.801567   0.394061
    11  C    0.000063   0.000024   0.299010  -0.801567   8.337891  -1.270431
    12  C   -0.000083  -0.000064  -0.484017   0.394061  -1.270431   9.386080
    13  C   -0.002159   0.000008   0.165378   0.020644  -0.039913  -0.598153
    14  H    0.006914   0.000819  -0.149889  -0.025889   0.024474  -0.069882
    15  H    0.001760   0.004940  -0.003526  -0.002253  -0.005934   0.003106
    16  H   -0.029861  -0.012672   0.001197  -0.000106   0.000084   0.000571
    17  H   -0.016106  -0.012675  -0.000917  -0.000174   0.000380  -0.000821
    18  H    0.323737  -0.034507  -0.001072  -0.000040   0.000028   0.000164
    19  H    0.388439  -0.042914  -0.000479   0.000004   0.000016   0.000094
    20  H    0.021789   0.381272   0.000039   0.000000  -0.000003   0.000024
    21  H   -0.020150   0.453962   0.000040  -0.000010   0.000002  -0.000012
    22  H    0.018050   0.390303  -0.000058  -0.000003   0.000000  -0.000009
    23  H   -0.002718  -0.000132  -0.323364  -0.368001   0.094585   0.041591
    24  Cl  -0.000082   0.000000  -0.178379  -0.237318  -0.000515   0.040115
    25  C    0.000011   0.000000   0.132675  -0.218290  -0.547904  -0.432648
    26  H   -0.000081  -0.000013   0.036655  -0.117901  -0.007611  -0.024904
    27  H   -0.000137   0.000048  -0.020038  -0.033013   0.049982  -0.254871
    28  F    0.000001   0.000000  -0.013037   0.033987  -0.011409  -0.029433
    29  F    0.000001   0.000000  -0.005455  -0.014652   0.072855  -0.033582
    30  F    0.000000   0.000000  -0.002213  -0.015257   0.067692  -0.031511
    31  O    0.005064   0.001954   0.024610   0.036352  -0.007769   0.006023
    32  O   -0.017896  -0.005371   0.026206   0.001258  -0.000109   0.000850
    33  C   -0.004727  -0.001590  -0.029925   0.008624  -0.002763   0.001045
    34  C   -0.000947  -0.000273  -0.021400   0.002915  -0.000230   0.000457
    35  C    0.002976  -0.000569   0.001222   0.000014   0.000036   0.000051
    36  H   -0.000627  -0.000103  -0.008744   0.001030  -0.000041  -0.000021
    37  H   -0.000905  -0.000127  -0.009143   0.000951  -0.000030  -0.000015
    38  H   -0.000184   0.000327   0.000397  -0.000112   0.000021  -0.000005
    39  H    0.000286  -0.000061   0.000505   0.000024  -0.000006   0.000005
    40  H   -0.000314  -0.000017   0.000147  -0.000106   0.000017  -0.000003
              13         14         15         16         17         18
     1  C   -0.880744  -0.408717  -0.099410  -0.000156   0.001713   0.002617
     2  N   -0.394012  -0.668068   0.276571   0.012194  -0.000278   0.000215
     3  C   -0.064968  -0.438674  -0.172195  -0.060856  -0.050004   0.011238
     4  O   -0.127848  -0.008889  -0.079212  -0.012611   0.015155  -0.003400
     5  N   -0.099237   0.348332  -0.821274  -0.094678  -0.023350  -0.026729
     6  C   -0.049897  -0.015492  -0.439149   0.361794   0.418114  -0.005275
     7  C   -0.002159   0.006914   0.001760  -0.029861  -0.016106   0.323737
     8  C    0.000008   0.000819   0.004940  -0.012672  -0.012675  -0.034507
     9  C    0.165378  -0.149889  -0.003526   0.001197  -0.000917  -0.001072
    10  C    0.020644  -0.025889  -0.002253  -0.000106  -0.000174  -0.000040
    11  C   -0.039913   0.024474  -0.005934   0.000084   0.000380   0.000028
    12  C   -0.598153  -0.069882   0.003106   0.000571  -0.000821   0.000164
    13  C    8.775533   0.036561   0.033191   0.001697   0.003116  -0.001009
    14  H    0.036561   2.024026  -0.175515   0.004617  -0.002796   0.004951
    15  H    0.033191  -0.175515   1.757166   0.045937  -0.014547   0.006175
    16  H    0.001697   0.004617   0.045937   0.443141   0.015602   0.017216
    17  H    0.003116  -0.002796  -0.014547   0.015602   0.435644  -0.013233
    18  H   -0.001009   0.004951   0.006175   0.017216  -0.013233   0.443164
    19  H   -0.000304  -0.000599  -0.004981  -0.016441   0.018286   0.013358
    20  H   -0.000105  -0.000045   0.000584  -0.006006  -0.010962   0.006895
    21  H    0.000035  -0.000478   0.002173  -0.002179  -0.000261  -0.019912
    22  H    0.000014   0.000067  -0.001519  -0.010043  -0.005967  -0.000559
    23  H   -0.071746  -0.155668   0.008993   0.000445   0.000598  -0.000761
    24  Cl   0.000877  -0.018723   0.002703   0.000021   0.000031  -0.000034
    25  C    0.035356   0.001823  -0.000674   0.000017   0.000015   0.000008
    26  H   -0.120829   0.001667  -0.000443   0.000169   0.000178   0.000014
    27  H    0.098829   0.003735  -0.000649  -0.002162  -0.001080   0.000082
    28  F    0.026380   0.000416  -0.000051   0.000001   0.000002   0.000001
    29  F    0.000921  -0.000100   0.000007  -0.000001  -0.000004   0.000001
    30  F    0.000237  -0.000322   0.000035  -0.000002  -0.000002  -0.000001
    31  O   -0.006653  -0.189612  -0.068541  -0.000088  -0.000926  -0.000325
    32  O    0.003612  -0.006590  -0.156434   0.002246   0.000349  -0.002118
    33  C    0.003751   0.030956  -0.012310   0.003008   0.000046   0.001722
    34  C   -0.000663   0.012638   0.014452   0.000797   0.000551   0.002912
    35  C   -0.000028   0.005923  -0.007010   0.000015   0.000156  -0.000564
    36  H   -0.000282  -0.001715   0.005195   0.000066   0.000049   0.000106
    37  H   -0.000197   0.000684   0.004083   0.000051   0.000085   0.000087
    38  H    0.000012   0.002215  -0.003261   0.000019  -0.000003  -0.000051
    39  H    0.000020  -0.000893   0.001942  -0.000009  -0.000006  -0.000206
    40  H   -0.000031   0.001251  -0.001033   0.000008  -0.000047   0.000539
              19         20         21         22         23         24
     1  C    0.000065   0.000295  -0.000107   0.000351  -0.327874   0.088151
     2  N    0.001383  -0.000094  -0.000006  -0.000351  -0.047866  -0.015634
     3  C    0.017280   0.002143   0.000079   0.002894   0.052656   0.013017
     4  O    0.001287  -0.000467   0.000091   0.000480  -0.000278  -0.000178
     5  N   -0.020901   0.003619  -0.000399   0.002678   0.024126   0.000047
     6  C   -0.022686  -0.012215  -0.006589  -0.009855   0.011351   0.000621
     7  C    0.388439   0.021789  -0.020150   0.018050  -0.002718  -0.000082
     8  C   -0.042914   0.381272   0.453962   0.390303  -0.000132   0.000000
     9  C   -0.000479   0.000039   0.000040  -0.000058  -0.323364  -0.178379
    10  C    0.000004   0.000000  -0.000010  -0.000003  -0.368001  -0.237318
    11  C    0.000016  -0.000003   0.000002   0.000000   0.094585  -0.000515
    12  C    0.000094   0.000024  -0.000012  -0.000009   0.041591   0.040115
    13  C   -0.000304  -0.000105   0.000035   0.000014  -0.071746   0.000877
    14  H   -0.000599  -0.000045  -0.000478   0.000067  -0.155668  -0.018723
    15  H   -0.004981   0.000584   0.002173  -0.001519   0.008993   0.002703
    16  H   -0.016441  -0.006006  -0.002179  -0.010043   0.000445   0.000021
    17  H    0.018286  -0.010962  -0.000261  -0.005967   0.000598   0.000031
    18  H    0.013358   0.006895  -0.019912  -0.000559  -0.000761  -0.000034
    19  H    0.446747  -0.000822  -0.005994   0.001710  -0.000008   0.000000
    20  H   -0.000822   0.332873  -0.006634   0.018150  -0.000003  -0.000001
    21  H   -0.005994  -0.006634   0.334448   0.000908   0.000006   0.000000
    22  H    0.001710   0.018150   0.000908   0.323811  -0.000016  -0.000001
    23  H   -0.000008  -0.000003   0.000006  -0.000016   1.464704   0.045999
    24  Cl   0.000000  -0.000001   0.000000  -0.000001   0.045999  17.837677
    25  C    0.000003  -0.000000  -0.000000  -0.000000   0.001314  -0.051825
    26  H    0.000018  -0.000004  -0.000001  -0.000004   0.004244  -0.004294
    27  H    0.000019   0.000050   0.000003   0.000058  -0.017764  -0.001923
    28  F    0.000000   0.000000  -0.000000   0.000000  -0.000383   0.011121
    29  F   -0.000001  -0.000000   0.000000   0.000000  -0.002222  -0.011143
    30  F    0.000000   0.000000   0.000000  -0.000000  -0.001974  -0.011555
    31  O    0.000519   0.000130   0.000195   0.000025  -0.016331   0.004177
    32  O    0.001502  -0.000242   0.000672  -0.000702  -0.001354  -0.000184
    33  C   -0.001620  -0.000140  -0.000279  -0.000148   0.009684   0.003718
    34  C    0.000479  -0.000061  -0.000229  -0.000036  -0.002750  -0.000337
    35  C    0.000061  -0.000018   0.000093  -0.000052  -0.000941   0.000022
    36  H    0.000100  -0.000018  -0.000024  -0.000005   0.003017  -0.000013
    37  H    0.000111  -0.000018  -0.000026  -0.000006   0.003344  -0.000004
    38  H   -0.000048   0.000040  -0.000015   0.000022  -0.000124  -0.000001
    39  H   -0.000014  -0.000003   0.000027  -0.000010   0.000045   0.000012
    40  H   -0.000032  -0.000008  -0.000004  -0.000002  -0.000174  -0.000004
              25         26         27         28         29         30
     1  C   -0.055643  -0.001668   0.136331  -0.021305  -0.003706  -0.006579
     2  N    0.006168  -0.011748   0.026621   0.003714  -0.000570  -0.000077
     3  C   -0.001704   0.027679  -0.044082   0.000591  -0.000619  -0.000913
     4  O   -0.000844   0.000871  -0.039406   0.000020   0.000021  -0.000001
     5  N    0.000830   0.001589  -0.025707   0.000105  -0.000034  -0.000046
     6  C    0.000154   0.001588  -0.013801   0.000015  -0.000007  -0.000028
     7  C    0.000011  -0.000081  -0.000137   0.000001   0.000001   0.000000
     8  C    0.000000  -0.000013   0.000048   0.000000   0.000000   0.000000
     9  C    0.132675   0.036655  -0.020038  -0.013037  -0.005455  -0.002213
    10  C   -0.218290  -0.117901  -0.033013   0.033987  -0.014652  -0.015257
    11  C   -0.547904  -0.007611   0.049982  -0.011409   0.072855   0.067692
    12  C   -0.432648  -0.024904  -0.254871  -0.029433  -0.033582  -0.031511
    13  C    0.035356  -0.120829   0.098829   0.026380   0.000921   0.000237
    14  H    0.001823   0.001667   0.003735   0.000416  -0.000100  -0.000322
    15  H   -0.000674  -0.000443  -0.000649  -0.000051   0.000007   0.000035
    16  H    0.000017   0.000169  -0.002162   0.000001  -0.000001  -0.000002
    17  H    0.000015   0.000178  -0.001080   0.000002  -0.000004  -0.000002
    18  H    0.000008   0.000014   0.000082   0.000001   0.000001  -0.000001
    19  H    0.000003   0.000018   0.000019   0.000000  -0.000001   0.000000
    20  H   -0.000000  -0.000004   0.000050   0.000000  -0.000000   0.000000
    21  H   -0.000000  -0.000001   0.000003  -0.000000   0.000000   0.000000
    22  H   -0.000000  -0.000004   0.000058   0.000000   0.000000  -0.000000
    23  H    0.001314   0.004244  -0.017764  -0.000383  -0.002222  -0.001974
    24  Cl  -0.051825  -0.004294  -0.001923   0.011121  -0.011143  -0.011555
    25  C    5.506535  -0.088311  -0.001639   0.171906   0.154965   0.159602
    26  H   -0.088311   0.929750   0.025025  -0.014444   0.000394   0.000073
    27  H   -0.001639   0.025025   0.648751  -0.001458   0.000287   0.000308
    28  F    0.171906  -0.014444  -0.001458   9.361610  -0.069246  -0.069136
    29  F    0.154965   0.000394   0.000287  -0.069246   9.347357  -0.018132
    30  F    0.159602   0.000073   0.000308  -0.069136  -0.018132   9.347542
    31  O    0.000233   0.000441  -0.001481   0.000008  -0.000001  -0.000015
    32  O   -0.000020   0.000034   0.000556  -0.000001   0.000000   0.000000
    33  C    0.000005   0.000326  -0.000361   0.000015  -0.000017   0.000027
    34  C    0.000077   0.000070  -0.000189  -0.000001  -0.000010  -0.000009
    35  C    0.000003   0.000005   0.000007   0.000000  -0.000000   0.000000
    36  H    0.000005   0.000015  -0.000027  -0.000000  -0.000005  -0.000002
    37  H   -0.000002   0.000012  -0.000032  -0.000001  -0.000002  -0.000004
    38  H    0.000000   0.000000  -0.000006   0.000000  -0.000000  -0.000000
    39  H   -0.000000   0.000000   0.000007  -0.000000   0.000000   0.000000
    40  H    0.000001  -0.000000  -0.000001   0.000000  -0.000000   0.000000
              31         32         33         34         35         36
     1  C    0.004853   0.005436  -0.028057   0.011709  -0.000960   0.001869
     2  N   -0.060095   0.022656  -0.054402  -0.024536  -0.001605  -0.004315
     3  C    0.000125  -0.002039   0.005842  -0.015140  -0.000477  -0.000887
     4  O   -0.002575  -0.004468  -0.005902  -0.000950  -0.000043  -0.000030
     5  N   -0.025807  -0.055565  -0.012068   0.008309   0.000752   0.003796
     6  C   -0.010079  -0.063438   0.011378   0.007640  -0.001225   0.000879
     7  C    0.005064  -0.017896  -0.004727  -0.000947   0.002976  -0.000627
     8  C    0.001954  -0.005371  -0.001590  -0.000273  -0.000569  -0.000103
     9  C    0.024610   0.026206  -0.029925  -0.021400   0.001222  -0.008744
    10  C    0.036352   0.001258   0.008624   0.002915   0.000014   0.001030
    11  C   -0.007769  -0.000109  -0.002763  -0.000230   0.000036  -0.000041
    12  C    0.006023   0.000850   0.001045   0.000457   0.000051  -0.000021
    13  C   -0.006653   0.003612   0.003751  -0.000663  -0.000028  -0.000282
    14  H   -0.189612  -0.006590   0.030956   0.012638   0.005923  -0.001715
    15  H   -0.068541  -0.156434  -0.012310   0.014452  -0.007010   0.005195
    16  H   -0.000088   0.002246   0.003008   0.000797   0.000015   0.000066
    17  H   -0.000926   0.000349   0.000046   0.000551   0.000156   0.000049
    18  H   -0.000325  -0.002118   0.001722   0.002912  -0.000564   0.000106
    19  H    0.000519   0.001502  -0.001620   0.000479   0.000061   0.000100
    20  H    0.000130  -0.000242  -0.000140  -0.000061  -0.000018  -0.000018
    21  H    0.000195   0.000672  -0.000279  -0.000229   0.000093  -0.000024
    22  H    0.000025  -0.000702  -0.000148  -0.000036  -0.000052  -0.000005
    23  H   -0.016331  -0.001354   0.009684  -0.002750  -0.000941   0.003017
    24  Cl   0.004177  -0.000184   0.003718  -0.000337   0.000022  -0.000013
    25  C    0.000233  -0.000020   0.000005   0.000077   0.000003   0.000005
    26  H    0.000441   0.000034   0.000326   0.000070   0.000005   0.000015
    27  H   -0.001481   0.000556  -0.000361  -0.000189   0.000007  -0.000027
    28  F    0.000008  -0.000001   0.000015  -0.000001   0.000000  -0.000000
    29  F   -0.000001   0.000000  -0.000017  -0.000010  -0.000000  -0.000005
    30  F   -0.000015   0.000000   0.000027  -0.000009   0.000000  -0.000002
    31  O    9.215114   0.010334   0.400365  -0.300087  -0.012389  -0.047129
    32  O    0.010334   8.966980   0.323371  -0.145324  -0.035104  -0.032338
    33  C    0.400365   0.323371   5.262067  -0.483200   0.021528  -0.048071
    34  C   -0.300087  -0.145324  -0.483200   6.096279   0.089265   0.502537
    35  C   -0.012389  -0.035104   0.021528   0.089265   5.767198  -0.044019
    36  H   -0.047129  -0.032338  -0.048071   0.502537  -0.044019   0.430744
    37  H   -0.054592  -0.035673  -0.050951   0.514444  -0.041511   0.057118
    38  H    0.003929   0.011362  -0.009949   0.034609   0.366172  -0.003186
    39  H    0.001678  -0.011235   0.020521  -0.060662   0.456785  -0.012720
    40  H    0.002747   0.014446  -0.015576   0.036974   0.362987  -0.000039
              37         38         39         40
     1  C    0.001897  -0.000285  -0.000190  -0.000090
     2  N   -0.003968   0.000001   0.000240  -0.000134
     3  C   -0.000801   0.000018   0.000283  -0.000112
     4  O   -0.000041   0.000002  -0.000002  -0.000011
     5  N    0.003050  -0.000949  -0.000406   0.000576
     6  C    0.000891   0.000575  -0.000574  -0.000067
     7  C   -0.000905  -0.000184   0.000286  -0.000314
     8  C   -0.000127   0.000327  -0.000061  -0.000017
     9  C   -0.009143   0.000397   0.000505   0.000147
    10  C    0.000951  -0.000112   0.000024  -0.000106
    11  C   -0.000030   0.000021  -0.000006   0.000017
    12  C   -0.000015  -0.000005   0.000005  -0.000003
    13  C   -0.000197   0.000012   0.000020  -0.000031
    14  H    0.000684   0.002215  -0.000893   0.001251
    15  H    0.004083  -0.003261   0.001942  -0.001033
    16  H    0.000051   0.000019  -0.000009   0.000008
    17  H    0.000085  -0.000003  -0.000006  -0.000047
    18  H    0.000087  -0.000051  -0.000206   0.000539
    19  H    0.000111  -0.000048  -0.000014  -0.000032
    20  H   -0.000018   0.000040  -0.000003  -0.000008
    21  H   -0.000026  -0.000015   0.000027  -0.000004
    22  H   -0.000006   0.000022  -0.000010  -0.000002
    23  H    0.003344  -0.000124   0.000045  -0.000174
    24  Cl  -0.000004  -0.000001   0.000012  -0.000004
    25  C   -0.000002   0.000000  -0.000000   0.000001
    26  H    0.000012   0.000000   0.000000  -0.000000
    27  H   -0.000032  -0.000006   0.000007  -0.000001
    28  F   -0.000001   0.000000  -0.000000   0.000000
    29  F   -0.000002  -0.000000   0.000000  -0.000000
    30  F   -0.000004  -0.000000   0.000000   0.000000
    31  O   -0.054592   0.003929   0.001678   0.002747
    32  O   -0.035673   0.011362  -0.011235   0.014446
    33  C   -0.050951  -0.009949   0.020521  -0.015576
    34  C    0.514444   0.034609  -0.060662   0.036974
    35  C   -0.041511   0.366172   0.456785   0.362987
[...]
                                                    712(r),369(r),267(r),261(r)
                                                    1347(r),1421(r),167(r)
                                                    1387(r),620(r),586(r),687(r)
                                                    1153(v),258(r),438(r),648(r)
                                                    292(r),195(r),490(r),1090(g)
                                                    1141(v),1200(g),265(r)
                                                    1310(r),1366(r),1254(r)
                                                    334(r),440(r),823(r),1161(v)
                                                    1134(v),1344(r),1255(r)
                                                    474(r),732(r),1130(v),937(r)
                                                    1271(r),185(r),1228(v)
                                                    324(r),350(r),1274(r),621(r)
                                                    691(r),1209(v),799(r),183(r)
                                                    1405(r),1094(g),1289(r)
                                                    477(r),351(r),638(r),274(r)
                                                    1123(v),1318(r),1412(r)
                                                    332(r),266(r),352(r),1226(v)
                                                    347(r),1120(g),1099(g)
                                                    1170(g),484(r),262(r),669(r)
                                                    293(r),643(r),1118(g),519(r)
                                                    152(r),1087(g),264(r)
                                                    1146(v),464(r),1105(g)
                                                    739(r),1359(r),288(r),379(r)
                                                    269(r),1199(g),599(r)
                                                    1323(r),546(r),1270(r)
                                                    1112(g),1265(r),1233(v)
                                                    348(r),1230(v),1104(g)
                                                    213(r),715(r),221(r),661(r)
                                                    482(r),1124(v),1098(g)
                                                    132(r),426(r),144(r),507(r)
                                                    1423(r),224(r),637(r),827(r)
                                                    1409(r),775(r),141(r),581(r)
                                                    1082(g),151(r),683(r),554(r)
                                                    1155(v),825(r),616(r),204(r)
                                                    1415(r),1304(r),716(r)
                                                    820(r),593(r),421(r),157(r)
                                                    1177(g),678(r),1232(v)
                                                    689(r),311(r),286(r),588(r)
                                                    557(r),154(r),359(r),1122(v)
                                                    450(r),1158(v),375(r),686(r)
                                                    1349(r),276(r),605(r),487(r)
                                                    387(r),384(r),226(r),609(r)
                                                    472(r),1345(r),782(r),390(r)
                                                    563(r),936(r),1188(g),256(r)
                                                    832(r),619(r),1179(g),666(r)
                                                    1436(v),360(r),468(r),120(r)
                                                    670(r),302(r),234(r),385(r)
                                                    1119(g),330(r),797(r),111(r)
                                                    145(r),1223(v),1083(g)
                                                    1142(v),1183(g),475(r)
                                                    250(r),919(r),319(r),614(r)
                                                    1168(g),95(r),907(r),800(r)
                                                    701(r),526(r),1162(v)
                                                    1113(g),646(r),645(r),578(r)
                                                    296(r),361(r),1211(v)
                                                    1403(r),220(r),817(r)
                                                    1288(r),1093(g),414(r)
                                                    1298(r),1081(g),388(r)
                                                    668(r),1143(v),116(r),335(r)
                                                    343(r),914(r),528(r),695(r)
                                                    550(r),1166(g),1261(r)
                                                    298(r),828(r),603(r),635(r)
                                                    703(r),429(r),781(r),225(r)
                                                    304(r),627(r),437(r),1404(r)
                                                    1046(r),938(r),108(r),520(r)
                                                    340(r),1163(g),1361(r)
                                                    1148(v),452(r),802(r),246(r)
                                                    400(r),726(r),757(r),203(r)
                                                    342(r),1305(r),1259(r)
                                                    651(r),755(r),148(r),425(r)
                                                    138(r),305(r),954(r),510(r)
                                                    524(r),815(r),147(r),403(r)
                                                    354(r),287(r),584(r),483(r)
                                                    641(r),717(r),251(r),656(r)
                                                    115(r),117(r),725(r),210(r)
                                                    1329(r),710(r),1336(r)
                                                    398(r),1400(r),322(r)
                                                    1382(r),137(r),523(r),766(r)
                                                    245(r),499(r),559(r),222(r)
                                                    136(r),229(r),1401(r)
                                                    1243(v),680(r),173(r),454(r)
                                                    574(r),634(r),1149(v),705(r)
                                                    1293(r),898(r),378(r),209(r)
                                                    875(r),338(r),443(r),179(r)
                                                    657(r),872(r),284(r),307(r)
                                                    121(r),1164(g),456(r)
                                                    1417(r),1360(r),966(r)
                                                    255(r),1416(r),1114(g)
                                                    174(r),804(r),788(r),796(r)
                                                    704(r),1116(g),1139(v)
                                                    544(r),416(r),580(r),382(r)
                                                    795(r),1100(g),801(r),617(r)
                                                    636(r),446(r),743(r),786(r)
                                                    172(r),830(r),376(r),941(r)
                                                    190(r),780(r),1330(r),900(r)
                                                    1121(g),728(r),202(r),771(r)
                                                    553(r),1399(r),465(r),590(r)
                                                    166(r),597(r),447(r),118(r)
                                                    391(r),1408(r),1451(r)
                                                    663(r),1000(r),572(r),394(r)
                                                    249(r),1437(r),803(r),613(r)
                                                    1154(v),740(r),940(r)
                                                    1185(g),406(r),1136(v)
                                                    182(r),589(r),545(r),395(r)
                                                    1095(g),567(r),606(r),736(r)
                                                    434(r),364(r),435(r),480(r)
                                                    945(r),198(r),874(r),1343(r)
                                                    341(r),134(r),177(r),371(r)
                                                    396(r),1410(r),628(r),417(r)
                                                    135(r),208(r),186(r),212(r)
                                                    699(r),445(r),745(r),297(r)
                                                    176(r),1441(r),594(r),623(r)
                                                    1190(g),1085(g),849(r)
                                                    1108(g),511(r),506(r),215(r)
                                                    861(r),248(r),187(r),808(r)
                                                    107(r),762(r),1315(r),809(r)
                                                    501(r),432(r),1041(r),254(r)
                                                    896(r),163(r),1321(r),806(r)
                                                    184(r),918(r),1440(r),216(r)
                                                    944(r),133(r),231(r),493(r)
                                                    1047(r),534(r),303(r),942(r)
                                                    1109(g),631(r),1135(v)
                                                    301(r),692(r),952(r),508(r)
                                                    436(r),1008(r),1443(r)
                                                    759(r),1340(r),1145(v)
                                                    253(r),939(r),1193(g),630(r)
                                                    381(r),1331(r),295(r),583(r)
                                                    478(r),1398(r),314(r)
                                                    1239(v),1231(v),1051(r)
                                                    94(r),624(r),410(r),878(r)
                                                    920(r),764(r),200(r),1111(g)
                                                    529(r),749(r),122(r),662(r)
                                                    329(r),1006(r),1014(r)
                                                    380(r),408(r),1450(r),632(r)
                                                    639(r),227(r),124(r),521(r)
                                                    708(r),846(r),527(r),1007(r)
                                                    562(r),718(r),611(r),949(r)
                                                    1002(r),899(r),430(r),845(r)
                                                    1107(g),535(r),744(r),774(r)
                                                    180(r),460(r),169(r),785(r)
                                                    98(r),790(r),667(r),75(r)
                                                    214(r),723(r),238(r),113(r)
                                                    579(r),1284(r),866(r),372(r)
                                                    881(r),1442(r),659(r),833(r)
                                                    368(r),688(r),211(r),1446(r)
                                                    260(r),758(r),1150(v),127(r)
                                                    747(r),1392(r),906(r),442(r)
                                                    852(r),383(r),612(r),756(r)
                                                    607(r),1196(g),353(r),741(r)
                                                    674(r),910(r),125(r),950(r)
                                                    240(r),844(r),503(r),777(r)
                                                    794(r),585(r),1084(g),556(r)
                                                    402(r),685(r),841(r),188(r)
                                                    626(r),1325(r),840(r),642(r)
                                                    290(r),1207(v),424(r),858(r)
                                                    541(r),682(r),104(r),291(r)
                                                    887(r),911(r),463(r),816(r)
                                                    1052(r),328(r),754(r),750(r)
                                                    763(r),697(r),834(r),217(r)
                                                    673(r),865(r),727(r),337(r)
                                                    242(r),767(r),1056(r),236(r)
                                                    392(r),722(r),565(r),448(r)
                                                    888(r),522(r),205(r),814(r)
                                                    257(r),951(r),1043(r),824(r)
                                                    679(r),491(r),282(r),573(r)
                                                    476(r),1023(r),582(r),530(r)
                                                    306(r),469(r),139(r),513(r)
                                                    664(r),784(r),575(r),206(r)
                                                    1448(r),1453(r),1452(r)
                                                    99(r),130(r),318(r),566(r)
                                                    538(r),569(r),481(r),449(r)
                                                    1020(r),517(r),956(r),676(r)
                                                    601(r),564(r),537(r),851(r)
                                                    761(r),971(r),660(r),671(r)
                                                    194(r),451(r),577(r),622(r)
                                                    252(r),370(r),935(r),401(r)
                                                    835(r),93(r),953(r),453(r)
                                                    502(r),770(r),905(r),131(r)
                                                    839(r),909(r),525(r),934(r)
                                                    500(r),946(r),1061(r),488(r)
                                                    880(r),677(r),772(r),509(r)
                                                    811(r),837(r),405(r),890(r)
                                                    1009(r),1044(r),913(r)
                                                    818(r),285(r),237(r),895(r)
                                                    1042(r),1058(r),600(r)
                                                    358(r),512(r),769(r),987(r)
                                                    178(r),1445(r),1017(r)
                                                    420(r),924(r),719(r),411(r)
                                                    897(r),879(r),748(r),1444(r)
                                                    423(r),957(r),793(r),459(r)
                                                    498(r),859(r),894(r),1015(r)
                                                    604(r),886(r),608(r),587(r)
                                                    1055(r),1010(r),505(r)
                                                    1049(r),218(r),128(r),515(r)
                                                    518(r),653(r),485(r),826(r)
                                                    233(r),644(r),730(r),536(r)
                                                    591(r),1004(r),853(r),461(r)
                                                    959(r),602(r),819(r),955(r)
                                                    633(r),243(r),791(r),1011(r)
                                                    560(r),922(r),129(r),313(r)
                                                    366(r),760(r),1073(r),862(r)
                                                    533(r),943(r),457(r),807(r)
                                                    409(r),916(r),1059(r),504(r)
                                                    531(r),1050(r),923(r),961(r)
                                                    779(r),805(r),655(r),171(r)
                                                    838(r),783(r),843(r),1064(r)
                                                    908(r),219(r)
  1431. BD*(   2) O  31 - C  33          0.05735     5.78997   
  1432. BD*(   1) O  32 - C  33          0.04499    -9.32653   
  1433. BD*(   1) C  33 - C  34          0.07841     2.56438   
  1434. BD*(   1) C  34 - C  35          0.00631    -4.83106   
  1435. BD*(   1) C  34 - H  36          0.01145     3.75825   
  1436. BD*(   1) C  34 - H  37          0.01145     0.59992   
  1437. BD*(   1) C  35 - H  38          0.00762     6.79818   
  1438. BD*(   1) C  35 - H  39          0.00720     0.31071   
  1439. BD*(   1) C  35 - H  40          0.00760     6.65536   
       -------------------------------
              Total Lewis   39.24217  ( 98.3720%)
        Valence non-Lewis    0.58022  (  1.4545%)
        Rydberg non-Lewis    0.06921  (  0.1735%)
       -------------------------------
            Total unit  2   39.89159  (100.0000%)
           Charge unit  2   -0.89159
 Unable to Open any file for archive entry.
 1\1\GINC-GADI-HMEM-CLX-0012\SP\RDSDPBEP86-FC\Aug-CC-pVTZ\C14H17Cl1F3N2
 O3(1-)\HIO507\03-Nov-2020\0\\# DSDPBEP86/AUG-cc-PVTZ SCF=Tight INT(gri
 d=ultrafine) Pop=NBO MaxDisk=1400000MB\\CP19_c2_carboxy.DSDPBEP86_AUG-
 cc-PVTZ\\-1,1\C,0,-6.1837501084,1.2725091504,-0.0438235791\N,0,-4.9425
 045065,0.6885255599,-0.0094565637\C,0,-3.7084955315,1.3297895105,-0.07
 23391574\O,0,-3.5691470059,2.5451009416,-0.1591325857\N,0,-2.672976870
 6,0.4617581813,-0.0206967775\C,0,-1.3146656816,0.942496665,-0.13283995
 63\C,0,-0.3406892877,-0.1973365118,0.136900561\C,0,1.1086236054,0.2553
 631153,-0.0071993616\C,0,-7.2891744152,0.394723704,0.0150831622\C,0,-8
 .5725855359,0.8921309124,-0.0131376904\C,0,-8.8288132645,2.2657443566,
 -0.0994180543\C,0,-7.7306362095,3.1214800466,-0.1571202385\C,0,-6.4270
 011873,2.6547455657,-0.1307939087\H,0,-4.9408694429,-0.3496309938,0.05
 76114654\H,0,-2.8298225959,-0.5578409547,-0.0259319578\H,0,-1.15718191
 59,1.7603029775,0.578488629\H,0,-1.1358029898,1.3638947644,-1.13161989
 63\H,0,-0.5558631029,-1.0245095635,-0.5455823728\H,0,-0.5220896618,-0.
 5871921848,1.1429033711\H,0,1.3091369389,0.6192335853,-1.0190780423\H,
 0,1.8047833461,-0.5618043407,0.1950283755\H,0,1.339950714,1.0693335788
 ,0.6862622906\H,0,-7.1100671923,-0.673804395,0.0809245749\Cl,0,-9.8939
 616047,-0.252921399,0.0612863954\C,0,-10.2163336049,2.8164024716,-0.13
 08888973\H,0,-7.9032174681,4.1887752932,-0.2245145394\H,0,-5.593605175
 1,3.3378823429,-0.1767546237\F,0,-10.2191772944,4.1617163303,-0.211356
 5724\F,0,-10.9367095127,2.3801603453,-1.1826782369\F,0,-10.9343324358,
 2.5085712072,0.9667980274\O,0,-5.1583134346,-2.0523974684,0.1442206428
 \O,0,-2.949572083,-2.3480539907,-0.0501294415\C,0,-4.1241503424,-2.763
 7584237,0.0587680159\C,0,-4.3530937212,-4.281833292,0.0974784733\C,0,-
 3.0829094182,-5.1102944107,-0.0346512606\H,0,-5.0670290669,-4.51944795
 42,-0.6971281118\H,0,-4.8736073726,-4.5022374682,1.0348070716\H,0,-2.5
 75824286,-4.8928355267,-0.9762520519\H,0,-3.2998965153,-6.1822892614,0
 .0034197446\H,0,-2.3800547622,-4.8695424666,0.7645630776\\Version=ES64
 L-G16RevC.01\State=1-A\HF=-1634.8257209\MP2=-1637.0354783\RMSD=3.292e-
 09\PG=C01 [X(C14H17Cl1F3N2O3)]\\@
 The archive entry for this job was punched.


 BE CAREFUL NOT TO BECOME TOO GOOD OF A SONGBIRD OR 
 THEY'LL THROW YOU INTO A CAGE.

                                    -- SNOOPY TO WOODSTOCK
 Job cpu time:       7 days 14 hours 24 minutes 47.3 seconds.
 Elapsed time:       0 days  5 hours 44 minutes 55.9 seconds.
 File lengths (MBytes):  RWF=   1087 Int=      0 D2E=      0 Chk=    138 Scr=      1
 Normal termination of Gaussian 16 at Tue Nov  3 16:14:46 2020.
