 Entering Gaussian System, Link 0=/apps/gaussian/g16c01/g16/g16
 Initial command:
 /apps/gaussian/g16c01/g16/l1.exe "/jobfs/11080178.gadi-pbs/Gau-2274127.inp" -scrdir="/jobfs/11080178.gadi-pbs/"
 Entering Link 1 = /apps/gaussian/g16c01/g16/l1.exe PID=   2274128.
  
 Copyright (c) 1988-2019, Gaussian, Inc.  All Rights Reserved.
  
 This is part of the Gaussian(R) 16 program.  It is based on
 the Gaussian(R) 09 system (copyright 2009, Gaussian, Inc.),
 the Gaussian(R) 03 system (copyright 2003, Gaussian, Inc.),
 the Gaussian(R) 98 system (copyright 1998, Gaussian, Inc.),
 the Gaussian(R) 94 system (copyright 1995, Gaussian, Inc.),
 the Gaussian 92(TM) system (copyright 1992, Gaussian, Inc.),
 the Gaussian 90(TM) system (copyright 1990, Gaussian, Inc.),
 the Gaussian 88(TM) system (copyright 1988, Gaussian, Inc.),
 the Gaussian 86(TM) system (copyright 1986, Carnegie Mellon
 University), and the Gaussian 82(TM) system (copyright 1983,
 Carnegie Mellon University). Gaussian is a federally registered
 trademark of Gaussian, Inc.
  
 This software contains proprietary and confidential information,
 including trade secrets, belonging to Gaussian, Inc.
  
 This software is provided under written license and may be
 used, copied, transmitted, or stored only in accord with that
 written license.
  
 The following legend is applicable only to US Government
 contracts under FAR:
  
                    RESTRICTED RIGHTS LEGEND
  
 Use, reproduction and disclosure by the US Government is
 subject to restrictions as set forth in subparagraphs (a)
 and (c) of the Commercial Computer Software - Restricted
 Rights clause in FAR 52.227-19.
  
 Gaussian, Inc.
 340 Quinnipiac St., Bldg. 40, Wallingford CT 06492
  
  
 ---------------------------------------------------------------
 Warning -- This program may not be used in any manner that
 competes with the business of Gaussian, Inc. or will provide
 assistance to any competitor of Gaussian, Inc.  The licensee
 of this program is prohibited from giving any competitor of
 Gaussian, Inc. access to this program.  By using this program,
 the user acknowledges that Gaussian, Inc. is engaged in the
 business of creating and licensing software in the field of
 computational chemistry and represents and warrants to the
 licensee that it is not a competitor of Gaussian, Inc. and that
 it will not use this program in any manner prohibited above.
 ---------------------------------------------------------------
  

 Cite this work as:
 Gaussian 16, Revision C.01,
 M. J. Frisch, G. W. Trucks, H. B. Schlegel, G. E. Scuseria, 
 M. A. Robb, J. R. Cheeseman, G. Scalmani, V. Barone, 
 G. A. Petersson, H. Nakatsuji, X. Li, M. Caricato, A. V. Marenich, 
 J. Bloino, B. G. Janesko, R. Gomperts, B. Mennucci, H. P. Hratchian, 
 J. V. Ortiz, A. F. Izmaylov, J. L. Sonnenberg, D. Williams-Young, 
 F. Ding, F. Lipparini, F. Egidi, J. Goings, B. Peng, A. Petrone, 
 T. Henderson, D. Ranasinghe, V. G. Zakrzewski, J. Gao, N. Rega, 
 G. Zheng, W. Liang, M. Hada, M. Ehara, K. Toyota, R. Fukuda, 
 J. Hasegawa, M. Ishida, T. Nakajima, Y. Honda, O. Kitao, H. Nakai, 
 T. Vreven, K. Throssell, J. A. Montgomery, Jr., J. E. Peralta, 
 F. Ogliaro, M. J. Bearpark, J. J. Heyd, E. N. Brothers, K. N. Kudin, 
 V. N. Staroverov, T. A. Keith, R. Kobayashi, J. Normand, 
 K. Raghavachari, A. P. Rendell, J. C. Burant, S. S. Iyengar, 
 J. Tomasi, M. Cossi, J. M. Millam, M. Klene, C. Adamo, R. Cammi, 
 J. W. Ochterski, R. L. Martin, K. Morokuma, O. Farkas, 
 J. B. Foresman, and D. J. Fox, Gaussian, Inc., Wallingford CT, 2019.
 
 ******************************************
 Gaussian 16:  ES64L-G16RevC.01  3-Jul-2019
                 9-Sep-2020 
 ******************************************
 %NprocShared=8
 Will use up to    8 processors via shared memory.
 %Mem=192000MB
 %chk=NM2.DSDPBEP86_AUG-cc-PVTZ.chk
 ---------------------------------------------------------------------
 # DSDPBEP86/AUG-cc-PVTZ SCF=Tight INT(grid=ultrafine) MaxDisk=60000MB
 ---------------------------------------------------------------------
 1/38=1,172=1/1;
 2/12=2,17=6,18=5,40=1/2;
 3/5=16,6=1,7=10,11=9,25=1,30=1,74=-77,75=-5/1,2,3;
 4//1;
 5/5=2,32=2,38=5/2;
 8/10=1/1;
 9/16=-3/6;
 6/7=2,8=2,9=2,10=2/1;
 99/5=1,9=1/99;
 -------------------------
 NM2.DSDPBEP86_AUG-cc-PVTZ
 -------------------------
 Symbolic Z-matrix:
 Charge =  0 Multiplicity = 1
 C                    -5.90996   1.10291   0.20594 
 N                    -4.64948   0.51828   0.07779 
 C                    -3.41381   1.16305   0.14615 
 O                    -3.28493   2.34753   0.3578 
 N                    -2.35401   0.30927  -0.02092 
 C                    -1.00625   0.86248  -0.08175 
 C                     0.0281   -0.25286  -0.0502 
 C                     1.44847   0.30082  -0.10487 
 C                    -6.12744   2.48447   0.143 
 C                    -7.41413   2.994     0.24792 
 C                    -8.5134    2.14413   0.42852 
 C                    -8.28623   0.77319   0.47964 
 C                    -7.00743   0.25644   0.37142 
 H                    -4.6362   -0.48941   0.12939 
 H                    -2.50942  -0.55043  -0.52755 
 H                    -0.88312   1.52479   0.77655 
 H                    -0.88265   1.47876  -0.98 
 H                    -0.13404  -0.92893  -0.89821 
 H                    -0.11387  -0.84512   0.85861 
 H                     1.61294   0.87694  -1.01849 
 H                     2.18699  -0.50167  -0.08001 
 H                     1.64455   0.96054   0.74353 
 H                    -5.29064   3.15277   0.016 
 H                    -6.86113  -0.81799   0.42007 
 C                    -9.94057   2.62323   0.5359 
 C                    -7.55149   4.50222   0.19389 
 H                    -9.12145   0.09876   0.61647 
 F                    -10.06498   3.69804   1.31965 
 F                    -10.72801   1.66853   1.05996 
 F                    -10.46437   2.93036  -0.65887 
 F                    -6.46921   5.07316  -0.3491 
 F                    -7.69469   5.02896   1.41621 
 F                    -8.60095   4.88634  -0.54004 
 
                          Input orientation:                          
 ---------------------------------------------------------------------
 Center     Atomic      Atomic             Coordinates (Angstroms)
 Number     Number       Type             X           Y           Z
 ---------------------------------------------------------------------
      1          6           0       -5.909955    1.102910    0.205944
      2          7           0       -4.649477    0.518284    0.077789
      3          6           0       -3.413812    1.163054    0.146151
      4          8           0       -3.284933    2.347533    0.357804
      5          7           0       -2.354008    0.309265   -0.020919
      6          6           0       -1.006248    0.862479   -0.081751
      7          6           0        0.028098   -0.252861   -0.050201
      8          6           0        1.448466    0.300816   -0.104868
      9          6           0       -6.127442    2.484471    0.143003
     10          6           0       -7.414132    2.994004    0.247922
     11          6           0       -8.513400    2.144130    0.428520
     12          6           0       -8.286228    0.773186    0.479641
     13          6           0       -7.007432    0.256442    0.371419
     14          1           0       -4.636201   -0.489411    0.129387
     15          1           0       -2.509423   -0.550433   -0.527548
     16          1           0       -0.883119    1.524789    0.776552
     17          1           0       -0.882654    1.478758   -0.979995
     18          1           0       -0.134043   -0.928927   -0.898206
     19          1           0       -0.113866   -0.845121    0.858615
     20          1           0        1.612938    0.876941   -1.018491
     21          1           0        2.186994   -0.501666   -0.080009
     22          1           0        1.644546    0.960542    0.743535
     23          1           0       -5.290636    3.152775    0.016001
     24          1           0       -6.861133   -0.817986    0.420074
     25          6           0       -9.940573    2.623235    0.535896
     26          6           0       -7.551486    4.502217    0.193886
     27          1           0       -9.121449    0.098762    0.616469
     28          9           0      -10.064979    3.698041    1.319645
     29          9           0      -10.728008    1.668533    1.059964
     30          9           0      -10.464373    2.930358   -0.658869
     31          9           0       -6.469213    5.073157   -0.349101
     32          9           0       -7.694687    5.028956    1.416205
     33          9           0       -8.600951    4.886337   -0.540044
 ---------------------------------------------------------------------
                    Distance matrix (angstroms):
                    1          2          3          4          5
     1  C    0.000000
     2  N    1.395355   0.000000
     3  C    2.497584   1.395446   0.000000
     4  O    2.909104   2.299247   1.210122   0.000000
     5  N    3.650493   2.307078   1.371150   2.272573   0.000000
     6  C    4.918019   3.662927   2.436934   2.755177   1.458150
     7  C    6.096244   4.742441   3.726944   4.231393   2.447707
     8  C    7.408530   6.104553   4.944513   5.177662   3.803409
     9  C    1.399990   2.460594   3.018268   2.853900   4.358577
    10  C    2.416722   3.715031   4.400602   4.180943   5.734541
    11  C    2.812757   4.206696   5.200773   5.232899   6.442580
    12  C    2.414602   3.667754   4.899353   5.244651   5.971350
    13  C    1.395832   2.390550   3.713058   4.269642   4.670233
    14  H    2.040538   1.009102   2.055519   3.150611   2.422578
    15  H    3.851646   2.467473   2.051300   3.127854   1.009905
    16  H    5.076678   3.960653   2.632995   2.573125   2.068084
    17  H    5.178944   4.028693   2.788303   2.883647   2.110076
    18  H    6.221629   4.841087   4.027896   4.716021   2.689051
    19  H    6.149427   4.800034   3.928106   4.527639   2.669161
    20  H    7.625236   6.367755   5.167830   5.295845   4.129656
    21  H    8.259360   6.913938   5.847347   6.184788   4.613220
    22  H    7.574942   6.344567   5.097534   5.135396   4.122739
    23  H    2.149786   2.712092   2.738320   2.188170   4.087872
    24  H    2.154167   2.606569   3.985421   4.776358   4.666835
    25  C    4.320433   5.712826   6.699451   6.663728   7.951131
    26  C    3.774925   4.930199   5.317202   4.782574   6.681375
    27  H    3.389769   4.523793   5.825035   6.260095   6.800650
    28  F    5.023869   6.401619   7.213964   6.979831   8.528775
    29  F    4.925740   6.263887   7.388371   7.506892   8.552181
    30  F    4.982990   6.338279   7.313127   7.274452   8.547229
    31  F    4.047679   4.923469   4.986949   4.250692   6.303752
    32  F    4.479268   5.604536   5.906279   5.268413   7.270740
    33  F    4.702369   5.922478   6.421846   5.959169   7.761661
                    6          7          8          9         10
     6  C    0.000000
     7  C    1.521463   0.000000
     8  C    2.518258   1.525448   0.000000
     9  C    5.376615   6.739509   7.888230   0.000000
    10  C    6.761143   8.125133   9.269486   1.387877   0.000000
    11  C    7.632845   8.884364  10.145003   2.426963   1.401175
    12  C    7.302140   8.394136   9.763660   2.775280   2.397140
    13  C    6.048706   7.066528   8.469417   2.406381   2.770362
    14  H    3.879271   4.673745   6.140237   3.326854   4.457032
    15  H    2.110590   2.599119   4.070401   4.769732   6.100866
    16  H    1.091100   2.161915   2.776923   5.368919   6.715071
    17  H    1.096320   2.166216   2.754545   5.457140   6.816447
    18  H    2.153247   1.096570   2.155455   6.975402   8.348814
    19  H    2.143952   1.094016   2.163874   6.910961   8.270775
    20  H    2.781695   2.173881   1.092556   7.990413   9.358085
    21  H    3.472419   2.173391   1.090880   8.837228  10.222958
    22  H    2.778025   2.171467   1.092462   7.942719   9.297324
    23  H    4.859114   6.315985   7.318728   1.078426   2.142015
    24  H    6.111912   6.928349   8.400995   3.394303   3.855738
    25  C    9.127098  10.391816  11.641066   3.835830   2.569690
    26  C    7.494252   8.951002   9.936809   2.470181   1.515418
    27  H    8.180908   9.180538  10.596426   3.857442   3.381300
    28  F    9.595047  10.925031  12.088416   4.285025   2.944699
    29  F    9.821703  10.982624  12.308290   4.761490   3.660336
    30  F    9.698727  10.981589  12.212172   4.432921   3.182811
    31  F    6.902555   8.406596   9.247948   2.657117   2.360547
    32  F    8.021136   9.470446  10.405106   3.248339   2.363182
    33  F    8.607030  10.055435  11.054735   3.514792   2.368618
                   11         12         13         14         15
    11  C    0.000000
    12  C    1.390578   0.000000
    13  C    2.415485   1.383495   0.000000
    14  H    4.696561   3.878083   2.497521   0.000000
    15  H    6.649998   6.011479   4.657389   2.226763   0.000000
    16  H    7.663282   7.447086   6.267379   4.308300   2.941443
    17  H    7.788126   7.579002   6.390092   4.381042   2.639830
    18  H    9.023164   8.441195   7.089465   4.638809   2.433736
    19  H    8.925960   8.339667   6.998003   4.594542   2.783340
    20  H   10.307392  10.012425   8.753722   6.498945   4.390020
    21  H   11.034368  10.565361   9.236665   6.826419   4.717945
    22  H   10.231518   9.936046   8.688552   6.475131   4.599364
    23  H    3.402020   3.853696   3.385624   3.702250   4.663083
    24  H    3.391782   2.136884   1.085434   2.267770   4.461721
    25  C    1.509270   2.482479   3.772543   6.163617   8.150158
    26  C    2.557520   3.811453   4.284171   5.780951   7.174410
    27  H    2.142097   1.082203   2.134006   4.549795   6.741596
    28  F    2.369840   3.524818   4.700248   6.958671   8.862736
    29  F    2.351468   2.664716   4.038661   6.529380   8.659628
    30  F    2.367882   3.270154   4.490185   6.803216   8.684145
    31  F    3.655488   4.741108   4.899956   5.876312   6.880156
    32  F    3.157220   4.397574   4.933639   6.439147   7.860962
    33  F    2.909550   4.249331   4.980562   6.713124   8.164885
                   16         17         18         19         20
    16  H    0.000000
    17  H    1.757150   0.000000
    18  H    3.063763   2.522708   0.000000
    19  H    2.492981   3.061362   1.758934   0.000000
    20  H    3.142004   2.567420   2.515466   3.077479   0.000000
    21  H    3.777011   3.762286   2.497841   2.508572   1.763760
    22  H    2.590087   3.102554   3.070632   2.523028   1.764291
    23  H    4.759725   4.819195   6.639768   6.594855   7.342270
    24  H    6.430577   6.555718   6.855940   6.761558   8.760829
    25  C    9.126992   9.254926  10.528178  10.425824  11.787675
    26  C    7.326098   7.415701   9.257886   9.184448   9.929711
    27  H    8.362371   8.504753   9.171905   9.060138  10.886033
    28  F    9.451166   9.722585  11.178157  10.948860  12.239250
    29  F    9.850017  10.056264  11.082117  10.909584  12.539759
    30  F    9.789611   9.696370  11.030280  11.121600  12.255908
    31  F    6.712858   6.672883   8.744193   8.767841   9.131127
    32  F    7.686729   8.046706   9.900313   9.606484  10.478495
    33  F    8.520467   8.448506  10.277845  10.336173  10.983064
                   21         22         23         24         25
    21  H    0.000000
    22  H    1.763669   0.000000
    23  H    8.323408   7.309715   0.000000
    24  H    9.067455   8.695652   4.289135   0.000000
    25  C   12.538829  11.705667   4.708781   4.619347   0.000000
    26  C   10.952254   9.869781   2.638955   5.369573   3.058641
    27  H   11.345769  10.801178   4.935857   2.447044   2.655263
    28  F   13.027181  12.039052   4.979072   5.609667   1.336020
    29  F   13.145592  12.396833   5.732176   4.641655   1.343933
    30  F   13.121393  12.347988   5.222305   5.310135   1.340207
    31  F   10.299563   9.161907   2.282589   5.954057   4.340009
    32  F   11.422524  10.209101   3.355605   5.989476   3.406823
    33  F   12.067393  11.046703   3.777910   6.040537   2.841455
                   26         27         28         29         30
    26  C    0.000000
    27  H    4.694015   0.000000
    28  F    2.869091   3.786756   0.000000
    29  F    4.343978   2.289521   2.150801   0.000000
    30  F    3.418017   3.383470   2.159484   2.148509   0.000000
    31  F    1.338701   5.719378   4.195854   5.631542   4.544100
    32  F    1.338666   5.194425   2.720100   4.540968   4.047370
    33  F    1.337003   4.952708   2.648371   4.175962   2.704129
                   31         32         33
    31  F    0.000000
    32  F    2.149429   0.000000
    33  F    2.148410   2.160686   0.000000
 Stoichiometry    C12H12F6N2O
 Framework group  C1[X(C12H12F6N2O)]
 Deg. of freedom    93
 Full point group                 C1      NOp   1
 Largest Abelian subgroup         C1      NOp   1
 Largest concise Abelian subgroup C1      NOp   1
                         Standard orientation:                         
 ---------------------------------------------------------------------
 Center     Atomic      Atomic             Coordinates (Angstroms)
 Number     Number       Type             X           Y           Z
 ---------------------------------------------------------------------
      1          6           0        0.477651   -0.994912   -0.072457
      2          7           0        1.861944   -1.156612   -0.140301
      3          6           0        2.832463   -0.170000    0.038474
      4          8           0        2.577757    0.981758    0.308610
      5          7           0        4.111417   -0.646454   -0.093137
      6          6           0        5.223270    0.295409   -0.039504
      7          6           0        6.548832   -0.449490    0.014014
      8          6           0        7.729179    0.514662    0.078698
      9          6           0       -0.152946    0.254878   -0.090951
     10          6           0       -1.537724    0.338638   -0.051234
     11          6           0       -2.327954   -0.816331    0.018597
     12          6           0       -1.690842   -2.052346    0.026412
     13          6           0       -0.311161   -2.145170   -0.017436
     14          1           0        2.183573   -2.113040   -0.130922
     15          1           0        4.255488   -1.479712   -0.645255
     16          1           0        5.091692    0.909707    0.852586
     17          1           0        5.195747    0.973767   -0.900311
     18          1           0        6.647095   -1.089430   -0.871020
     19          1           0        6.550945   -1.111301    0.885147
     20          1           0        7.753674    1.168330   -0.796400
     21          1           0        8.677412   -0.023160    0.118974
     22          1           0        7.668178    1.149444    0.965718
     23          1           0        0.441473    1.153723   -0.132756
     24          1           0        0.157576   -3.124095   -0.004883
     25          6           0       -3.836851   -0.804633    0.050013
     26          6           0       -2.131850    1.732735   -0.050061
     27          1           0       -2.282362   -2.957122    0.077857
     28          9           0       -4.327271    0.130340    0.868708
     29          9           0       -4.316017   -1.984781    0.478738
     30          9           0       -4.368449   -0.599984   -1.163114
     31          9           0       -1.253054    2.639717   -0.494160
     32          9           0       -2.492933    2.114403    1.181188
     33          9           0       -3.209886    1.821376   -0.835909
 ---------------------------------------------------------------------
 Rotational constants (GHZ):           0.7113354           0.1183305           0.1055328
 Standard basis: Aug-CC-pVTZ (5D, 7F)
 There are  1455 symmetry adapted cartesian basis functions of A   symmetry.
 There are  1242 symmetry adapted basis functions of A   symmetry.
  1242 basis functions,  1836 primitive gaussians,  1455 cartesian basis functions
    80 alpha electrons       80 beta electrons
       nuclear repulsion energy      1781.1099866037 Hartrees.
 NAtoms=   33 NActive=   33 NUniq=   33 SFac= 1.00D+00 NAtFMM=   60 NAOKFM=F Big=F
 Integral buffers will be    131072 words long.
 Regular integral format.
 Two-electron integral symmetry is turned on.
 Nuclear repulsion after empirical dispersion term =     1781.0860594071 Hartrees.
 One-electron integrals computed using PRISM.
 NBasis=  1242 RedAO= T EigKep=  1.57D-06  NBF=  1242
 NBsUse=  1238 1.00D-06 EigRej=  7.72D-07 NBFU=  1238
 ExpMin= 2.53D-02 ExpMax= 1.95D+04 ExpMxC= 6.65D+02 IAcc=3 IRadAn=         5 AccDes= 0.00D+00
 Harris functional with IExCor= 1004 and IRadAn=       5 diagonalized for initial guess.
 HarFok:  IExCor= 1004 AccDes= 0.00D+00 IRadAn=         5 IDoV= 1 UseB2=F ITyADJ=14
 ICtDFT=  3500011 ScaDFX=  1.000000  1.000000  1.000000  1.000000
 FoFCou: FMM=F IPFlag=           0 FMFlag=      100000 FMFlg1=           0
         NFxFlg=           0 DoJE=T BraDBF=F KetDBF=T FulRan=T
         wScrn=  0.000000 ICntrl=       500 IOpCl=  0 I1Cent=   200000004 NGrid=           0
         NMat0=    1 NMatS0=      1 NMatT0=    0 NMatD0=    1 NMtDS0=    0 NMtDT0=    0
 Petite list used in FoFCou.
 Requested convergence on RMS density matrix=1.00D-08 within 128 cycles.
 Requested convergence on MAX density matrix=1.00D-06.
 Requested convergence on             energy=1.00D-06.
 No special actions if energy rises.
 SCF Done:  E(RDSDPBEP86) =  -1244.84069966     A.U. after   14 cycles
            NFock= 14  Conv=0.30D-08     -V/T= 2.0031
 DoSCS=T DFT=T ScalE2(SS,OS)=  0.220000  0.520000
 ExpMin= 2.53D-02 ExpMax= 1.95D+04 ExpMxC= 6.65D+02 IAcc=3 IRadAn=         5 AccDes= 0.00D+00
 HarFok:  IExCor=  205 AccDes= 0.00D+00 IRadAn=         5 IDoV=-2 UseB2=F ITyADJ=14
 ICtDFT= 12500011 ScaDFX=  1.000000  1.000000  1.000000  1.000000
 GSVD:  LWork=        -609 too small for GESVD, short by        2520 words or        2520 for optimal perf.
 Range of M.O.s used for correlation:    22  1238
 NBasis=  1242 NAE=    80 NBE=    80 NFC=    21 NFV=     0
 NROrb=   1217 NOA=    59 NOB=    59 NVA=  1158 NVB=  1158

 **** Warning!!: The largest alpha MO coefficient is  0.96737236D+02

 DoSCS=T DFT=T ScalE2(SS,OS)=  0.220000  0.520000
 Fully direct method using O(OVN) memory.
 JobTyp=1 Pass  1:  I=   1 to  59 NPSUse=  8 ParTrn=T ParDer=T DoDerP=F.
 Spin components of T(2) and E(2):
     alpha-alpha T2 =       0.1940199500D+00 E2=     -0.1338644212D+00
     alpha-beta  T2 =       0.1001820841D+01 E2=     -0.1781404301D+01
     beta-beta   T2 =       0.1940199500D+00 E2=     -0.1338644212D+00
 E2(DSDPBEP86) =    -0.2049133144D+01 E(DSDPBEP86) =    -0.12468898328032D+04

 **********************************************************************

            Population analysis using the SCF Density.

 **********************************************************************

 Orbital symmetries:
       Occupied  (A) (A) (A) (A) (A) (A) (A) (A) (A) (A) (A) (A)
                 (A) (A) (A) (A) (A) (A) (A) (A) (A) (A) (A) (A)
                 (A) (A) (A) (A) (A) (A) (A) (A) (A) (A) (A) (A)
                 (A) (A) (A) (A) (A) (A) (A) (A) (A) (A) (A) (A)
                 (A) (A) (A) (A) (A) (A) (A) (A) (A) (A) (A) (A)
                 (A) (A) (A) (A) (A) (A) (A) (A) (A) (A) (A) (A)
                 (A) (A) (A) (A) (A) (A) (A) (A)
       Virtual   (A) (A) (A) (A) (A) (A) (A) (A) (A) (A) (A) (A)
                 (A) (A) (A) (A) (A) (A) (A) (A) (A) (A) (A) (A)
                 (A) (A) (A) (A) (A) (A) (A) (A) (A) (A) (A) (A)
                 (A) (A) (A) (A) (A) (A) (A) (A) (A) (A) (A) (A)
                 (A) (A) (A) (A) (A) (A) (A) (A) (A) (A) (A) (A)
                 (A) (A) (A) (A) (A) (A) (A) (A) (A) (A) (A) (A)
                 (A) (A) (A) (A) (A) (A) (A) (A) (A) (A) (A) (A)
                 (A) (A) (A) (A) (A) (A) (A) (A) (A) (A) (A) (A)
                 (A) (A) (A) (A) (A) (A) (A) (A) (A) (A) (A) (A)
                 (A) (A) (A) (A) (A) (A) (A) (A) (A) (A) (A) (A)
                 (A) (A) (A) (A) (A) (A) (A) (A) (A) (A) (A) (A)
                 (A) (A) (A) (A) (A) (A) (A) (A) (A) (A) (A) (A)
                 (A) (A) (A) (A) (A) (A) (A) (A) (A) (A) (A) (A)
                 (A) (A) (A) (A) (A) (A) (A) (A) (A) (A) (A) (A)
                 (A) (A) (A) (A) (A) (A) (A) (A) (A) (A) (A) (A)
                 (A) (A) (A) (A) (A) (A) (A) (A) (A) (A) (A) (A)
                 (A) (A) (A) (A) (A) (A) (A) (A) (A) (A) (A) (A)
                 (A) (A) (A) (A) (A) (A) (A) (A) (A) (A) (A) (A)
                 (A) (A) (A) (A) (A) (A) (A) (A) (A) (A) (A) (A)
                 (A) (A) (A) (A) (A) (A) (A) (A) (A) (A) (A) (A)
                 (A) (A) (A) (A) (A) (A) (A) (A) (A) (A) (A) (A)
                 (A) (A) (A) (A) (A) (A) (A) (A) (A) (A) (A) (A)
                 (A) (A) (A) (A) (A) (A) (A) (A) (A) (A) (A) (A)
                 (A) (A) (A) (A) (A) (A) (A) (A) (A) (A) (A) (A)
                 (A) (A) (A) (A) (A) (A) (A) (A) (A) (A) (A) (A)
                 (A) (A) (A) (A) (A) (A) (A) (A) (A) (A) (A) (A)
                 (A) (A) (A) (A) (A) (A) (A) (A) (A) (A) (A) (A)
                 (A) (A) (A) (A) (A) (A) (A) (A) (A) (A) (A) (A)
                 (A) (A) (A) (A) (A) (A) (A) (A) (A) (A) (A) (A)
                 (A) (A) (A) (A) (A) (A) (A) (A) (A) (A) (A) (A)
                 (A) (A) (A) (A) (A) (A) (A) (A) (A) (A) (A) (A)
                 (A) (A) (A) (A) (A) (A) (A) (A) (A) (A) (A) (A)
                 (A) (A) (A) (A) (A) (A) (A) (A) (A) (A) (A) (A)
                 (A) (A) (A) (A) (A) (A) (A) (A) (A) (A) (A) (A)
                 (A) (A) (A) (A) (A) (A) (A) (A) (A) (A) (A) (A)
                 (A) (A) (A) (A) (A) (A) (A) (A) (A) (A) (A) (A)
                 (A) (A) (A) (A) (A) (A) (A) (A) (A) (A) (A) (A)
                 (A) (A) (A) (A) (A) (A) (A) (A) (A) (A) (A) (A)
                 (A) (A) (A) (A) (A) (A) (A) (A) (A) (A) (A) (A)
                 (A) (A) (A) (A) (A) (A) (A) (A) (A) (A) (A) (A)
                 (A) (A) (A) (A) (A) (A) (A) (A) (A) (A) (A) (A)
                 (A) (A) (A) (A) (A) (A) (A) (A) (A) (A) (A) (A)
                 (A) (A) (A) (A) (A) (A) (A) (A) (A) (A) (A) (A)
                 (A) (A) (A) (A) (A) (A) (A) (A) (A) (A) (A) (A)
                 (A) (A) (A) (A) (A) (A) (A) (A) (A) (A) (A) (A)
                 (A) (A) (A) (A) (A) (A) (A) (A) (A) (A) (A) (A)
                 (A) (A) (A) (A) (A) (A) (A) (A) (A) (A) (A) (A)
                 (A) (A) (A) (A) (A) (A) (A) (A) (A) (A) (A) (A)
                 (A) (A) (A) (A) (A) (A) (A) (A) (A) (A) (A) (A)
                 (A) (A) (A) (A) (A) (A) (A) (A) (A) (A) (A) (A)
                 (A) (A) (A) (A) (A) (A) (A) (A) (A) (A) (A) (A)
                 (A) (A) (A) (A) (A) (A) (A) (A) (A) (A) (A) (A)
                 (A) (A) (A) (A) (A) (A) (A) (A) (A) (A) (A) (A)
                 (A) (A) (A) (A) (A) (A) (A) (A) (A) (A) (A) (A)
                 (A) (A) (A) (A) (A) (A) (A) (A) (A) (A) (A) (A)
                 (A) (A) (A) (A) (A) (A) (A) (A) (A) (A) (A) (A)
                 (A) (A) (A) (A) (A) (A) (A) (A) (A) (A) (A) (A)
                 (A) (A) (A) (A) (A) (A) (A) (A) (A) (A) (A) (A)
                 (A) (A) (A) (A) (A) (A) (A) (A) (A) (A) (A) (A)
                 (A) (A) (A) (A) (A) (A) (A) (A) (A) (A) (A) (A)
                 (A) (A) (A) (A) (A) (A) (A) (A) (A) (A) (A) (A)
                 (A) (A) (A) (A) (A) (A) (A) (A) (A) (A) (A) (A)
                 (A) (A) (A) (A) (A) (A) (A) (A) (A) (A) (A) (A)
                 (A) (A) (A) (A) (A) (A) (A) (A) (A) (A) (A) (A)
                 (A) (A) (A) (A) (A) (A) (A) (A) (A) (A) (A) (A)
                 (A) (A) (A) (A) (A) (A) (A) (A) (A) (A) (A) (A)
                 (A) (A) (A) (A) (A) (A) (A) (A) (A) (A) (A) (A)
                 (A) (A) (A) (A) (A) (A) (A) (A) (A) (A) (A) (A)
                 (A) (A) (A) (A) (A) (A) (A) (A) (A) (A) (A) (A)
                 (A) (A) (A) (A) (A) (A) (A) (A) (A) (A) (A) (A)
                 (A) (A) (A) (A) (A) (A) (A) (A) (A) (A) (A) (A)
                 (A) (A) (A) (A) (A) (A) (A) (A) (A) (A) (A) (A)
                 (A) (A) (A) (A) (A) (A) (A) (A) (A) (A) (A) (A)
                 (A) (A) (A) (A) (A) (A) (A) (A) (A) (A) (A) (A)
                 (A) (A) (A) (A) (A) (A) (A) (A) (A) (A) (A) (A)
                 (A) (A) (A) (A) (A) (A) (A) (A) (A) (A) (A) (A)
                 (A) (A) (A) (A) (A) (A) (A) (A) (A) (A) (A) (A)
                 (A) (A) (A) (A) (A) (A) (A) (A) (A) (A) (A) (A)
                 (A) (A) (A) (A) (A) (A) (A) (A) (A) (A) (A) (A)
                 (A) (A) (A) (A) (A) (A) (A) (A) (A) (A) (A) (A)
                 (A) (A) (A) (A) (A) (A) (A) (A) (A) (A) (A) (A)
                 (A) (A) (A) (A) (A) (A) (A) (A) (A) (A) (A) (A)
                 (A) (A) (A) (A) (A) (A) (A) (A) (A) (A) (A) (A)
                 (A) (A) (A) (A) (A) (A) (A) (A) (A) (A) (A) (A)
                 (A) (A) (A) (A) (A) (A) (A) (A) (A) (A) (A) (A)
                 (A) (A) (A) (A) (A) (A) (A) (A) (A) (A) (A) (A)
                 (A) (A) (A) (A) (A) (A) (A) (A) (A) (A) (A) (A)
                 (A) (A) (A) (A) (A) (A) (A) (A) (A) (A) (A) (A)
                 (A) (A) (A) (A) (A) (A) (A) (A) (A) (A) (A) (A)
                 (A) (A) (A) (A) (A) (A) (A) (A) (A) (A) (A) (A)
                 (A) (A) (A) (A) (A) (A) (A) (A) (A) (A) (A) (A)
                 (A) (A) (A) (A) (A) (A) (A) (A) (A) (A) (A) (A)
                 (A) (A) (A) (A) (A) (A) (A) (A) (A) (A) (A) (A)
                 (A) (A) (A) (A) (A) (A) (A) (A) (A) (A) (A) (A)
                 (A) (A) (A) (A) (A) (A) (A) (A) (A) (A) (A) (A)
                 (A) (A) (A) (A) (A) (A) (A) (A) (A) (A) (A) (A)
                 (A) (A) (A) (A) (A) (A)
 The electronic state is 1-A.
 Alpha  occ. eigenvalues --  -25.70979 -25.70773 -25.70666 -25.70638 -25.70396
 Alpha  occ. eigenvalues --  -25.70385 -19.98558 -15.14196 -15.11941 -11.08816
 Alpha  occ. eigenvalues --  -11.08731 -10.97923 -10.90684 -10.87572 -10.86640
 Alpha  occ. eigenvalues --  -10.86201 -10.85888 -10.85307 -10.84620 -10.83277
 Alpha  occ. eigenvalues --  -10.81867  -1.57722  -1.57261  -1.48254  -1.47939
 Alpha  occ. eigenvalues --   -1.47777  -1.47645  -1.29544  -1.17102  -1.13389
 Alpha  occ. eigenvalues --   -1.08108  -0.98503  -0.97508  -0.96265  -0.89074
 Alpha  occ. eigenvalues --   -0.87273  -0.85015  -0.80426  -0.79695  -0.75618
 Alpha  occ. eigenvalues --   -0.75228  -0.74164  -0.73816  -0.73591  -0.73088
 Alpha  occ. eigenvalues --   -0.73064  -0.70649  -0.69052  -0.64762  -0.62397
 Alpha  occ. eigenvalues --   -0.62330  -0.61702  -0.61603  -0.61414  -0.59971
 Alpha  occ. eigenvalues --   -0.59823  -0.58534  -0.57924  -0.57320  -0.57144
 Alpha  occ. eigenvalues --   -0.56940  -0.56392  -0.55842  -0.55527  -0.55349
 Alpha  occ. eigenvalues --   -0.54421  -0.52770  -0.52638  -0.51196  -0.49219
 Alpha  occ. eigenvalues --   -0.48948  -0.47406  -0.47175  -0.45138  -0.44498
 Alpha  occ. eigenvalues --   -0.42639  -0.39961  -0.36849  -0.34844  -0.30897
 Alpha virt. eigenvalues --   -0.00143   0.01309   0.01993   0.02212   0.02427
 Alpha virt. eigenvalues --    0.02921   0.03564   0.03750   0.04407   0.04633
 Alpha virt. eigenvalues --    0.05020   0.05275   0.05802   0.06476   0.06698
 Alpha virt. eigenvalues --    0.06927   0.07213   0.07453   0.08090   0.08678
 Alpha virt. eigenvalues --    0.08923   0.09117   0.09344   0.09784   0.09841
 Alpha virt. eigenvalues --    0.10429   0.10524   0.10862   0.11134   0.11528
 Alpha virt. eigenvalues --    0.11815   0.12144   0.12404   0.12644   0.13127
 Alpha virt. eigenvalues --    0.13535   0.13599   0.13924   0.14294   0.14664
 Alpha virt. eigenvalues --    0.14724   0.15132   0.15344   0.15744   0.15952
 Alpha virt. eigenvalues --    0.16327   0.16997   0.17328   0.17529   0.17724
 Alpha virt. eigenvalues --    0.18071   0.18741   0.18910   0.18971   0.19299
 Alpha virt. eigenvalues --    0.19931   0.19995   0.20139   0.20729   0.21336
 Alpha virt. eigenvalues --    0.21568   0.21749   0.22005   0.22032   0.22163
 Alpha virt. eigenvalues --    0.22732   0.23257   0.23867   0.24143   0.24245
 Alpha virt. eigenvalues --    0.24386   0.24574   0.24900   0.25150   0.25537
 Alpha virt. eigenvalues --    0.25865   0.26380   0.26657   0.26810   0.26971
 Alpha virt. eigenvalues --    0.27499   0.27726   0.27883   0.28370   0.28604
 Alpha virt. eigenvalues --    0.28812   0.29144   0.29477   0.29578   0.29955
 Alpha virt. eigenvalues --    0.30112   0.30481   0.30581   0.30801   0.31105
 Alpha virt. eigenvalues --    0.31211   0.31346   0.31551   0.32168   0.32251
 Alpha virt. eigenvalues --    0.32640   0.32754   0.33094   0.33662   0.33754
 Alpha virt. eigenvalues --    0.34026   0.34551   0.34594   0.34963   0.35097
 Alpha virt. eigenvalues --    0.35127   0.35523   0.35897   0.36066   0.36331
 Alpha virt. eigenvalues --    0.36537   0.37048   0.37146   0.37401   0.37811
 Alpha virt. eigenvalues --    0.38046   0.38189   0.38341   0.38535   0.38784
 Alpha virt. eigenvalues --    0.39075   0.39150   0.39781   0.39991   0.40376
 Alpha virt. eigenvalues --    0.40642   0.40858   0.41101   0.41200   0.41658
 Alpha virt. eigenvalues --    0.41754   0.42053   0.42203   0.42576   0.42652
 Alpha virt. eigenvalues --    0.43072   0.43457   0.43573   0.43783   0.44062
 Alpha virt. eigenvalues --    0.44191   0.44724   0.45215   0.45345   0.45574
 Alpha virt. eigenvalues --    0.45874   0.46081   0.46620   0.46672   0.47193
 Alpha virt. eigenvalues --    0.47320   0.47816   0.48078   0.48203   0.48631
 Alpha virt. eigenvalues --    0.48858   0.49127   0.49334   0.49607   0.49898
 Alpha virt. eigenvalues --    0.50013   0.50346   0.50606   0.50939   0.51519
 Alpha virt. eigenvalues --    0.51957   0.52038   0.52452   0.52669   0.53000
 Alpha virt. eigenvalues --    0.53296   0.53575   0.53768   0.54086   0.54552
 Alpha virt. eigenvalues --    0.54909   0.55283   0.55652   0.56094   0.56383
 Alpha virt. eigenvalues --    0.57146   0.57497   0.57709   0.58156   0.58492
 Alpha virt. eigenvalues --    0.59088   0.59587   0.59874   0.60155   0.60451
 Alpha virt. eigenvalues --    0.60951   0.61382   0.61598   0.62141   0.62470
 Alpha virt. eigenvalues --    0.62983   0.63150   0.63931   0.64342   0.64669
 Alpha virt. eigenvalues --    0.65470   0.65915   0.66016   0.66181   0.66427
 Alpha virt. eigenvalues --    0.66617   0.67182   0.67880   0.68407   0.68603
 Alpha virt. eigenvalues --    0.69457   0.70038   0.70151   0.71160   0.71348
 Alpha virt. eigenvalues --    0.71699   0.72265   0.72879   0.73068   0.73306
 Alpha virt. eigenvalues --    0.73506   0.74090   0.74499   0.74740   0.75480
 Alpha virt. eigenvalues --    0.76208   0.76472   0.76627   0.76957   0.77580
 Alpha virt. eigenvalues --    0.77944   0.78298   0.78562   0.79041   0.79376
 Alpha virt. eigenvalues --    0.79780   0.80298   0.80578   0.81094   0.81275
 Alpha virt. eigenvalues --    0.81836   0.82251   0.82555   0.83128   0.83438
 Alpha virt. eigenvalues --    0.83758   0.84053   0.84458   0.84720   0.84791
 Alpha virt. eigenvalues --    0.85098   0.85292   0.85967   0.86168   0.86530
 Alpha virt. eigenvalues --    0.87083   0.87410   0.87902   0.88432   0.88721
 Alpha virt. eigenvalues --    0.89038   0.89567   0.89786   0.90009   0.90543
 Alpha virt. eigenvalues --    0.90681   0.90877   0.91441   0.91588   0.91985
 Alpha virt. eigenvalues --    0.92340   0.93182   0.93374   0.93447   0.94469
 Alpha virt. eigenvalues --    0.94661   0.94924   0.95320   0.96423   0.96608
 Alpha virt. eigenvalues --    0.96773   0.97101   0.97377   0.97887   0.98240
 Alpha virt. eigenvalues --    0.98504   0.98976   0.99161   0.99313   0.99720
 Alpha virt. eigenvalues --    1.00213   1.00905   1.01290   1.01998   1.02225
 Alpha virt. eigenvalues --    1.02427   1.02575   1.02817   1.03298   1.03486
 Alpha virt. eigenvalues --    1.04003   1.04492   1.04975   1.05129   1.05454
 Alpha virt. eigenvalues --    1.05993   1.06271   1.06613   1.07080   1.07421
 Alpha virt. eigenvalues --    1.07560   1.07614   1.07958   1.08206   1.08814
 Alpha virt. eigenvalues --    1.09211   1.09537   1.09871   1.10253   1.11141
 Alpha virt. eigenvalues --    1.11353   1.11626   1.11684   1.11839   1.12462
 Alpha virt. eigenvalues --    1.12664   1.13331   1.13706   1.14481   1.15084
 Alpha virt. eigenvalues --    1.15314   1.15582   1.15747   1.16164   1.16358
 Alpha virt. eigenvalues --    1.16726   1.17138   1.17702   1.18042   1.18314
 Alpha virt. eigenvalues --    1.18661   1.18861   1.19453   1.19772   1.20011
 Alpha virt. eigenvalues --    1.21068   1.21305   1.21714   1.22174   1.22757
 Alpha virt. eigenvalues --    1.22924   1.23182   1.23666   1.24174   1.24737
 Alpha virt. eigenvalues --    1.25184   1.25521   1.25920   1.26155   1.26921
 Alpha virt. eigenvalues --    1.27268   1.27436   1.27566   1.28374   1.28841
 Alpha virt. eigenvalues --    1.29321   1.29401   1.29808   1.29989   1.30716
 Alpha virt. eigenvalues --    1.30874   1.31328   1.31893   1.32672   1.33053
 Alpha virt. eigenvalues --    1.33455   1.33670   1.34409   1.34526   1.34897
 Alpha virt. eigenvalues --    1.35261   1.35445   1.36052   1.36549   1.36961
 Alpha virt. eigenvalues --    1.37115   1.37573   1.38088   1.38481   1.38802
 Alpha virt. eigenvalues --    1.38871   1.39637   1.39970   1.40604   1.40932
 Alpha virt. eigenvalues --    1.41072   1.41795   1.42299   1.42906   1.43026
 Alpha virt. eigenvalues --    1.43542   1.44090   1.44354   1.44873   1.45843
 Alpha virt. eigenvalues --    1.45922   1.46477   1.47068   1.47325   1.48480
 Alpha virt. eigenvalues --    1.49211   1.49359   1.49892   1.50272   1.51111
 Alpha virt. eigenvalues --    1.51519   1.51851   1.52118   1.53096   1.53281
 Alpha virt. eigenvalues --    1.54226   1.54456   1.55070   1.55774   1.55801
 Alpha virt. eigenvalues --    1.56723   1.57013   1.57309   1.58188   1.58290
 Alpha virt. eigenvalues --    1.58563   1.59384   1.59527   1.60062   1.61133
 Alpha virt. eigenvalues --    1.61326   1.61720   1.61906   1.62232   1.62774
 Alpha virt. eigenvalues --    1.63106   1.63897   1.64031   1.64360   1.64920
 Alpha virt. eigenvalues --    1.65185   1.66248   1.66344   1.66692   1.67807
 Alpha virt. eigenvalues --    1.68178   1.68448   1.68543   1.68933   1.69229
 Alpha virt. eigenvalues --    1.70239   1.70519   1.71218   1.71713   1.72404
 Alpha virt. eigenvalues --    1.72756   1.73643   1.73874   1.74143   1.74664
 Alpha virt. eigenvalues --    1.75510   1.75674   1.76441   1.76958   1.77231
 Alpha virt. eigenvalues --    1.77581   1.78158   1.78868   1.79068   1.79579
 Alpha virt. eigenvalues --    1.79947   1.80651   1.81536   1.82105   1.82643
 Alpha virt. eigenvalues --    1.82922   1.83703   1.84067   1.84586   1.84805
 Alpha virt. eigenvalues --    1.85454   1.86215   1.86592   1.86870   1.87661
 Alpha virt. eigenvalues --    1.87792   1.88463   1.88858   1.89640   1.89876
 Alpha virt. eigenvalues --    1.89958   1.90341   1.90870   1.91210   1.91600
 Alpha virt. eigenvalues --    1.93140   1.93572   1.93897   1.94307   1.95243
 Alpha virt. eigenvalues --    1.95854   1.96078   1.96386   1.97350   1.97673
 Alpha virt. eigenvalues --    1.98125   1.98355   1.98713   1.99312   2.00129
 Alpha virt. eigenvalues --    2.00511   2.01856   2.02128   2.02514   2.02928
 Alpha virt. eigenvalues --    2.03340   2.03936   2.04550   2.05893   2.06356
 Alpha virt. eigenvalues --    2.07082   2.07625   2.07945   2.08505   2.09353
 Alpha virt. eigenvalues --    2.10387   2.11081   2.11831   2.12810   2.12968
 Alpha virt. eigenvalues --    2.13880   2.14350   2.14936   2.15448   2.16421
 Alpha virt. eigenvalues --    2.17130   2.18137   2.18639   2.19041   2.21054
 Alpha virt. eigenvalues --    2.21349   2.21387   2.21870   2.22625   2.23072
 Alpha virt. eigenvalues --    2.23895   2.24827   2.25540   2.26359   2.27211
 Alpha virt. eigenvalues --    2.28120   2.28830   2.30198   2.30448   2.31523
 Alpha virt. eigenvalues --    2.32265   2.32797   2.33204   2.34253   2.34510
 Alpha virt. eigenvalues --    2.35845   2.36851   2.37566   2.38439   2.38713
 Alpha virt. eigenvalues --    2.39263   2.39598   2.40275   2.41459   2.42991
 Alpha virt. eigenvalues --    2.43509   2.44843   2.45212   2.46035   2.47545
 Alpha virt. eigenvalues --    2.48694   2.49659   2.49918   2.50323   2.50733
 Alpha virt. eigenvalues --    2.51484   2.52320   2.52723   2.54624   2.56437
 Alpha virt. eigenvalues --    2.57381   2.58228   2.59052   2.60207   2.61641
 Alpha virt. eigenvalues --    2.62612   2.62836   2.64494   2.65999   2.66084
 Alpha virt. eigenvalues --    2.67802   2.68601   2.69665   2.69958   2.71409
 Alpha virt. eigenvalues --    2.72448   2.72887   2.73529   2.74318   2.75632
 Alpha virt. eigenvalues --    2.76047   2.76966   2.78043   2.78606   2.79343
 Alpha virt. eigenvalues --    2.79897   2.80776   2.80919   2.82679   2.83629
 Alpha virt. eigenvalues --    2.84517   2.85589   2.86348   2.86772   2.87448
 Alpha virt. eigenvalues --    2.88182   2.89294   2.90100   2.90923   2.91272
 Alpha virt. eigenvalues --    2.91926   2.92568   2.92925   2.94459   2.95475
 Alpha virt. eigenvalues --    2.96352   2.97269   2.97751   2.98369   2.99604
 Alpha virt. eigenvalues --    3.00081   3.00627   3.01244   3.02810   3.03205
 Alpha virt. eigenvalues --    3.04174   3.05406   3.06479   3.06962   3.07451
 Alpha virt. eigenvalues --    3.08226   3.09239   3.09750   3.10631   3.11117
 Alpha virt. eigenvalues --    3.11408   3.12967   3.13277   3.14719   3.15552
 Alpha virt. eigenvalues --    3.16465   3.17725   3.18083   3.19032   3.19282
 Alpha virt. eigenvalues --    3.19876   3.22150   3.23082   3.23717   3.24301
 Alpha virt. eigenvalues --    3.24498   3.25084   3.26824   3.27032   3.27405
 Alpha virt. eigenvalues --    3.27761   3.28804   3.29287   3.29380   3.30640
 Alpha virt. eigenvalues --    3.31126   3.31666   3.32354   3.32417   3.32972
 Alpha virt. eigenvalues --    3.34210   3.34694   3.35354   3.35703   3.36300
 Alpha virt. eigenvalues --    3.36847   3.36990   3.37474   3.37993   3.38987
 Alpha virt. eigenvalues --    3.39591   3.40226   3.40616   3.41422   3.42484
 Alpha virt. eigenvalues --    3.43134   3.43699   3.44250   3.45263   3.45612
 Alpha virt. eigenvalues --    3.46517   3.47149   3.47940   3.48537   3.48750
 Alpha virt. eigenvalues --    3.50127   3.50510   3.51807   3.52382   3.53322
 Alpha virt. eigenvalues --    3.53815   3.54946   3.55355   3.56092   3.56812
 Alpha virt. eigenvalues --    3.57569   3.57776   3.58116   3.59499   3.59643
 Alpha virt. eigenvalues --    3.59745   3.60468   3.60906   3.61421   3.61817
 Alpha virt. eigenvalues --    3.62962   3.63107   3.63552   3.64016   3.65164
 Alpha virt. eigenvalues --    3.65314   3.65714   3.65856   3.66474   3.66957
 Alpha virt. eigenvalues --    3.67372   3.68469   3.69043   3.69221   3.69972
 Alpha virt. eigenvalues --    3.70298   3.70742   3.71567   3.72294   3.72771
 Alpha virt. eigenvalues --    3.73685   3.74253   3.74399   3.75401   3.76489
 Alpha virt. eigenvalues --    3.77008   3.77861   3.78795   3.78933   3.79500
 Alpha virt. eigenvalues --    3.80024   3.80701   3.81467   3.82126   3.82992
 Alpha virt. eigenvalues --    3.83375   3.83576   3.84183   3.84538   3.84711
 Alpha virt. eigenvalues --    3.85568   3.86001   3.86653   3.87403   3.87725
 Alpha virt. eigenvalues --    3.88322   3.88763   3.89143   3.89873   3.90806
 Alpha virt. eigenvalues --    3.91422   3.93301   3.93699   3.93920   3.94680
 Alpha virt. eigenvalues --    3.94965   3.95823   3.97558   3.98723   3.99523
 Alpha virt. eigenvalues --    4.00051   4.00767   4.01491   4.02007   4.02495
 Alpha virt. eigenvalues --    4.03653   4.04383   4.04842   4.05466   4.06010
 Alpha virt. eigenvalues --    4.06801   4.07083   4.08046   4.08274   4.08935
 Alpha virt. eigenvalues --    4.09316   4.10063   4.10532   4.10773   4.12085
 Alpha virt. eigenvalues --    4.12397   4.13195   4.14125   4.14572   4.14847
 Alpha virt. eigenvalues --    4.15695   4.16233   4.16874   4.17076   4.17736
 Alpha virt. eigenvalues --    4.18028   4.18255   4.19626   4.20586   4.21329
 Alpha virt. eigenvalues --    4.23070   4.23522   4.23780   4.24148   4.24673
 Alpha virt. eigenvalues --    4.25553   4.26125   4.26690   4.28081   4.28732
 Alpha virt. eigenvalues --    4.29298   4.30377   4.31188   4.32110   4.32450
 Alpha virt. eigenvalues --    4.33703   4.33958   4.34432   4.35519   4.35951
 Alpha virt. eigenvalues --    4.36370   4.37207   4.37673   4.38792   4.39946
 Alpha virt. eigenvalues --    4.40837   4.41237   4.42592   4.43208   4.43274
 Alpha virt. eigenvalues --    4.44790   4.46474   4.46761   4.47456   4.47949
 Alpha virt. eigenvalues --    4.49026   4.50509   4.50786   4.51335   4.52754
 Alpha virt. eigenvalues --    4.53505   4.53855   4.54716   4.55475   4.57015
 Alpha virt. eigenvalues --    4.57301   4.57579   4.58681   4.59535   4.60178
 Alpha virt. eigenvalues --    4.60764   4.61889   4.62963   4.63475   4.63749
 Alpha virt. eigenvalues --    4.64391   4.64645   4.65977   4.68325   4.69245
 Alpha virt. eigenvalues --    4.69893   4.71013   4.71918   4.72166   4.73643
 Alpha virt. eigenvalues --    4.74810   4.75074   4.75407   4.76199   4.76940
 Alpha virt. eigenvalues --    4.78496   4.79360   4.79998   4.81339   4.81718
 Alpha virt. eigenvalues --    4.83114   4.83659   4.83963   4.84463   4.85324
 Alpha virt. eigenvalues --    4.86977   4.87458   4.88188   4.89125   4.89330
 Alpha virt. eigenvalues --    4.91754   4.91839   4.92603   4.94146   4.94239
 Alpha virt. eigenvalues --    4.95603   4.96646   4.97061   4.97855   4.98849
 Alpha virt. eigenvalues --    4.99077   4.99911   5.01508   5.02827   5.03658
 Alpha virt. eigenvalues --    5.05209   5.05372   5.05928   5.06999   5.08107
 Alpha virt. eigenvalues --    5.08666   5.09151   5.11284   5.12164   5.12603
 Alpha virt. eigenvalues --    5.14412   5.15509   5.15584   5.17675   5.18748
 Alpha virt. eigenvalues --    5.19680   5.21523   5.22086   5.22937   5.23875
 Alpha virt. eigenvalues --    5.24748   5.25046   5.25829   5.28326   5.30033
 Alpha virt. eigenvalues --    5.31339   5.33728   5.33953   5.34801   5.37565
 Alpha virt. eigenvalues --    5.38640   5.40075   5.41247   5.43245   5.44209
 Alpha virt. eigenvalues --    5.46095   5.46380   5.47357   5.48082   5.50691
 Alpha virt. eigenvalues --    5.52168   5.53256   5.53993   5.55578   5.58307
 Alpha virt. eigenvalues --    5.58807   5.59525   5.61170   5.62295   5.62793
 Alpha virt. eigenvalues --    5.63277   5.64326   5.68004   5.69133   5.70459
 Alpha virt. eigenvalues --    5.71433   5.72341   5.73419   5.74598   5.75494
 Alpha virt. eigenvalues --    5.76995   5.80693   5.81555   5.82149   5.82448
 Alpha virt. eigenvalues --    5.84597   5.85173   5.85950   5.88382   5.89249
 Alpha virt. eigenvalues --    5.90666   5.92721   5.93048   5.96578   5.98250
 Alpha virt. eigenvalues --    5.98589   5.99329   6.01170   6.02260   6.03486
 Alpha virt. eigenvalues --    6.04131   6.04511   6.06822   6.07401   6.10970
 Alpha virt. eigenvalues --    6.11271   6.12799   6.16033   6.18566   6.20644
 Alpha virt. eigenvalues --    6.24106   6.25319   6.27634   6.29511   6.33117
 Alpha virt. eigenvalues --    6.39092   6.40303   6.41970   6.49510   6.54751
 Alpha virt. eigenvalues --    6.58602   6.60088   6.61170   6.62230   6.66504
 Alpha virt. eigenvalues --    6.67484   6.69526   6.71144   6.74509   6.76777
 Alpha virt. eigenvalues --    6.80946   6.82342   6.85833   6.88298   6.90747
 Alpha virt. eigenvalues --    6.93310   6.99274   7.05019   7.08235   7.11379
 Alpha virt. eigenvalues --    7.12851   7.18036   7.21222   7.22303   7.24517
 Alpha virt. eigenvalues --    7.30758   7.31597   7.33151   7.45231   7.52439
 Alpha virt. eigenvalues --    7.53820   7.61106   7.78330   7.81203   7.93389
 Alpha virt. eigenvalues --    8.72011   8.76113   8.77114   8.77413   8.79088
 Alpha virt. eigenvalues --    8.80264   8.80659   8.82425   8.83142   8.84481
 Alpha virt. eigenvalues --    8.86752   8.89044   8.93957   8.95911   8.98636
 Alpha virt. eigenvalues --    9.00519   9.08165   9.10096   9.11137   9.11794
 Alpha virt. eigenvalues --    9.12440   9.14042   9.15500   9.16126   9.17226
 Alpha virt. eigenvalues --    9.18610   9.19445   9.19919   9.21573   9.22484
 Alpha virt. eigenvalues --    9.23904   9.24697   9.25730   9.27056   9.27986
 Alpha virt. eigenvalues --    9.28064   9.28575   9.29121   9.30870   9.31250
 Alpha virt. eigenvalues --    9.31748   9.33878   9.34329   9.35404   9.35502
 Alpha virt. eigenvalues --    9.38500   9.39950   9.41300   9.42031   9.43309
 Alpha virt. eigenvalues --    9.45299   9.47204   9.47699   9.49135   9.50929
 Alpha virt. eigenvalues --    9.51513   9.52872   9.53807   9.55189   9.56436
 Alpha virt. eigenvalues --    9.59098   9.62356   9.73448   9.74805   9.75745
 Alpha virt. eigenvalues --    9.78257   9.80760   9.84969   9.96020   9.98288
 Alpha virt. eigenvalues --   10.01193  10.02275  15.79870  15.90962  16.11208
 Alpha virt. eigenvalues --   16.16849  16.39743  16.42716  16.55072  16.66473
 Alpha virt. eigenvalues --   16.99218  17.20030  17.41691  17.65577  18.04382
 Alpha virt. eigenvalues --   18.15831  18.89499  19.14169  20.22483  20.33217
 Alpha virt. eigenvalues --   20.82758  21.10248  21.39979
          Condensed to atoms (all electrons):
               1          2          3          4          5          6
     1  C   10.260124  -0.538891  -0.794273   0.154309  -0.152327  -0.005805
     2  N   -0.538891   8.466121   0.364368  -0.080998  -0.421054  -0.160913
     3  C   -0.794273   0.364368   6.515416   0.260875   0.149325  -0.327095
     4  O    0.154309  -0.080998   0.260875   8.889863  -0.220850  -0.044971
     5  N   -0.152327  -0.421054   0.149325  -0.220850   7.478348   0.247048
     6  C   -0.005805  -0.160913  -0.327095  -0.044971   0.247048   5.744636
     7  C   -0.010869  -0.039224   0.031552  -0.012194  -0.095790   0.075595
     8  C    0.001067   0.005252  -0.008891   0.000688  -0.008409  -0.027169
     9  C   -1.362804  -0.293870  -0.033753  -0.176641  -0.002469  -0.024225
    10  C   -0.213970   0.125098  -0.020367   0.024185   0.005617  -0.010078
    11  C    0.158943  -0.072994  -0.013405  -0.000870  -0.007122   0.000799
    12  C   -0.707773   0.244539  -0.046296   0.007580   0.030884  -0.003197
    13  C   -0.741671  -0.533991   0.056925  -0.001326  -0.039880  -0.004027
    14  H    0.074236   0.165240  -0.147107   0.021237   0.135607   0.005245
    15  H   -0.015591   0.073975  -0.069927   0.003883   0.192925   0.007818
    16  H   -0.003289   0.001993  -0.073893   0.007455  -0.039008   0.413763
    17  H   -0.014840   0.011701   0.014398   0.011787  -0.074244   0.296289
    18  H   -0.001493  -0.008546   0.001544   0.000431  -0.011012   0.023014
    19  H   -0.001683  -0.001070   0.019197   0.002722  -0.049632  -0.027461
    20  H    0.000594   0.000015   0.002493  -0.000231   0.001691  -0.005755
    21  H    0.000112  -0.000297   0.001079  -0.000141  -0.000925  -0.002317
    22  H   -0.000077   0.000294   0.004026  -0.000113   0.003098  -0.007064
    23  H   -0.669111   0.067258  -0.053477  -0.069217   0.052384  -0.023428
    24  H   -0.082425  -0.014907   0.028476  -0.001317  -0.018387   0.003790
    25  C    0.007938   0.015038   0.002469   0.000600   0.001583   0.000092
    26  C    0.020746   0.004684  -0.005871  -0.001659   0.001697  -0.000629
    27  H   -0.022874  -0.039575  -0.022349   0.001292   0.000269  -0.000627
    28  F   -0.008793   0.001158  -0.000009  -0.000015  -0.000008  -0.000009
    29  F   -0.022119   0.002511   0.000385  -0.000002   0.000052   0.000013
    30  F    0.008910   0.002148   0.000936  -0.000057   0.000043   0.000013
    31  F   -0.033749   0.014059   0.006947  -0.004745   0.002063   0.001236
    32  F    0.027940  -0.007092  -0.004199   0.001179  -0.000389  -0.000246
    33  F    0.002414  -0.000662   0.001024  -0.000100   0.000058   0.000051
               7          8          9         10         11         12
     1  C   -0.010869   0.001067  -1.362804  -0.213970   0.158943  -0.707773
     2  N   -0.039224   0.005252  -0.293870   0.125098  -0.072994   0.244539
     3  C    0.031552  -0.008891  -0.033753  -0.020367  -0.013405  -0.046296
     4  O   -0.012194   0.000688  -0.176641   0.024185  -0.000870   0.007580
     5  N   -0.095790  -0.008409  -0.002469   0.005617  -0.007122   0.030884
     6  C    0.075595  -0.027169  -0.024225  -0.010078   0.000799  -0.003197
     7  C    5.491946   0.122903   0.002805  -0.000556   0.000250  -0.000449
     8  C    0.122903   5.755658  -0.000140  -0.000017   0.000048  -0.000071
     9  C    0.002805  -0.000140  10.674438  -1.006226  -0.337741  -0.114287
    10  C   -0.000556  -0.000017  -1.006226   9.101384  -1.261635  -0.020796
    11  C    0.000250   0.000048  -0.337741  -1.261635   8.750771  -0.986640
    12  C   -0.000449  -0.000071  -0.114287  -0.020796  -0.986640   9.497934
    13  C    0.001333  -0.000136  -0.147543  -0.110064  -0.041772  -0.579710
    14  H    0.004847  -0.000153  -0.027629  -0.003867  -0.006675  -0.007965
    15  H   -0.021391   0.004001   0.005379  -0.000437   0.000916  -0.000211
    16  H   -0.019385  -0.007866   0.003696   0.000139   0.000064  -0.000616
    17  H    0.001869  -0.004612   0.006827  -0.001214  -0.000067  -0.000259
    18  H    0.422312  -0.024327   0.000205   0.000004  -0.000073  -0.000116
    19  H    0.417391  -0.017588  -0.000007  -0.000046   0.000039  -0.000045
    20  H    0.034988   0.371665  -0.000041   0.000027   0.000016   0.000002
    21  H   -0.029967   0.444824  -0.000048  -0.000005   0.000003  -0.000005
    22  H    0.029927   0.373282   0.000253  -0.000005  -0.000012   0.000017
    23  H    0.000263  -0.000444  -0.041496  -0.384077  -0.077165  -0.001626
    24  H    0.000082   0.000000  -0.014475  -0.042985   0.081927  -0.413592
    25  C   -0.000010   0.000000   0.025015  -0.223071  -0.362922  -0.449674
    26  C    0.000014  -0.000024  -0.384474  -0.360768  -0.133994   0.067971
    27  H   -0.000041  -0.000001   0.023387  -0.054599  -0.133394   0.303537
    28  F   -0.000001  -0.000000   0.004267   0.006652   0.000183  -0.020447
    29  F   -0.000000   0.000000  -0.003572   0.018697  -0.007706  -0.008943
    30  F    0.000001  -0.000000  -0.012980  -0.025341   0.068174  -0.015734
    31  F    0.000030  -0.000001   0.026626  -0.018823  -0.002060   0.000844
    32  F   -0.000010   0.000000  -0.019798   0.022050  -0.003993   0.003089
    33  F    0.000003  -0.000000  -0.031153  -0.024131   0.053614   0.003055
              13         14         15         16         17         18
     1  C   -0.741671   0.074236  -0.015591  -0.003289  -0.014840  -0.001493
     2  N   -0.533991   0.165240   0.073975   0.001993   0.011701  -0.008546
     3  C    0.056925  -0.147107  -0.069927  -0.073893   0.014398   0.001544
     4  O   -0.001326   0.021237   0.003883   0.007455   0.011787   0.000431
     5  N   -0.039880   0.135607   0.192925  -0.039008  -0.074244  -0.011012
     6  C   -0.004027   0.005245   0.007818   0.413763   0.296289   0.023014
     7  C    0.001333   0.004847  -0.021391  -0.019385   0.001869   0.422312
     8  C   -0.000136  -0.000153   0.004001  -0.007866  -0.004612  -0.024327
     9  C   -0.147543  -0.027629   0.005379   0.003696   0.006827   0.000205
    10  C   -0.110064  -0.003867  -0.000437   0.000139  -0.001214   0.000004
    11  C   -0.041772  -0.006675   0.000916   0.000064  -0.000067  -0.000073
    12  C   -0.579710  -0.007965  -0.000211  -0.000616  -0.000259  -0.000116
    13  C    8.740274   0.024801   0.000430   0.001066   0.000491   0.000229
    14  H    0.024801   0.853986  -0.025941  -0.000152  -0.000775  -0.000246
    15  H    0.000430  -0.025941   0.759606  -0.008175   0.026838  -0.008898
    16  H    0.001066  -0.000152  -0.008175   0.408784   0.032418   0.006384
    17  H    0.000491  -0.000775   0.026838   0.032418   0.414462  -0.004886
    18  H    0.000229  -0.000246  -0.008898   0.006384  -0.004886   0.371658
    19  H   -0.000002   0.000250   0.012107  -0.012757   0.014365  -0.001403
    20  H   -0.000013   0.000028  -0.000087  -0.007217  -0.011285   0.002677
    21  H   -0.000032   0.000029   0.000589   0.000397   0.000180  -0.003957
    22  H    0.000063  -0.000061  -0.000094  -0.009613  -0.007660   0.000243
    23  H   -0.063577  -0.022528   0.000520  -0.006170  -0.001410   0.000124
    24  H    0.209084  -0.058375  -0.000971   0.000319   0.000164   0.000123
    25  C    0.035425   0.000369  -0.000065  -0.000016  -0.000005  -0.000004
    26  C    0.006151  -0.001389   0.000074  -0.000310  -0.000102   0.000005
    27  H   -0.217443  -0.006133   0.000375  -0.000074  -0.000083  -0.000027
    28  F   -0.003711   0.000008   0.000006   0.000001  -0.000001  -0.000000
    29  F    0.014771   0.000034  -0.000002   0.000002   0.000001  -0.000000
    30  F    0.005579  -0.000117  -0.000023   0.000001   0.000003   0.000001
    31  F   -0.003725  -0.000184  -0.000001   0.000088   0.000059   0.000003
    32  F   -0.004910   0.000168   0.000025  -0.000031  -0.000025  -0.000003
    33  F   -0.002319   0.000054  -0.000016   0.000006  -0.000005   0.000001
              19         20         21         22         23         24
     1  C   -0.001683   0.000594   0.000112  -0.000077  -0.669111  -0.082425
     2  N   -0.001070   0.000015  -0.000297   0.000294   0.067258  -0.014907
     3  C    0.019197   0.002493   0.001079   0.004026  -0.053477   0.028476
     4  O    0.002722  -0.000231  -0.000141  -0.000113  -0.069217  -0.001317
     5  N   -0.049632   0.001691  -0.000925   0.003098   0.052384  -0.018387
     6  C   -0.027461  -0.005755  -0.002317  -0.007064  -0.023428   0.003790
     7  C    0.417391   0.034988  -0.029967   0.029927   0.000263   0.000082
     8  C   -0.017588   0.371665   0.444824   0.373282  -0.000444   0.000000
     9  C   -0.000007  -0.000041  -0.000048   0.000253  -0.041496  -0.014475
    10  C   -0.000046   0.000027  -0.000005  -0.000005  -0.384077  -0.042985
    11  C    0.000039   0.000016   0.000003  -0.000012  -0.077165   0.081927
    12  C   -0.000045   0.000002  -0.000005   0.000017  -0.001626  -0.413592
    13  C   -0.000002  -0.000013  -0.000032   0.000063  -0.063577   0.209084
    14  H    0.000250   0.000028   0.000029  -0.000061  -0.022528  -0.058375
    15  H    0.012107  -0.000087   0.000589  -0.000094   0.000520  -0.000971
    16  H   -0.012757  -0.007217   0.000397  -0.009613  -0.006170   0.000319
    17  H    0.014365  -0.011285   0.000180  -0.007660  -0.001410   0.000164
    18  H   -0.001403   0.002677  -0.003957   0.000243   0.000124   0.000123
    19  H    0.394920  -0.002382   0.001195  -0.001209  -0.000085   0.000045
    20  H   -0.002382   0.316608  -0.001562   0.023146   0.000040  -0.000008
    21  H    0.001195  -0.001562   0.313574   0.000162  -0.000014   0.000001
    22  H   -0.001209   0.023146   0.000162   0.313456   0.000139  -0.000004
    23  H   -0.000085   0.000040  -0.000014   0.000139   2.049283  -0.043320
    24  H    0.000045  -0.000008   0.000001  -0.000004  -0.043320   1.061953
    25  C    0.000002   0.000001   0.000000   0.000000  -0.000184  -0.011854
    26  C    0.000004   0.000002  -0.000003   0.000008  -0.121089  -0.003021
    27  H    0.000002   0.000002  -0.000000   0.000001   0.015240  -0.122033
    28  F    0.000000   0.000000  -0.000000  -0.000000  -0.002474  -0.000263
    29  F    0.000000  -0.000000   0.000000  -0.000000  -0.000651  -0.003953
    30  F   -0.000000  -0.000000   0.000000   0.000000  -0.000450   0.002101
    31  F    0.000006  -0.000001   0.000000  -0.000002  -0.039834   0.000115
    32  F   -0.000000   0.000000  -0.000000   0.000000   0.004309  -0.000362
    33  F   -0.000000   0.000000  -0.000000   0.000000   0.004779  -0.000145
              25         26         27         28         29         30
     1  C    0.007938   0.020746  -0.022874  -0.008793  -0.022119   0.008910
     2  N    0.015038   0.004684  -0.039575   0.001158   0.002511   0.002148
     3  C    0.002469  -0.005871  -0.022349  -0.000009   0.000385   0.000936
     4  O    0.000600  -0.001659   0.001292  -0.000015  -0.000002  -0.000057
     5  N    0.001583   0.001697   0.000269  -0.000008   0.000052   0.000043
     6  C    0.000092  -0.000629  -0.000627  -0.000009   0.000013   0.000013
     7  C   -0.000010   0.000014  -0.000041  -0.000001  -0.000000   0.000001
     8  C    0.000000  -0.000024  -0.000001  -0.000000   0.000000  -0.000000
     9  C    0.025015  -0.384474   0.023387   0.004267  -0.003572  -0.012980
    10  C   -0.223071  -0.360768  -0.054599   0.006652   0.018697  -0.025341
    11  C   -0.362922  -0.133994  -0.133394   0.000183  -0.007706   0.068174
    12  C   -0.449674   0.067971   0.303537  -0.020447  -0.008943  -0.015734
    13  C    0.035425   0.006151  -0.217443  -0.003711   0.014771   0.005579
    14  H    0.000369  -0.001389  -0.006133   0.000008   0.000034  -0.000117
    15  H   -0.000065   0.000074   0.000375   0.000006  -0.000002  -0.000023
    16  H   -0.000016  -0.000310  -0.000074   0.000001   0.000002   0.000001
    17  H   -0.000005  -0.000102  -0.000083  -0.000001   0.000001   0.000003
    18  H   -0.000004   0.000005  -0.000027  -0.000000  -0.000000   0.000001
    19  H    0.000002   0.000004   0.000002   0.000000   0.000000  -0.000000
    20  H    0.000001   0.000002   0.000002   0.000000  -0.000000  -0.000000
    21  H    0.000000  -0.000003  -0.000000  -0.000000   0.000000   0.000000
    22  H    0.000000   0.000008   0.000001  -0.000000  -0.000000   0.000000
    23  H   -0.000184  -0.121089   0.015240  -0.002474  -0.000651  -0.000450
    24  H   -0.011854  -0.003021  -0.122033  -0.000263  -0.003953   0.002101
    25  C    5.347447  -0.035242  -0.086531   0.182482   0.160773   0.137842
    26  C   -0.035242   5.147618   0.003214   0.016752   0.003127  -0.005425
    27  H   -0.086531   0.003214   1.007929   0.005253  -0.002836  -0.000054
    28  F    0.182482   0.016752   0.005253   9.355314  -0.083205  -0.025006
    29  F    0.160773   0.003127  -0.002836  -0.083205   9.380923  -0.065729
    30  F    0.137842  -0.005425  -0.000054  -0.025006  -0.065729   9.339148
    31  F    0.007079   0.205112  -0.000362   0.005581   0.000285  -0.000987
    32  F    0.001273   0.154210  -0.000056  -0.002542  -0.000503  -0.002208
    33  F    0.005709   0.175204  -0.001432  -0.001248   0.004466  -0.003251
              31         32         33
     1  C   -0.033749   0.027940   0.002414
     2  N    0.014059  -0.007092  -0.000662
     3  C    0.006947  -0.004199   0.001024
     4  O   -0.004745   0.001179  -0.000100
     5  N    0.002063  -0.000389   0.000058
     6  C    0.001236  -0.000246   0.000051
     7  C    0.000030  -0.000010   0.000003
     8  C   -0.000001   0.000000  -0.000000
     9  C    0.026626  -0.019798  -0.031153
    10  C   -0.018823   0.022050  -0.024131
    11  C   -0.002060  -0.003993   0.053614
    12  C    0.000844   0.003089   0.003055
    13  C   -0.003725  -0.004910  -0.002319
    14  H   -0.000184   0.000168   0.000054
    15  H   -0.000001   0.000025  -0.000016
    16  H    0.000088  -0.000031   0.000006
    17  H    0.000059  -0.000025  -0.000005
    18  H    0.000003  -0.000003   0.000001
    19  H    0.000006  -0.000000  -0.000000
    20  H   -0.000001   0.000000   0.000000
    21  H    0.000000  -0.000000  -0.000000
    22  H   -0.000002   0.000000   0.000000
    23  H   -0.039834   0.004309   0.004779
    24  H    0.000115  -0.000362  -0.000145
    25  C    0.007079   0.001273   0.005709
    26  C    0.205112   0.154210   0.175204
    27  H   -0.000362  -0.000056  -0.001432
    28  F    0.005581  -0.002542  -0.001248
    29  F    0.000285  -0.000503   0.004466
    30  F   -0.000987  -0.002208  -0.003251
    31  F    9.363542  -0.066789  -0.088991
    32  F   -0.066789   9.332676  -0.024033
    33  F   -0.088991  -0.024033   9.356647
 Mulliken charges:
               1
     1  C    0.687095
     2  N   -0.351371
     3  C    0.159477
     4  O   -0.772636
     5  N   -0.161189
     6  C   -0.144386
     7  C   -0.408223
     8  C   -0.979538
     9  C   -0.737526
    10  C    0.479223
    11  C    0.334494
    12  C   -0.781002
    13  C   -0.600772
    14  H    0.023156
    15  H    0.062366
    16  H    0.311996
    17  H    0.289621
    18  H    0.236034
    19  H    0.253128
    20  H    0.274588
    21  H    0.277127
    22  H    0.277798
    23  H    0.427486
    24  H    0.444216
    25  C    1.238441
    26  C    1.247407
    27  H    0.350023
    28  F   -0.429925
    29  F   -0.386817
    30  F   -0.407541
    31  F   -0.373421
    32  F   -0.409729
    33  F   -0.429601
 Sum of Mulliken charges =  -0.00000
 Mulliken charges with hydrogens summed into heavy atoms:
               1
     1  C    0.687095
     2  N   -0.328215
     3  C    0.159477
     4  O   -0.772636
     5  N   -0.098823
     6  C    0.457231
     7  C    0.080938
     8  C   -0.150025
     9  C   -0.310040
    10  C    0.479223
    11  C    0.334494
    12  C   -0.430979
    13  C   -0.156556
    25  C    1.238441
    26  C    1.247407
    28  F   -0.429925
    29  F   -0.386817
    30  F   -0.407541
    31  F   -0.373421
    32  F   -0.409729
    33  F   -0.429601
 Electronic spatial extent (au):  <R**2>=           9547.5164
 Charge=              0.0000 electrons
 Dipole moment (field-independent basis, Debye):
    X=              7.0493    Y=             -5.4908    Z=             -1.1121  Tot=              9.0044
 Quadrupole moment (field-independent basis, Debye-Ang):
   XX=           -112.0957   YY=           -115.0192   ZZ=           -122.3083
   XY=             -6.6092   XZ=             -4.0048   YZ=              0.4969
 Traceless Quadrupole moment (field-independent basis, Debye-Ang):
   XX=              4.3787   YY=              1.4552   ZZ=             -5.8339
   XY=             -6.6092   XZ=             -4.0048   YZ=              0.4969
 Octapole moment (field-independent basis, Debye-Ang**2):
  XXX=            106.5969  YYY=             -9.1699  ZZZ=              1.0583  XYY=            -19.4723
  XXY=            -14.6911  XXZ=            -11.9529  XZZ=            -24.2530  YZZ=             12.3068
  YYZ=             -3.5240  XYZ=              4.6539
 Hexadecapole moment (field-independent basis, Debye-Ang**3):
 XXXX=          -9529.5849 YYYY=          -1312.5095 ZZZZ=           -278.2288 XXXY=           -134.0978
 XXXZ=            -53.0238 YYYX=            -52.6895 YYYZ=              5.4102 ZZZX=             -4.0828
 ZZZY=             -4.1109 XXYY=          -1907.7246 XXZZ=          -1736.3724 YYZZ=           -287.1775
 XXYZ=             21.6679 YYXZ=             -9.6395 ZZXY=             -6.9504
 N-N= 1.781086059407D+03 E-N=-6.498802320674D+03  KE= 1.241008320719D+03
 Unable to Open any file for archive entry.
 1\1\GINC-GADI-CPU-CLX-0722\SP\RDSDPBEP86-FC\Aug-CC-pVTZ\C12H12F6N2O1\H
 IO507\09-Sep-2020\0\\# DSDPBEP86/AUG-cc-PVTZ SCF=Tight INT(grid=ultraf
 ine) MaxDisk=60000MB\\NM2.DSDPBEP86_AUG-cc-PVTZ\\0,1\C,0,-5.9099550208
 ,1.1029102801,0.205943735\N,0,-4.6494767407,0.5182841404,0.0777892364\
 C,0,-3.4138117188,1.1630544142,0.1461509459\O,0,-3.2849333303,2.347532
 7393,0.3578042168\N,0,-2.3540075044,0.3092653719,-0.0209191281\C,0,-1.
 0062482953,0.8624790515,-0.0817512412\C,0,0.0280975331,-0.2528611764,-
 0.0502013951\C,0,1.4484660143,0.3008155964,-0.1048682475\C,0,-6.127441
 6311,2.484471159,0.1430033865\C,0,-7.4141319609,2.9940043568,0.2479216
 523\C,0,-8.5133997698,2.144129899,0.4285202959\C,0,-8.2862282832,0.773
 1861788,0.479640616\C,0,-7.0074316598,0.2564419841,0.3714194019\H,0,-4
 .6362012495,-0.4894107678,0.1293869442\H,0,-2.5094227633,-0.550433239,
 -0.527548491\H,0,-0.8831189383,1.524788659,0.7765518953\H,0,-0.8826544
 472,1.4787579946,-0.9799953312\H,0,-0.1340431108,-0.9289267974,-0.8982
 055488\H,0,-0.1138658777,-0.8451207642,0.8586148971\H,0,1.6129378672,0
 .8769409254,-1.0184913194\H,0,2.1869941428,-0.5016664591,-0.0800088839
 \H,0,1.6445455155,0.9605415683,0.7435347149\H,0,-5.2906362333,3.152774
 7816,0.0160013344\H,0,-6.8611330525,-0.8179860945,0.4200742544\C,0,-9.
 9405732722,2.6232346345,0.5358963699\C,0,-7.5514864036,4.5022174458,0.
 193885837\H,0,-9.1214485945,0.0987615974,0.6164686543\F,0,-10.06497945
 47,3.6980410318,1.3196454496\F,0,-10.7280081479,1.6685333292,1.0599639
 754\F,0,-10.4643725553,2.9303579665,-0.6588691509\F,0,-6.469213274,5.0
 731571004,-0.3491007019\F,0,-7.6946869392,5.0289562193,1.416205448\F,0
 ,-8.6009508436,4.8863368726,-0.5400438223\\Version=ES64L-G16RevC.01\St
 ate=1-A\HF=-1244.8406997\MP2=-1246.8898328\RMSD=2.964e-09\PG=C01 [X(C1
 2H12F6N2O1)]\\@
 The archive entry for this job was punched.


 ...THOSE SCIENCES ARE VAIN AND FULL OF ERRORS WHICH 
 ARE NOT BORN FROM EXPERIMENT, THE MOTHER OF CERTAINTY...

                          -- LEONARDO DA VINCI, 1452-1519
 Job cpu time:       1 days  5 hours 15 minutes 18.9 seconds.
 Elapsed time:       0 days  3 hours 41 minutes 51.4 seconds.
 File lengths (MBytes):  RWF=    796 Int=      0 D2E=      0 Chk=    101 Scr=      1
 Normal termination of Gaussian 16 at Wed Sep  9 20:06:16 2020.
