 Entering Gaussian System, Link 0=/apps/gaussian/g09e01/g09/g09
 Initial command:
 /apps/gaussian/g09e01/g09/l1.exe "/jobfs/local/3579234.r-man2/Gau-45127.inp" -scrdir="/jobfs/local/3579234.r-man2/"
 Entering Link 1 = /apps/gaussian/g09e01/g09/l1.exe PID=     45128.
  
 Copyright (c) 1988,1990,1992,1993,1995,1998,2003,2009,2015,
            Gaussian, Inc.  All Rights Reserved.
  
 This is part of the Gaussian(R) 09 program.  It is based on
 the Gaussian(R) 03 system (copyright 2003, Gaussian, Inc.),
 the Gaussian(R) 98 system (copyright 1998, Gaussian, Inc.),
 the Gaussian(R) 94 system (copyright 1995, Gaussian, Inc.),
 the Gaussian 92(TM) system (copyright 1992, Gaussian, Inc.),
 the Gaussian 90(TM) system (copyright 1990, Gaussian, Inc.),
 the Gaussian 88(TM) system (copyright 1988, Gaussian, Inc.),
 the Gaussian 86(TM) system (copyright 1986, Carnegie Mellon
 University), and the Gaussian 82(TM) system (copyright 1983,
 Carnegie Mellon University). Gaussian is a federally registered
 trademark of Gaussian, Inc.
  
 This software contains proprietary and confidential information,
 including trade secrets, belonging to Gaussian, Inc.
  
 This software is provided under written license and may be
 used, copied, transmitted, or stored only in accord with that
 written license.
  
 The following legend is applicable only to US Government
 contracts under FAR:
  
                    RESTRICTED RIGHTS LEGEND
  
 Use, reproduction and disclosure by the US Government is
 subject to restrictions as set forth in subparagraphs (a)
 and (c) of the Commercial Computer Software - Restricted
 Rights clause in FAR 52.227-19.
  
 Gaussian, Inc.
 340 Quinnipiac St., Bldg. 40, Wallingford CT 06492
  
  
 ---------------------------------------------------------------
 Warning -- This program may not be used in any manner that
 competes with the business of Gaussian, Inc. or will provide
 assistance to any competitor of Gaussian, Inc.  The licensee
 of this program is prohibited from giving any competitor of
 Gaussian, Inc. access to this program.  By using this program,
 the user acknowledges that Gaussian, Inc. is engaged in the
 business of creating and licensing software in the field of
 computational chemistry and represents and warrants to the
 licensee that it is not a competitor of Gaussian, Inc. and that
 it will not use this program in any manner prohibited above.
 ---------------------------------------------------------------
  

 Cite this work as:
 Gaussian 09, Revision E.01,
 M. J. Frisch, G. W. Trucks, H. B. Schlegel, G. E. Scuseria, 
 M. A. Robb, J. R. Cheeseman, G. Scalmani, V. Barone, B. Mennucci, 
 G. A. Petersson, H. Nakatsuji, M. Caricato, X. Li, H. P. Hratchian, 
 A. F. Izmaylov, J. Bloino, G. Zheng, J. L. Sonnenberg, M. Hada, 
 M. Ehara, K. Toyota, R. Fukuda, J. Hasegawa, M. Ishida, T. Nakajima, 
 Y. Honda, O. Kitao, H. Nakai, T. Vreven, J. A. Montgomery, Jr., 
 J. E. Peralta, F. Ogliaro, M. Bearpark, J. J. Heyd, E. Brothers, 
 K. N. Kudin, V. N. Staroverov, T. Keith, R. Kobayashi, J. Normand, 
 K. Raghavachari, A. Rendell, J. C. Burant, S. S. Iyengar, J. Tomasi, 
 M. Cossi, N. Rega, J. M. Millam, M. Klene, J. E. Knox, J. B. Cross, 
 V. Bakken, C. Adamo, J. Jaramillo, R. Gomperts, R. E. Stratmann, 
 O. Yazyev, A. J. Austin, R. Cammi, C. Pomelli, J. W. Ochterski, 
 R. L. Martin, K. Morokuma, V. G. Zakrzewski, G. A. Voth, 
 P. Salvador, J. J. Dannenberg, S. Dapprich, A. D. Daniels, 
 O. Farkas, J. B. Foresman, J. V. Ortiz, J. Cioslowski, 
 and D. J. Fox, Gaussian, Inc., Wallingford CT, 2013.
 
 ******************************************
 Gaussian 09:  ES64L-G09RevE.01 30-Nov-2015
                14-Nov-2019 
 ******************************************
 %chk=NM2.M062X_6-311pGd_opt_Pentadecane_GD3.chk
 %mem=196608000
 %nproc=8
 Will use up to    8 processors via shared memory.
 ----------------------------------------------------------------------
 # M062X/6-311+G* SCF=Tight INT(grid=ultrafine) OPT IOP(2/17=4) Empiric
 alDispersion=GD3 SCRF=(SMD,Solvent=n-Pentadecane) maxdisk=2684354560
 ----------------------------------------------------------------------
 1/14=-1,18=20,19=15,26=4,38=1/1,3;
 2/9=110,12=2,17=4,18=5,40=1/2;
 3/5=4,6=6,7=11,11=2,16=1,25=1,30=1,70=32201,71=1,72=151,74=-55,75=-5,124=31/1,2,3;
 4//1;
 5/5=2,32=2,38=5,53=151/2;
 6/7=2,8=2,9=2,10=2,28=1/1;
 7//1,2,3,16;
 1/14=-1,18=20,19=15,26=4/3(2);
 2/9=110,17=4/2;
 99//99;
 2/9=110,17=4/2;
 3/5=4,6=6,7=11,11=2,16=1,25=1,30=1,70=32205,71=1,72=151,74=-55,75=-5,124=31/1,2,3;
 4/5=5,16=3,69=1/1;
 5/5=2,32=2,38=5,53=151/2;
 7//1,2,3,16;
 1/14=-1,18=20,19=15,26=4/3(-5);
 2/9=110,17=4/2;
 6/7=2,8=2,9=2,10=2,19=2,28=1/1;
 99/9=1/99;
 --------------------------------------
 NM2.M062X_6-311pGd_opt_Pentadecane_GD3
 --------------------------------------
 Symbolic Z-matrix:
 Charge =  0 Multiplicity = 1
 C                    -5.90141   1.11992   0.18898 
 N                    -4.64017   0.54438   0.06567 
 C                    -3.40599   1.19221   0.08515 
 O                    -3.28216   2.39087   0.23769 
 N                    -2.34906   0.34306  -0.05755 
 C                    -0.99356   0.8681   -0.15567 
 C                     0.02189  -0.2517    0.01772 
 C                     1.45041   0.27001  -0.08542 
 C                    -6.12979   2.50223   0.16225 
 C                    -7.42065   2.99911   0.273 
 C                    -8.51548   2.13766   0.42526 
 C                    -8.279     0.76673   0.43765 
 C                    -6.99665   0.26227   0.3222 
 H                    -4.6258   -0.46596   0.08145 
 H                    -2.51001  -0.5845   -0.4237 
 H                    -0.87001   1.62018   0.62509 
 H                    -0.84605   1.37378  -1.11703 
 H                    -0.14508  -1.01912  -0.74719 
 H                    -0.13781  -0.72994   0.98885 
 H                     1.63457   0.73093  -1.05921 
 H                     2.17535  -0.53584   0.04259 
 H                     1.65096   1.02232   0.68157 
 H                    -5.29698   3.17887   0.05575 
 H                    -6.84318  -0.81179   0.34052 
 C                    -9.94296   2.60564   0.5426 
 C                    -7.56918   4.50532   0.25626 
 H                    -9.10867   0.08028   0.54791 
 F                    -10.07687   3.66458   1.35031 
 F                    -10.73018   1.6394    1.04428 
 F                    -10.47346   2.94171  -0.64425 
 F                    -6.49201   5.10328  -0.26747 
 F                    -7.72326   5.00646   1.49041 
 F                    -8.62057   4.90311  -0.47129 
 

 GradGradGradGradGradGradGradGradGradGradGradGradGradGradGradGradGradGrad
 Berny optimization.
 Initialization pass.
                           ----------------------------
                           !    Initial Parameters    !
                           ! (Angstroms and Degrees)  !
 --------------------------                            --------------------------
 ! Name  Definition              Value          Derivative Info.                !
 --------------------------------------------------------------------------------
 ! R1    R(1,2)                  1.3918         estimate D2E/DX2                !
 ! R2    R(1,9)                  1.4013         estimate D2E/DX2                !
 ! R3    R(1,13)                 1.3974         estimate D2E/DX2                !
 ! R4    R(2,3)                  1.394          estimate D2E/DX2                !
 ! R5    R(2,14)                 1.0106         estimate D2E/DX2                !
 ! R6    R(3,4)                  1.2147         estimate D2E/DX2                !
 ! R7    R(3,5)                  1.3633         estimate D2E/DX2                !
 ! R8    R(5,6)                  1.4569         estimate D2E/DX2                !
 ! R9    R(5,15)                 1.0101         estimate D2E/DX2                !
 ! R10   R(6,7)                  1.5216         estimate D2E/DX2                !
 ! R11   R(6,16)                 1.0911         estimate D2E/DX2                !
 ! R12   R(6,17)                 1.0962         estimate D2E/DX2                !
 ! R13   R(7,8)                  1.5243         estimate D2E/DX2                !
 ! R14   R(7,18)                 1.0963         estimate D2E/DX2                !
 ! R15   R(7,19)                 1.0942         estimate D2E/DX2                !
 ! R16   R(8,20)                 1.093          estimate D2E/DX2                !
 ! R17   R(8,21)                 1.0915         estimate D2E/DX2                !
 ! R18   R(8,22)                 1.0929         estimate D2E/DX2                !
 ! R19   R(9,10)                 1.3876         estimate D2E/DX2                !
 ! R20   R(9,23)                 1.0783         estimate D2E/DX2                !
 ! R21   R(10,11)                1.4014         estimate D2E/DX2                !
 ! R22   R(10,26)                1.5136         estimate D2E/DX2                !
 ! R23   R(11,12)                1.3912         estimate D2E/DX2                !
 ! R24   R(11,25)                1.5068         estimate D2E/DX2                !
 ! R25   R(12,13)                1.3828         estimate D2E/DX2                !
 ! R26   R(12,27)                1.0825         estimate D2E/DX2                !
 ! R27   R(13,24)                1.0851         estimate D2E/DX2                !
 ! R28   R(25,28)                1.3385         estimate D2E/DX2                !
 ! R29   R(25,29)                1.3435         estimate D2E/DX2                !
 ! R30   R(25,30)                1.3428         estimate D2E/DX2                !
 ! R31   R(26,31)                1.3387         estimate D2E/DX2                !
 ! R32   R(26,32)                1.3409         estimate D2E/DX2                !
 ! R33   R(26,33)                1.339          estimate D2E/DX2                !
 ! A1    A(2,1,9)              123.6353         estimate D2E/DX2                !
 ! A2    A(2,1,13)             117.7017         estimate D2E/DX2                !
 ! A3    A(9,1,13)             118.6526         estimate D2E/DX2                !
 ! A4    A(1,2,3)              127.5083         estimate D2E/DX2                !
 ! A5    A(1,2,14)             115.1461         estimate D2E/DX2                !
 ! A6    A(3,2,14)             116.8595         estimate D2E/DX2                !
 ! A7    A(2,3,4)              123.409          estimate D2E/DX2                !
 ! A8    A(2,3,5)              113.2955         estimate D2E/DX2                !
 ! A9    A(4,3,5)              123.2835         estimate D2E/DX2                !
 ! A10   A(3,5,6)              120.258          estimate D2E/DX2                !
 ! A11   A(3,5,15)             119.1029         estimate D2E/DX2                !
 ! A12   A(6,5,15)             117.0485         estimate D2E/DX2                !
 ! A13   A(5,6,7)              110.3663         estimate D2E/DX2                !
 ! A14   A(5,6,16)             107.7916         estimate D2E/DX2                !
 ! A15   A(5,6,17)             110.5176         estimate D2E/DX2                !
 ! A16   A(7,6,16)             110.498          estimate D2E/DX2                !
 ! A17   A(7,6,17)             110.4647         estimate D2E/DX2                !
 ! A18   A(16,6,17)            107.1178         estimate D2E/DX2                !
 ! A19   A(6,7,8)              111.4595         estimate D2E/DX2                !
 ! A20   A(6,7,18)             109.5129         estimate D2E/DX2                !
 ! A21   A(6,7,19)             108.9897         estimate D2E/DX2                !
 ! A22   A(8,7,18)             109.5785         estimate D2E/DX2                !
 ! A23   A(8,7,19)             110.2685         estimate D2E/DX2                !
 ! A24   A(18,7,19)            106.9209         estimate D2E/DX2                !
 ! A25   A(7,8,20)             111.2552         estimate D2E/DX2                !
 ! A26   A(7,8,21)             111.2121         estimate D2E/DX2                !
 ! A27   A(7,8,22)             111.1046         estimate D2E/DX2                !
 ! A28   A(20,8,21)            107.6942         estimate D2E/DX2                !
 ! A29   A(20,8,22)            107.7007         estimate D2E/DX2                !
 ! A30   A(21,8,22)            107.7003         estimate D2E/DX2                !
 ! A31   A(1,9,10)             120.2195         estimate D2E/DX2                !
 ! A32   A(1,9,23)             119.6703         estimate D2E/DX2                !
 ! A33   A(10,9,23)            120.1102         estimate D2E/DX2                !
 ! A34   A(9,10,11)            121.0193         estimate D2E/DX2                !
 ! A35   A(9,10,26)            116.5342         estimate D2E/DX2                !
 ! A36   A(11,10,26)           122.4279         estimate D2E/DX2                !
 ! A37   A(10,11,12)           118.2882         estimate D2E/DX2                !
 ! A38   A(10,11,25)           123.8941         estimate D2E/DX2                !
 ! A39   A(12,11,25)           117.7996         estimate D2E/DX2                !
 ! A40   A(11,12,13)           121.0886         estimate D2E/DX2                !
 ! A41   A(11,12,27)           119.7043         estimate D2E/DX2                !
 ! A42   A(13,12,27)           119.2049         estimate D2E/DX2                !
 ! A43   A(1,13,12)            120.7209         estimate D2E/DX2                !
 ! A44   A(1,13,24)            119.8838         estimate D2E/DX2                !
 ! A45   A(12,13,24)           119.3947         estimate D2E/DX2                !
 ! A46   A(11,25,28)           112.7974         estimate D2E/DX2                !
 ! A47   A(11,25,29)           111.1502         estimate D2E/DX2                !
 ! A48   A(11,25,30)           112.531          estimate D2E/DX2                !
 ! A49   A(28,25,29)           106.5599         estimate D2E/DX2                !
 ! A50   A(28,25,30)           107.2074         estimate D2E/DX2                !
 ! A51   A(29,25,30)           106.174          estimate D2E/DX2                !
 ! A52   A(10,26,31)           111.7067         estimate D2E/DX2                !
 ! A53   A(10,26,32)           111.9007         estimate D2E/DX2                !
 ! A54   A(10,26,33)           112.2523         estimate D2E/DX2                !
 ! A55   A(31,26,32)           106.5944         estimate D2E/DX2                !
 ! A56   A(31,26,33)           106.6505         estimate D2E/DX2                !
 ! A57   A(32,26,33)           107.3877         estimate D2E/DX2                !
 ! D1    D(9,1,2,3)              9.6443         estimate D2E/DX2                !
 ! D2    D(9,1,2,14)          -178.6728         estimate D2E/DX2                !
 ! D3    D(13,1,2,3)          -171.5493         estimate D2E/DX2                !
 ! D4    D(13,1,2,14)            0.1336         estimate D2E/DX2                !
 ! D5    D(2,1,9,10)           179.0989         estimate D2E/DX2                !
 ! D6    D(2,1,9,23)            -0.9394         estimate D2E/DX2                !
 ! D7    D(13,1,9,10)            0.3031         estimate D2E/DX2                !
 ! D8    D(13,1,9,23)         -179.7352         estimate D2E/DX2                !
 ! D9    D(2,1,13,12)         -179.4502         estimate D2E/DX2                !
 ! D10   D(2,1,13,24)            0.8473         estimate D2E/DX2                !
 ! D11   D(9,1,13,12)           -0.5826         estimate D2E/DX2                !
 ! D12   D(9,1,13,24)          179.7149         estimate D2E/DX2                !
 ! D13   D(1,2,3,4)              1.0877         estimate D2E/DX2                !
 ! D14   D(1,2,3,5)            179.8601         estimate D2E/DX2                !
 ! D15   D(14,2,3,4)          -170.4721         estimate D2E/DX2                !
 ! D16   D(14,2,3,5)             8.3003         estimate D2E/DX2                !
 ! D17   D(2,3,5,6)            175.5508         estimate D2E/DX2                !
 ! D18   D(2,3,5,15)            17.5363         estimate D2E/DX2                !
 ! D19   D(4,3,5,6)             -5.675          estimate D2E/DX2                !
 ! D20   D(4,3,5,15)          -163.6895         estimate D2E/DX2                !
 ! D21   D(3,5,6,7)            166.8447         estimate D2E/DX2                !
 ! D22   D(3,5,6,16)            46.0866         estimate D2E/DX2                !
 ! D23   D(3,5,6,17)           -70.6668         estimate D2E/DX2                !
 ! D24   D(15,5,6,7)           -34.7033         estimate D2E/DX2                !
 ! D25   D(15,5,6,16)         -155.4614         estimate D2E/DX2                !
 ! D26   D(15,5,6,17)           87.7852         estimate D2E/DX2                !
 ! D27   D(5,6,7,8)            179.8048         estimate D2E/DX2                !
 ! D28   D(5,6,7,18)            58.3853         estimate D2E/DX2                !
 ! D29   D(5,6,7,19)           -58.2626         estimate D2E/DX2                !
 ! D30   D(16,6,7,8)           -61.0684         estimate D2E/DX2                !
 ! D31   D(16,6,7,18)          177.5121         estimate D2E/DX2                !
 ! D32   D(16,6,7,19)           60.8642         estimate D2E/DX2                !
 ! D33   D(17,6,7,8)            57.2853         estimate D2E/DX2                !
 ! D34   D(17,6,7,18)          -64.1342         estimate D2E/DX2                !
 ! D35   D(17,6,7,19)          179.2179         estimate D2E/DX2                !
 ! D36   D(6,7,8,20)           -60.1231         estimate D2E/DX2                !
 ! D37   D(6,7,8,21)           179.8244         estimate D2E/DX2                !
 ! D38   D(6,7,8,22)            59.8654         estimate D2E/DX2                !
 ! D39   D(18,7,8,20)           61.2583         estimate D2E/DX2                !
 ! D40   D(18,7,8,21)          -58.7942         estimate D2E/DX2                !
 ! D41   D(18,7,8,22)         -178.7533         estimate D2E/DX2                !
 ! D42   D(19,7,8,20)          178.6869         estimate D2E/DX2                !
 ! D43   D(19,7,8,21)           58.6344         estimate D2E/DX2                !
 ! D44   D(19,7,8,22)          -61.3247         estimate D2E/DX2                !
 ! D45   D(1,9,10,11)            0.5893         estimate D2E/DX2                !
 ! D46   D(1,9,10,26)          179.0588         estimate D2E/DX2                !
 ! D47   D(23,9,10,11)        -179.3722         estimate D2E/DX2                !
 ! D48   D(23,9,10,26)          -0.9027         estimate D2E/DX2                !
 ! D49   D(9,10,11,12)          -1.1858         estimate D2E/DX2                !
 ! D50   D(9,10,11,25)        -179.5981         estimate D2E/DX2                !
 ! D51   D(26,10,11,12)       -179.5635         estimate D2E/DX2                !
 ! D52   D(26,10,11,25)          2.0242         estimate D2E/DX2                !
 ! D53   D(9,10,26,31)          19.19           estimate D2E/DX2                !
 ! D54   D(9,10,26,32)        -100.2384         estimate D2E/DX2                !
 ! D55   D(9,10,26,33)         138.9322         estimate D2E/DX2                !
 ! D56   D(11,10,26,31)       -162.3639         estimate D2E/DX2                !
 ! D57   D(11,10,26,32)         78.2076         estimate D2E/DX2                !
 ! D58   D(11,10,26,33)        -42.6218         estimate D2E/DX2                !
 ! D59   D(10,11,12,13)          0.9065         estimate D2E/DX2                !
 ! D60   D(10,11,12,27)       -179.6312         estimate D2E/DX2                !
 ! D61   D(25,11,12,13)        179.4167         estimate D2E/DX2                !
 ! D62   D(25,11,12,27)         -1.121          estimate D2E/DX2                !
 ! D63   D(10,11,25,28)        -43.1086         estimate D2E/DX2                !
 ! D64   D(10,11,25,29)       -162.7195         estimate D2E/DX2                !
 ! D65   D(10,11,25,30)         78.3433         estimate D2E/DX2                !
 ! D66   D(12,11,25,28)        138.4719         estimate D2E/DX2                !
 ! D67   D(12,11,25,29)         18.861          estimate D2E/DX2                !
 ! D68   D(12,11,25,30)       -100.0762         estimate D2E/DX2                !
 ! D69   D(11,12,13,1)          -0.0307         estimate D2E/DX2                !
 ! D70   D(11,12,13,24)        179.6732         estimate D2E/DX2                !
 ! D71   D(27,12,13,1)        -179.4957         estimate D2E/DX2                !
 ! D72   D(27,12,13,24)          0.2083         estimate D2E/DX2                !
 --------------------------------------------------------------------------------
 Trust Radius=3.00D-01 FncErr=1.00D-07 GrdErr=1.00D-06
 Number of steps in this run=    172 maximum allowed number of steps=    198.
 GradGradGradGradGradGradGradGradGradGradGradGradGradGradGradGradGradGrad

                          Input orientation:                          
 ---------------------------------------------------------------------
 Center     Atomic      Atomic             Coordinates (Angstroms)
 Number     Number       Type             X           Y           Z
 ---------------------------------------------------------------------
      1          6           0       -5.901412    1.119920    0.188982
      2          7           0       -4.640170    0.544382    0.065674
      3          6           0       -3.405987    1.192207    0.085153
      4          8           0       -3.282160    2.390866    0.237692
      5          7           0       -2.349064    0.343063   -0.057549
      6          6           0       -0.993557    0.868096   -0.155671
      7          6           0        0.021887   -0.251696    0.017725
      8          6           0        1.450413    0.270009   -0.085421
      9          6           0       -6.129792    2.502232    0.162254
     10          6           0       -7.420653    2.999106    0.273001
     11          6           0       -8.515479    2.137663    0.425257
     12          6           0       -8.278998    0.766730    0.437650
     13          6           0       -6.996646    0.262266    0.322198
     14          1           0       -4.625795   -0.465960    0.081452
     15          1           0       -2.510012   -0.584496   -0.423696
     16          1           0       -0.870011    1.620181    0.625086
     17          1           0       -0.846047    1.373777   -1.117025
     18          1           0       -0.145080   -1.019122   -0.747186
     19          1           0       -0.137809   -0.729937    0.988852
     20          1           0        1.634569    0.730929   -1.059207
     21          1           0        2.175355   -0.535843    0.042591
     22          1           0        1.650959    1.022323    0.681569
     23          1           0       -5.296984    3.178873    0.055751
     24          1           0       -6.843183   -0.811789    0.340522
     25          6           0       -9.942958    2.605641    0.542600
     26          6           0       -7.569184    4.505320    0.256258
     27          1           0       -9.108669    0.080283    0.547914
     28          9           0      -10.076874    3.664578    1.350305
     29          9           0      -10.730181    1.639403    1.044277
     30          9           0      -10.473459    2.941710   -0.644248
     31          9           0       -6.492007    5.103284   -0.267467
     32          9           0       -7.723263    5.006458    1.490414
     33          9           0       -8.620568    4.903113   -0.471286
 ---------------------------------------------------------------------
                    Distance matrix (angstroms):
                    1          2          3          4          5
     1  C    0.000000
     2  N    1.391826   0.000000
     3  C    2.498630   1.394011   0.000000
     4  O    2.911728   2.298540   1.214654   0.000000
     5  N    3.644649   2.303233   1.363267   2.269655   0.000000
     6  C    4.926382   3.667638   2.445988   2.776916   1.456944
     7  C    6.082444   4.729779   3.720177   4.236536   2.445570
     8  C    7.405875   6.098632   4.946126   5.196122   3.800282
     9  C    1.401306   2.462007   3.023446   2.850807   4.359384
    10  C    2.417952   3.714800   4.406554   4.183101   5.734531
    11  C    2.815133   4.205456   5.207348   5.242797   6.440370
    12  C    2.416505   3.664543   4.904236   5.257965   5.965638
    13  C    1.397446   2.387127   3.716694   4.281996   4.663771
    14  H    2.038082   1.010567   2.058510   3.160889   2.420195
    15  H    3.844737   2.459964   2.053867   3.144268   1.010115
    16  H    5.074982   3.960351   2.627901   2.561736   2.069932
    17  H    5.227505   4.059808   2.833988   2.967216   2.108061
    18  H    6.211865   4.828159   4.026944   4.737011   2.681173
    19  H    6.105807   4.769423   3.897729   4.493394   2.671316
    20  H    7.648549   6.377500   5.189368   5.348978   4.125905
    21  H    8.246038   6.900637   5.842888   6.195818   4.610083
    22  H    7.569047   6.339247   5.094828   5.138638   4.124060
    23  H    2.149969   2.715151   2.742914   2.171077   4.092052
    24  H    2.154391   2.601540   3.986920   4.790455   4.657172
    25  C    4.320475   5.709274   6.703659   6.671232   7.946488
    26  C    3.774509   4.929957   5.323364   4.780150   6.683750
    27  H    3.390602   4.518344   5.828475   6.275607   6.791753
    28  F    5.025778   6.398723   7.225924   7.002028   8.528398
    29  F    4.931369   6.264580   7.400252   7.529163   8.552055
    30  F    4.991673   6.346529   7.317237   7.266088   8.550028
    31  F    4.052694   4.931924   4.994436   4.232673   6.314092
    32  F    4.485314   5.607626   5.929767   5.304152   7.281858
    33  F    4.705561   5.927093   6.424352   5.942444   7.765114
                    6          7          8          9         10
     6  C    0.000000
     7  C    1.521554   0.000000
     8  C    2.517069   1.524304   0.000000
     9  C    5.399294   6.741525   7.905926   0.000000
    10  C    6.784727   8.125532   9.288286   1.387613   0.000000
    11  C    7.650397   8.874781  10.152238   2.427671   1.401395
    12  C    7.310264   8.373662   9.756115   2.776130   2.397367
    13  C    6.052476   7.043910   8.456892   2.407170   2.769926
    14  H    3.876736   4.653055   6.122892   3.328468   4.455850
    15  H    2.116955   2.591548   4.065658   4.793123   6.118985
    16  H    1.091089   2.160622   2.777076   5.353272   6.703455
    17  H    1.096209   2.164054   2.748862   5.552290   6.913704
    18  H    2.152068   1.096316   2.155316   7.003127   8.373822
    19  H    2.143816   1.094214   2.162499   6.858136   8.213283
    20  H    2.782489   2.173955   1.092987   8.056971   9.429552
    21  H    3.471651   2.172276   1.091478   8.844189  10.228994
    22  H    2.778169   2.172024   1.092918   7.937248   9.293478
    23  H    4.889158   6.329347   7.349068   1.078310   2.142308
    24  H    6.106255   6.895440   8.374691   3.394620   3.854990
    25  C    9.143217  10.379692  11.647253   3.833483   2.567006
    26  C    7.525818   8.961610   9.970343   2.468410   1.513613
    27  H    8.183564   9.151960  10.579761   3.858534   3.382973
    28  F    9.622626  10.913201  12.102181   4.282753   2.942609
    29  F    9.840560  10.965264  12.309278   4.762984   3.660141
    30  F    9.716332  10.990375  12.232294   4.439711   3.188144
    31  F    6.941344   8.437296   9.299233   2.661077   2.362637
    32  F    8.069979   9.476515  10.443828   3.251816   2.367093
    33  F    8.634365  10.074880  11.092304   3.517039   2.370443
                   11         12         13         14         15
    11  C    0.000000
    12  C    1.391235   0.000000
    13  C    2.415489   1.382838   0.000000
    14  H    4.693260   3.871988   2.491828   0.000000
    15  H    6.648045   5.987398   4.626365   2.178477   0.000000
    16  H    7.665566   7.460336   6.282622   4.330524   2.941113
    17  H    7.860174   7.618024   6.413789   4.371210   2.661638
    18  H    9.022388   8.411524   7.051914   4.590146   2.426201
    19  H    8.872774   8.295950   6.962222   4.586401   2.764740
    20  H   10.354034  10.026001   8.753617   6.475014   4.394516
    21  H   11.026695  10.542593   9.210904   6.801620   4.708763
    22  H   10.230647   9.936240   8.688378   6.478639   4.595341
    23  H    3.402846   3.854437   3.386213   3.706205   4.707444
    24  H    3.391610   2.136053   1.085118   2.259098   4.405912
    25  C    1.506807   2.482210   3.771039   6.157890   8.146127
    26  C    2.555354   3.809698   4.282015   5.779941   7.208591
    27  H    2.144699   1.082461   2.131832   4.540058   6.702853
    28  F    2.371738   3.530272   4.703248   6.955976   8.857715
    29  F    2.352946   2.671676   4.044402   6.528638   8.641287
    30  F    2.371501   3.273637   4.494626   6.806910   8.712018
    31  F    3.656393   4.743019   4.902838   5.883958   6.944893
    32  F    3.161036   4.403686   4.939641   6.444132   7.880391
    33  F    2.909045   4.248823   4.980381   6.714958   8.213100
                   16         17         18         19         20
    16  H    0.000000
    17  H    1.759614   0.000000
    18  H    3.061792   2.520734   0.000000
    19  H    2.488272   3.059727   1.759974   0.000000
    20  H    3.146511   2.563212   2.515390   3.077337   0.000000
    21  H    3.776505   3.757689   2.498344   2.506753   1.763837
    22  H    2.591508   3.097338   3.071579   2.522802   1.765073
    23  H    4.727765   4.944150   6.694026   6.539614   7.435186
    24  H    6.455559   6.547273   6.789012   6.737141   8.729920
    25  C    9.126681   9.328753  10.526199  10.366589  11.837207
    26  C    7.303354   7.542747   9.308259   9.119755  10.034219
    27  H    8.381691   8.527372   9.123153   9.018160  10.882250
    28  F    9.458956   9.825663  11.179314  10.873244  12.311375
    29  F    9.869096  10.121160  11.059903  10.854270  12.575254
    30  F    9.776700   9.765705  11.062287  11.089349  12.315198
    31  F    6.673493   6.819666   8.831618   8.716687   9.262051
    32  F    7.693031   8.203122   9.936967   9.523492  10.599516
    33  F    8.488275   8.562497  10.343253  10.286906  11.086957
                   21         22         23         24         25
    21  H    0.000000
    22  H    1.763850   0.000000
    23  H    8.344767   7.301799   0.000000
    24  H    9.027676   8.696593   4.289196   0.000000
    25  C   12.528864  11.702355   4.706452   4.618253   0.000000
    26  C   10.973378   9.865252   2.638666   5.367106   3.053781
    27  H   11.312125  10.801616   4.936844   2.443610   2.659605
    28  F   13.018094  12.040382   4.975855   5.613759   1.338533
    29  F   13.125849  12.401813   5.732955   4.648910   1.343508
    30  F   13.136119  12.346795   5.228971   5.313890   1.342752
    31  F   10.345002   9.157664   2.288211   5.956598   4.336299
    32  F   11.436604  10.217807   3.359338   5.995731   3.404310
    33  F   12.099515  11.040555   3.781135   6.039721   2.838143
                   26         27         28         29         30
    26  C    0.000000
    27  H    4.694256   0.000000
    28  F    2.862220   3.798477   0.000000
    29  F    4.338936   2.303591   2.149837   0.000000
    30  F    3.419152   3.386985   2.158254   2.147795   0.000000
    31  F    1.338714   5.722089   4.187879   5.628611   4.546022
    32  F    1.340903   5.203351   2.712888   4.536260   4.047659
    33  F    1.339017   4.953453   2.640642   4.171235   2.703742
                   31         32         33
    31  F    0.000000
    32  F    2.148374   0.000000
    33  F    2.147645   2.159653   0.000000
 Stoichiometry    C12H12F6N2O
 Framework group  C1[X(C12H12F6N2O)]
 Deg. of freedom    93
 Full point group                 C1      NOp   1
 Largest Abelian subgroup         C1      NOp   1
 Largest concise Abelian subgroup C1      NOp   1
                         Standard orientation:                         
 ---------------------------------------------------------------------
 Center     Atomic      Atomic             Coordinates (Angstroms)
 Number     Number       Type             X           Y           Z
 ---------------------------------------------------------------------
      1          6           0        0.485556   -0.979046   -0.072245
      2          7           0        1.867595   -1.134568   -0.126670
      3          6           0        2.838721   -0.141168   -0.011187
      4          8           0        2.578184    1.030080    0.177709
      5          7           0        4.112196   -0.618650   -0.104836
      6          6           0        5.242856    0.300199   -0.101683
      7          6           0        6.543125   -0.460898    0.110827
      8          6           0        7.744430    0.477376    0.113655
      9          6           0       -0.156293    0.266592   -0.080786
     10          6           0       -1.541505    0.338770   -0.042706
     11          6           0       -2.323795   -0.822415    0.017124
     12          6           0       -1.676978   -2.054137    0.012166
     13          6           0       -0.297247   -2.135939   -0.031345
     14          1           0        2.192065   -2.091600   -0.134135
     15          1           0        4.265545   -1.534328   -0.502768
     16          1           0        5.085418    1.019794    0.703222
     17          1           0        5.279581    0.867443   -1.038998
     18          1           0        6.663194   -1.209067   -0.681471
     19          1           0        6.485827   -1.006202    1.057751
     20          1           0        7.830445    1.013819   -0.834739
     21          1           0        8.674460   -0.072264    0.269428
     22          1           0        7.660797    1.221376    0.909859
     23          1           0        0.431675    1.169792   -0.116495
     24          1           0        0.178823   -3.111045   -0.028713
     25          6           0       -3.830192   -0.819862    0.052176
     26          6           0       -2.146295    1.726272   -0.033113
     27          1           0       -2.259149   -2.965863    0.051597
     28          9           0       -4.328267    0.111478    0.874488
     29          9           0       -4.307172   -2.001405    0.478158
     30          9           0       -4.372669   -0.612015   -1.158403
     31          9           0       -1.279145    2.647410   -0.470961
     32          9           0       -2.514792    2.102741    1.199973
     33          9           0       -3.227620    1.813522   -0.818029
 ---------------------------------------------------------------------
 Rotational constants (GHZ):      0.7121845      0.1180605      0.1052925
 Standard basis: 6-311+G(d) (5D, 7F)
 There are   519 symmetry adapted cartesian basis functions of A   symmetry.
 There are   498 symmetry adapted basis functions of A   symmetry.
   498 basis functions,   816 primitive gaussians,   519 cartesian basis functions
    80 alpha electrons       80 beta electrons
       nuclear repulsion energy      1780.5157154100 Hartrees.
 NAtoms=   33 NActive=   33 NUniq=   33 SFac= 1.00D+00 NAtFMM=   60 NAOKFM=F Big=F
 Integral buffers will be    131072 words long.
 Raffenetti 2 integral format.
 Two-electron integral symmetry is turned on.
 Nuclear repulsion after empirical dispersion term =     1780.5141345653 Hartrees.
 ------------------------------------------------------------------------------
 Polarizable Continuum Model (PCM)
 =================================
 Model                : PCM (using non-symmetric T matrix).
 Atomic radii         : SMD-Coulomb.
 Polarization charges : Total charges.
 Charge compensation  : None.
 Solution method      : On-the-fly selection.
 Cavity type          : VdW (van der Waals Surface) (Alpha=1.000).
 Cavity algorithm     : GePol (No added spheres)
                        Default sphere list used, NSphG=   33.
                        Lebedev-Laikov grids with approx.  5.0 points / Ang**2.
                        Smoothing algorithm: York/Karplus (Gamma=1.0000).
                        Polarization charges: spherical gaussians, with
                                              point-specific exponents (IZeta= 3).
                        Self-potential: point-specific (ISelfS= 7).
                        Self-field    : sphere-specific E.n sum rule (ISelfD= 2).
 1st derivatives      : Analytical E(r).r(x)/FMM algorithm (CHGder, D1EAlg=3).
                        Cavity 1st derivative terms included.
 Solvent              : n-Pentadecane, Eps=   2.033300 Eps(inf)=   2.049192
 ------------------------------------------------------------------------------
 ------------------------------------------------------------------------------
 Atomic radii for non-electrostatic terms: SMD-CDS.
 ------------------------------------------------------------------------------
 Nuclear repulsion after PCM non-electrostatic terms =     1780.5089004447 Hartrees.
 One-electron integrals computed using PRISM.
 NBasis=   498 RedAO= T EigKep=  1.62D-06  NBF=   498
 NBsUse=   496 1.00D-06 EigRej=  8.02D-07 NBFU=   496
 ExpMin= 4.38D-02 ExpMax= 1.14D+04 ExpMxC= 1.72D+03 IAcc=3 IRadAn=         5 AccDes= 0.00D+00
 Harris functional with IExCor= 1009 and IRadAn=       5 diagonalized for initial guess.
 HarFok:  IExCor= 1009 AccDes= 0.00D+00 IRadAn=         5 IDoV= 1 UseB2=F ITyADJ=14
 ICtDFT=  3500011 ScaDFX=  1.000000  1.000000  1.000000  1.000000
 FoFCou: FMM=F IPFlag=           0 FMFlag=      100000 FMFlg1=           0
         NFxFlg=           0 DoJE=T BraDBF=F KetDBF=T FulRan=T
         wScrn=  0.000000 ICntrl=     500 IOpCl=  0 I1Cent=   200000004 NGrid=           0
         NMat0=    1 NMatS0=      1 NMatT0=    0 NMatD0=    1 NMtDS0=    0 NMtDT0=    0
 Petite list used in FoFCou.
 Requested convergence on RMS density matrix=1.00D-08 within 128 cycles.
 Requested convergence on MAX density matrix=1.00D-06.
 Requested convergence on             energy=1.00D-06.
 No special actions if energy rises.
 Inv3:  Mode=1 IEnd=    18735003.
 Iteration    1 A*A^-1 deviation from unit magnitude is 5.44D-15 for    938.
 Iteration    1 A*A^-1 deviation from orthogonality  is 4.91D-15 for   2079    305.
 Iteration    1 A^-1*A deviation from unit magnitude is 4.77D-15 for   2495.
 Iteration    1 A^-1*A deviation from orthogonality  is 5.46D-15 for   1401   1365.
 Error on total polarization charges =  0.02037
 SCF Done:  E(RM062X) =  -1248.25995805     A.U. after   15 cycles
            NFock= 15  Conv=0.83D-08     -V/T= 2.0030
 SMD-CDS (non-electrostatic) energy       (kcal/mol) =      -3.28
 (included in total energy above)

 **********************************************************************

            Population analysis using the SCF density.

 **********************************************************************

 Orbital symmetries:
       Occupied  (A) (A) (A) (A) (A) (A) (A) (A) (A) (A) (A) (A)
                 (A) (A) (A) (A) (A) (A) (A) (A) (A) (A) (A) (A)
                 (A) (A) (A) (A) (A) (A) (A) (A) (A) (A) (A) (A)
                 (A) (A) (A) (A) (A) (A) (A) (A) (A) (A) (A) (A)
                 (A) (A) (A) (A) (A) (A) (A) (A) (A) (A) (A) (A)
                 (A) (A) (A) (A) (A) (A) (A) (A) (A) (A) (A) (A)
                 (A) (A) (A) (A) (A) (A) (A) (A)
       Virtual   (A) (A) (A) (A) (A) (A) (A) (A) (A) (A) (A) (A)
                 (A) (A) (A) (A) (A) (A) (A) (A) (A) (A) (A) (A)
                 (A) (A) (A) (A) (A) (A) (A) (A) (A) (A) (A) (A)
                 (A) (A) (A) (A) (A) (A) (A) (A) (A) (A) (A) (A)
                 (A) (A) (A) (A) (A) (A) (A) (A) (A) (A) (A) (A)
                 (A) (A) (A) (A) (A) (A) (A) (A) (A) (A) (A) (A)
                 (A) (A) (A) (A) (A) (A) (A) (A) (A) (A) (A) (A)
                 (A) (A) (A) (A) (A) (A) (A) (A) (A) (A) (A) (A)
                 (A) (A) (A) (A) (A) (A) (A) (A) (A) (A) (A) (A)
                 (A) (A) (A) (A) (A) (A) (A) (A) (A) (A) (A) (A)
                 (A) (A) (A) (A) (A) (A) (A) (A) (A) (A) (A) (A)
                 (A) (A) (A) (A) (A) (A) (A) (A) (A) (A) (A) (A)
                 (A) (A) (A) (A) (A) (A) (A) (A) (A) (A) (A) (A)
                 (A) (A) (A) (A) (A) (A) (A) (A) (A) (A) (A) (A)
                 (A) (A) (A) (A) (A) (A) (A) (A) (A) (A) (A) (A)
                 (A) (A) (A) (A) (A) (A) (A) (A) (A) (A) (A) (A)
                 (A) (A) (A) (A) (A) (A) (A) (A) (A) (A) (A) (A)
                 (A) (A) (A) (A) (A) (A) (A) (A) (A) (A) (A) (A)
                 (A) (A) (A) (A) (A) (A) (A) (A) (A) (A) (A) (A)
                 (A) (A) (A) (A) (A) (A) (A) (A) (A) (A) (A) (A)
                 (A) (A) (A) (A) (A) (A) (A) (A) (A) (A) (A) (A)
                 (A) (A) (A) (A) (A) (A) (A) (A) (A) (A) (A) (A)
                 (A) (A) (A) (A) (A) (A) (A) (A) (A) (A) (A) (A)
                 (A) (A) (A) (A) (A) (A) (A) (A) (A) (A) (A) (A)
                 (A) (A) (A) (A) (A) (A) (A) (A) (A) (A) (A) (A)
                 (A) (A) (A) (A) (A) (A) (A) (A) (A) (A) (A) (A)
                 (A) (A) (A) (A) (A) (A) (A) (A) (A) (A) (A) (A)
                 (A) (A) (A) (A) (A) (A) (A) (A) (A) (A) (A) (A)
                 (A) (A) (A) (A) (A) (A) (A) (A) (A) (A) (A) (A)
                 (A) (A) (A) (A) (A) (A) (A) (A) (A) (A) (A) (A)
                 (A) (A) (A) (A) (A) (A) (A) (A) (A) (A) (A) (A)
                 (A) (A) (A) (A) (A) (A) (A) (A) (A) (A) (A) (A)
                 (A) (A) (A) (A) (A) (A) (A) (A) (A) (A) (A) (A)
                 (A) (A) (A) (A) (A) (A) (A) (A) (A) (A) (A) (A)
                 (A) (A) (A) (A) (A) (A) (A) (A)
 The electronic state is 1-A.
 Alpha  occ. eigenvalues --  -25.28133 -25.27983 -25.27897 -25.27888 -25.27598
 Alpha  occ. eigenvalues --  -25.27589 -19.60179 -14.80323 -14.78003 -10.80936
 Alpha  occ. eigenvalues --  -10.80875 -10.68991 -10.62441 -10.59719 -10.58924
 Alpha  occ. eigenvalues --  -10.57717 -10.57614 -10.57160 -10.56810 -10.54439
 Alpha  occ. eigenvalues --  -10.52978  -1.47676  -1.47221  -1.38217  -1.37862
 Alpha  occ. eigenvalues --   -1.37731  -1.37566  -1.19599  -1.07989  -1.04486
 Alpha  occ. eigenvalues --   -0.99945  -0.91031  -0.90169  -0.88598  -0.83078
 Alpha  occ. eigenvalues --   -0.81428  -0.78717  -0.75032  -0.74438  -0.70752
 Alpha  occ. eigenvalues --   -0.69958  -0.69901  -0.69631  -0.69286  -0.69270
 Alpha  occ. eigenvalues --   -0.68333  -0.66042  -0.64272  -0.60383  -0.58364
 Alpha  occ. eigenvalues --   -0.58303  -0.57654  -0.57518  -0.56950  -0.55817
 Alpha  occ. eigenvalues --   -0.55788  -0.54457  -0.54129  -0.53529  -0.53057
 Alpha  occ. eigenvalues --   -0.52942  -0.52511  -0.51582  -0.51520  -0.51330
 Alpha  occ. eigenvalues --   -0.50575  -0.49258  -0.48910  -0.47595  -0.46087
 Alpha  occ. eigenvalues --   -0.45553  -0.43889  -0.43341  -0.41432  -0.40798
 Alpha  occ. eigenvalues --   -0.40043  -0.36325  -0.34312  -0.33520  -0.29549
 Alpha virt. eigenvalues --   -0.02197  -0.00712  -0.00431   0.01601   0.02291
 Alpha virt. eigenvalues --    0.02761   0.03141   0.03606   0.04403   0.04708
 Alpha virt. eigenvalues --    0.05043   0.05256   0.06232   0.06563   0.06750
 Alpha virt. eigenvalues --    0.07045   0.07097   0.07547   0.08483   0.08548
 Alpha virt. eigenvalues --    0.08712   0.09039   0.09547   0.10999   0.11392
 Alpha virt. eigenvalues --    0.11609   0.11673   0.12267   0.12613   0.13003
 Alpha virt. eigenvalues --    0.13788   0.14137   0.14614   0.15439   0.15742
 Alpha virt. eigenvalues --    0.15940   0.16845   0.17197   0.17636   0.18029
 Alpha virt. eigenvalues --    0.18132   0.18574   0.19375   0.19464   0.19993
 Alpha virt. eigenvalues --    0.20572   0.20815   0.21008   0.21360   0.21618
 Alpha virt. eigenvalues --    0.21987   0.22310   0.22412   0.23064   0.23337
 Alpha virt. eigenvalues --    0.23709   0.23914   0.24682   0.24892   0.25353
 Alpha virt. eigenvalues --    0.25926   0.26116   0.26484   0.26990   0.27164
 Alpha virt. eigenvalues --    0.27227   0.27615   0.28052   0.28158   0.28771
 Alpha virt. eigenvalues --    0.29201   0.29411   0.29726   0.30051   0.30318
 Alpha virt. eigenvalues --    0.30377   0.31813   0.32087   0.32389   0.32845
 Alpha virt. eigenvalues --    0.33107   0.33414   0.33775   0.35028   0.35384
 Alpha virt. eigenvalues --    0.35757   0.36225   0.37034   0.37654   0.37818
 Alpha virt. eigenvalues --    0.38011   0.38654   0.38737   0.39496   0.40198
 Alpha virt. eigenvalues --    0.40366   0.40769   0.41119   0.41440   0.42714
 Alpha virt. eigenvalues --    0.43224   0.43575   0.44332   0.44712   0.44754
 Alpha virt. eigenvalues --    0.45618   0.46406   0.46702   0.47024   0.47398
 Alpha virt. eigenvalues --    0.48503   0.49465   0.49934   0.50441   0.51127
 Alpha virt. eigenvalues --    0.51783   0.52418   0.53031   0.53892   0.55610
 Alpha virt. eigenvalues --    0.56778   0.56972   0.57926   0.58332   0.59688
 Alpha virt. eigenvalues --    0.60278   0.60786   0.61623   0.62372   0.63054
 Alpha virt. eigenvalues --    0.63762   0.64720   0.66137   0.66643   0.67260
 Alpha virt. eigenvalues --    0.67742   0.68955   0.69819   0.70182   0.70918
 Alpha virt. eigenvalues --    0.71613   0.71892   0.72208   0.72333   0.73396
 Alpha virt. eigenvalues --    0.73698   0.74208   0.74651   0.76210   0.76996
 Alpha virt. eigenvalues --    0.77494   0.78039   0.78343   0.78597   0.80039
 Alpha virt. eigenvalues --    0.80817   0.81320   0.83058   0.83981   0.84187
 Alpha virt. eigenvalues --    0.86057   0.86878   0.88374   0.89895   0.91532
 Alpha virt. eigenvalues --    0.93463   0.93546   0.94923   0.96016   0.96544
 Alpha virt. eigenvalues --    0.97434   0.98584   1.00165   1.02306   1.03938
 Alpha virt. eigenvalues --    1.04897   1.05319   1.06724   1.08119   1.09346
 Alpha virt. eigenvalues --    1.10687   1.11372   1.14113   1.15439   1.15998
 Alpha virt. eigenvalues --    1.17224   1.18711   1.21235   1.22261   1.23822
 Alpha virt. eigenvalues --    1.25147   1.25564   1.26140   1.29754   1.33227
 Alpha virt. eigenvalues --    1.34934   1.38083   1.39691   1.40457   1.40896
 Alpha virt. eigenvalues --    1.43660   1.43793   1.45472   1.46545   1.47117
 Alpha virt. eigenvalues --    1.48305   1.48822   1.49322   1.49803   1.50332
 Alpha virt. eigenvalues --    1.51171   1.52103   1.52877   1.53745   1.54146
 Alpha virt. eigenvalues --    1.54325   1.55253   1.56087   1.56583   1.57337
 Alpha virt. eigenvalues --    1.58486   1.58770   1.59712   1.59943   1.60434
 Alpha virt. eigenvalues --    1.61328   1.61413   1.62581   1.63181   1.63971
 Alpha virt. eigenvalues --    1.65000   1.66954   1.68283   1.72066   1.74923
 Alpha virt. eigenvalues --    1.76296   1.76880   1.77959   1.78372   1.79522
 Alpha virt. eigenvalues --    1.79803   1.80787   1.82656   1.84243   1.84618
 Alpha virt. eigenvalues --    1.85612   1.88177   1.89051   1.90755   1.91177
 Alpha virt. eigenvalues --    1.94796   1.95788   1.96694   1.98879   2.00794
 Alpha virt. eigenvalues --    2.01704   2.03716   2.04953   2.05603   2.07871
 Alpha virt. eigenvalues --    2.11505   2.11938   2.13058   2.13767   2.15719
 Alpha virt. eigenvalues --    2.18093   2.20721   2.22467   2.23743   2.25589
 Alpha virt. eigenvalues --    2.31188   2.33995   2.36110   2.37401   2.38733
 Alpha virt. eigenvalues --    2.40700   2.42107   2.43737   2.46790   2.52260
 Alpha virt. eigenvalues --    2.54480   2.55060   2.56467   2.59112   2.59527
 Alpha virt. eigenvalues --    2.60123   2.62391   2.64774   2.67268   2.70899
 Alpha virt. eigenvalues --    2.72430   2.76678   2.81443   2.82428   2.84564
 Alpha virt. eigenvalues --    2.85353   2.86218   2.90046   2.94552   2.95939
 Alpha virt. eigenvalues --    2.96545   2.99422   2.99659   3.00446   3.01364
 Alpha virt. eigenvalues --    3.05243   3.05699   3.06666   3.10557   3.11495
 Alpha virt. eigenvalues --    3.13212   3.14514   3.17566   3.21606   3.24791
 Alpha virt. eigenvalues --    3.25553   3.28509   3.31003   3.35880   3.39134
 Alpha virt. eigenvalues --    3.40643   3.41889   3.43483   3.44644   3.48860
 Alpha virt. eigenvalues --    3.53552   3.57327   3.66107   3.70146   3.71157
 Alpha virt. eigenvalues --    3.78076   3.78743   3.80824   3.81104   3.83186
 Alpha virt. eigenvalues --    3.84607   3.84642   3.85649   3.86308   3.86464
 Alpha virt. eigenvalues --    3.87710   3.88153   3.88990   3.89412   3.91335
 Alpha virt. eigenvalues --    3.94496   3.98239   3.99534   4.00051   4.01252
 Alpha virt. eigenvalues --    4.01744   4.02033   4.02270   4.06026   4.06254
 Alpha virt. eigenvalues --    4.11406   4.13641   4.22153   4.23557   4.28106
 Alpha virt. eigenvalues --    4.29122   4.31336   4.33062   4.53887   4.57831
 Alpha virt. eigenvalues --    4.72787   4.80099   4.81511   4.88963   4.99802
 Alpha virt. eigenvalues --    5.00044   5.02447   5.03952   5.18441   5.20717
 Alpha virt. eigenvalues --    5.42423   5.90313   6.46898   6.48813   6.50483
 Alpha virt. eigenvalues --    6.50875   6.51692   6.53690   6.54260   6.55497
 Alpha virt. eigenvalues --    6.56180   6.56851   6.59221   6.63201   6.63826
 Alpha virt. eigenvalues --    6.64516   6.88801   6.89973   6.90477   6.92204
 Alpha virt. eigenvalues --   23.45593  23.58011  23.65192  23.65819  23.73498
 Alpha virt. eigenvalues --   23.80546  23.93177  23.93514  23.97669  24.08692
 Alpha virt. eigenvalues --   24.12852  24.20308  35.58776  35.68962  50.13948
 Alpha virt. eigenvalues --   66.89996  66.90522  66.91084  66.91862  66.96591
 Alpha virt. eigenvalues --   66.98920
          Condensed to atoms (all electrons):
               1          2          3          4          5          6
     1  C   24.808162  -0.413070  -0.562504  -0.093933  -0.197272  -0.612690
     2  N   -0.413070   8.034479   0.229493  -0.091878  -0.701822  -0.452246
     3  C   -0.562504   0.229493   8.697365   0.632382   0.128343  -1.144179
     4  O   -0.093933  -0.091878   0.632382   8.092445  -0.179555  -0.116207
     5  N   -0.197272  -0.701822   0.128343  -0.179555   7.831958   0.665708
     6  C   -0.612690  -0.452246  -1.144179  -0.116207   0.665708   8.496559
     7  C    0.002303   0.026281   0.248101   0.012601  -0.153815  -0.828243
     8  C   -0.015170  -0.009419  -0.221578  -0.001631   0.005313   0.370274
     9  C   -3.440373   0.331058   0.409872   0.174243  -0.158650  -0.115198
    10  C   -4.367627   0.226166   0.452168  -0.029871   0.002149  -0.009990
    11  C   -0.340204  -0.030141  -1.904026  -0.030139  -0.050631  -0.131614
    12  C    1.606896  -0.035710   0.446008   0.015322   0.024215   0.049243
    13  C   -5.520208  -0.045700  -1.754182  -0.029933  -0.100448  -0.192105
    14  H    0.001616   0.226006  -0.021243  -0.002303   0.071294   0.022857
    15  H   -0.046210   0.097620   0.040629  -0.002630   0.223054  -0.063793
    16  H   -0.000507   0.014665   0.047634   0.000641  -0.048864   0.343459
    17  H    0.008315   0.003026   0.060467  -0.003286  -0.088520   0.395407
    18  H   -0.004916  -0.000210  -0.023958  -0.000288   0.002042  -0.048489
    19  H    0.005086  -0.000500   0.036498  -0.000044   0.003188  -0.099244
    20  H    0.000255   0.000041   0.010619  -0.000014   0.000326  -0.041578
    21  H    0.000055  -0.000007   0.003524   0.000021  -0.001290   0.069603
    22  H   -0.000396  -0.000058  -0.009907  -0.000097   0.000022  -0.046228
    23  H    0.026590  -0.024722   0.070634   0.004807   0.004553   0.007269
    24  H    0.055697  -0.019919  -0.006386   0.000053  -0.000515  -0.000374
    25  C   -0.840107  -0.001879  -0.249315   0.000124   0.004616  -0.004385
    26  C   -3.348601   0.014429   0.217960   0.007600   0.017934   0.019537
    27  H   -0.008748  -0.002324   0.002238  -0.000016  -0.000059   0.000017
    28  F    0.011125   0.000050   0.000943   0.000002   0.000004   0.000007
    29  F    0.002186  -0.000043  -0.000528   0.000001   0.000001  -0.000004
    30  F   -0.010303   0.000018  -0.000889  -0.000002   0.000002  -0.000002
    31  F    0.240039  -0.000346   0.006113  -0.000379  -0.000064   0.000062
    32  F    0.016606   0.000374  -0.002971   0.000122   0.000000  -0.000081
    33  F    0.015063   0.000292  -0.000832  -0.000008   0.000009   0.000011
               7          8          9         10         11         12
     1  C    0.002303  -0.015170  -3.440373  -4.367627  -0.340204   1.606896
     2  N    0.026281  -0.009419   0.331058   0.226166  -0.030141  -0.035710
     3  C    0.248101  -0.221578   0.409872   0.452168  -1.904026   0.446008
     4  O    0.012601  -0.001631   0.174243  -0.029871  -0.030139   0.015322
     5  N   -0.153815   0.005313  -0.158650   0.002149  -0.050631   0.024215
     6  C   -0.828243   0.370274  -0.115198  -0.009990  -0.131614   0.049243
     7  C    6.242385  -0.191899   0.010494  -0.000837   0.002851  -0.001866
     8  C   -0.191899   6.072816  -0.007330  -0.000389  -0.000841   0.000397
     9  C    0.010494  -0.007330  17.359634   3.593881  -8.186625   0.160008
    10  C   -0.000837  -0.000389   3.593881  35.374082 -12.662736   0.341489
    11  C    0.002851  -0.000841  -8.186625 -12.662736  48.400833 -12.121253
    12  C   -0.001866   0.000397   0.160008   0.341489 -12.121253  17.852523
    13  C    0.011399  -0.001064  -5.088357  -6.607676   1.870118  -2.390847
    14  H   -0.002471   0.000063   0.043655   0.014634   0.003134   0.020174
    15  H    0.002048   0.005668   0.021534   0.000854  -0.001151   0.000235
    16  H    0.004224  -0.023754  -0.000719   0.000160   0.000305   0.000093
    17  H   -0.066647  -0.004504  -0.000008   0.000869   0.000242  -0.000147
    18  H    0.446686  -0.030848   0.000545  -0.000001  -0.000016   0.000031
    19  H    0.453430  -0.056891  -0.000012   0.000029   0.000039  -0.000039
    20  H    0.015443   0.361086   0.000049   0.000002   0.000001  -0.000001
    21  H   -0.111945   0.390600   0.000019   0.000000   0.000000  -0.000000
    22  H    0.006927   0.394811   0.000008  -0.000001  -0.000001   0.000001
    23  H   -0.000358   0.000041   0.397874  -0.069105  -0.064561  -0.000685
    24  H    0.000018   0.000001  -0.042398   0.013879  -0.016099   0.078235
    25  C   -0.000033  -0.000017  -2.860706  -1.906008  -3.706783  -0.968862
    26  C   -0.000897   0.000123   2.994411  -7.391938  -4.053966   0.829805
    27  H    0.000000  -0.000000   0.000886   0.015973   0.035095   0.266231
    28  F    0.000000   0.000000   0.092061  -0.250460  -0.004272   0.080818
    29  F    0.000000  -0.000000   0.000719   0.003082  -0.139451   0.039993
    30  F   -0.000000  -0.000000  -0.001567  -0.075120   0.170540  -0.074884
    31  F   -0.000000  -0.000001   0.198154  -0.421491  -0.063562   0.027698
    32  F   -0.000001  -0.000000  -0.078796   0.284172  -0.117806   0.016708
    33  F    0.000000   0.000000  -0.017212   0.093691  -0.187205   0.021663
              13         14         15         16         17         18
     1  C   -5.520208   0.001616  -0.046210  -0.000507   0.008315  -0.004916
     2  N   -0.045700   0.226006   0.097620   0.014665   0.003026  -0.000210
     3  C   -1.754182  -0.021243   0.040629   0.047634   0.060467  -0.023958
     4  O   -0.029933  -0.002303  -0.002630   0.000641  -0.003286  -0.000288
     5  N   -0.100448   0.071294   0.223054  -0.048864  -0.088520   0.002042
     6  C   -0.192105   0.022857  -0.063793   0.343459   0.395407  -0.048489
     7  C    0.011399  -0.002471   0.002048   0.004224  -0.066647   0.446686
     8  C   -0.001064   0.000063   0.005668  -0.023754  -0.004504  -0.030848
     9  C   -5.088357   0.043655   0.021534  -0.000719  -0.000008   0.000545
    10  C   -6.607676   0.014634   0.000854   0.000160   0.000869  -0.000001
    11  C    1.870118   0.003134  -0.001151   0.000305   0.000242  -0.000016
    12  C   -2.390847   0.020174   0.000235   0.000093  -0.000147   0.000031
    13  C   23.850369  -0.105627  -0.005164   0.001401   0.000516  -0.000222
    14  H   -0.105627   0.342248   0.000981  -0.000010   0.000236   0.000064
    15  H   -0.005164   0.000981   0.362564   0.002232   0.001603   0.003878
    16  H    0.001401  -0.000010   0.002232   0.421208  -0.036810   0.004888
    17  H    0.000516   0.000236   0.001603  -0.036810   0.459703  -0.008793
    18  H   -0.000222   0.000064   0.003878   0.004888  -0.008793   0.467116
    19  H    0.000153  -0.000016  -0.001023  -0.007649   0.006068  -0.043885
    20  H   -0.000002  -0.000000   0.000025  -0.000121   0.003292  -0.008332
    21  H   -0.000006  -0.000000  -0.000018  -0.000213  -0.000091  -0.003412
    22  H    0.000002   0.000001  -0.000016   0.003389  -0.000836   0.006410
    23  H   -0.066189   0.000270  -0.000024  -0.000047   0.000011  -0.000001
    24  H    0.245785   0.007815   0.000024   0.000000  -0.000000  -0.000000
    25  C    0.485665   0.001916  -0.000112   0.000004   0.000002  -0.000000
    26  C    1.263098  -0.000693   0.000055  -0.000185  -0.000015  -0.000001
    27  H    0.026587  -0.000001   0.000000   0.000000   0.000000   0.000000
    28  F    0.021059   0.000001  -0.000000  -0.000000   0.000000  -0.000000
    29  F    0.152574   0.000001  -0.000000   0.000000  -0.000000  -0.000000
    30  F   -0.001618   0.000001  -0.000000   0.000000  -0.000000   0.000000
    31  F   -0.014637  -0.000001   0.000000   0.000001  -0.000000   0.000000
    32  F   -0.013594  -0.000001   0.000000  -0.000000  -0.000000  -0.000000
    33  F   -0.001163   0.000000   0.000000   0.000000   0.000000  -0.000000
              19         20         21         22         23         24
     1  C    0.005086   0.000255   0.000055  -0.000396   0.026590   0.055697
     2  N   -0.000500   0.000041  -0.000007  -0.000058  -0.024722  -0.019919
     3  C    0.036498   0.010619   0.003524  -0.009907   0.070634  -0.006386
     4  O   -0.000044  -0.000014   0.000021  -0.000097   0.004807   0.000053
     5  N    0.003188   0.000326  -0.001290   0.000022   0.004553  -0.000515
     6  C   -0.099244  -0.041578   0.069603  -0.046228   0.007269  -0.000374
     7  C    0.453430   0.015443  -0.111945   0.006927  -0.000358   0.000018
     8  C   -0.056891   0.361086   0.390600   0.394811   0.000041   0.000001
     9  C   -0.000012   0.000049   0.000019   0.000008   0.397874  -0.042398
    10  C    0.000029   0.000002   0.000000  -0.000001  -0.069105   0.013879
    11  C    0.000039   0.000001   0.000000  -0.000001  -0.064561  -0.016099
    12  C   -0.000039  -0.000001  -0.000000   0.000001  -0.000685   0.078235
    13  C    0.000153  -0.000002  -0.000006   0.000002  -0.066189   0.245785
    14  H   -0.000016  -0.000000  -0.000000   0.000001   0.000270   0.007815
    15  H   -0.001023   0.000025  -0.000018  -0.000016  -0.000024   0.000024
    16  H   -0.007649  -0.000121  -0.000213   0.003389  -0.000047   0.000000
    17  H    0.006068   0.003292  -0.000091  -0.000836   0.000011  -0.000000
    18  H   -0.043885  -0.008332  -0.003412   0.006410  -0.000001  -0.000000
    19  H    0.443648   0.005899  -0.003396  -0.008324   0.000000  -0.000000
    20  H    0.005899   0.449141  -0.025453  -0.035416   0.000000   0.000000
    21  H   -0.003396  -0.025453   0.432246  -0.023772   0.000000   0.000000
    22  H   -0.008324  -0.035416  -0.023772   0.446479  -0.000000  -0.000000
    23  H    0.000000   0.000000   0.000000  -0.000000   0.334203  -0.000021
    24  H   -0.000000   0.000000   0.000000  -0.000000  -0.000021   0.413019
    25  C    0.000001   0.000000   0.000000  -0.000000   0.001357   0.013720
    26  C    0.000001  -0.000000  -0.000000  -0.000000   0.025223   0.000492
    27  H   -0.000000  -0.000000  -0.000000   0.000000   0.000046  -0.004054
    28  F    0.000000   0.000000   0.000000  -0.000000   0.000003   0.000027
    29  F    0.000000   0.000000   0.000000  -0.000000  -0.000002   0.000048
    30  F   -0.000000  -0.000000  -0.000000   0.000000   0.000004   0.000034
    31  F   -0.000000  -0.000000  -0.000000   0.000000   0.012467  -0.000003
    32  F    0.000000   0.000000   0.000000  -0.000000  -0.000724  -0.000005
    33  F    0.000000   0.000000  -0.000000  -0.000000   0.000785  -0.000002
              25         26         27         28         29         30
     1  C   -0.840107  -3.348601  -0.008748   0.011125   0.002186  -0.010303
     2  N   -0.001879   0.014429  -0.002324   0.000050  -0.000043   0.000018
     3  C   -0.249315   0.217960   0.002238   0.000943  -0.000528  -0.000889
     4  O    0.000124   0.007600  -0.000016   0.000002   0.000001  -0.000002
     5  N    0.004616   0.017934  -0.000059   0.000004   0.000001   0.000002
     6  C   -0.004385   0.019537   0.000017   0.000007  -0.000004  -0.000002
     7  C   -0.000033  -0.000897   0.000000   0.000000   0.000000  -0.000000
     8  C   -0.000017   0.000123  -0.000000   0.000000  -0.000000  -0.000000
     9  C   -2.860706   2.994411   0.000886   0.092061   0.000719  -0.001567
    10  C   -1.906008  -7.391938   0.015973  -0.250460   0.003082  -0.075120
    11  C   -3.706783  -4.053966   0.035095  -0.004272  -0.139451   0.170540
    12  C   -0.968862   0.829805   0.266231   0.080818   0.039993  -0.074884
    13  C    0.485665   1.263098   0.026587   0.021059   0.152574  -0.001618
    14  H    0.001916  -0.000693  -0.000001   0.000001   0.000001   0.000001
    15  H   -0.000112   0.000055   0.000000  -0.000000  -0.000000  -0.000000
    16  H    0.000004  -0.000185   0.000000  -0.000000   0.000000   0.000000
    17  H    0.000002  -0.000015   0.000000   0.000000  -0.000000  -0.000000
    18  H   -0.000000  -0.000001   0.000000  -0.000000  -0.000000   0.000000
    19  H    0.000001   0.000001  -0.000000   0.000000   0.000000  -0.000000
    20  H    0.000000  -0.000000  -0.000000   0.000000   0.000000  -0.000000
    21  H    0.000000  -0.000000  -0.000000   0.000000   0.000000  -0.000000
    22  H   -0.000000  -0.000000   0.000000  -0.000000  -0.000000   0.000000
    23  H    0.001357   0.025223   0.000046   0.000003  -0.000002   0.000004
    24  H    0.013720   0.000492  -0.004054   0.000027   0.000048   0.000034
    25  C   21.306513  -6.522483  -0.034662  -0.063830   0.050107   0.165779
    26  C   -6.522483  20.409814   0.014364   0.268335   0.032797  -0.011025
    27  H   -0.034662   0.014364   0.379538   0.000658   0.007671  -0.000648
    28  F   -0.063830   0.268335   0.000658   8.988609  -0.028861  -0.038766
    29  F    0.050107   0.032797   0.007671  -0.028861   9.040032  -0.040212
    30  F    0.165779  -0.011025  -0.000648  -0.038766  -0.040212   8.961785
    31  F    0.004326   0.169372   0.000007   0.001580   0.000086   0.000126
    32  F   -0.016054   0.089380   0.000005   0.002823   0.000119  -0.001122
    33  F    0.269915  -0.040801   0.000047  -0.005794   0.001663   0.002627
              31         32         33
     1  C    0.240039   0.016606   0.015063
     2  N   -0.000346   0.000374   0.000292
     3  C    0.006113  -0.002971  -0.000832
     4  O   -0.000379   0.000122  -0.000008
     5  N   -0.000064   0.000000   0.000009
     6  C    0.000062  -0.000081   0.000011
     7  C   -0.000000  -0.000001   0.000000
     8  C   -0.000001  -0.000000   0.000000
     9  C    0.198154  -0.078796  -0.017212
    10  C   -0.421491   0.284172   0.093691
    11  C   -0.063562  -0.117806  -0.187205
    12  C    0.027698   0.016708   0.021663
    13  C   -0.014637  -0.013594  -0.001163
    14  H   -0.000001  -0.000001   0.000000
    15  H    0.000000   0.000000   0.000000
    16  H    0.000001  -0.000000   0.000000
    17  H   -0.000000  -0.000000   0.000000
    18  H    0.000000  -0.000000  -0.000000
    19  H   -0.000000   0.000000   0.000000
    20  H   -0.000000   0.000000   0.000000
    21  H   -0.000000   0.000000  -0.000000
    22  H    0.000000  -0.000000  -0.000000
    23  H    0.012467  -0.000724   0.000785
    24  H   -0.000003  -0.000005  -0.000002
    25  C    0.004326  -0.016054   0.269915
    26  C    0.169372   0.089380  -0.040801
    27  H    0.000007   0.000005   0.000047
    28  F    0.001580   0.002823  -0.005794
    29  F    0.000086   0.000119   0.001663
    30  F    0.000126  -0.001122   0.002627
    31  F    9.015124  -0.041006  -0.026537
    32  F   -0.041006   8.933703  -0.037461
    33  F   -0.026537  -0.037461   8.982131
 Mulliken charges:
               1
     1  C   -0.977156
     2  N   -0.374004
     3  C    0.161506
     4  O   -0.358149
     5  N   -0.303227
     6  C   -0.533365
     7  C   -0.126181
     8  C   -1.035858
     9  C    0.208848
    10  C   -0.624030
    11  C   -0.670075
    12  C   -0.283493
    13  C    0.010016
    14  H    0.375397
    15  H    0.357138
    16  H    0.274575
    17  H    0.269900
    18  H    0.241712
    19  H    0.266981
    20  H    0.264737
    21  H    0.273534
    22  H    0.267004
    23  H    0.340302
    24  H    0.260926
    25  C    0.871191
    26  C    0.995877
    27  H    0.301148
    28  F   -0.076120
    29  F   -0.121980
    30  F   -0.044758
    31  F   -0.107126
    32  F   -0.034388
    33  F   -0.070882
 Sum of Mulliken charges =  -0.00000
 Mulliken charges with hydrogens summed into heavy atoms:
               1
     1  C   -0.977156
     2  N    0.001393
     3  C    0.161506
     4  O   -0.358149
     5  N    0.053910
     6  C    0.011111
     7  C    0.382512
     8  C   -0.230583
     9  C    0.549150
    10  C   -0.624030
    11  C   -0.670075
    12  C    0.017655
    13  C    0.270942
    25  C    0.871191
    26  C    0.995877
    28  F   -0.076120
    29  F   -0.121980
    30  F   -0.044758
    31  F   -0.107126
    32  F   -0.034388
    33  F   -0.070882
 Electronic spatial extent (au):  <R**2>=           9567.3269
 Charge=             -0.0000 electrons
 Dipole moment (field-independent basis, Debye):
    X=              8.3308    Y=             -6.6774    Z=             -1.0077  Tot=             10.7240
 Quadrupole moment (field-independent basis, Debye-Ang):
   XX=           -111.7887   YY=           -114.2295   ZZ=           -123.9423
   XY=             -8.3604   XZ=             -3.5269   YZ=              0.8604
 Traceless Quadrupole moment (field-independent basis, Debye-Ang):
   XX=              4.8648   YY=              2.4240   ZZ=             -7.2888
   XY=             -8.3604   XZ=             -3.5269   YZ=              0.8604
 Octapole moment (field-independent basis, Debye-Ang**2):
  XXX=            142.2786  YYY=            -19.1981  ZZZ=              0.8862  XYY=            -14.1001
  XXY=            -25.4454  XXZ=            -11.1945  XZZ=            -23.3277  YZZ=             12.0115
  YYZ=             -3.5651  XYZ=              5.2713
 Hexadecapole moment (field-independent basis, Debye-Ang**3):
 XXXX=          -9545.6991 YYYY=          -1310.9913 ZZZZ=           -282.6578 XXXY=           -166.8859
 XXXZ=            -52.7792 YYYX=            -59.7356 YYYZ=              8.6037 ZZZX=             -7.3984
 ZZZY=             -5.0160 XXYY=          -1915.4917 XXZZ=          -1763.2631 YYZZ=           -290.7514
 XXYZ=             22.2682 YYXZ=             -7.3628 ZZXY=             -3.7227
 N-N= 1.780508900445D+03 E-N=-6.500964457416D+03  KE= 1.244497952966D+03
 D1PCM: PCM CHGder 1st derivatives, ID1Alg=3 FixD1E=F DoIter=F DoCFld=F I1PDM=0.
 Calling FoFJK, ICntrl=      2127 FMM=F ISym2X=0 I1Cent= 0 IOpClX= 0 NMat=1 NMatS=1 NMatT=0.
 ***** Axes restored to original set *****
 -------------------------------------------------------------------
 Center     Atomic                   Forces (Hartrees/Bohr)
 Number     Number              X              Y              Z
 -------------------------------------------------------------------
      1        6           0.000001286   -0.000000136   -0.000000598
      2        7          -0.000001118    0.000001267   -0.000003677
      3        6          -0.000002416    0.000005299    0.000000944
      4        8           0.000000169   -0.000004056    0.000001449
      5        7           0.000001233   -0.000004273   -0.000001676
      6        6           0.000001959   -0.000000675    0.000001874
      7        6          -0.000001268   -0.000002480   -0.000002846
      8        6          -0.000000003   -0.000002358    0.000000026
      9        6           0.000000209    0.000001692    0.000000561
     10        6           0.000000531    0.000000528    0.000001667
     11        6          -0.000000050    0.000001503   -0.000000122
     12        6          -0.000000128    0.000001063   -0.000002648
     13        6          -0.000001107    0.000001023   -0.000002718
     14        1          -0.000001200    0.000000057   -0.000001901
     15        1          -0.000000836    0.000000006   -0.000002626
     16        1           0.000000185   -0.000002397    0.000001482
     17        1          -0.000000434    0.000000224    0.000001436
     18        1          -0.000000877   -0.000000459   -0.000002567
     19        1          -0.000001194   -0.000002914   -0.000001872
     20        1           0.000000133   -0.000000973    0.000000863
     21        1          -0.000001148   -0.000002835   -0.000000666
     22        1          -0.000000433   -0.000004100    0.000001434
     23        1           0.000000567    0.000000251    0.000002783
     24        1          -0.000001219    0.000000448   -0.000004620
     25        6           0.000000052    0.000002495   -0.000000138
     26        6           0.000001225    0.000001925    0.000003957
     27        1          -0.000000799    0.000001486   -0.000003917
     28        9           0.000000639    0.000000227    0.000001499
     29        9          -0.000000222    0.000001182   -0.000001971
     30        9           0.000001125    0.000003994    0.000000474
     31        9           0.000001893    0.000001375    0.000005348
     32        9           0.000001235   -0.000001092    0.000004517
     33        9           0.000002011    0.000002706    0.000004248
 -------------------------------------------------------------------
 Cartesian Forces:  Max     0.000005348 RMS     0.000002043

 GradGradGradGradGradGradGradGradGradGradGradGradGradGradGradGradGradGrad
 Berny optimization.
 FormGI is forming the generalized inverse of G from B-inverse, IUseBI=4.
 GSVD:  received Info=                   1 from GESDD.
 Internal  Forces:  Max     0.000004221 RMS     0.000000587
 Search for a local minimum.
 Step number   1 out of a maximum of  172
 All quantities printed in internal units (Hartrees-Bohrs-Radians)
 Mixed Optimization -- En-DIIS/RFO-DIIS
 Second derivative matrix not updated -- first step.
 ITU=  0
     Eigenvalues ---    0.00444   0.00481   0.00586   0.00676   0.00939
     Eigenvalues ---    0.01520   0.01562   0.01690   0.01771   0.01800
     Eigenvalues ---    0.01822   0.01976   0.02013   0.02109   0.02141
     Eigenvalues ---    0.02174   0.02178   0.02214   0.02240   0.02265
     Eigenvalues ---    0.03727   0.04453   0.04936   0.05517   0.05534
     Eigenvalues ---    0.05549   0.08182   0.09211   0.10441   0.10573
     Eigenvalues ---    0.10734   0.10835   0.12077   0.12659   0.15259
     Eigenvalues ---    0.15927   0.15999   0.16000   0.16000   0.16000
     Eigenvalues ---    0.16000   0.16000   0.21893   0.21905   0.22028
     Eigenvalues ---    0.22168   0.22368   0.23483   0.24601   0.24988
     Eigenvalues ---    0.24993   0.24995   0.24995   0.25000   0.25000
     Eigenvalues ---    0.25000   0.25000   0.25000   0.25000   0.25000
     Eigenvalues ---    0.29956   0.30217   0.30990   0.31674   0.34093
     Eigenvalues ---    0.34105   0.34330   0.34470   0.34478   0.34642
     Eigenvalues ---    0.34687   0.35383   0.35699   0.36199   0.37350
     Eigenvalues ---    0.42116   0.42670   0.45712   0.45878   0.45953
     Eigenvalues ---    0.46155   0.46628   0.47002   0.47122   0.48253
     Eigenvalues ---    0.52293   0.56426   0.56593   0.57003   0.57426
     Eigenvalues ---    0.57494   0.57535   0.97792
 RFO step:  Lambda= 0.00000000D+00 EMin= 4.44454112D-03
 Linear search not attempted -- first point.
 Iteration  1 RMS(Cart)=  0.00006828 RMS(Int)=  0.00000000
 Iteration  2 RMS(Cart)=  0.00000000 RMS(Int)=  0.00000000
 Variable       Old X    -DE/DX   Delta X   Delta X   Delta X     New X
                                 (Linear)    (Quad)   (Total)
    R1        2.63017  -0.00000   0.00000  -0.00000  -0.00000   2.63017
    R2        2.64808   0.00000   0.00000   0.00000   0.00000   2.64809
    R3        2.64079   0.00000   0.00000   0.00000   0.00000   2.64079
    R4        2.63430   0.00000   0.00000   0.00000   0.00000   2.63430
    R5        1.90970   0.00000   0.00000   0.00000   0.00000   1.90970
    R6        2.29536  -0.00000   0.00000  -0.00000  -0.00000   2.29536
    R7        2.57620   0.00000   0.00000   0.00001   0.00001   2.57621
    R8        2.75323   0.00000   0.00000   0.00000   0.00000   2.75323
    R9        1.90884  -0.00000   0.00000  -0.00000  -0.00000   1.90884
   R10        2.87532  -0.00000   0.00000  -0.00000  -0.00000   2.87532
   R11        2.06186   0.00000   0.00000   0.00000   0.00000   2.06186
   R12        2.07154  -0.00000   0.00000  -0.00000  -0.00000   2.07153
   R13        2.88052   0.00000   0.00000   0.00000   0.00000   2.88052
   R14        2.07174  -0.00000   0.00000  -0.00000  -0.00000   2.07174
   R15        2.06777  -0.00000   0.00000  -0.00000  -0.00000   2.06776
   R16        2.06545   0.00000   0.00000   0.00000   0.00000   2.06545
   R17        2.06259  -0.00000   0.00000  -0.00000  -0.00000   2.06259
   R18        2.06532  -0.00000   0.00000  -0.00000  -0.00000   2.06532
   R19        2.62221   0.00000   0.00000   0.00000   0.00000   2.62221
   R20        2.03771  -0.00000   0.00000  -0.00000  -0.00000   2.03771
   R21        2.64825   0.00000   0.00000   0.00000   0.00000   2.64825
   R22        2.86031  -0.00000   0.00000  -0.00000  -0.00000   2.86031
   R23        2.62905  -0.00000   0.00000  -0.00000  -0.00000   2.62905
   R24        2.84745   0.00000   0.00000   0.00000   0.00000   2.84745
   R25        2.61318  -0.00000   0.00000  -0.00000  -0.00000   2.61318
   R26        2.04556  -0.00000   0.00000  -0.00000  -0.00000   2.04556
   R27        2.05058   0.00000   0.00000   0.00000   0.00000   2.05058
   R28        2.52946  -0.00000   0.00000  -0.00000  -0.00000   2.52946
   R29        2.53886   0.00000   0.00000   0.00000   0.00000   2.53886
   R30        2.53743  -0.00000   0.00000  -0.00000  -0.00000   2.53743
   R31        2.52980  -0.00000   0.00000  -0.00000  -0.00000   2.52980
   R32        2.53394  -0.00000   0.00000  -0.00000  -0.00000   2.53394
   R33        2.53038  -0.00000   0.00000  -0.00000  -0.00000   2.53038
    A1        2.15784   0.00000   0.00000   0.00001   0.00001   2.15785
    A2        2.05428  -0.00000   0.00000  -0.00000  -0.00000   2.05428
    A3        2.07088  -0.00000   0.00000  -0.00000  -0.00000   2.07088
    A4        2.22544   0.00000   0.00000   0.00001   0.00001   2.22545
    A5        2.00968  -0.00000   0.00000  -0.00001  -0.00001   2.00967
    A6        2.03958  -0.00000   0.00000  -0.00000  -0.00000   2.03958
    A7        2.15389   0.00000   0.00000   0.00000   0.00000   2.15390
    A8        1.97738  -0.00000   0.00000  -0.00000  -0.00000   1.97738
    A9        2.15170   0.00000   0.00000   0.00000   0.00000   2.15170
   A10        2.09890   0.00000   0.00000  -0.00000  -0.00000   2.09890
   A11        2.07874  -0.00000   0.00000  -0.00001  -0.00001   2.07873
   A12        2.04288   0.00000   0.00000  -0.00000  -0.00000   2.04288
   A13        1.92626  -0.00000   0.00000  -0.00000  -0.00000   1.92625
   A14        1.88132   0.00000   0.00000   0.00001   0.00001   1.88133
   A15        1.92890  -0.00000   0.00000  -0.00001  -0.00001   1.92888
   A16        1.92855   0.00000   0.00000   0.00001   0.00001   1.92856
   A17        1.92797   0.00000   0.00000  -0.00000  -0.00000   1.92797
   A18        1.86956  -0.00000   0.00000  -0.00000  -0.00000   1.86956
   A19        1.94533   0.00000   0.00000   0.00000   0.00000   1.94534
   A20        1.91136  -0.00000   0.00000   0.00000   0.00000   1.91136
   A21        1.90223  -0.00000   0.00000  -0.00000  -0.00000   1.90222
   A22        1.91251  -0.00000   0.00000   0.00000   0.00000   1.91251
   A23        1.92455  -0.00000   0.00000  -0.00000  -0.00000   1.92454
   A24        1.86612   0.00000   0.00000   0.00000   0.00000   1.86613
   A25        1.94177   0.00000   0.00000   0.00000   0.00000   1.94177
   A26        1.94102  -0.00000   0.00000  -0.00000  -0.00000   1.94102
   A27        1.93914  -0.00000   0.00000  -0.00000  -0.00000   1.93914
   A28        1.87962   0.00000   0.00000   0.00000   0.00000   1.87962
   A29        1.87973   0.00000   0.00000   0.00000   0.00000   1.87973
   A30        1.87973  -0.00000   0.00000  -0.00000  -0.00000   1.87972
   A31        2.09823  -0.00000   0.00000  -0.00000  -0.00000   2.09823
   A32        2.08864   0.00000   0.00000   0.00000   0.00000   2.08864
   A33        2.09632   0.00000   0.00000   0.00000   0.00000   2.09632
   A34        2.11219   0.00000   0.00000   0.00000   0.00000   2.11219
   A35        2.03391  -0.00000   0.00000  -0.00000  -0.00000   2.03390
   A36        2.13677   0.00000   0.00000   0.00000   0.00000   2.13677
   A37        2.06452  -0.00000   0.00000  -0.00000  -0.00000   2.06452
   A38        2.16236   0.00000   0.00000   0.00000   0.00000   2.16236
   A39        2.05599  -0.00000   0.00000  -0.00000  -0.00000   2.05599
   A40        2.11340   0.00000   0.00000   0.00000   0.00000   2.11340
   A41        2.08923  -0.00000   0.00000  -0.00000  -0.00000   2.08923
   A42        2.08052  -0.00000   0.00000   0.00000   0.00000   2.08052
   A43        2.10698   0.00000   0.00000   0.00000   0.00000   2.10698
   A44        2.09237  -0.00000   0.00000  -0.00000  -0.00000   2.09237
   A45        2.08383  -0.00000   0.00000  -0.00000  -0.00000   2.08383
   A46        1.96869   0.00000   0.00000   0.00000   0.00000   1.96869
   A47        1.93994  -0.00000   0.00000  -0.00000  -0.00000   1.93994
   A48        1.96404  -0.00000   0.00000  -0.00000  -0.00000   1.96404
   A49        1.85982   0.00000   0.00000   0.00000   0.00000   1.85982
   A50        1.87112   0.00000   0.00000   0.00000   0.00000   1.87112
   A51        1.85309   0.00000   0.00000   0.00000   0.00000   1.85309
   A52        1.94965  -0.00000   0.00000  -0.00000  -0.00000   1.94965
   A53        1.95304  -0.00000   0.00000  -0.00000  -0.00000   1.95303
   A54        1.95917  -0.00000   0.00000  -0.00000  -0.00000   1.95917
   A55        1.86042   0.00000   0.00000   0.00000   0.00000   1.86042
   A56        1.86140   0.00000   0.00000   0.00000   0.00000   1.86140
   A57        1.87427   0.00000   0.00000   0.00000   0.00000   1.87427
    D1        0.16832   0.00000   0.00000   0.00001   0.00001   0.16833
    D2       -3.11843  -0.00000   0.00000  -0.00002  -0.00002  -3.11845
    D3       -2.99410  -0.00000   0.00000  -0.00000  -0.00000  -2.99410
    D4        0.00233  -0.00000   0.00000  -0.00003  -0.00003   0.00230
    D5        3.12587  -0.00000   0.00000  -0.00001  -0.00001   3.12586
    D6       -0.01640  -0.00000   0.00000  -0.00001  -0.00001  -0.01641
    D7        0.00529   0.00000   0.00000   0.00000   0.00000   0.00529
    D8       -3.13697  -0.00000   0.00000  -0.00000  -0.00000  -3.13697
    D9       -3.13200   0.00000   0.00000   0.00001   0.00001  -3.13198
   D10        0.01479   0.00000   0.00000   0.00001   0.00001   0.01479
   D11       -0.01017   0.00000   0.00000   0.00000   0.00000  -0.01017
   D12        3.13662  -0.00000   0.00000  -0.00000  -0.00000   3.13661
   D13        0.01898  -0.00000   0.00000  -0.00000  -0.00000   0.01898
   D14        3.13915   0.00000   0.00000   0.00002   0.00002   3.13917
   D15       -2.97530   0.00000   0.00000   0.00003   0.00003  -2.97527
   D16        0.14487   0.00000   0.00000   0.00005   0.00005   0.14492
   D17        3.06394  -0.00000   0.00000  -0.00003  -0.00003   3.06391
   D18        0.30607   0.00000   0.00000   0.00000   0.00000   0.30607
   D19       -0.09905   0.00000   0.00000  -0.00000  -0.00000  -0.09905
   D20       -2.85692   0.00000   0.00000   0.00003   0.00003  -2.85689
   D21        2.91199   0.00000   0.00000   0.00007   0.00007   2.91206
   D22        0.80436   0.00000   0.00000   0.00006   0.00006   0.80442
[...]
 0.00022391,0.00043931,0.08254772,-0.00234145,0.00166127,0.00013428,0.0
 0356751,-0.00030413,-0.00041982,-0.00242215,-0.00126581,0.00003375,0.0
 0052958,0.00077114,0.00006213,0.00095740,-0.00026838,0.00007628,-0.000
 28389,-0.00014734,-0.00002702,0.00003128,0.00006906,-0.00001898,0.0000
 0803,-0.00004364,0.00000103,0.00227175,-0.00139243,0.00069835,-0.00277
 969,-0.00115334,0.00063517,0.00886480,-0.02111488,-0.02057441,0.003442
 55,0.00186290,-0.00173138,0.00123446,-0.00021430,0.00108008,-0.0000065
 0,0.00016535,-0.00002887,-0.00004238,0.00010298,-0.00002897,0.00002408
 ,0.00001039,0.00000137,0.00008010,0.00002771,-0.00002860,-0.00000261,-
 0.00000092,0.00000782,-0.00000932,-0.00000431,-0.00000330,0.00000050,0
 .00000529,-0.00000591,0.00002858,-0.00000367,-0.00000103,0.00000049,0.
 00001108,0.00000649,0.00012327,-0.00018416,-0.00002816,0.00045388,-0.0
 0021795,0.00007670,0.03760627,-0.19873261,-0.09653570,0.00773526,-0.00
 505484,-0.00433764,-0.00054409,0.00068724,-0.00042055,-0.01453169,0.29
 591150,-0.00088816,0.00085012,-0.00004684,0.00142149,-0.00007957,-0.00
 005927,-0.00105102,-0.00049292,-0.00002647,0.00026036,0.00029954,0.000
 07734,0.00043601,-0.00013563,0.00005813,-0.00013006,-0.00006871,-0.000
 03053,0.00001330,0.00003060,-0.00001425,0.00000420,-0.00002085,0.00000
 026,0.00094321,-0.00051839,0.00001663,-0.00190698,-0.00016550,0.001059
 12,0.00210953,-0.01794020,-0.00168592,0.00390092,0.00060286,-0.0009547
 9,-0.00014148,-0.00097878,0.00028631,-0.00002204,0.00006537,-0.0000441
 4,-0.00002151,0.00004973,-0.00003088,0.00001088,0.00000865,0.00000028,
 0.00003224,0.00001113,-0.00000777,-0.00000106,0.00000272,0.00000536,-0
 .00000331,-0.00000581,0.00000194,-0.00000130,0.00000120,-0.00000007,0.
 00001397,-0.00000253,-0.00000129,0.00000113,0.00000766,0.00000328,0.00
 001723,-0.00007606,-0.00008935,0.00039713,-0.00014709,-0.00000892,0.02
 988942,-0.09445685,-0.13973478,0.00057849,-0.00149357,-0.00559172,-0.0
 0013441,0.00017321,-0.00013282,-0.01784076,0.15788213,0.20337230,0.002
 29530,-0.00222004,0.00000807,-0.00348674,0.00065268,0.00038460,0.00265
 161,0.00053436,-0.00019194,-0.00084370,-0.00024953,0.00000983,-0.00120
 526,0.00053396,-0.00008183,0.00035117,0.00016727,0.00002984,-0.0000292
 9,-0.00009455,0.00002202,-0.00001590,0.00005575,-0.00000405,-0.0030228
 9,-0.00063605,-0.00037965,-0.00274536,0.00700353,0.00216777,-0.0351020
 2,-0.03589381,0.01927021,-0.00229267,-0.00128718,0.00084653,-0.0008104
 8,-0.00072821,-0.00036580,-0.00009408,-0.00018708,0.00003360,0.0000272
 9,-0.00013600,0.00004634,-0.00001540,-0.00001232,0.00000851,-0.0000937
 1,-0.00004079,0.00002680,0.00000122,0.00001237,0.00000278,0.00000895,0
 .00000365,-0.00000396,0.00000245,-0.00001072,0.00000290,-0.00004109,0.
 00000935,-0.00000013,0.00000613,-0.00001136,0.00000057,-0.00038514,0.0
 0054273,-0.00028699,-0.00017179,0.00021120,0.00009256,-0.16665984,-0.0
 7639219,0.04777007,0.00087687,0.00376842,0.00006865,-0.00358936,0.0016
 4230,0.00097092,0.00718311,-0.02396033,-0.00765217,0.18916394,0.001232
 19,-0.00049709,0.00001775,-0.00087146,0.00049686,0.00012442,0.00060472
 ,-0.00005323,-0.00006500,-0.00016673,0.00005529,0.00000251,-0.00025478
 ,0.00018382,-0.00003666,0.00006096,0.00001551,0.00001607,-0.00000081,-
 0.00002335,0.00000374,-0.00000557,0.00001155,-0.00000004,-0.00013675,0
 .00013081,-0.00013004,-0.00010032,0.00189117,0.00047644,-0.00655442,-0
 .00106758,0.00435407,0.00323497,-0.00592857,-0.00155033,-0.00026726,0.
 00178044,-0.00038488,-0.00008560,-0.00006145,0.00002566,-0.00000479,-0
 .00004202,0.00002751,-0.00000223,-0.00000234,0.00000571,-0.00001795,-0
 .00000696,-0.00000170,-0.00000045,0.00000500,0.00000551,0.00000012,0.0
 0000204,-0.00000675,0.00000258,-0.00000227,-0.00000315,-0.00000969,0.0
 0000315,0.00000006,0.00000297,-0.00000188,0.00000331,-0.00008676,0.000
 10404,-0.00008063,-0.00017759,0.00005200,0.00003475,-0.08489574,-0.152
 97765,0.04586475,0.00399020,-0.00033579,-0.00053131,0.00366306,0.00150
 487,-0.00037432,-0.03574028,-0.07842277,-0.00760714,0.12968994,0.25791
 067,-0.00059137,-0.00007280,0.00005223,0.00061271,-0.00011603,-0.00001
 740,-0.00048708,-0.00004592,-0.00000552,0.00017371,0.00000999,0.000050
 07,0.00022493,-0.00012099,0.00003716,-0.00006076,-0.00002734,-0.000021
 81,0.00000380,0.00001715,-0.00001046,0.00000382,-0.00001137,0.00000081
 ,0.00022016,0.00088311,-0.00035226,0.00178695,-0.00198692,0.00113484,0
 .00930079,0.00970297,0.00347994,-0.00012024,0.00141272,0.00049079,0.00
 053915,-0.00009313,0.00022014,0.00001815,0.00003131,-0.00003531,-0.000
 00350,0.00003184,-0.00003137,0.00000246,0.00000611,-0.00000227,0.00001
 399,0.00000514,0.00000130,0.00000013,0.00000011,0.,-0.00000058,-0.0000
 0384,0.00000520,-0.00000226,0.00000065,0.00000235,0.00000842,-0.000002
 28,-0.00000091,-0.00000034,0.00000406,-0.00000032,0.00009834,-0.000163
 59,-0.00021349,0.00008582,-0.00005007,-0.00003287,0.05000537,0.0429520
 6,-0.09655308,-0.00100850,-0.00069293,-0.00130978,0.00072740,-0.000538
 41,-0.00057731,-0.01225410,-0.01851042,0.01580504,-0.06921483,-0.08750
 146,0.12742116,0.00359338,-0.00210582,-0.00060304,-0.00519901,0.000800
 17,0.00035525,0.00350118,0.00141626,-0.00030204,-0.00074000,-0.0008169
 6,0.00001556,-0.00144442,0.00052199,-0.00004159,0.00041337,0.00020006,
 0.00003905,-0.00003847,-0.00010955,0.00001955,-0.00001630,0.00006360,-
 0.00000596,-0.00188845,0.00264934,0.00166229,0.00339376,0.00123271,-0.
 00035734,-0.02043436,0.01686932,-0.03652877,-0.00225102,-0.00373460,-0
 .00123681,-0.00226348,0.00022943,0.00213768,-0.00007468,-0.00025657,0.
 00001744,0.00003744,-0.00016084,0.00003739,-0.00002225,-0.00001474,0.0
 0000400,-0.00012505,-0.00004690,0.00003793,0.00000255,0.00001471,0.000
 00087,0.00001321,0.00000059,0.00000263,-0.00000016,-0.00001268,0.00000
 779,-0.00004518,0.00000838,-0.00000087,0.00000568,-0.00001109,-0.00000
 162,-0.00005436,0.00014162,0.00012792,-0.00041496,0.00028132,0.0001941
 6,-0.12276265,0.02785621,-0.07774858,-0.00113836,0.00346088,-0.0014613
 2,-0.00000234,0.00024320,-0.00102385,0.01132481,-0.00755511,-0.0123738
 3,0.01840108,-0.00939786,0.01886795,0.12045756,-0.00122139,0.00176929,
 0.00024675,0.00226408,-0.00034891,-0.00013777,-0.00153118,-0.00073506,
 0.00010645,0.00030857,0.00043676,0.00000505,0.00061392,-0.00019524,0.0
 0001161,-0.00018055,-0.00009032,-0.00001739,0.00001854,0.00004431,-0.0
 0000935,0.00000543,-0.00002683,0.00000351,0.00181786,-0.00129087,-0.00
 093336,-0.00130008,-0.00187456,0.00124326,0.01394107,0.00497379,0.0142
 5970,-0.00044207,0.00076439,-0.00025338,0.00034124,0.00067084,-0.00079
 239,0.00003495,0.00010345,0.00000044,-0.00001845,0.00006487,-0.0000123
 8,0.00001134,0.00000623,0.00000105,0.00005559,0.00001957,-0.00001937,-
 0.00000147,-0.00000426,0.00000247,-0.00000621,0.00000023,-0.00000375,0
 .00000110,0.00000465,-0.00000512,0.00001793,-0.00000236,0.00000023,-0.
 00000096,0.00000491,0.00000278,0.00010817,-0.00016884,-0.00018106,0.00
 002642,-0.00008579,0.00003265,0.02758612,-0.08449121,0.04555684,0.0043
 0001,-0.00312463,0.00237455,-0.00023759,0.00026957,0.00043249,-0.01341
 112,0.00652373,-0.03979025,-0.00012507,-0.02462445,0.05420634,-0.02491
 410,0.10270108,0.00176331,-0.00119347,-0.00043569,-0.00253015,0.000359
 62,0.00028614,0.00170895,0.00066324,-0.00019404,-0.00039702,-0.0003787
 2,0.00007968,-0.00072087,0.00024626,0.00002704,0.00020612,0.00010475,-
 0.00000669,-0.00002154,-0.00005502,0.00000198,-0.00000748,0.00003171,-
 0.00000651,-0.00149207,0.00098973,0.00076107,0.00130836,0.00130163,-0.
 00004188,-0.01294762,0.00767665,-0.00877225,-0.00166062,-0.00132526,-0
 .00016749,-0.00115656,0.00025980,0.00092768,-0.00002404,-0.00012206,-0
 .00005590,0.00001473,-0.00006939,-0.00001585,-0.00000840,-0.00000302,0
 .00000274,-0.00006843,-0.00002844,0.00002706,0.00000136,0.00001299,0.0
 0000215,0.00000775,-0.00000550,0.00000798,-0.00000314,-0.00000863,0.00
 000829,-0.00002125,0.00000288,-0.00000178,0.00000402,-0.00000163,-0.00
 000013,-0.00010330,0.00013758,-0.00000122,-0.00027817,0.00016876,0.000
 03256,-0.07859245,0.04303908,-0.20296617,-0.00190003,0.00223951,-0.004
 86085,0.00013230,-0.00028718,-0.00077583,-0.01980532,-0.02464941,-0.07
 347798,0.00641938,0.04673058,-0.05091318,0.10839312,-0.07395996,0.3361
 1575,0.00072155,0.00084099,-0.00058757,0.00140875,-0.00000322,-0.00004
 862,-0.00095036,-0.00190996,-0.00007835,0.00007239,0.00130667,-0.00006
 127,0.00010893,0.00034741,-0.00002081,-0.00003786,-0.00005629,0.000030
 08,0.00002888,-0.00000048,-0.00000237,-0.00000861,0.00000111,-0.000000
 44,-0.00405183,0.00304775,-0.00095879,-0.01110726,-0.01055303,0.008477
 91,0.00327804,-0.00176510,0.00050059,-0.00065040,-0.00028857,-0.000229
 04,0.00001790,0.00014991,0.00014396,0.00000498,0.00002064,0.00002941,-
 0.00004474,-0.00000165,0.00005244,0.00002531,-0.00001137,0.00002289,0.
 00003082,-0.00000940,-0.00003661,-0.00000536,0.00001159,0.00001153,-0.
 00000782,0.00000979,-0.00001585,0.00000895,-0.00000630,-0.00001197,-0.
 00000740,0.00001223,-0.00000118,0.00000872,-0.00000400,0.00001286,0.00
 212032,0.00206273,-0.00008184,0.00021541,0.00005913,0.00002488,0.00109
 688,0.00398499,-0.00044815,-0.18810977,-0.08621437,0.05794727,0.000092
 70,-0.00032783,-0.00013388,-0.00042567,-0.00147969,0.00002344,-0.00061
 771,-0.00097890,0.00035866,-0.00032104,-0.00104910,0.00014850,0.304869
 77,-0.00283508,0.00195260,-0.00012503,0.00258912,-0.00013841,-0.000160
 48,-0.00238305,-0.00128066,0.00009025,0.00091439,0.00094871,-0.0000374
 9,0.00090824,-0.00014044,-0.00000141,-0.00029462,-0.00018243,0.0000151
 6,0.00004310,0.00006119,-0.00001979,0.00000147,-0.00004033,0.00000199,
 0.00026265,-0.00496048,0.00108152,-0.04038003,-0.02390904,0.01814560,0
 .00576257,-0.00544478,0.00101085,-0.00227948,-0.00169604,-0.00038478,-
 0.00017704,-0.00062953,0.00016413,0.00004213,0.00009074,0.00002675,-0.
 00004957,0.00007496,0.00000891,0.00002328,0.00000419,0.00001252,0.0000
 8324,0.00002500,-0.00004840,-0.00000350,0.00000183,0.00001186,-0.00001
 191,0.00000468,-0.00001326,0.00000624,0.00000248,-0.00001456,0.0000229
 9,0.00000392,-0.00000090,0.00000410,0.00000636,0.00001309,-0.00024201,
 -0.00498936,0.00099817,0.00005087,-0.00015682,0.00004537,0.00360480,-0
 .00074625,0.00004319,-0.07646298,-0.14088290,0.04046575,0.00022206,-0.
 00077550,-0.00021375,-0.00058749,0.00071494,0.00033744,-0.00111332,-0.
 00021904,0.00027296,-0.00091940,0.00037503,-0.00063301,0.11132591,0.14
 710413,0.00038457,0.00004190,0.00007521,-0.00062626,-0.00000336,0.0001
 2648,0.00047452,0.00054572,-0.00006889,-0.00013476,-0.00039708,0.00018
 686,-0.00013386,-0.00005767,0.00004842,0.00004538,0.00003755,-0.000046
 64,-0.00001450,-0.00000684,0.00000103,0.00000257,0.00000194,-0.0000042
 2,0.00131280,-0.00043854,0.00080432,0.00981346,0.00566456,0.00367227,-
 0.00143591,0.00189166,0.00119685,0.00092218,-0.00017828,-0.00036964,-0
 .00045145,0.00001702,0.00006893,-0.00000529,-0.00000955,-0.00003702,0.
 00001274,0.00000275,-0.00004281,-0.00000510,0.00000665,-0.00000600,-0.
 00002571,-0.00000286,0.00002656,0.00000154,0.00000312,-0.00000203,0.00
 000508,-0.00001043,0.00001057,-0.00000583,-0.00000026,0.00000889,0.000
 00056,-0.00000444,-0.00000004,-0.00000036,0.00000422,-0.00000328,-0.00
 041483,0.00068204,-0.00042927,-0.00006107,0.00001417,-0.00002992,-0.00
 079064,-0.00096286,-0.00129436,0.05581437,0.04368609,-0.09946339,-0.00
 008211,0.00020031,-0.00016061,0.00025274,0.00075579,0.00066268,0.00032
 164,0.00032547,0.00004147,0.00030575,-0.00007451,0.00063611,-0.1059154
 4,-0.05677053,0.13370152,0.00031477,-0.00095126,-0.00032755,0.00009961
 ,0.00004444,0.00005465,0.00011590,-0.00052703,-0.00007178,-0.00010480,
 0.00036907,0.00004117,-0.00016028,0.00018256,-0.00000777,0.00005596,0.
 00001567,0.00000650,0.00000240,-0.00001431,0.00000298,-0.00000441,0.00
 000959,-0.00000243,-0.00030651,-0.00056406,-0.00044866,0.01019622,0.00
 518227,0.00561653,-0.00117848,0.00027179,0.00095851,-0.00016916,0.0012
 4810,-0.00044945,0.00093648,0.00030894,-0.00006484,0.00001856,-0.00001
 335,0.00002303,-0.00000778,-0.00001843,0.00001641,0.00000703,-0.000003
 90,0.00000573,-0.00000772,-0.00000923,-0.00000141,-0.00000097,0.000005
 58,0.00000288,0.00000017,0.00000173,-0.00000293,0.00000207,-0.00000379
 ,-0.00000108,-0.00000931,0.00000515,-0.00000037,0.00000368,-0.00000283
 ,0.00000294,0.00023753,-0.00035618,0.00013384,0.00004192,0.00002061,0.
 00004963,-0.00120149,0.00413297,0.00205790,-0.07296241,0.01193784,0.02
 250518,-0.00007054,0.00016563,-0.00010682,-0.00514771,-0.00548778,-0.0
 0190643,-0.00007513,-0.00105651,-0.00004073,0.00025209,-0.00061480,-0.
 00035406,-0.01882166,0.00512758,0.05569573,0.08919477,-0.00070535,0.00
 099365,0.00223743,0.00177380,-0.00033319,-0.00000459,-0.00211139,-0.00
 060490,0.00003058,0.00081200,0.00042630,0.00010070,0.00092934,-0.00028
 497,0.00004590,-0.00030172,-0.00017284,-0.00002451,0.00003425,0.000066
 93,-0.00002206,0.00000682,-0.00004642,0.00000065,-0.00270533,-0.003063
 98,-0.00031708,0.00767539,-0.01907535,-0.04108655,0.00146981,0.0008765
 5,-0.00001073,0.00100518,-0.00109962,0.00154523,-0.00039275,-0.0010824
 2,-0.00020242,0.00005607,0.00005046,-0.00007989,-0.00004465,0.00008816
 ,-0.00002614,0.00001665,0.00001262,0.00000376,0.00007168,0.00003071,-0
 .00002829,-0.00000259,0.00000075,0.00001054,-0.00000913,-0.00000541,-0
 .00000450,0.00000066,0.00000500,-0.00000704,0.00002987,-0.00000289,-0.
 00000067,0.00000176,0.00001230,0.00000882,-0.00020312,-0.00010261,-0.0
 0120398,0.00001612,-0.00008755,-0.00019667,0.00340703,-0.00260874,-0.0
 0194855,0.01210232,-0.12389762,-0.08296884,0.00002780,-0.00026375,0.00
 009234,-0.00394965,-0.00001350,0.00063296,-0.00095999,0.00005261,0.000
 32589,-0.00139716,0.00074055,-0.00044652,-0.00264889,0.01825572,0.0122
 6521,-0.00988171,0.11449571,-0.00025829,0.00037678,0.00094159,0.000964
 25,-0.00035240,0.00011671,-0.00120128,-0.00011563,-0.00010816,0.000527
 08,0.00004990,0.00031123,0.00057181,-0.00024886,0.00009273,-0.00017150
 ,-0.00009556,-0.00007388,0.00001378,0.00004280,-0.00001942,0.00000729,
 -0.00003259,-0.00000477,-0.00126293,-0.00232273,0.00028956,0.00418046,
 -0.01364936,-0.01459482,0.00141268,-0.00016361,0.00019357,0.00007662,-
 0.00107366,0.00083643,-0.00029950,-0.00046750,-0.00008133,0.00007263,0
 .00002163,-0.00010690,-0.00002321,0.00006883,-0.00006538,0.00001324,0.
 00001788,-0.00000333,0.00002933,0.00001744,0.00000653,0.00000007,0.000
 00719,0.00000834,-0.00000176,-0.00001699,0.00000838,-0.00000514,0.0000
 0149,0.00000536,0.00002049,-0.00000445,-0.00000168,0.00000335,0.000014
 19,0.00000423,-0.00051673,0.00020629,-0.00097327,-0.00001585,-0.000091
 34,-0.00014051,0.00181691,-0.00239419,-0.00544737,0.02080330,-0.084405
 49,-0.22234318,0.00003681,-0.00027167,-0.00001640,-0.00021247,0.002337
 84,0.00280371,-0.00062621,0.00026806,0.00071385,-0.00055342,-0.0002703
 4,0.00135583,0.04503917,0.00129187,-0.05587941,-0.03771262,0.10863278,
 0.36180753,-0.00003988,-0.00064036,0.00096969,-0.00020209,0.00053607,0
 .00008796,0.00080723,-0.00084537,-0.00017316,-0.00047736,0.00061112,0.
 00007085,-0.00058199,0.00041688,0.00000432,0.00019220,0.00008107,0.000
 00207,-0.00000642,-0.00004742,0.00000757,-0.00001058,0.00002987,-0.000
 00657,0.00141559,0.00312197,-0.00075916,-0.01390187,0.01006722,-0.0146
 0224,-0.00056641,-0.00073020,0.00057537,0.00002493,0.00147549,0.000819
 23,0.00067629,0.00055727,-0.00014690,-0.00009808,-0.00001849,-0.000053
 10,-0.00000225,-0.00005353,0.00001365,0.00000858,-0.00001040,0.0000121
 1,-0.00004083,-0.00003086,0.00001017,-0.00000151,0.00001518,0.00000507
 ,0.00000368,0.00000064,-0.00000078,0.00000218,-0.00001032,0.00000240,-
 0.00002504,0.00000978,-0.00000138,0.00000778,-0.00000556,0.00000471,0.
 00074129,-0.00067775,-0.00047555,0.00008266,0.00006844,-0.00013430,-0.
 00328534,0.00890162,-0.00409977,-0.18854782,0.06690588,-0.08184572,-0.
 00005748,0.00025497,-0.00006180,-0.00155372,-0.00551311,0.00402159,0.0
 0032845,-0.00166925,0.00073160,-0.00215957,-0.00639820,0.00198461,-0.0
 8894282,-0.00325526,-0.01526250,-0.00125082,-0.00412313,-0.03272838,0.
 29746101,0.00014211,0.00036025,-0.00158412,0.00160866,-0.00079197,-0.0
 0024294,-0.00196606,-0.00040411,0.00013310,0.00074946,0.00026860,-0.00
 002190,0.00090301,-0.00030816,0.00000528,-0.00029405,-0.00015852,0.000
 00116,0.00003060,0.00006589,-0.00001702,0.00000775,-0.00004281,0.00000
 402,-0.00293233,-0.00619546,0.00186181,0.03905927,-0.01187508,0.022664
 77,0.00038723,0.00147019,-0.00082573,0.00020305,0.00005554,-0.00042297
 ,0.00045175,-0.00060339,0.00013453,0.00017813,0.00004320,0.00000867,-0
 .00003554,0.00008199,-0.00000446,0.00001139,0.00001022,0.00000009,0.00
 007427,0.00003307,-0.00003343,-0.00000158,-0.00000650,0.00000512,-0.00
 000943,0.00000071,-0.00000666,0.00000162,0.00000741,-0.00000927,0.0000
 2915,-0.00000382,0.00000008,-0.00000172,0.00000825,0.00000531,-0.00019
 655,0.00022784,0.00068756,0.00001552,-0.00009362,0.00005701,0.00261933
 ,-0.00260044,0.00033961,0.06180774,-0.11448785,0.04283713,-0.00000964,
 -0.00013244,0.00002136,-0.00310646,0.00001440,0.00302453,-0.00076898,0
 .00006661,0.00007510,-0.00453644,-0.00240993,-0.00079752,-0.01587270,0
 .01656551,-0.00722896,-0.00952434,0.01663774,-0.00737861,-0.06902424,0
 .10419668,-0.00069196,-0.00066452,0.00001971,-0.00036080,0.00048129,0.
 00012409,0.00061087,-0.00021936,-0.00015123,-0.00027534,0.00015245,0.0
 0013273,-0.00035348,0.00019065,0.00004102,0.00011294,0.00005551,-0.000
 02932,-0.00000877,-0.00002735,0.00000236,-0.00000448,0.00001559,-0.000
 00559,0.00089059,0.00353310,-0.00036743,-0.01456477,0.00415384,0.00111
 065,-0.00011476,-0.00129163,0.00088781,0.00000384,0.00051040,-0.000027
 93,0.00027651,0.00015195,0.00001164,-0.00010887,-0.00000853,-0.0000324
 3,0.00000303,-0.00002573,-0.00001756,0.00000436,-0.00000222,0.00000503
 ,-0.00003283,-0.00001826,0.00001711,-0.00000080,0.00001146,0.00000343,
 0.00000379,-0.00000618,0.00000485,-0.00000195,-0.00000613,0.00000574,-
 0.00001218,0.00000301,-0.00000112,0.00000468,0.00000026,0.00000187,0.0
 0024861,-0.00011320,-0.00012810,0.00002729,0.00005074,-0.00002856,-0.0
 0134943,0.00077699,-0.00531556,-0.07949080,0.04694951,-0.12422102,-0.0
 0001387,0.00008454,-0.00007764,0.00371964,0.00356098,-0.00221457,0.000
 30398,-0.00001294,0.00062102,0.00001272,-0.00202580,0.00242140,-0.0041
 9140,-0.00561401,0.01656937,-0.04567469,0.00264623,-0.06963577,0.14102
 834,-0.05329266,0.18027401\\-0.00000128,0.00000007,0.00000060,0.000001
 12,-0.00000126,0.00000368,0.00000241,-0.00000530,-0.00000095,-0.000000
 17,0.00000405,-0.00000145,-0.00000124,0.00000428,0.00000168,-0.0000019
 6,0.00000067,-0.00000187,0.00000127,0.00000248,0.00000285,0.,0.0000023
 6,-0.00000003,-0.00000022,-0.00000166,-0.00000056,-0.00000051,-0.00000
 049,-0.00000167,0.00000001,-0.00000156,0.00000013,0.00000011,-0.000001
 02,0.00000265,0.00000114,-0.00000102,0.00000272,0.00000120,-0.00000005
 ,0.00000190,0.00000084,0.,0.00000262,-0.00000018,0.00000240,-0.0000014
 8,0.00000043,-0.00000022,-0.00000144,0.00000088,0.00000046,0.00000257,
 0.00000119,0.00000291,0.00000187,-0.00000013,0.00000097,-0.00000086,0.
 00000115,0.00000283,0.00000067,0.00000043,0.00000410,-0.00000143,-0.00
 000056,-0.00000025,-0.00000278,0.00000122,-0.00000044,0.00000462,-0.00
 000005,-0.00000250,0.00000014,-0.00000122,-0.00000193,-0.00000396,0.00
 000080,-0.00000148,0.00000392,-0.00000064,-0.00000022,-0.00000150,0.00
 000022,-0.00000118,0.00000197,-0.00000113,-0.00000399,-0.00000048,-0.0
 0000189,-0.00000137,-0.00000535,-0.00000123,0.00000109,-0.00000451,-0.
 00000201,-0.00000271,-0.00000425\\\@


 IF NO USE IS MADE OF THE LABOR OF PAST AGES,
 THE WORLD MUST REMAIN ALWAYS IN THE INFANCY OF KNOWLEDGE.

                          -- CICERO
 Job cpu time:       0 days  7 hours  3 minutes 49.1 seconds.
 File lengths (MBytes):  RWF=    942 Int=      0 D2E=      0 Chk=     27 Scr=      1
 Normal termination of Gaussian 09 at Thu Nov 14 10:31:19 2019.
pbs_rusage has been removed.
Please contact help@nci.org.au if you require this functionality.
