 Entering Gaussian System, Link 0=/apps/gaussian/g09e01/g09/g09
 Initial command:
 /apps/gaussian/g09e01/g09/l1.exe "/jobfs/local/3579210.r-man2/Gau-27227.inp" -scrdir="/jobfs/local/3579210.r-man2/"
 Entering Link 1 = /apps/gaussian/g09e01/g09/l1.exe PID=     27228.
  
 Copyright (c) 1988,1990,1992,1993,1995,1998,2003,2009,2015,
            Gaussian, Inc.  All Rights Reserved.
  
 This is part of the Gaussian(R) 09 program.  It is based on
 the Gaussian(R) 03 system (copyright 2003, Gaussian, Inc.),
 the Gaussian(R) 98 system (copyright 1998, Gaussian, Inc.),
 the Gaussian(R) 94 system (copyright 1995, Gaussian, Inc.),
 the Gaussian 92(TM) system (copyright 1992, Gaussian, Inc.),
 the Gaussian 90(TM) system (copyright 1990, Gaussian, Inc.),
 the Gaussian 88(TM) system (copyright 1988, Gaussian, Inc.),
 the Gaussian 86(TM) system (copyright 1986, Carnegie Mellon
 University), and the Gaussian 82(TM) system (copyright 1983,
 Carnegie Mellon University). Gaussian is a federally registered
 trademark of Gaussian, Inc.
  
 This software contains proprietary and confidential information,
 including trade secrets, belonging to Gaussian, Inc.
  
 This software is provided under written license and may be
 used, copied, transmitted, or stored only in accord with that
 written license.
  
 The following legend is applicable only to US Government
 contracts under FAR:
  
                    RESTRICTED RIGHTS LEGEND
  
 Use, reproduction and disclosure by the US Government is
 subject to restrictions as set forth in subparagraphs (a)
 and (c) of the Commercial Computer Software - Restricted
 Rights clause in FAR 52.227-19.
  
 Gaussian, Inc.
 340 Quinnipiac St., Bldg. 40, Wallingford CT 06492
  
  
 ---------------------------------------------------------------
 Warning -- This program may not be used in any manner that
 competes with the business of Gaussian, Inc. or will provide
 assistance to any competitor of Gaussian, Inc.  The licensee
 of this program is prohibited from giving any competitor of
 Gaussian, Inc. access to this program.  By using this program,
 the user acknowledges that Gaussian, Inc. is engaged in the
 business of creating and licensing software in the field of
 computational chemistry and represents and warrants to the
 licensee that it is not a competitor of Gaussian, Inc. and that
 it will not use this program in any manner prohibited above.
 ---------------------------------------------------------------
  

 Cite this work as:
 Gaussian 09, Revision E.01,
 M. J. Frisch, G. W. Trucks, H. B. Schlegel, G. E. Scuseria, 
 M. A. Robb, J. R. Cheeseman, G. Scalmani, V. Barone, B. Mennucci, 
 G. A. Petersson, H. Nakatsuji, M. Caricato, X. Li, H. P. Hratchian, 
 A. F. Izmaylov, J. Bloino, G. Zheng, J. L. Sonnenberg, M. Hada, 
 M. Ehara, K. Toyota, R. Fukuda, J. Hasegawa, M. Ishida, T. Nakajima, 
 Y. Honda, O. Kitao, H. Nakai, T. Vreven, J. A. Montgomery, Jr., 
 J. E. Peralta, F. Ogliaro, M. Bearpark, J. J. Heyd, E. Brothers, 
 K. N. Kudin, V. N. Staroverov, T. Keith, R. Kobayashi, J. Normand, 
 K. Raghavachari, A. Rendell, J. C. Burant, S. S. Iyengar, J. Tomasi, 
 M. Cossi, N. Rega, J. M. Millam, M. Klene, J. E. Knox, J. B. Cross, 
 V. Bakken, C. Adamo, J. Jaramillo, R. Gomperts, R. E. Stratmann, 
 O. Yazyev, A. J. Austin, R. Cammi, C. Pomelli, J. W. Ochterski, 
 R. L. Martin, K. Morokuma, V. G. Zakrzewski, G. A. Voth, 
 P. Salvador, J. J. Dannenberg, S. Dapprich, A. D. Daniels, 
 O. Farkas, J. B. Foresman, J. V. Ortiz, J. Cioslowski, 
 and D. J. Fox, Gaussian, Inc., Wallingford CT, 2013.
 
 ******************************************
 Gaussian 09:  ES64L-G09RevE.01 30-Nov-2015
                14-Nov-2019 
 ******************************************
 %chk=NM2_c2.M062X_6-311pGd_opt_GD3.chk
 %mem=196608000
 %nproc=8
 Will use up to    8 processors via shared memory.
 ----------------------------------------------------------------------
 # M062X/6-311+G* SCF=Tight INT(grid=ultrafine) OPT IOP(2/17=4) Empiric
 alDispersion=GD3 maxdisk=2684354560
 ----------------------------------------------------------------------
 1/14=-1,18=20,19=15,26=4,38=1/1,3;
 2/9=110,12=2,17=4,18=5,40=1/2;
 3/5=4,6=6,7=11,11=2,16=1,25=1,30=1,71=1,74=-55,75=-5,124=31/1,2,3;
 4//1;
 5/5=2,32=2,38=5/2;
 6/7=2,8=2,9=2,10=2,28=1/1;
 7//1,2,3,16;
 1/14=-1,18=20,19=15,26=4/3(2);
 2/9=110,17=4/2;
 99//99;
 2/9=110,17=4/2;
 3/5=4,6=6,7=11,11=2,16=1,25=1,30=1,71=1,74=-55,75=-5,124=31/1,2,3;
 4/5=5,16=3,69=1/1;
 5/5=2,32=2,38=5/2;
 7//1,2,3,16;
 1/14=-1,18=20,19=15,26=4/3(-5);
 2/9=110,17=4/2;
 6/7=2,8=2,9=2,10=2,19=2,28=1/1;
 99/9=1/99;
 -----------------------------
 NM2_c2.M062X_6-311pGd_opt_GD3
 -----------------------------
 Symbolic Z-matrix:
 Charge =  0 Multiplicity = 1
 C                    -5.84511   1.39561   0.2411 
 N                    -4.62737   0.71737   0.17948 
 C                    -3.35598   1.27974   0.07659 
 O                    -3.15263   2.4706   -0.00794 
 N                    -2.35453   0.34452   0.05028 
 C                    -0.96702   0.79158   0.05509 
 C                    -0.03103  -0.37726  -0.21468 
 C                     1.42867   0.06567  -0.2206 
 C                    -7.00947   0.61845   0.18978 
 C                    -8.26654   1.19267   0.25939 
 C                    -8.391     2.58227   0.39488 
 C                    -7.23153   3.34681   0.43911 
 C                    -5.96638   2.7804    0.36529 
 H                    -4.69465  -0.28138   0.0525 
 H                    -2.53557  -0.56589   0.44771 
 H                    -0.72007   1.27171   1.00932 
 H                    -0.86366   1.55299  -0.71954 
 H                    -0.29427  -0.83028  -1.17504 
 H                    -0.17614  -1.14901   0.55065 
 H                     1.60622   0.8194   -0.99124 
 H                     2.09599  -0.7746   -0.41711 
 H                     1.71362   0.49975   0.74069 
 H                    -6.92872  -0.4575    0.08654 
 H                    -5.08644   3.40323   0.39751 
 C                    -9.71721   3.29821   0.45612 
 C                    -9.45473   0.25608   0.22445 
 H                    -7.31302   4.42146   0.54049 
 F                    -10.59943   2.67474   1.24503 
 F                    -10.28029   3.42535  -0.75366 
 F                    -9.57242   4.54073   0.94181 
 F                    -9.10932  -0.94856  -0.26051 
 F                    -10.44089   0.71482  -0.54865 
 F                    -9.95678   0.04368   1.4468 
 

 GradGradGradGradGradGradGradGradGradGradGradGradGradGradGradGradGradGrad
 Berny optimization.
 Initialization pass.
                           ----------------------------
                           !    Initial Parameters    !
                           ! (Angstroms and Degrees)  !
 --------------------------                            --------------------------
 ! Name  Definition              Value          Derivative Info.                !
 --------------------------------------------------------------------------------
 ! R1    R(1,2)                  1.3952         estimate D2E/DX2                !
 ! R2    R(1,9)                  1.4008         estimate D2E/DX2                !
 ! R3    R(1,13)                 1.3956         estimate D2E/DX2                !
 ! R4    R(2,3)                  1.394          estimate D2E/DX2                !
 ! R5    R(2,14)                 1.009          estimate D2E/DX2                !
 ! R6    R(3,4)                  1.2111         estimate D2E/DX2                !
 ! R7    R(3,5)                  1.3705         estimate D2E/DX2                !
 ! R8    R(5,6)                  1.4578         estimate D2E/DX2                !
 ! R9    R(5,15)                 1.0097         estimate D2E/DX2                !
 ! R10   R(6,7)                  1.5215         estimate D2E/DX2                !
 ! R11   R(6,16)                 1.0964         estimate D2E/DX2                !
 ! R12   R(6,17)                 1.0911         estimate D2E/DX2                !
 ! R13   R(7,8)                  1.5254         estimate D2E/DX2                !
 ! R14   R(7,18)                 1.094          estimate D2E/DX2                !
 ! R15   R(7,19)                 1.0965         estimate D2E/DX2                !
 ! R16   R(8,20)                 1.0925         estimate D2E/DX2                !
 ! R17   R(8,21)                 1.0909         estimate D2E/DX2                !
 ! R18   R(8,22)                 1.0926         estimate D2E/DX2                !
 ! R19   R(9,10)                 1.3838         estimate D2E/DX2                !
 ! R20   R(9,23)                 1.0839         estimate D2E/DX2                !
 ! R21   R(10,11)                1.4017         estimate D2E/DX2                !
 ! R22   R(10,26)                1.5133         estimate D2E/DX2                !
 ! R23   R(11,12)                1.3895         estimate D2E/DX2                !
 ! R24   R(11,25)                1.5084         estimate D2E/DX2                !
 ! R25   R(12,13)                1.3881         estimate D2E/DX2                !
 ! R26   R(12,27)                1.0825         estimate D2E/DX2                !
 ! R27   R(13,24)                1.0785         estimate D2E/DX2                !
 ! R28   R(25,28)                1.3377         estimate D2E/DX2                !
 ! R29   R(25,29)                1.3405         estimate D2E/DX2                !
 ! R30   R(25,30)                1.3419         estimate D2E/DX2                !
 ! R31   R(26,31)                1.3438         estimate D2E/DX2                !
 ! R32   R(26,32)                1.3344         estimate D2E/DX2                !
 ! R33   R(26,33)                1.3384         estimate D2E/DX2                !
 ! A1    A(2,1,9)              117.0102         estimate D2E/DX2                !
 ! A2    A(2,1,13)             124.2011         estimate D2E/DX2                !
 ! A3    A(9,1,13)             118.784          estimate D2E/DX2                !
 ! A4    A(1,2,3)              127.0972         estimate D2E/DX2                !
 ! A5    A(1,2,14)             115.3737         estimate D2E/DX2                !
 ! A6    A(3,2,14)             116.796          estimate D2E/DX2                !
 ! A7    A(2,3,4)              123.7089         estimate D2E/DX2                !
 ! A8    A(2,3,5)              113.1152         estimate D2E/DX2                !
 ! A9    A(4,3,5)              123.1608         estimate D2E/DX2                !
 ! A10   A(3,5,6)              119.0895         estimate D2E/DX2                !
 ! A11   A(3,5,15)             118.47           estimate D2E/DX2                !
 ! A12   A(6,5,15)             116.4784         estimate D2E/DX2                !
 ! A13   A(5,6,7)              110.4473         estimate D2E/DX2                !
 ! A14   A(5,6,16)             110.5826         estimate D2E/DX2                !
 ! A15   A(5,6,17)             107.5675         estimate D2E/DX2                !
 ! A16   A(7,6,16)             110.6198         estimate D2E/DX2                !
 ! A17   A(7,6,17)             110.6058         estimate D2E/DX2                !
 ! A18   A(16,6,17)            106.9159         estimate D2E/DX2                !
 ! A19   A(6,7,8)              111.4867         estimate D2E/DX2                !
 ! A20   A(6,7,18)             109.0099         estimate D2E/DX2                !
 ! A21   A(6,7,19)             109.6033         estimate D2E/DX2                !
 ! A22   A(8,7,18)             110.3092         estimate D2E/DX2                !
 ! A23   A(8,7,19)             109.4935         estimate D2E/DX2                !
 ! A24   A(18,7,19)            106.8235         estimate D2E/DX2                !
 ! A25   A(7,8,20)             111.0137         estimate D2E/DX2                !
 ! A26   A(7,8,21)             111.2483         estimate D2E/DX2                !
 ! A27   A(7,8,22)             111.1933         estimate D2E/DX2                !
 ! A28   A(20,8,21)            107.7551         estimate D2E/DX2                !
 ! A29   A(20,8,22)            107.7064         estimate D2E/DX2                !
 ! A30   A(21,8,22)            107.7572         estimate D2E/DX2                !
 ! A31   A(1,9,10)             121.5357         estimate D2E/DX2                !
 ! A32   A(1,9,23)             119.4901         estimate D2E/DX2                !
 ! A33   A(10,9,23)            118.9729         estimate D2E/DX2                !
 ! A34   A(9,10,11)            119.7954         estimate D2E/DX2                !
 ! A35   A(9,10,26)            117.0831         estimate D2E/DX2                !
 ! A36   A(11,10,26)           123.0961         estimate D2E/DX2                !
 ! A37   A(10,11,12)           118.3225         estimate D2E/DX2                !
 ! A38   A(10,11,25)           123.5411         estimate D2E/DX2                !
 ! A39   A(12,11,25)           118.1128         estimate D2E/DX2                !
 ! A40   A(11,12,13)           122.2969         estimate D2E/DX2                !
 ! A41   A(11,12,27)           119.1035         estimate D2E/DX2                !
 ! A42   A(13,12,27)           118.5985         estimate D2E/DX2                !
 ! A43   A(1,13,12)            119.2614         estimate D2E/DX2                !
 ! A44   A(1,13,24)            120.3152         estimate D2E/DX2                !
 ! A45   A(12,13,24)           120.4224         estimate D2E/DX2                !
 ! A46   A(11,25,28)           112.4944         estimate D2E/DX2                !
 ! A47   A(11,25,29)           112.1923         estimate D2E/DX2                !
 ! A48   A(11,25,30)           111.0587         estimate D2E/DX2                !
 ! A49   A(28,25,29)           107.4234         estimate D2E/DX2                !
 ! A50   A(28,25,30)           106.814          estimate D2E/DX2                !
 ! A51   A(29,25,30)           106.5083         estimate D2E/DX2                !
 ! A52   A(10,26,31)           111.1815         estimate D2E/DX2                !
 ! A53   A(10,26,32)           112.3874         estimate D2E/DX2                !
 ! A54   A(10,26,33)           111.817          estimate D2E/DX2                !
 ! A55   A(31,26,32)           106.802          estimate D2E/DX2                !
 ! A56   A(31,26,33)           106.4848         estimate D2E/DX2                !
 ! A57   A(32,26,33)           107.8463         estimate D2E/DX2                !
 ! D1    D(9,1,2,3)            172.9542         estimate D2E/DX2                !
 ! D2    D(9,1,2,14)             3.1509         estimate D2E/DX2                !
 ! D3    D(13,1,2,3)            -7.8476         estimate D2E/DX2                !
 ! D4    D(13,1,2,14)         -177.6508         estimate D2E/DX2                !
 ! D5    D(2,1,9,10)           179.2374         estimate D2E/DX2                !
 ! D6    D(2,1,9,23)            -1.1767         estimate D2E/DX2                !
 ! D7    D(13,1,9,10)           -0.006          estimate D2E/DX2                !
 ! D8    D(13,1,9,23)          179.5799         estimate D2E/DX2                !
 ! D9    D(2,1,13,12)         -178.9539         estimate D2E/DX2                !
 ! D10   D(2,1,13,24)            1.4098         estimate D2E/DX2                !
 ! D11   D(9,1,13,12)            0.2311         estimate D2E/DX2                !
 ! D12   D(9,1,13,24)         -179.4052         estimate D2E/DX2                !
 ! D13   D(1,2,3,4)             -1.9664         estimate D2E/DX2                !
 ! D14   D(1,2,3,5)            179.4152         estimate D2E/DX2                !
 ! D15   D(14,2,3,4)           167.7108         estimate D2E/DX2                !
 ! D16   D(14,2,3,5)           -10.9076         estimate D2E/DX2                !
 ! D17   D(2,3,5,6)           -175.0383         estimate D2E/DX2                !
 ! D18   D(2,3,5,15)           -23.1409         estimate D2E/DX2                !
 ! D19   D(4,3,5,6)              6.3345         estimate D2E/DX2                !
 ! D20   D(4,3,5,15)           158.232          estimate D2E/DX2                !
 ! D21   D(3,5,6,7)           -170.3848         estimate D2E/DX2                !
 ! D22   D(3,5,6,16)            66.8304         estimate D2E/DX2                !
 ! D23   D(3,5,6,17)           -49.5867         estimate D2E/DX2                !
 ! D24   D(15,5,6,7)            37.171          estimate D2E/DX2                !
 ! D25   D(15,5,6,16)          -85.6138         estimate D2E/DX2                !
 ! D26   D(15,5,6,17)          157.9691         estimate D2E/DX2                !
 ! D27   D(5,6,7,8)            179.7662         estimate D2E/DX2                !
 ! D28   D(5,6,7,18)            57.7511         estimate D2E/DX2                !
 ! D29   D(5,6,7,19)           -58.8423         estimate D2E/DX2                !
 ! D30   D(16,6,7,8)           -57.4707         estimate D2E/DX2                !
 ! D31   D(16,6,7,18)         -179.4858         estimate D2E/DX2                !
 ! D32   D(16,6,7,19)           63.9208         estimate D2E/DX2                !
 ! D33   D(17,6,7,8)            60.7979         estimate D2E/DX2                !
 ! D34   D(17,6,7,18)          -61.2172         estimate D2E/DX2                !
 ! D35   D(17,6,7,19)         -177.8106         estimate D2E/DX2                !
 ! D36   D(6,7,8,20)           -59.8482         estimate D2E/DX2                !
 ! D37   D(6,7,8,21)          -179.8398         estimate D2E/DX2                !
 ! D38   D(6,7,8,22)            60.0452         estimate D2E/DX2                !
 ! D39   D(18,7,8,20)           61.4136         estimate D2E/DX2                !
 ! D40   D(18,7,8,21)          -58.578          estimate D2E/DX2                !
 ! D41   D(18,7,8,22)         -178.6931         estimate D2E/DX2                !
 ! D42   D(19,7,8,20)          178.6965         estimate D2E/DX2                !
 ! D43   D(19,7,8,21)           58.7048         estimate D2E/DX2                !
 ! D44   D(19,7,8,22)          -61.4102         estimate D2E/DX2                !
 ! D45   D(1,9,10,11)           -0.5018         estimate D2E/DX2                !
 ! D46   D(1,9,10,26)         -178.7241         estimate D2E/DX2                !
 ! D47   D(23,9,10,11)         179.9102         estimate D2E/DX2                !
 ! D48   D(23,9,10,26)           1.6879         estimate D2E/DX2                !
 ! D49   D(9,10,11,12)           0.7662         estimate D2E/DX2                !
 ! D50   D(9,10,11,25)         178.9645         estimate D2E/DX2                !
 ! D51   D(26,10,11,12)        178.8768         estimate D2E/DX2                !
 ! D52   D(26,10,11,25)         -2.9249         estimate D2E/DX2                !
 ! D53   D(9,10,26,31)         -18.3043         estimate D2E/DX2                !
 ! D54   D(9,10,26,32)        -137.9673         estimate D2E/DX2                !
 ! D55   D(9,10,26,33)         100.5722         estimate D2E/DX2                !
 ! D56   D(11,10,26,31)        163.5372         estimate D2E/DX2                !
 ! D57   D(11,10,26,32)         43.8742         estimate D2E/DX2                !
 ! D58   D(11,10,26,33)        -77.5863         estimate D2E/DX2                !
 ! D59   D(10,11,12,13)         -0.5531         estimate D2E/DX2                !
 ! D60   D(10,11,12,27)        179.817          estimate D2E/DX2                !
 ! D61   D(25,11,12,13)       -178.8505         estimate D2E/DX2                !
 ! D62   D(25,11,12,27)          1.5195         estimate D2E/DX2                !
 ! D63   D(10,11,25,28)         43.5771         estimate D2E/DX2                !
 ! D64   D(10,11,25,29)        -77.6844         estimate D2E/DX2                !
 ! D65   D(10,11,25,30)        163.2427         estimate D2E/DX2                !
 ! D66   D(12,11,25,28)       -138.2211         estimate D2E/DX2                !
 ! D67   D(12,11,25,29)        100.5175         estimate D2E/DX2                !
 ! D68   D(12,11,25,30)        -18.5555         estimate D2E/DX2                !
 ! D69   D(11,12,13,1)           0.0534         estimate D2E/DX2                !
 ! D70   D(11,12,13,24)        179.6894         estimate D2E/DX2                !
 ! D71   D(27,12,13,1)         179.6852         estimate D2E/DX2                !
 ! D72   D(27,12,13,24)         -0.6789         estimate D2E/DX2                !
 --------------------------------------------------------------------------------
 Trust Radius=3.00D-01 FncErr=1.00D-07 GrdErr=1.00D-06
 Number of steps in this run=    172 maximum allowed number of steps=    198.
 GradGradGradGradGradGradGradGradGradGradGradGradGradGradGradGradGradGrad

                          Input orientation:                          
 ---------------------------------------------------------------------
 Center     Atomic      Atomic             Coordinates (Angstroms)
 Number     Number       Type             X           Y           Z
 ---------------------------------------------------------------------
      1          6           0       -5.845111    1.395607    0.241100
      2          7           0       -4.627373    0.717373    0.179484
      3          6           0       -3.355976    1.279735    0.076591
      4          8           0       -3.152633    2.470603   -0.007944
      5          7           0       -2.354530    0.344521    0.050276
      6          6           0       -0.967021    0.791579    0.055090
      7          6           0       -0.031031   -0.377265   -0.214684
      8          6           0        1.428668    0.065668   -0.220604
      9          6           0       -7.009472    0.618452    0.189779
     10          6           0       -8.266535    1.192667    0.259393
     11          6           0       -8.390998    2.582269    0.394882
     12          6           0       -7.231532    3.346806    0.439113
     13          6           0       -5.966380    2.780403    0.365289
     14          1           0       -4.694646   -0.281376    0.052502
     15          1           0       -2.535570   -0.565894    0.447710
     16          1           0       -0.720071    1.271706    1.009319
     17          1           0       -0.863665    1.552994   -0.719538
     18          1           0       -0.294269   -0.830276   -1.175043
     19          1           0       -0.176137   -1.149006    0.550650
     20          1           0        1.606224    0.819402   -0.991236
     21          1           0        2.095988   -0.774604   -0.417105
     22          1           0        1.713617    0.499755    0.740694
     23          1           0       -6.928720   -0.457500    0.086542
     24          1           0       -5.086443    3.403229    0.397508
     25          6           0       -9.717205    3.298207    0.456124
     26          6           0       -9.454733    0.256084    0.224449
     27          1           0       -7.313019    4.421458    0.540493
     28          9           0      -10.599434    2.674736    1.245035
     29          9           0      -10.280288    3.425346   -0.753664
     30          9           0       -9.572420    4.540735    0.941809
     31          9           0       -9.109317   -0.948561   -0.260510
     32          9           0      -10.440895    0.714816   -0.548648
     33          9           0       -9.956782    0.043681    1.446804
 ---------------------------------------------------------------------
                    Distance matrix (angstroms):
                    1          2          3          4          5
     1  C    0.000000
     2  N    1.395236   0.000000
     3  C    2.497255   1.394019   0.000000
     4  O    2.909824   2.298652   1.211058   0.000000
     5  N    3.650391   2.306844   1.370479   2.271692   0.000000
     6  C    4.918863   3.663217   2.438414   2.756809   1.457760
     7  C    6.095437   4.741304   3.726359   4.230543   2.447412
     8  C    7.408763   6.104132   4.945210   5.178538   3.803120
     9  C    1.400836   2.384174   3.714585   4.283079   4.665082
    10  C    2.429983   3.670939   4.914732   5.277934   5.976194
    11  C    2.813068   4.205842   5.210504   5.255017   6.447109
    12  C    2.401780   3.709847   4.407283   4.195833   5.740214
    13  C    1.395632   2.466486   3.024824   2.855250   4.367862
    14  H    2.042404   1.009035   2.056620   3.155131   2.422374
    15  H    3.852692   2.468675   2.053568   3.131885   1.009745
    16  H    5.183777   4.032730   2.796075   2.896469   2.109713
    17  H    5.075668   3.958788   2.630609   2.566661   2.067776
    18  H    6.145882   4.796432   3.923364   4.519754   2.669500
    19  H    6.221587   4.840933   4.029254   4.719441   2.688195
    20  H    7.574501   6.343401   5.096626   5.132256   4.122843
    21  H    8.258578   6.912706   5.847047   6.184400   4.612808
    22  H    7.628008   6.369495   5.172057   5.303309   4.129236
    23  H    2.152232   2.585568   3.972730   4.779284   4.644111
    24  H    2.151879   2.733514   2.758030   2.184904   4.115776
    25  C    4.319633   5.713460   6.684573   6.632790   7.943423
    26  C    3.785256   4.849559   6.185836   6.683904   7.102890
    27  H    3.376413   4.589473   5.073837   4.627681   6.438039
    28  F    5.024703   6.374337   7.468532   7.554235   8.650768
    29  F    4.977970   6.337139   7.296511   7.229876   8.541396
    30  F    4.927033   6.297041   7.072970   6.811839   8.396486
    31  F    4.049911   4.801745   6.178987   6.872886   6.884461
    32  F    4.712579   5.858943   7.134853   7.516243   8.116965
    33  F    4.493023   5.519289   6.853900   7.369035   7.735310
                    6          7          8          9         10
     6  C    0.000000
     7  C    1.521529   0.000000
     8  C    2.518389   1.525432   0.000000
     9  C    6.046431   7.060715   8.466179   0.000000
    10  C    7.313380   8.397201   9.772282   1.383755   0.000000
    11  C    7.644440   8.889289  10.155685   2.409825   1.401728
    12  C    6.776486   8.132858   9.284404   2.748707   2.396632
    13  C    5.389363   6.748008   7.899354   2.406840   2.796933
    14  H    3.878972   4.672247   6.139218   2.487360   3.869626
    15  H    2.111215   2.597511   4.069484   4.635192   5.997663
    16  H    1.096384   2.166117   2.753964   6.376123   7.584046
    17  H    1.091093   2.161957   2.777745   6.282609   7.476004
    18  H    2.143883   1.093985   2.163835   7.003964   8.349068
    19  H    2.153357   1.096529   2.155381   7.067432   8.427503
    20  H    2.777978   2.171554   1.092481   8.698586   9.958654
    21  H    3.472452   2.173261   1.090864   9.231377  10.569281
    22  H    2.782271   2.173868   1.092575   8.741274  10.015748
    23  H    6.091227   6.904730   8.379378   1.083906   2.131356
    24  H    4.889540   6.342248   7.346295   3.390601   3.875390
    25  C    9.110968  10.381765  11.624877   3.818880   2.564458
    26  C    8.506274   9.455165  10.894162   2.472209   1.513349
    27  H    7.326891   8.753593   9.796391   3.831187   3.378358
    28  F    9.886639  11.096695  12.394780   4.269624   2.934354
    29  F    9.712248  10.945210  12.193082   4.412140   3.172750
    30  F    9.428432  10.796403  11.933205   4.745372   3.657948
    31  F    8.332147   9.096360  10.586755   2.658503   2.359118
    32  F    9.493401  10.472318  11.891826   3.511299   2.368356
    33  F    9.127541  10.072650  11.506919   3.255319   2.363693
                   11         12         13         14         15
    11  C    0.000000
    12  C    1.389544   0.000000
    13  C    2.432880   1.388118   0.000000
    14  H    4.688359   4.443981   3.330111   0.000000
    15  H    6.648289   6.112393   4.793219   2.213311   0.000000
    16  H    7.806294   6.857864   5.496790   4.373191   2.643523
    17  H    7.678677   6.716395   5.359206   4.317103   2.940650
    18  H    8.925646   8.257066   6.898005   4.601247   2.779687
    19  H    9.023891   8.366801   7.000109   4.627942   2.432600
    20  H   10.245656   9.302667   7.939145   6.480900   4.598268
    21  H   11.041050  10.233365   8.846016   6.824699   4.716227
    22  H   10.322775   9.392142   8.020264   6.492272   4.390562
    23  H    3.387259   3.832590   3.389368   2.241265   4.409304
    24  H    3.405006   2.146234   1.078535   3.721404   4.718411
    25  C    1.508358   2.486206   3.787487   6.180811   8.155196
    26  C    2.563537   3.813302   4.308206   4.793419   6.971392
    27  H    2.136786   1.082495   2.130069   5.404689   6.906975
    28  F    2.368227   3.527598   4.717023   6.710235   8.727159
    29  F    2.366295   3.274721   4.503089   6.751970   8.795109
    30  F    2.351697   2.675430   4.053969   6.916380   8.708562
    31  F    3.662278   4.739802   4.916793   4.475761   6.622852
    32  F    2.929114   4.266503   5.012306   5.862862   8.070136
    33  F    3.162696   4.399211   4.958087   5.453422   7.512932
                   16         17         18         19         20
    16  H    0.000000
    17  H    1.757466   0.000000
    18  H    3.061220   2.492323   0.000000
    19  H    2.523111   3.063801   1.758852   0.000000
    20  H    3.101362   2.590817   2.523311   3.070644   0.000000
    21  H    3.761949   3.777396   2.508166   2.497856   1.763618
    22  H    2.567276   3.143878   3.077439   2.515094   1.764451
    23  H    6.510683   6.440244   6.763616   6.803746   8.696974
    24  H    4.897234   4.743734   6.584863   6.697566   7.307296
    25  C    9.239110   9.100172  10.416180  10.527042  11.681583
    26  C    8.828467   8.739539   9.330213   9.390049  11.141813
    27  H    7.321728   7.170072   8.932336   9.053467   9.740324
    28  F    9.981275   9.995151  11.150709  11.124221  12.546763
    29  F    9.957109   9.601024  10.863170  11.167802  12.171137
    30  F    9.436905   9.355698  10.927622  10.991646  11.939308
    31  F    8.770490   8.628979   8.863151   8.972172  10.884966
    32  F    9.860618   9.615356  10.282689  10.490354  12.055700
    33  F    9.328250   9.468676  10.049977   9.893765  11.842672
                   21         22         23         24         25
    21  H    0.000000
    22  H    1.763717   0.000000
    23  H    9.044312   8.719761   0.000000
    24  H    8.348964   7.401942   4.289045   0.000000
    25  C   12.526047  11.771831   4.692288   4.632324   0.000000
    26  C   11.614348  11.182930   2.628490   5.386690   3.062202
    27  H   10.790990   9.843779   4.915077   2.452525   2.654980
    28  F   13.260256  12.513837   4.962574   5.625129   1.337694
    29  F   13.073831  12.435672   5.197639   5.319935   1.340453
    30  F   12.893844  11.989353   5.718652   4.659847   1.341912
    31  F   11.207750  10.965215   2.261988   5.962766   4.349497
    32  F   12.625732  12.224598   3.756748   6.065717   2.864821
    33  F   12.223461  11.700632   3.357179   6.008974   3.410393
                   26         27         28         29         30
    26  C    0.000000
    27  H    4.694376   0.000000
    28  F    2.863881   3.787867   0.000000
    29  F    3.417963   3.386999   2.158719   0.000000
    30  F    4.345882   2.297863   2.151431   2.149371   0.000000
    31  F    1.343751   5.718863   4.197069   4.554716   5.638475
    32  F    1.334402   4.970817   2.661526   2.723013   4.196828
    33  F    1.338401   5.193824   2.715908   4.047514   4.541612
                   31         32         33
    31  F    0.000000
    32  F    2.150103   0.000000
    33  F    2.148875   2.160235   0.000000
 Stoichiometry    C12H12F6N2O
 Framework group  C1[X(C12H12F6N2O)]
 Deg. of freedom    93
 Full point group                 C1      NOp   1
 Largest Abelian subgroup         C1      NOp   1
 Largest concise Abelian subgroup C1      NOp   1
                         Standard orientation:                         
 ---------------------------------------------------------------------
 Center     Atomic      Atomic             Coordinates (Angstroms)
 Number     Number       Type             X           Y           Z
 ---------------------------------------------------------------------
      1          6           0        0.565523   -0.043546   -0.051216
      2          7           0        1.883148    0.414358   -0.080751
      3          6           0        3.042573   -0.353770    0.014120
      4          8           0        3.042266   -1.554390    0.172782
      5          7           0        4.189796    0.392248   -0.060377
      6          6           0        5.478121   -0.289424   -0.085038
      7          6           0        6.612680    0.712543    0.069526
      8          6           0        7.973260    0.022991    0.052652
      9          6           0       -0.444334    0.926459   -0.010994
     10          6           0       -1.783180    0.577148    0.004856
     11          6           0       -2.150679   -0.775092   -0.030243
     12          6           0       -1.143133   -1.731408   -0.064085
     13          6           0        0.202532   -1.390928   -0.075496
     14          1           0        1.994477    1.415409   -0.020299
     15          1           0        4.148948    1.294170   -0.512540
     16          1           0        5.593085   -0.862870   -1.012400
     17          1           0        5.486136   -1.008233    0.735775
     18          1           0        6.477326    1.262558    1.005457
     19          1           0        6.565799    1.449352   -0.741209
     20          1           0        8.055415   -0.701456    0.866249
     21          1           0        8.783540    0.744423    0.166525
     22          1           0        8.133181   -0.512270   -0.886305
     23          1           0       -0.175232    1.976104    0.015087
     24          1           0        0.959925   -2.158480   -0.096909
     25          6           0       -3.581492   -1.251107    0.006207
     26          6           0       -2.789907    1.706987    0.018670
     27          1           0       -1.412647   -2.779533   -0.088377
     28          9           0       -4.380276   -0.532879   -0.790985
     29          9           0       -4.099563   -1.203640    1.241586
     30          9           0       -3.675543   -2.527252   -0.397942
     31          9           0       -2.220039    2.860350    0.406832
     32          9           0       -3.802083    1.475596    0.856874
     33          9           0       -3.305882    1.928335   -1.196276
 ---------------------------------------------------------------------
 Rotational constants (GHZ):      0.6929654      0.1113146      0.0994739
 Standard basis: 6-311+G(d) (5D, 7F)
 There are   519 symmetry adapted cartesian basis functions of A   symmetry.
 There are   498 symmetry adapted basis functions of A   symmetry.
   498 basis functions,   816 primitive gaussians,   519 cartesian basis functions
    80 alpha electrons       80 beta electrons
       nuclear repulsion energy      1765.1482395752 Hartrees.
 NAtoms=   33 NActive=   33 NUniq=   33 SFac= 1.00D+00 NAtFMM=   60 NAOKFM=F Big=F
 Integral buffers will be    131072 words long.
 Raffenetti 2 integral format.
 Two-electron integral symmetry is turned on.
 Nuclear repulsion after empirical dispersion term =     1765.1466910304 Hartrees.
 One-electron integrals computed using PRISM.
 NBasis=   498 RedAO= T EigKep=  1.31D-06  NBF=   498
 NBsUse=   496 1.00D-06 EigRej=  6.14D-07 NBFU=   496
 ExpMin= 4.38D-02 ExpMax= 1.14D+04 ExpMxC= 1.72D+03 IAcc=3 IRadAn=         5 AccDes= 0.00D+00
 Harris functional with IExCor= 1009 and IRadAn=       5 diagonalized for initial guess.
 HarFok:  IExCor= 1009 AccDes= 0.00D+00 IRadAn=         5 IDoV= 1 UseB2=F ITyADJ=14
 ICtDFT=  3500011 ScaDFX=  1.000000  1.000000  1.000000  1.000000
 FoFCou: FMM=F IPFlag=           0 FMFlag=      100000 FMFlg1=           0
         NFxFlg=           0 DoJE=T BraDBF=F KetDBF=T FulRan=T
         wScrn=  0.000000 ICntrl=     500 IOpCl=  0 I1Cent=   200000004 NGrid=           0
         NMat0=    1 NMatS0=      1 NMatT0=    0 NMatD0=    1 NMtDS0=    0 NMtDT0=    0
 Petite list used in FoFCou.
 Requested convergence on RMS density matrix=1.00D-08 within 128 cycles.
 Requested convergence on MAX density matrix=1.00D-06.
 Requested convergence on             energy=1.00D-06.
 No special actions if energy rises.
 SCF Done:  E(RM062X) =  -1248.24573106     A.U. after   16 cycles
            NFock= 16  Conv=0.48D-08     -V/T= 2.0030

 **********************************************************************

            Population analysis using the SCF density.

 **********************************************************************

 Orbital symmetries:
       Occupied  (A) (A) (A) (A) (A) (A) (A) (A) (A) (A) (A) (A)
                 (A) (A) (A) (A) (A) (A) (A) (A) (A) (A) (A) (A)
                 (A) (A) (A) (A) (A) (A) (A) (A) (A) (A) (A) (A)
                 (A) (A) (A) (A) (A) (A) (A) (A) (A) (A) (A) (A)
                 (A) (A) (A) (A) (A) (A) (A) (A) (A) (A) (A) (A)
                 (A) (A) (A) (A) (A) (A) (A) (A) (A) (A) (A) (A)
                 (A) (A) (A) (A) (A) (A) (A) (A)
       Virtual   (A) (A) (A) (A) (A) (A) (A) (A) (A) (A) (A) (A)
                 (A) (A) (A) (A) (A) (A) (A) (A) (A) (A) (A) (A)
                 (A) (A) (A) (A) (A) (A) (A) (A) (A) (A) (A) (A)
                 (A) (A) (A) (A) (A) (A) (A) (A) (A) (A) (A) (A)
                 (A) (A) (A) (A) (A) (A) (A) (A) (A) (A) (A) (A)
                 (A) (A) (A) (A) (A) (A) (A) (A) (A) (A) (A) (A)
                 (A) (A) (A) (A) (A) (A) (A) (A) (A) (A) (A) (A)
                 (A) (A) (A) (A) (A) (A) (A) (A) (A) (A) (A) (A)
                 (A) (A) (A) (A) (A) (A) (A) (A) (A) (A) (A) (A)
                 (A) (A) (A) (A) (A) (A) (A) (A) (A) (A) (A) (A)
                 (A) (A) (A) (A) (A) (A) (A) (A) (A) (A) (A) (A)
                 (A) (A) (A) (A) (A) (A) (A) (A) (A) (A) (A) (A)
                 (A) (A) (A) (A) (A) (A) (A) (A) (A) (A) (A) (A)
                 (A) (A) (A) (A) (A) (A) (A) (A) (A) (A) (A) (A)
                 (A) (A) (A) (A) (A) (A) (A) (A) (A) (A) (A) (A)
                 (A) (A) (A) (A) (A) (A) (A) (A) (A) (A) (A) (A)
                 (A) (A) (A) (A) (A) (A) (A) (A) (A) (A) (A) (A)
                 (A) (A) (A) (A) (A) (A) (A) (A) (A) (A) (A) (A)
                 (A) (A) (A) (A) (A) (A) (A) (A) (A) (A) (A) (A)
                 (A) (A) (A) (A) (A) (A) (A) (A) (A) (A) (A) (A)
                 (A) (A) (A) (A) (A) (A) (A) (A) (A) (A) (A) (A)
                 (A) (A) (A) (A) (A) (A) (A) (A) (A) (A) (A) (A)
                 (A) (A) (A) (A) (A) (A) (A) (A) (A) (A) (A) (A)
                 (A) (A) (A) (A) (A) (A) (A) (A) (A) (A) (A) (A)
                 (A) (A) (A) (A) (A) (A) (A) (A) (A) (A) (A) (A)
                 (A) (A) (A) (A) (A) (A) (A) (A) (A) (A) (A) (A)
                 (A) (A) (A) (A) (A) (A) (A) (A) (A) (A) (A) (A)
                 (A) (A) (A) (A) (A) (A) (A) (A) (A) (A) (A) (A)
                 (A) (A) (A) (A) (A) (A) (A) (A) (A) (A) (A) (A)
                 (A) (A) (A) (A) (A) (A) (A) (A) (A) (A) (A) (A)
                 (A) (A) (A) (A) (A) (A) (A) (A) (A) (A) (A) (A)
                 (A) (A) (A) (A) (A) (A) (A) (A) (A) (A) (A) (A)
                 (A) (A) (A) (A) (A) (A) (A) (A) (A) (A) (A) (A)
                 (A) (A) (A) (A) (A) (A) (A) (A) (A) (A) (A) (A)
                 (A) (A) (A) (A) (A) (A) (A) (A)
 The electronic state is 1-A.
 Alpha  occ. eigenvalues --  -25.28591 -25.28247 -25.27988 -25.27932 -25.27698
 Alpha  occ. eigenvalues --  -25.27357 -19.61124 -14.81320 -14.79073 -10.81414
 Alpha  occ. eigenvalues --  -10.80808 -10.69872 -10.63016 -10.60371 -10.59262
 Alpha  occ. eigenvalues --  -10.58771 -10.58382 -10.57925 -10.56825 -10.55742
 Alpha  occ. eigenvalues --  -10.54255  -1.47989  -1.47208  -1.38543  -1.38186
 Alpha  occ. eigenvalues --   -1.37805  -1.37473  -1.20603  -1.08923  -1.05461
 Alpha  occ. eigenvalues --   -1.00510  -0.91575  -0.90796  -0.89502  -0.83660
 Alpha  occ. eigenvalues --   -0.81593  -0.79464  -0.75601  -0.74714  -0.71494
 Alpha  occ. eigenvalues --   -0.70843  -0.70414  -0.70250  -0.69718  -0.69359
 Alpha  occ. eigenvalues --   -0.68852  -0.66031  -0.65274  -0.61007  -0.58573
 Alpha  occ. eigenvalues --   -0.58514  -0.58083  -0.57667  -0.57639  -0.56538
 Alpha  occ. eigenvalues --   -0.55997  -0.55339  -0.54598  -0.54194  -0.53581
 Alpha  occ. eigenvalues --   -0.53051  -0.52793  -0.52224  -0.51811  -0.51250
 Alpha  occ. eigenvalues --   -0.50806  -0.49953  -0.49692  -0.48557  -0.47039
 Alpha  occ. eigenvalues --   -0.45653  -0.44587  -0.44439  -0.42617  -0.41992
 Alpha  occ. eigenvalues --   -0.40838  -0.37204  -0.34904  -0.34420  -0.30307
 Alpha virt. eigenvalues --   -0.02387  -0.01666  -0.01377   0.00867   0.01782
 Alpha virt. eigenvalues --    0.02023   0.02650   0.02994   0.04099   0.04201
 Alpha virt. eigenvalues --    0.04757   0.04871   0.05725   0.06016   0.06139
 Alpha virt. eigenvalues --    0.06324   0.06775   0.07034   0.07640   0.08306
 Alpha virt. eigenvalues --    0.08403   0.08605   0.09307   0.10733   0.10866
 Alpha virt. eigenvalues --    0.11126   0.11733   0.12066   0.12204   0.12551
 Alpha virt. eigenvalues --    0.13636   0.13874   0.14105   0.14402   0.15156
 Alpha virt. eigenvalues --    0.15807   0.16415   0.16947   0.17315   0.17591
 Alpha virt. eigenvalues --    0.17776   0.18061   0.18429   0.18645   0.19083
 Alpha virt. eigenvalues --    0.19632   0.19947   0.20455   0.20902   0.20953
 Alpha virt. eigenvalues --    0.21279   0.21919   0.22134   0.22647   0.23042
 Alpha virt. eigenvalues --    0.23322   0.23490   0.23860   0.24105   0.24614
 Alpha virt. eigenvalues --    0.25221   0.25644   0.25987   0.26208   0.26464
 Alpha virt. eigenvalues --    0.26795   0.27042   0.27343   0.27853   0.28054
 Alpha virt. eigenvalues --    0.28539   0.29027   0.29290   0.29637   0.29936
 Alpha virt. eigenvalues --    0.30762   0.31125   0.31255   0.31597   0.31762
 Alpha virt. eigenvalues --    0.32346   0.33361   0.33494   0.34466   0.34994
 Alpha virt. eigenvalues --    0.35432   0.35777   0.36148   0.36600   0.37685
 Alpha virt. eigenvalues --    0.37991   0.38190   0.38793   0.39208   0.39761
 Alpha virt. eigenvalues --    0.39998   0.40456   0.41150   0.41939   0.42253
 Alpha virt. eigenvalues --    0.42716   0.43397   0.43655   0.44366   0.44793
 Alpha virt. eigenvalues --    0.45011   0.45393   0.46008   0.46913   0.47918
 Alpha virt. eigenvalues --    0.48159   0.48361   0.49196   0.49797   0.51062
 Alpha virt. eigenvalues --    0.51221   0.51628   0.53286   0.54973   0.55346
 Alpha virt. eigenvalues --    0.55598   0.56797   0.56993   0.57706   0.58909
 Alpha virt. eigenvalues --    0.59733   0.60423   0.60752   0.61400   0.62636
 Alpha virt. eigenvalues --    0.63206   0.63434   0.65271   0.66188   0.66320
 Alpha virt. eigenvalues --    0.67100   0.68045   0.69401   0.69887   0.70232
 Alpha virt. eigenvalues --    0.70875   0.71701   0.71740   0.72241   0.72865
 Alpha virt. eigenvalues --    0.73092   0.73566   0.74322   0.75157   0.75961
 Alpha virt. eigenvalues --    0.76365   0.76805   0.77716   0.78053   0.78881
 Alpha virt. eigenvalues --    0.79868   0.81781   0.81897   0.82660   0.83073
 Alpha virt. eigenvalues --    0.84895   0.86036   0.87795   0.90233   0.90895
 Alpha virt. eigenvalues --    0.92146   0.93327   0.93974   0.94654   0.95766
 Alpha virt. eigenvalues --    0.96476   0.98001   0.99427   1.01367   1.02951
 Alpha virt. eigenvalues --    1.04546   1.05474   1.05735   1.06640   1.08327
 Alpha virt. eigenvalues --    1.09766   1.11219   1.13541   1.14979   1.15188
 Alpha virt. eigenvalues --    1.16241   1.16931   1.19818   1.22042   1.22820
 Alpha virt. eigenvalues --    1.23993   1.24770   1.25596   1.28401   1.33867
 Alpha virt. eigenvalues --    1.35989   1.36817   1.38504   1.39582   1.41283
 Alpha virt. eigenvalues --    1.42608   1.43458   1.44225   1.45317   1.46627
 Alpha virt. eigenvalues --    1.47416   1.48520   1.48782   1.49382   1.49739
 Alpha virt. eigenvalues --    1.50124   1.51868   1.52275   1.52892   1.54020
 Alpha virt. eigenvalues --    1.54540   1.55081   1.55208   1.56687   1.57836
 Alpha virt. eigenvalues --    1.58149   1.58534   1.59140   1.59675   1.60215
 Alpha virt. eigenvalues --    1.60631   1.61605   1.61889   1.62333   1.62769
 Alpha virt. eigenvalues --    1.63895   1.65975   1.66869   1.70819   1.73985
 Alpha virt. eigenvalues --    1.74638   1.76529   1.76978   1.77250   1.77723
 Alpha virt. eigenvalues --    1.80107   1.81367   1.82674   1.83134   1.83895
 Alpha virt. eigenvalues --    1.85280   1.87377   1.88412   1.88810   1.90857
 Alpha virt. eigenvalues --    1.92974   1.95007   1.95996   1.97536   1.99472
 Alpha virt. eigenvalues --    2.01492   2.04261   2.04657   2.04876   2.08963
 Alpha virt. eigenvalues --    2.10232   2.11710   2.12404   2.14370   2.14774
 Alpha virt. eigenvalues --    2.16782   2.19974   2.21645   2.23108   2.24945
 Alpha virt. eigenvalues --    2.29581   2.32571   2.35515   2.37495   2.39220
 Alpha virt. eigenvalues --    2.40317   2.42239   2.43153   2.45549   2.51345
 Alpha virt. eigenvalues --    2.53147   2.54096   2.55069   2.57756   2.58670
 Alpha virt. eigenvalues --    2.60521   2.61559   2.63414   2.65363   2.70464
 Alpha virt. eigenvalues --    2.71517   2.74671   2.80154   2.81061   2.82232
 Alpha virt. eigenvalues --    2.84517   2.86291   2.90907   2.92904   2.93079
 Alpha virt. eigenvalues --    2.97092   2.99309   2.99676   3.00118   3.01146
 Alpha virt. eigenvalues --    3.04459   3.05168   3.05948   3.09936   3.10506
 Alpha virt. eigenvalues --    3.12457   3.13315   3.16402   3.20243   3.23794
 Alpha virt. eigenvalues --    3.24823   3.27555   3.29690   3.34947   3.38010
 Alpha virt. eigenvalues --    3.40478   3.40704   3.43129   3.43882   3.47833
 Alpha virt. eigenvalues --    3.54487   3.56103   3.64504   3.69014   3.70099
 Alpha virt. eigenvalues --    3.76829   3.77486   3.80534   3.81212   3.82653
 Alpha virt. eigenvalues --    3.84206   3.84813   3.85498   3.85976   3.86349
 Alpha virt. eigenvalues --    3.87203   3.87727   3.88877   3.89197   3.91079
 Alpha virt. eigenvalues --    3.94274   3.97441   3.98913   3.99629   4.00840
 Alpha virt. eigenvalues --    4.01390   4.01953   4.02342   4.04805   4.06023
 Alpha virt. eigenvalues --    4.11723   4.12920   4.21966   4.23695   4.28252
 Alpha virt. eigenvalues --    4.29097   4.31817   4.33293   4.52372   4.56985
 Alpha virt. eigenvalues --    4.72598   4.80003   4.81276   4.87248   4.99833
 Alpha virt. eigenvalues --    5.00341   5.02427   5.03750   5.17576   5.19322
 Alpha virt. eigenvalues --    5.41066   5.89083   6.46593   6.48434   6.50421
 Alpha virt. eigenvalues --    6.50866   6.51759   6.53535   6.53999   6.55232
 Alpha virt. eigenvalues --    6.55711   6.56460   6.59178   6.62742   6.63690
 Alpha virt. eigenvalues --    6.63896   6.89045   6.90031   6.90837   6.92060
 Alpha virt. eigenvalues --   23.45360  23.56823  23.64565  23.65500  23.71999
 Alpha virt. eigenvalues --   23.79247  23.92205  23.93144  23.96658  24.08462
 Alpha virt. eigenvalues --   24.12332  24.19909  35.57540  35.67401  50.12886
 Alpha virt. eigenvalues --   66.89941  66.90427  66.90864  66.91610  66.96458
 Alpha virt. eigenvalues --   66.98689
          Condensed to atoms (all electrons):
               1          2          3          4          5          6
     1  C   28.773418  -0.383389  -1.718732  -0.201017  -0.274058  -0.940562
     2  N   -0.383389   7.977704   0.302615  -0.085576  -0.690620  -0.396533
     3  C   -1.718732   0.302615   8.853479   0.569848   0.039139  -1.020457
     4  O   -0.201017  -0.085576   0.569848   8.071321  -0.170510  -0.121819
     5  N   -0.274058  -0.690620   0.039139  -0.170510   7.845757   0.631820
     6  C   -0.940562  -0.396533  -1.020457  -0.121819   0.631820   8.407144
     7  C   -0.008870   0.025210   0.192890   0.017280  -0.142673  -0.833310
     8  C   -0.017639  -0.008664  -0.216543  -0.001266   0.002937   0.350975
     9  C    0.797494   0.080094  -0.088989  -0.085113  -0.085525  -0.026910
    10  C   -6.012142   0.174501  -1.653322  -0.052062  -0.009018  -0.110414
    11  C   -4.132014   0.039494   0.224670   0.053071   0.077419   0.031498
    12  C   -2.828377   0.067776   0.435655   0.094817  -0.005496   0.057875
    13  C   -2.869159  -0.039335  -0.089686   0.252984  -0.091624  -0.014346
    14  H   -0.090523   0.227675  -0.029958  -0.004618   0.067203   0.023426
    15  H   -0.044551   0.096872   0.036252  -0.002200   0.222477  -0.074853
    16  H    0.009020   0.008623   0.079362  -0.004418  -0.106415   0.392777
    17  H    0.006675   0.012360   0.053476  -0.001292  -0.043426   0.335154
    18  H    0.005420  -0.000645   0.034929  -0.000139   0.001731  -0.088844
    19  H   -0.004970  -0.000416  -0.022246  -0.000261   0.003557  -0.054728
    20  H   -0.000419  -0.000065  -0.010775  -0.000081   0.000154  -0.046957
    21  H    0.000047  -0.000008   0.003470   0.000025  -0.001365   0.074137
    22  H    0.000275   0.000023   0.011028  -0.000035   0.000112  -0.041275
    23  H    0.127311  -0.020495  -0.012331   0.000071  -0.001264  -0.001106
    24  H   -0.046534  -0.021622   0.074821  -0.000023   0.002893   0.008109
    25  C    0.926275   0.015355   0.000101   0.004151   0.011062   0.002620
    26  C   -4.654975  -0.005599  -0.170989  -0.004945  -0.008567  -0.005244
    27  H    0.002398  -0.001624   0.002743   0.000145   0.000049   0.000016
    28  F   -0.029087   0.000052  -0.001100   0.000003   0.000003  -0.000006
    29  F    0.002760  -0.000134   0.000006  -0.000001   0.000002   0.000001
    30  F   -0.000360   0.000082  -0.000255  -0.000002   0.000004   0.000002
    31  F    0.199023   0.000911  -0.000513  -0.000001   0.000012   0.000004
    32  F    0.033196   0.000690  -0.001383   0.000002   0.000008  -0.000010
    33  F   -0.028055   0.000744  -0.000682  -0.000003  -0.000005   0.000001
               7          8          9         10         11         12
     1  C   -0.008870  -0.017639   0.797494  -6.012142  -4.132014  -2.828377
     2  N    0.025210  -0.008664   0.080094   0.174501   0.039494   0.067776
     3  C    0.192890  -0.216543  -0.088989  -1.653322   0.224670   0.435655
     4  O    0.017280  -0.001266  -0.085113  -0.052062   0.053071   0.094817
     5  N   -0.142673   0.002937  -0.085525  -0.009018   0.077419  -0.005496
     6  C   -0.833310   0.350975  -0.026910  -0.110414   0.031498   0.057875
     7  C    6.285391  -0.167378  -0.003128  -0.000056  -0.001910   0.001979
     8  C   -0.167378   6.040799   0.000619  -0.000394  -0.000111  -0.000390
     9  C   -0.003128   0.000619  15.277532   2.495144  -7.755886  -3.548302
    10  C   -0.000056  -0.000394   2.495144  52.504100 -21.916690  -4.839521
    11  C   -0.001910  -0.000111  -7.755886 -21.916690  54.096770   1.339511
    12  C    0.001979  -0.000390  -3.548302  -4.839521   1.339511  21.706569
    13  C    0.011657  -0.004504  -0.639672  -8.336724  -7.428043  -5.390780
    14  H   -0.003795   0.000080  -0.002616  -0.013180  -0.005588   0.020585
    15  H    0.011336   0.006882  -0.000315  -0.003089  -0.001787   0.003701
    16  H   -0.073628  -0.004778   0.001314   0.000211  -0.000207  -0.000447
    17  H    0.002418  -0.024325   0.003112   0.000776  -0.000441  -0.001462
    18  H    0.441094  -0.051399  -0.000120   0.000055   0.000012  -0.000010
    19  H    0.452190  -0.034506   0.000354  -0.000015  -0.000006   0.000024
    20  H    0.010186   0.393191   0.000023  -0.000001  -0.000001  -0.000002
    21  H   -0.116999   0.392363  -0.000011  -0.000001   0.000000   0.000001
    22  H    0.012509   0.363842  -0.000019   0.000001   0.000001   0.000005
    23  H    0.000061  -0.000001   0.344241  -0.080007  -0.054644  -0.002556
    24  H   -0.000397   0.000051  -0.040953  -0.021577   0.061331   0.062488
    25  C   -0.000272   0.000002  -2.109060   0.048967  -3.262500  -1.264489
    26  C    0.000221   0.000004   1.469484  -5.129152  -4.137579  -0.223696
    27  H    0.000002   0.000000   0.000909  -0.029558  -0.126071   0.300474
    28  F   -0.000000  -0.000000   0.031266  -0.370998   0.085201   0.154076
    29  F    0.000000   0.000000  -0.001090  -0.078050   0.276648  -0.103768
    30  F   -0.000000   0.000000  -0.007749  -0.077125  -0.221535   0.139011
    31  F    0.000002   0.000000   0.211971  -0.306605  -0.102537  -0.002679
    32  F    0.000000  -0.000000   0.085081   0.069960  -0.287650   0.021743
    33  F   -0.000000   0.000000  -0.101908   0.414407  -0.107949  -0.010708
              13         14         15         16         17         18
     1  C   -2.869159  -0.090523  -0.044551   0.009020   0.006675   0.005420
     2  N   -0.039335   0.227675   0.096872   0.008623   0.012360  -0.000645
     3  C   -0.089686  -0.029958   0.036252   0.079362   0.053476   0.034929
     4  O    0.252984  -0.004618  -0.002200  -0.004418  -0.001292  -0.000139
     5  N   -0.091624   0.067203   0.222477  -0.106415  -0.043426   0.001731
     6  C   -0.014346   0.023426  -0.074853   0.392777   0.335154  -0.088844
     7  C    0.011657  -0.003795   0.011336  -0.073628   0.002418   0.441094
     8  C   -0.004504   0.000080   0.006882  -0.004778  -0.024325  -0.051399
     9  C   -0.639672  -0.002616  -0.000315   0.001314   0.003112  -0.000120
    10  C   -8.336724  -0.013180  -0.003089   0.000211   0.000776   0.000055
    11  C   -7.428043  -0.005588  -0.001787  -0.000207  -0.000441   0.000012
    12  C   -5.390780   0.020585   0.003701  -0.000447  -0.001462  -0.000010
    13  C   30.325287   0.066318   0.016045  -0.001937  -0.004199  -0.000146
    14  H    0.066318   0.382405   0.001430   0.000339  -0.000004  -0.000008
    15  H    0.016045   0.001430   0.399754   0.001587   0.002815  -0.000768
    16  H   -0.001937   0.000339   0.001587   0.472919  -0.037121   0.006314
    17  H   -0.004199  -0.000004   0.002815  -0.037121   0.423687  -0.007781
    18  H   -0.000146  -0.000008  -0.000768   0.006314  -0.007781   0.447561
    19  H    0.000104   0.000080   0.003906  -0.009335   0.005220  -0.045076
    20  H   -0.000049   0.000001  -0.000022  -0.000961   0.003640  -0.008667
    21  H    0.000027  -0.000000  -0.000027  -0.000096  -0.000221  -0.003316
    22  H    0.000077  -0.000000   0.000049   0.003354  -0.000212   0.006015
    23  H   -0.019345   0.008344   0.000023   0.000000   0.000000   0.000000
    24  H    0.238180   0.000115  -0.000014   0.000015  -0.000041   0.000000
    25  C   -2.749083   0.001843  -0.000082  -0.000006  -0.000015   0.000000
    26  C    2.155568   0.007246   0.000119   0.000009   0.000029   0.000000
    27  H    0.173647   0.000003  -0.000000  -0.000000   0.000000  -0.000000
    28  F    0.094171  -0.000000  -0.000000  -0.000000   0.000000  -0.000000
    29  F   -0.038289  -0.000000   0.000000   0.000000  -0.000000   0.000000
    30  F    0.255091   0.000002  -0.000000   0.000000  -0.000000  -0.000000
    31  F   -0.023448  -0.000007   0.000001   0.000000   0.000000   0.000000
    32  F    0.003043  -0.000003  -0.000000  -0.000000   0.000000  -0.000000
    33  F   -0.013297   0.000002   0.000000   0.000000   0.000000  -0.000000
              19         20         21         22         23         24
     1  C   -0.004970  -0.000419   0.000047   0.000275   0.127311  -0.046534
     2  N   -0.000416  -0.000065  -0.000008   0.000023  -0.020495  -0.021622
     3  C   -0.022246  -0.010775   0.003470   0.011028  -0.012331   0.074821
     4  O   -0.000261  -0.000081   0.000025  -0.000035   0.000071  -0.000023
     5  N    0.003557   0.000154  -0.001365   0.000112  -0.001264   0.002893
     6  C   -0.054728  -0.046957   0.074137  -0.041275  -0.001106   0.008109
     7  C    0.452190   0.010186  -0.116999   0.012509   0.000061  -0.000397
     8  C   -0.034506   0.393191   0.392363   0.363842  -0.000001   0.000051
     9  C    0.000354   0.000023  -0.000011  -0.000019   0.344241  -0.040953
    10  C   -0.000015  -0.000001  -0.000001   0.000001  -0.080007  -0.021577
    11  C   -0.000006  -0.000001   0.000000   0.000001  -0.054644   0.061331
    12  C    0.000024  -0.000002   0.000001   0.000005  -0.002556   0.062488
    13  C    0.000104  -0.000049   0.000027   0.000077  -0.019345   0.238180
    14  H    0.000080   0.000001  -0.000000  -0.000000   0.008344   0.000115
    15  H    0.003906  -0.000022  -0.000027   0.000049   0.000023  -0.000014
    16  H   -0.009335  -0.000961  -0.000096   0.003354   0.000000   0.000015
    17  H    0.005220   0.003640  -0.000221  -0.000212   0.000000  -0.000041
    18  H   -0.045076  -0.008667  -0.003316   0.006015   0.000000   0.000000
    19  H    0.477577   0.006700  -0.003441  -0.008545  -0.000000  -0.000000
    20  H    0.006700   0.451602  -0.024022  -0.035829  -0.000000  -0.000000
    21  H   -0.003441  -0.024022   0.434443  -0.025587   0.000000   0.000000
    22  H   -0.008545  -0.035829  -0.025587   0.453452   0.000000   0.000000
    23  H   -0.000000  -0.000000   0.000000   0.000000   0.405261  -0.000077
    24  H   -0.000000  -0.000000   0.000000   0.000000  -0.000077   0.364667
    25  C   -0.000000  -0.000000   0.000000   0.000000   0.018097   0.013033
    26  C    0.000000  -0.000000  -0.000000   0.000000   0.013107  -0.002800
    27  H    0.000000   0.000000  -0.000000  -0.000000   0.000041  -0.002997
    28  F    0.000000  -0.000000   0.000000  -0.000000   0.000031   0.000005
    29  F   -0.000000  -0.000000   0.000000   0.000000   0.000020   0.000043
    30  F    0.000000   0.000000  -0.000000  -0.000000   0.000015  -0.000012
    31  F    0.000000   0.000000  -0.000000  -0.000000   0.010881  -0.000002
    32  F    0.000000   0.000000  -0.000000  -0.000000   0.000834  -0.000005
    33  F    0.000000   0.000000  -0.000000  -0.000000  -0.001236  -0.000001
              25         26         27         28         29         30
     1  C    0.926275  -4.654975   0.002398  -0.029087   0.002760  -0.000360
     2  N    0.015355  -0.005599  -0.001624   0.000052  -0.000134   0.000082
     3  C    0.000101  -0.170989   0.002743  -0.001100   0.000006  -0.000255
     4  O    0.004151  -0.004945   0.000145   0.000003  -0.000001  -0.000002
     5  N    0.011062  -0.008567   0.000049   0.000003   0.000002   0.000004
     6  C    0.002620  -0.005244   0.000016  -0.000006   0.000001   0.000002
     7  C   -0.000272   0.000221   0.000002  -0.000000   0.000000  -0.000000
     8  C    0.000002   0.000004   0.000000  -0.000000   0.000000   0.000000
     9  C   -2.109060   1.469484   0.000909   0.031266  -0.001090  -0.007749
    10  C    0.048967  -5.129152  -0.029558  -0.370998  -0.078050  -0.077125
    11  C   -3.262500  -4.137579  -0.126071   0.085201   0.276648  -0.221535
    12  C   -1.264489  -0.223696   0.300474   0.154076  -0.103768   0.139011
    13  C   -2.749083   2.155568   0.173647   0.094171  -0.038289   0.255091
    14  H    0.001843   0.007246   0.000003  -0.000000  -0.000000   0.000002
    15  H   -0.000082   0.000119  -0.000000  -0.000000   0.000000  -0.000000
    16  H   -0.000006   0.000009  -0.000000  -0.000000   0.000000   0.000000
    17  H   -0.000015   0.000029   0.000000   0.000000  -0.000000  -0.000000
    18  H    0.000000   0.000000  -0.000000  -0.000000   0.000000  -0.000000
    19  H   -0.000000   0.000000   0.000000   0.000000  -0.000000   0.000000
    20  H   -0.000000  -0.000000   0.000000  -0.000000  -0.000000   0.000000
    21  H    0.000000  -0.000000  -0.000000   0.000000   0.000000  -0.000000
    22  H    0.000000   0.000000  -0.000000  -0.000000   0.000000  -0.000000
    23  H    0.018097   0.013107   0.000041   0.000031   0.000020   0.000015
    24  H    0.013033  -0.002800  -0.002997   0.000005   0.000043  -0.000012
    25  C   20.307596  -7.059839  -0.022916  -0.101659   0.139162   0.019156
    26  C   -7.059839  22.190216   0.016918   0.291867  -0.029948   0.030626
    27  H   -0.022916   0.016918   0.388848   0.000910  -0.000713   0.010187
    28  F   -0.101659   0.291867   0.000910   8.975877  -0.040607  -0.024871
    29  F    0.139162  -0.029948  -0.000713  -0.040607   8.947073  -0.042370
    30  F    0.019156   0.030626   0.010187  -0.024871  -0.042370   9.031935
    31  F    0.029909   0.126970   0.000010   0.001784   0.000104   0.000064
    32  F    0.255162  -0.026809   0.000054  -0.005491   0.002723   0.001725
    33  F   -0.004543   0.034120   0.000009   0.003655  -0.000990   0.000043
              31         32         33
     1  C    0.199023   0.033196  -0.028055
     2  N    0.000911   0.000690   0.000744
     3  C   -0.000513  -0.001383  -0.000682
     4  O   -0.000001   0.000002  -0.000003
     5  N    0.000012   0.000008  -0.000005
     6  C    0.000004  -0.000010   0.000001
     7  C    0.000002   0.000000  -0.000000
     8  C    0.000000  -0.000000   0.000000
     9  C    0.211971   0.085081  -0.101908
    10  C   -0.306605   0.069960   0.414407
    11  C   -0.102537  -0.287650  -0.107949
    12  C   -0.002679   0.021743  -0.010708
    13  C   -0.023448   0.003043  -0.013297
    14  H   -0.000007  -0.000003   0.000002
    15  H    0.000001  -0.000000   0.000000
    16  H    0.000000  -0.000000   0.000000
    17  H    0.000000   0.000000   0.000000
    18  H    0.000000  -0.000000  -0.000000
    19  H    0.000000   0.000000   0.000000
    20  H    0.000000   0.000000   0.000000
    21  H   -0.000000  -0.000000  -0.000000
    22  H   -0.000000  -0.000000  -0.000000
    23  H    0.010881   0.000834  -0.001236
    24  H   -0.000002  -0.000005  -0.000001
    25  C    0.029909   0.255162  -0.004543
    26  C    0.126970  -0.026809   0.034120
    27  H    0.000010   0.000054   0.000009
    28  F    0.001784  -0.005491   0.003655
    29  F    0.000104   0.002723  -0.000990
    30  F    0.000064   0.001725   0.000043
    31  F    9.040520  -0.027646  -0.043091
    32  F   -0.027646   8.968329  -0.042051
    33  F   -0.043091  -0.042051   8.925972
 Mulliken charges:
               1
     1  C   -0.597878
     2  N   -0.376056
     3  C    0.123479
     4  O   -0.328334
     5  N   -0.275773
     6  C   -0.538184
     7  C   -0.112012
     8  C   -1.019848
     9  C   -0.301270
    10  C   -0.668422
    11  C   -0.742478
    12  C   -0.183605
    13  C    0.161467
    14  H    0.343204
    15  H    0.324459
    16  H    0.263507
    17  H    0.271175
    18  H    0.263786
    19  H    0.233835
    20  H    0.262353
    21  H    0.270580
    22  H    0.260758
    23  H    0.264725
    24  H    0.311304
    25  C    0.781974
    26  C    1.123638
    27  H    0.286515
    28  F   -0.065082
    29  F   -0.032581
    30  F   -0.113663
    31  F   -0.115636
    32  F   -0.051502
    33  F   -0.024434
 Sum of Mulliken charges =  -0.00000
 Mulliken charges with hydrogens summed into heavy atoms:
               1
     1  C   -0.597878
     2  N   -0.032851
     3  C    0.123479
     4  O   -0.328334
     5  N    0.048686
     6  C   -0.003502
     7  C    0.385609
     8  C   -0.226157
     9  C   -0.036545
    10  C   -0.668422
    11  C   -0.742478
    12  C    0.102910
    13  C    0.472770
    25  C    0.781974
    26  C    1.123638
    28  F   -0.065082
    29  F   -0.032581
    30  F   -0.113663
    31  F   -0.115636
    32  F   -0.051502
    33  F   -0.024434
 Electronic spatial extent (au):  <R**2>=          10078.1466
 Charge=              0.0000 electrons
 Dipole moment (field-independent basis, Debye):
    X=              7.1588    Y=              2.5447    Z=             -0.8654  Tot=              7.6468
 Quadrupole moment (field-independent basis, Debye-Ang):
   XX=           -116.8803   YY=           -120.6522   ZZ=           -123.6621
   XY=             12.5815   XZ=             -3.0386   YZ=             -0.2767
 Traceless Quadrupole moment (field-independent basis, Debye-Ang):
   XX=              3.5179   YY=             -0.2540   ZZ=             -3.2639
   XY=             12.5815   XZ=             -3.0386   YZ=             -0.2767
 Octapole moment (field-independent basis, Debye-Ang**2):
  XXX=            107.9398  YYY=             11.7425  ZZZ=              1.1940  XYY=            -24.6628
  XXY=             40.9770  XXZ=            -11.0508  XZZ=            -27.1202  YZZ=              3.7027
  YYZ=             -2.1905  XYZ=             -3.9296
 Hexadecapole moment (field-independent basis, Debye-Ang**3):
 XXXX=         -10101.1767 YYYY=          -1379.5273 ZZZZ=           -279.8169 XXXY=             87.3676
 XXXZ=            -29.7549 YYYX=             34.6743 YYYZ=             -7.7860 ZZZX=             -1.7772
 ZZZY=              2.3122 XXYY=          -2084.4301 XXZZ=          -1859.5608 YYZZ=           -283.1277
 XXYZ=            -10.4054 YYXZ=            -12.0739 ZZXY=            -10.6678
 N-N= 1.765146691030D+03 E-N=-6.469722124435D+03  KE= 1.244517473497D+03
 Calling FoFJK, ICntrl=      2127 FMM=F ISym2X=0 I1Cent= 0 IOpClX= 0 NMat=1 NMatS=1 NMatT=0.
 ***** Axes restored to original set *****
 -------------------------------------------------------------------
 Center     Atomic                   Forces (Hartrees/Bohr)
 Number     Number              X              Y              Z
 -------------------------------------------------------------------
      1        6           0.000006680    0.000008909    0.000000084
      2        7           0.000009957    0.000003988   -0.000003510
      3        6          -0.000012243   -0.000018791    0.000005530
      4        8           0.000003582    0.000007851   -0.000001783
      5        7          -0.000003807    0.000002387   -0.000003437
      6        6          -0.000002283    0.000002382    0.000002420
      7        6          -0.000000708   -0.000000458   -0.000000435
      8        6          -0.000000123   -0.000000036    0.000002232
      9        6          -0.000007206   -0.000000947    0.000000936
     10        6           0.000005958   -0.000007066   -0.000002231
     11        6           0.000000156    0.000004863   -0.000001448
     12        6          -0.000010034   -0.000001846   -0.000001384
     13        6           0.000005955   -0.000006333   -0.000003396
     14        1          -0.000002558    0.000001149    0.000002883
     15        1           0.000002612    0.000001612    0.000001995
     16        1           0.000001270    0.000001619    0.000000050
     17        1          -0.000000410   -0.000001486   -0.000000334
     18        1          -0.000000042   -0.000000847    0.000002364
     19        1           0.000000435    0.000000815    0.000003344
     20        1           0.000000112   -0.000000531    0.000000630
     21        1           0.000000058    0.000000002    0.000001513
     22        1          -0.000000047    0.000000599    0.000000653
     23        1           0.000000698   -0.000000186    0.000001721
     24        1          -0.000000627    0.000000986   -0.000001735
     25        6           0.000001113    0.000002550    0.000003837
     26        6          -0.000002650    0.000002137   -0.000003869
     27        1           0.000000859    0.000000879   -0.000003045
     28        9           0.000000833    0.000000416   -0.000004591
     29        9          -0.000001024   -0.000001970   -0.000003337
     30        9           0.000000577   -0.000000007   -0.000004479
     31        9          -0.000000209   -0.000001266   -0.000001006
     32        9           0.000005955   -0.000004063    0.000004744
     33        9          -0.000002840    0.000002688    0.000005084
 -------------------------------------------------------------------
 Cartesian Forces:  Max     0.000018791 RMS     0.000003999

 GradGradGradGradGradGradGradGradGradGradGradGradGradGradGradGradGradGrad
 Berny optimization.
 FormGI is forming the generalized inverse of G from B-inverse, IUseBI=4.
 GSVD:  received Info=                   1 from GESDD.
 Internal  Forces:  Max     0.000013656 RMS     0.000002194
 Search for a local minimum.
 Step number   1 out of a maximum of  172
 All quantities printed in internal units (Hartrees-Bohrs-Radians)
 Mixed Optimization -- En-DIIS/RFO-DIIS
 Second derivative matrix not updated -- first step.
 ITU=  0
     Eigenvalues ---    0.00430   0.00481   0.00589   0.00655   0.00928
     Eigenvalues ---    0.01519   0.01561   0.01755   0.01771   0.01817
     Eigenvalues ---    0.01819   0.01927   0.02011   0.02082   0.02115
     Eigenvalues ---    0.02159   0.02191   0.02206   0.02236   0.02237
     Eigenvalues ---    0.03715   0.04429   0.04927   0.05501   0.05525
     Eigenvalues ---    0.05551   0.08187   0.09236   0.10535   0.10542
     Eigenvalues ---    0.10864   0.10874   0.12082   0.12673   0.14804
     Eigenvalues ---    0.15889   0.16000   0.16000   0.16000   0.16000
     Eigenvalues ---    0.16000   0.16000   0.21889   0.21898   0.22042
     Eigenvalues ---    0.22278   0.22373   0.23479   0.24595   0.24983
     Eigenvalues ---    0.24991   0.24994   0.24997   0.25000   0.25000
     Eigenvalues ---    0.25000   0.25000   0.25000   0.25000   0.25000
     Eigenvalues ---    0.29849   0.30220   0.31016   0.31516   0.34069
     Eigenvalues ---    0.34085   0.34356   0.34517   0.34527   0.34687
     Eigenvalues ---    0.34713   0.35527   0.35695   0.36172   0.37246
     Eigenvalues ---    0.42205   0.42677   0.45819   0.46015   0.46135
     Eigenvalues ---    0.46274   0.46419   0.46626   0.47273   0.48120
     Eigenvalues ---    0.50885   0.56373   0.56779   0.57104   0.57565
     Eigenvalues ---    0.57725   0.58478   0.99457
 RFO step:  Lambda= 0.00000000D+00 EMin= 4.29524965D-03
 Linear search not attempted -- first point.
 Iteration  1 RMS(Cart)=  0.00006029 RMS(Int)=  0.00000000
 Iteration  2 RMS(Cart)=  0.00000000 RMS(Int)=  0.00000000
 Variable       Old X    -DE/DX   Delta X   Delta X   Delta X     New X
                                 (Linear)    (Quad)   (Total)
    R1        2.63661  -0.00000   0.00000  -0.00001  -0.00001   2.63660
    R2        2.64720   0.00000   0.00000   0.00001   0.00001   2.64720
    R3        2.63736  -0.00001   0.00000  -0.00001  -0.00001   2.63735
    R4        2.63431  -0.00001   0.00000  -0.00003  -0.00003   2.63428
    R5        1.90680  -0.00000   0.00000  -0.00000  -0.00000   1.90680
    R6        2.28857   0.00001   0.00000   0.00001   0.00001   2.28858
    R7        2.58983  -0.00001   0.00000  -0.00001  -0.00001   2.58982
    R8        2.75477  -0.00000   0.00000  -0.00000  -0.00000   2.75476
    R9        1.90814  -0.00000   0.00000  -0.00000  -0.00000   1.90814
   R10        2.87527  -0.00000   0.00000  -0.00000  -0.00000   2.87527
   R11        2.07187   0.00000   0.00000   0.00000   0.00000   2.07187
   R12        2.06187  -0.00000   0.00000  -0.00000  -0.00000   2.06187
   R13        2.88265  -0.00000   0.00000  -0.00000  -0.00000   2.88265
   R14        2.06733  -0.00000   0.00000  -0.00000  -0.00000   2.06733
   R15        2.07214   0.00000   0.00000   0.00000   0.00000   2.07214
   R16        2.06449   0.00000   0.00000   0.00000   0.00000   2.06449
   R17        2.06143  -0.00000   0.00000  -0.00000  -0.00000   2.06143
   R18        2.06467  -0.00000   0.00000  -0.00000  -0.00000   2.06467
   R19        2.61492  -0.00000   0.00000  -0.00001  -0.00001   2.61491
   R20        2.04828   0.00000   0.00000   0.00000   0.00000   2.04828
   R21        2.64888   0.00000   0.00000   0.00001   0.00001   2.64889
   R22        2.85981  -0.00000   0.00000  -0.00000  -0.00000   2.85981
   R23        2.62586  -0.00000   0.00000  -0.00001  -0.00001   2.62585
   R24        2.85038  -0.00000   0.00000  -0.00000  -0.00000   2.85038
   R25        2.62316   0.00000   0.00000   0.00001   0.00001   2.62317
   R26        2.04562   0.00000   0.00000   0.00000   0.00000   2.04562
   R27        2.03814   0.00000   0.00000   0.00000   0.00000   2.03814
   R28        2.52787  -0.00000   0.00000  -0.00000  -0.00000   2.52787
   R29        2.53309   0.00000   0.00000   0.00000   0.00000   2.53309
   R30        2.53585  -0.00000   0.00000  -0.00000  -0.00000   2.53585
   R31        2.53932   0.00000   0.00000   0.00000   0.00000   2.53932
   R32        2.52165  -0.00001   0.00000  -0.00001  -0.00001   2.52164
   R33        2.52921   0.00000   0.00000   0.00001   0.00001   2.52922
    A1        2.04221  -0.00000   0.00000  -0.00001  -0.00001   2.04220
    A2        2.16772   0.00000   0.00000   0.00001   0.00001   2.16773
    A3        2.07317   0.00000   0.00000   0.00000   0.00000   2.07318
    A4        2.21827  -0.00000   0.00000  -0.00001  -0.00001   2.21825
    A5        2.01365  -0.00000   0.00000  -0.00001  -0.00001   2.01364
    A6        2.03848   0.00000   0.00000   0.00002   0.00002   2.03850
    A7        2.15913  -0.00000   0.00000  -0.00000  -0.00000   2.15912
    A8        1.97423   0.00001   0.00000   0.00002   0.00002   1.97426
    A9        2.14956  -0.00001   0.00000  -0.00002  -0.00002   2.14954
   A10        2.07850  -0.00000   0.00000  -0.00002  -0.00002   2.07848
   A11        2.06769   0.00000   0.00000   0.00001   0.00001   2.06771
   A12        2.03293  -0.00000   0.00000  -0.00001  -0.00001   2.03292
   A13        1.92767  -0.00000   0.00000  -0.00001  -0.00001   1.92766
   A14        1.93003   0.00000   0.00000   0.00002   0.00002   1.93005
   A15        1.87741   0.00000   0.00000  -0.00001  -0.00001   1.87740
   A16        1.93068  -0.00000   0.00000   0.00000   0.00000   1.93068
   A17        1.93044   0.00000   0.00000  -0.00000  -0.00000   1.93043
   A18        1.86603  -0.00000   0.00000   0.00000   0.00000   1.86604
   A19        1.94581  -0.00000   0.00000  -0.00000  -0.00000   1.94581
   A20        1.90258  -0.00000   0.00000  -0.00000  -0.00000   1.90258
   A21        1.91294   0.00000   0.00000  -0.00000  -0.00000   1.91294
   A22        1.92526   0.00000   0.00000   0.00001   0.00001   1.92526
   A23        1.91102  -0.00000   0.00000  -0.00001  -0.00001   1.91102
   A24        1.86442   0.00000   0.00000   0.00000   0.00000   1.86443
   A25        1.93755   0.00000   0.00000   0.00000   0.00000   1.93756
   A26        1.94165  -0.00000   0.00000  -0.00000  -0.00000   1.94165
   A27        1.94069  -0.00000   0.00000  -0.00000  -0.00000   1.94069
   A28        1.88068  -0.00000   0.00000  -0.00000  -0.00000   1.88068
   A29        1.87983  -0.00000   0.00000  -0.00000  -0.00000   1.87983
   A30        1.88072   0.00000   0.00000   0.00000   0.00000   1.88072
   A31        2.12120  -0.00000   0.00000  -0.00000  -0.00000   2.12120
   A32        2.08550  -0.00000   0.00000  -0.00000  -0.00000   2.08549
   A33        2.07647   0.00000   0.00000   0.00000   0.00000   2.07647
   A34        2.09082  -0.00000   0.00000  -0.00000  -0.00000   2.09082
   A35        2.04348   0.00000   0.00000   0.00001   0.00001   2.04349
   A36        2.14843  -0.00000   0.00000  -0.00001  -0.00001   2.14842
   A37        2.06512  -0.00000   0.00000  -0.00000  -0.00000   2.06512
   A38        2.15620   0.00000   0.00000   0.00001   0.00001   2.15621
   A39        2.06146  -0.00000   0.00000  -0.00001  -0.00001   2.06145
   A40        2.13448   0.00000   0.00000   0.00000   0.00000   2.13449
   A41        2.07875   0.00000   0.00000   0.00001   0.00001   2.07875
   A42        2.06993  -0.00000   0.00000  -0.00001  -0.00001   2.06993
   A43        2.08150  -0.00000   0.00000  -0.00001  -0.00001   2.08150
   A44        2.09990   0.00000   0.00000   0.00001   0.00001   2.09990
   A45        2.10177  -0.00000   0.00000  -0.00000  -0.00000   2.10176
   A46        1.96340  -0.00000   0.00000  -0.00000  -0.00000   1.96340
   A47        1.95813  -0.00000   0.00000  -0.00001  -0.00001   1.95812
   A48        1.93834  -0.00000   0.00000   0.00000   0.00000   1.93834
   A49        1.87489  -0.00000   0.00000  -0.00001  -0.00001   1.87488
   A50        1.86426   0.00000   0.00000   0.00001   0.00001   1.86427
   A51        1.85892   0.00000   0.00000   0.00000   0.00000   1.85892
   A52        1.94048   0.00000   0.00000   0.00001   0.00001   1.94049
   A53        1.96153  -0.00000   0.00000  -0.00001  -0.00001   1.96152
   A54        1.95157  -0.00000   0.00000  -0.00000  -0.00000   1.95157
   A55        1.86405  -0.00000   0.00000  -0.00001  -0.00001   1.86404
   A56        1.85851   0.00000   0.00000   0.00002   0.00002   1.85853
   A57        1.88227  -0.00000   0.00000  -0.00001  -0.00001   1.88226
    D1        3.01862   0.00000   0.00000   0.00003   0.00003   3.01865
    D2        0.05499   0.00000   0.00000   0.00001   0.00001   0.05500
    D3       -0.13697   0.00000   0.00000   0.00003   0.00003  -0.13694
    D4       -3.10059  -0.00000   0.00000   0.00001   0.00001  -3.10059
    D5        3.12828   0.00000   0.00000   0.00000   0.00000   3.12829
    D6       -0.02054   0.00000   0.00000   0.00001   0.00001  -0.02053
    D7       -0.00011   0.00000   0.00000   0.00001   0.00001  -0.00010
    D8        3.13426   0.00000   0.00000   0.00001   0.00001   3.13427
    D9       -3.12333   0.00000   0.00000   0.00001   0.00001  -3.12333
   D10        0.02461  -0.00000   0.00000  -0.00001  -0.00001   0.02460
   D11        0.00403   0.00000   0.00000   0.00000   0.00000   0.00404
   D12       -3.13121  -0.00000   0.00000  -0.00001  -0.00001  -3.13122
   D13       -0.03432   0.00000   0.00000   0.00001   0.00001  -0.03431
   D14        3.13139   0.00000   0.00000   0.00007   0.00007   3.13145
   D15        2.92711   0.00000   0.00000   0.00003   0.00003   2.92714
   D16       -0.19037   0.00000   0.00000   0.00009   0.00009  -0.19029
   D17       -3.05499  -0.00000   0.00000  -0.00003  -0.00003  -3.05502
   D18       -0.40388  -0.00000   0.00000  -0.00007  -0.00007  -0.40395
   D19        0.11056   0.00000   0.00000   0.00003   0.00003   0.11059
   D20        2.76167  -0.00000   0.00000  -0.00001  -0.00001   2.76166
   D21       -2.97378  -0.00000   0.00000  -0.00002  -0.00002  -2.97380
   D22        1.16641   0.00000   0.00000  -0.00003  -0.00003   1.16638
   D23       -0.86545  -0.00000   0.00000  -0.00003  -0.00003  -0.86549
   D24        0.64876   0.00000   0.00000   0.00001   0.00001   0.64877
   D25       -1.49424   0.00000   0.00000   0.00001   0.00001  -1.49424
   D26        2.75708  -0.00000   0.00000  -0.00000  -0.00000   2.75708
   D27        3.13751  -0.00000   0.00000   0.00000   0.00000   3.13751
   D28        1.00795  -0.00000   0.00000  -0.00001  -0.00001   1.00794
   D29       -1.02699  -0.00000   0.00000  -0.00001  -0.00001  -1.02700
   D30       -1.00305   0.00000   0.00000   0.00002   0.00002  -1.00304
   D31       -3.13262   0.00000   0.00000   0.00001   0.00001  -3.13261
   D32        1.11563   0.00000   0.00000   0.00001   0.00001   1.11563
   D33        1.06112   0.00000   0.00000   0.00002   0.00002   1.06114
   D34       -1.06844   0.00000   0.00000   0.00001   0.00001  -1.06843
   D35       -3.10338   0.00000   0.00000   0.00001   0.00001  -3.10337
   D36       -1.04455   0.00000   0.00000   0.00004   0.00004  -1.04450
   D37       -3.13880   0.00000   0.00000   0.00005   0.00005  -3.13875
   D38        1.04799   0.00000   0.00000   0.00005   0.00005   1.04803
   D39        1.07187   0.00000   0.00000   0.00005   0.00005   1.07192
   D40       -1.02238   0.00000   0.00000   0.00005   0.00005  -1.02233
   D41       -3.11878   0.00000   0.00000   0.00005   0.00005  -3.11874
   D42        3.11884   0.00000   0.00000   0.00005   0.00005   3.11889
   D43        1.02459   0.00000   0.00000   0.00005   0.00005   1.02465
   D44       -1.07181   0.00000   0.00000   0.00005   0.00005  -1.07176
   D45       -0.00876  -0.00000   0.00000  -0.00001  -0.00001  -0.00877
   D46       -3.11932   0.00000   0.00000   0.00001   0.00001  -3.11931
   D47        3.14003  -0.00000   0.00000  -0.00001  -0.00001   3.14001
   D48        0.02946   0.00000   0.00000   0.00001   0.00001   0.02947
   D49        0.01337  -0.00000   0.00000   0.00000   0.00000   0.01337
   D50        3.12352   0.00000   0.00000   0.00001   0.00001   3.12353
   D51        3.12199  -0.00000   0.00000  -0.00002  -0.00002   3.12197
   D52       -0.05105  -0.00000   0.00000  -0.00001  -0.00001  -0.05106
   D53       -0.31947  -0.00000   0.00000  -0.00000  -0.00000  -0.31947
   D54       -2.40798  -0.00000   0.00000   0.00001   0.00001  -2.40797
[...]
 9,-0.00924191,0.00081820,0.00320445,0.00062897,-0.00019486,0.00068721,
 0.22050174,0.00033886,0.00063086,-0.00001947,0.00000134,0.00015618,-0.
 00001811,-0.00008524,-0.00017425,0.00005031,0.00003377,0.00012341,-0.0
 0002379,0.00002498,0.00003455,0.00000468,-0.00002158,-0.00001535,-0.00
 000276,0.00000402,-0.00000220,0.00000341,-0.00000211,-0.00000166,0.000
 00107,-0.00098025,0.00089512,-0.00027897,-0.00062829,-0.00046880,0.000
 22196,0.00482731,0.01112986,-0.00128761,0.00017502,-0.00136244,-0.0006
 4311,0.00083625,0.00041720,0.00022196,-0.00004207,-0.00001329,0.000015
 06,-0.00001094,-0.00000429,-0.00000033,0.00000272,-0.00000031,0.000004
 28,0.00000330,0.00000129,-0.00000344,-0.00000096,-0.00000046,0.0000030
 3,-0.00000028,0.00000436,-0.00000551,0.00000160,0.00000206,-0.00000340
 ,0.00000015,0.00000062,0.00000062,0.00000074,-0.00000089,0.00000195,-0
 .00018570,0.00002083,0.00003602,0.00008143,-0.00008990,0.00006502,-0.0
 5639888,-0.10652609,0.04725904,-0.00611278,0.00220655,0.00372569,0.000
 74775,0.00029450,-0.00000142,0.10814022,0.16731514,-0.00096060,0.00004
 133,-0.00011532,0.00096592,-0.00026288,0.00003989,-0.00083965,0.000025
 71,-0.00003764,0.00030266,-0.00001886,0.00002624,0.00039178,-0.0002157
 4,-0.00004666,-0.00013456,-0.00005043,0.00000667,0.00000927,0.00003503
 ,0.00000100,0.00000146,-0.00002099,-0.00000529,0.00088552,-0.00033930,
 0.00004274,-0.00121750,0.00127058,0.00097445,0.01352847,0.00984669,-0.
 00040022,0.00232761,-0.00299118,-0.00067125,0.00049362,0.00095206,0.00
 020590,0.00002689,0.00004096,-0.00004940,-0.00000409,0.00004183,0.0000
 0251,0.00003501,0.00001502,0.00000980,0.00000063,0.00000473,0.00000490
 ,-0.00000367,0.00000275,0.00000239,-0.00000023,-0.00000954,0.00000354,
 -0.00000365,0.00000246,0.00000191,0.00001582,-0.00000550,-0.00000327,0
 .00000020,0.00000702,0.00000403,0.00012171,-0.00004677,-0.00008306,0.0
 0016385,-0.00020202,0.00001130,0.09010902,0.04341280,-0.13970457,0.002
 06014,0.00056793,-0.00652112,-0.00021896,-0.00002990,-0.00015382,-0.13
 025107,-0.09286179,0.20023176,0.00371266,-0.00049169,-0.00019554,-0.00
 464698,0.00092334,-0.00013144,0.00343156,0.00100828,-0.00012307,-0.000
 86381,-0.00069049,0.00004369,-0.00134625,0.00059768,0.00030583,0.00045
 102,0.00016951,-0.00006968,-0.00004002,-0.00011624,-0.00002465,-0.0000
 0449,0.00007352,0.00000694,-0.00366063,-0.00004942,0.00166950,0.000626
 45,-0.00338277,-0.00119302,-0.02055945,0.01081468,-0.03615215,0.001108
 90,0.00304654,-0.00069862,-0.00071542,0.00094071,0.00202045,-0.0000814
 0,-0.00018530,-0.00002423,0.00004401,-0.00017230,-0.00007688,-0.000111
 90,-0.00003542,-0.00002343,-0.00002908,-0.00001869,-0.00000770,0.00001
 269,0.00000496,0.00000151,0.00000297,0.00000928,0.00000286,0.00000599,
 -0.00001937,0.00000179,-0.00005257,0.00001737,0.00000522,0.00000408,-0
 .00001488,-0.00000618,-0.00034458,0.00012298,0.00020943,-0.00012084,0.
 00011142,0.00005135,-0.12844056,0.01795179,-0.08877793,-0.00702311,-0.
 00005135,-0.00313131,0.00010979,-0.00010887,-0.00102115,0.01927340,-0.
 00664896,0.02397656,0.12967246,-0.00115385,0.00111255,0.00016611,0.001
 95716,-0.00035709,0.00004744,-0.00148901,-0.00052323,0.00004150,0.0003
 9612,0.00036152,-0.00001413,0.00057830,-0.00022947,-0.00012892,-0.0002
 0241,-0.00008119,0.00002518,0.00001964,0.00004694,0.00001081,0.0000005
 6,-0.00003154,-0.00000248,0.00064158,0.00075231,-0.00045045,-0.0013131
 6,0.00060056,-0.00075250,0.01421431,0.00768322,0.01707748,-0.00022060,
 -0.00303036,0.00098347,0.00139058,-0.00031680,-0.00093721,0.00002077,0
 .00006773,0.00001355,-0.00002474,0.00006746,0.00002571,0.00004977,0.00
 001550,0.00001405,0.00001437,0.00000711,0.00000108,-0.00000586,-0.0000
 0183,0.00000239,-0.00000167,-0.00000164,-0.00000424,-0.00000154,0.0000
 0864,-0.00000297,0.00002157,-0.00000641,-0.00000200,-0.00000068,0.0000
 0588,0.00000448,-0.00002958,-0.00004543,0.00002493,0.00014147,-0.00014
 817,-0.00013895,0.01859789,-0.07858245,0.02431960,-0.00134538,0.001547
 08,-0.00070038,0.00050778,0.00014046,0.00045206,-0.00082352,0.00023061
 ,0.03462389,-0.00735141,0.08718185,0.00185693,-0.00046664,-0.00021753,
 -0.00236097,0.00049246,0.00004925,0.00180498,0.00048230,-0.00011917,-0
 .00049939,-0.00032782,0.00011501,-0.00071736,0.00033717,0.00019720,0.0
 0023544,0.00009082,-0.00006079,-0.00002154,-0.00006063,-0.00002427,-0.
 00000307,0.00004092,0.00000199,-0.00177516,0.00039969,0.00074604,-0.00
 015757,-0.00160066,0.00004759,-0.01499824,0.00407825,-0.01113041,-0.00
 043959,0.00221828,-0.00005374,-0.00091211,0.00042325,0.00088227,-0.000
 04681,-0.00007990,-0.00008039,0.00002486,-0.00009656,-0.00006527,-0.00
 005366,-0.00001679,-0.00000501,-0.00001897,-0.00001424,-0.00000484,0.0
 0000630,0.00000810,0.00000600,0.00000059,-0.00000022,0.00000525,0.0000
 0140,-0.00001399,0.00000209,-0.00002875,0.00000965,0.00000126,0.000004
 24,-0.00000574,0.00000060,-0.00025604,0.00012012,0.00000567,-0.0001213
 2,0.00013438,-0.00000071,-0.08630263,0.02537988,-0.22071611,-0.0035593
 5,0.00015923,-0.00625125,0.00036499,0.00006303,-0.00090115,0.00690080,
 0.02957305,-0.07194007,0.12473980,-0.02392307,0.35342763,0.00109600,0.
 00014293,0.00009878,-0.00159782,0.00035434,0.00004170,0.00151831,0.000
 19190,-0.00003632,-0.00047003,-0.00015844,0.00003466,-0.00066577,0.000
 31657,0.00012883,0.00023527,0.00009205,-0.00002982,-0.00001878,-0.0000
 5795,-0.00001198,-0.00000206,0.00003761,0.00000395,-0.00086208,0.00179
 100,-0.00022729,-0.00383795,-0.00068086,0.00092001,0.00384893,0.030944
 25,0.00963434,-0.00532276,0.00034385,0.00153755,0.00104896,0.00148687,
 0.00000705,-0.00002781,-0.00005087,-0.00002154,0.00002374,-0.00007635,
 -0.00003114,-0.00005362,-0.00002059,-0.00001177,-0.00000903,-0.0000122
 4,-0.00000453,0.00000642,0.00000180,0.00000002,0.00000073,0.00000605,0
 .00000085,0.00000361,-0.00000981,0.00000045,-0.00002767,0.00000988,0.0
 0000334,0.00000222,-0.00000874,-0.00000377,-0.00048373,0.00017648,-0.0
 0011975,0.00013018,-0.00006817,0.00001631,-0.08116252,0.00061657,0.000
 23222,-0.00443466,-0.00013379,0.00045939,-0.00342399,0.00394819,0.0009
 7431,-0.00726967,-0.05080839,-0.00000398,0.00308144,-0.02528005,-0.026
 85982,0.09493880,-0.00272163,0.00060396,-0.00018550,0.00342017,-0.0001
 5201,-0.00008045,-0.00260059,-0.00120719,0.00002910,0.00063435,0.00086
 065,0.00001783,0.00097782,-0.00029361,-0.00014564,-0.00034954,-0.00014
 916,0.00002362,0.00003681,0.00007482,0.00001538,-0.00000116,-0.0000520
 5,-0.00000520,0.00101718,-0.00146028,0.00046464,0.00635535,0.00224865,
 -0.00162635,0.00176687,-0.04000135,-0.01610168,-0.00396857,-0.00371207
 ,0.00021615,0.00098710,0.00041907,0.00055635,-0.00010853,0.00011960,0.
 00002253,-0.00005236,0.00010384,0.00002157,0.00009095,0.00002567,0.000
 03093,0.00002350,0.00001222,-0.00000287,-0.00001112,0.00000114,0.00001
 046,-0.00000335,-0.00000252,-0.00000964,-0.00000193,0.00001274,-0.0000
 0729,0.00003460,-0.00000872,-0.00000374,0.00000113,0.00001005,0.000012
 04,0.00070504,-0.00029566,0.00024493,0.00015500,-0.00011516,-0.0000858
 3,0.00717505,-0.25131441,-0.06627826,-0.00123061,0.00380710,0.00024078
 ,0.00233210,0.00118131,-0.00046906,-0.03747310,-0.06120778,0.01022976,
 -0.01568629,-0.00756421,-0.03716115,0.03751708,0.36122044,-0.00024538,
 0.00052979,-0.00003845,0.00059497,-0.00002222,0.00000217,-0.00050787,-
 0.00020770,0.00000468,0.00014421,0.00014234,0.00003425,0.00021014,-0.0
 0006017,-0.00001199,-0.00007760,-0.00003370,-0.00000997,0.00000867,0.0
 0001579,-0.00000060,-0.00000078,-0.00001077,-0.00000309,-0.00054256,-0
 .00052251,-0.00035012,0.00239831,-0.00014729,0.00133140,-0.00045159,-0
 .01156662,0.00439089,-0.00111496,-0.00095033,0.00037795,0.00046607,-0.
 00024654,0.00029818,-0.00002554,0.00002287,-0.00004277,-0.00001159,0.0
 0001623,-0.00001075,0.00002172,0.00000789,0.00001106,0.00000385,0.0000
 0064,-0.00000049,-0.00000256,0.00000331,0.00000509,-0.00000077,-0.0000
 0329,-0.00000065,-0.00000105,0.00000086,-0.00000109,0.00000694,-0.0000
 0145,-0.00000139,0.00000183,0.00000318,0.00000473,0.00020140,-0.000063
 23,-0.00020720,0.00004347,-0.00004503,-0.00001569,0.00292846,-0.065737
 14,-0.09770178,-0.00049668,0.00110842,-0.00167266,0.00095325,-0.000092
 02,-0.00059930,0.00470118,0.02134780,0.01600306,-0.02338870,-0.0527192
 2,-0.04957403,0.01369096,0.11036724,0.12607403,0.00234413,-0.00141503,
 -0.00015436,-0.00102862,-0.00006357,0.00000714,0.00131734,0.00031465,-
 0.00005849,-0.00040156,-0.00027899,0.00002488,-0.00055900,0.00020383,0
 .00007850,0.00021462,0.00008387,-0.00001664,-0.00001858,-0.00004614,-0
 .00000941,0.00000035,0.00003131,0.00000333,-0.00642183,-0.00131616,-0.
 00162762,0.00751514,-0.02200142,-0.00647877,-0.00297707,-0.00053635,-0
 .00049437,0.00002529,-0.00154742,0.00014469,-0.00031974,-0.00056245,-0
 .00009227,0.00026575,-0.00000860,0.00000901,0.00004261,-0.00005408,-0.
 00000408,-0.00004887,-0.00001989,-0.00001419,-0.00001012,-0.00001136,-
 0.00000294,0.00000749,0.00000068,-0.00000443,0.00000197,0.00000435,0.0
 0000401,0.00000229,-0.00000907,0.00000126,-0.00002401,0.00000883,0.000
 00315,0.00000050,-0.00000845,-0.00000502,-0.00307434,-0.00493841,-0.00
 092033,0.00010911,-0.00019332,-0.00002402,-0.00452718,-0.00129983,-0.0
 0045326,-0.08405613,0.02563922,0.01001768,-0.00031474,-0.00014932,0.00
 005411,0.00158260,0.00116248,-0.00035307,0.00125470,0.00039582,0.00070
 251,0.00081019,0.00024190,0.00011797,0.11483194,0.00172594,-0.00023336
 ,0.00050258,-0.00230569,0.00041211,0.00004632,0.00175168,-0.00033256,-
 0.00007370,-0.00058743,0.00029852,0.00002874,-0.00088929,0.00060341,0.
 00027263,0.00022885,0.00009862,-0.00005919,-0.00001991,-0.00009623,-0.
 00001871,-0.00001414,0.00005093,0.00000607,0.00157489,-0.00332967,-0.0
 0023001,0.00824126,-0.04371472,-0.01743520,-0.00816601,0.00119504,-0.0
 0114457,0.00059944,-0.00228921,0.00046877,-0.00012229,0.00002450,-0.00
 022853,-0.00025224,-0.00025143,-0.00005045,-0.00003765,-0.00015522,-0.
 00011946,-0.00005203,-0.00001888,0.00000317,-0.00000155,-0.00001079,-0
 .00001365,0.00000216,0.00000327,0.00002408,-0.00000299,0.00001737,-0.0
 0002126,0.00000912,-0.00000640,-0.00000833,-0.00003614,0.00000966,0.00
 000319,0.00000917,-0.00000720,0.00000614,-0.00331283,-0.00002881,-0.00
 064343,0.00010209,0.00015735,-0.00006240,0.00000482,0.00377409,0.00018
 395,0.01857981,-0.24548231,-0.06347998,-0.00071207,-0.00036106,0.00021
 797,-0.00012015,-0.00087531,-0.00012231,0.00005401,-0.00084784,0.00024
 154,0.00012036,-0.00136210,-0.00040750,-0.07672158,0.33886912,0.000142
 20,-0.00043184,0.00008983,-0.00049080,0.00009025,0.00013107,0.00035479
 ,-0.00006912,-0.00003604,-0.00011201,0.00006472,0.00003377,-0.00017635
 ,0.00014318,0.00010083,0.00003575,0.00001509,-0.00002517,-0.00000380,-
 0.00001833,-0.00001604,-0.00000389,0.00001043,0.00000207,0.00087480,-0
 .00070756,0.00083926,0.00272294,-0.01080736,0.00417610,-0.00233498,-0.
 00026655,0.00130325,0.00080696,-0.00049596,-0.00037511,-0.00032086,0.0
 0036863,0.00006976,-0.00006614,-0.00004839,-0.00014800,-0.00000849,-0.
 00003813,-0.00005843,-0.00000517,0.00000066,0.00000593,-0.00000272,-0.
 00000555,-0.00000309,-0.00000103,0.00000375,0.00001128,-0.00000073,-0.
 00000059,-0.00000244,0.00000074,-0.00000346,-0.00000138,-0.00000741,0.
 00000192,-0.00000110,0.00000426,0.00000117,0.00000437,-0.00102009,-0.0
 0019105,-0.00065684,0.00000844,0.00004158,-0.00003499,0.00036229,0.001
 18545,-0.00168174,0.00768451,-0.06379115,-0.09670852,-0.00018163,-0.00
 007207,-0.00017902,-0.00052288,-0.00071525,0.00083364,0.00026671,-0.00
 011249,0.00077904,-0.00005341,-0.00041230,0.00009955,-0.03060833,0.105
 67177,0.12582430,0.00002937,-0.00007517,0.00168290,-0.00214040,-0.0007
 3684,0.00027077,0.00212736,0.00041797,-0.00009925,-0.00073474,-0.00026
 604,0.00007948,-0.00108313,0.00040402,0.00018184,0.00038405,0.00017333
 ,-0.00005975,-0.00003737,-0.00009087,-0.00002597,-0.00000162,0.0000616
 9,0.00000830,-0.00180210,-0.00675519,-0.00186251,-0.03664546,0.0151790
 9,-0.02799490,0.00072609,0.00140862,0.00105276,-0.00071260,-0.00053017
 ,0.00093127,-0.00047757,-0.00035605,-0.00023086,0.00021096,-0.00004708
 ,-0.00008044,0.00006088,-0.00010713,-0.00004424,-0.00008159,-0.0000335
 1,-0.00002004,-0.00001452,-0.00002404,-0.00000621,0.00001143,0.0000050
 3,-0.00000064,0.00000232,0.00000575,0.00000657,0.00000418,-0.00001854,
 0.00000242,-0.00004593,0.00001643,0.00000457,0.00000345,-0.00001335,-0
 .00000601,0.00065679,0.00039353,-0.00081023,0.00023585,-0.00008768,-0.
 00017864,-0.00999924,-0.00260212,-0.00378732,-0.21715612,0.03788566,-0
 .09779576,-0.00025974,-0.00015457,-0.00005924,0.00392502,0.00210308,0.
 00068081,0.00352925,0.00044565,0.00246711,0.00168953,0.00047807,0.0006
 3019,-0.02399166,0.04440789,-0.00795059,0.26444517,-0.00030348,-0.0001
 3906,0.00044219,-0.00089646,0.00007406,0.00006526,0.00052460,-0.000052
 73,0.00003730,-0.00015266,0.00008868,-0.00001421,-0.00029047,0.0001784
 5,0.00006918,0.00006541,0.00003230,-0.00001673,-0.00000683,-0.00003176
 ,-0.00000310,-0.00000500,0.00001560,0.00000242,-0.00076686,-0.00236773
 ,-0.00086877,-0.01283484,0.01192284,-0.00594878,0.00081260,0.00040942,
 0.00025761,0.00068160,0.00091212,-0.00020523,-0.00051120,0.00062934,-0
 .00001688,-0.00009852,-0.00008961,0.00000241,-0.00001568,-0.00004776,-
 0.00002680,-0.00001814,-0.00000697,0.00000036,0.00000087,-0.00000190,-
 0.00000492,0.00000075,-0.00000028,0.00000670,-0.00000096,0.00000771,-0
 .00000893,0.00000346,-0.00000035,-0.00000356,-0.00001078,0.00000251,0.
 00000155,0.00000249,-0.00000290,0.00000157,-0.00070944,0.00021188,-0.0
 0015015,0.00000706,0.00005985,0.00003736,0.00396426,0.00264077,0.00290
 012,0.04112238,-0.09086852,0.03210304,0.00013192,0.00003885,0.00003765
 ,-0.00054744,-0.00539015,-0.00506639,-0.00135629,-0.00763839,-0.001025
 49,-0.00069313,-0.00092694,-0.00057310,0.05797433,-0.04519978,0.019650
 63,-0.09594355,0.13303907,-0.00000894,0.00088273,0.00006632,-0.0009191
 6,-0.00039987,0.00014360,0.00076137,0.00031896,-0.00008971,-0.00023938
 ,-0.00019046,0.00006179,-0.00036781,0.00011104,0.00009509,0.00012718,0
 .00006040,-0.00002897,-0.00001441,-0.00002953,-0.00001952,-0.00000086,
 0.00002169,0.00000350,-0.00187916,-0.00329552,-0.00043633,-0.01445559,
 0.00751361,-0.00002897,0.00083260,0.00092680,0.00099674,-0.00039169,-0
 .00037757,0.00001012,0.00010160,-0.00030899,-0.00003890,0.00009494,-0.
 00001231,-0.00010400,0.00002758,-0.00003963,-0.00003723,-0.00002464,-0
 .00000791,-0.00000368,-0.00000868,-0.00001111,-0.00000110,0.00000314,0
 .00000481,0.00000332,0.00000119,-0.00000316,0.00000634,-0.00000008,-0.
 00000922,0.00000217,-0.00001577,0.00000575,-0.00000003,0.00000252,-0.0
 0000242,-0.00000009,0.00020489,0.00003121,-0.00016732,0.00006284,-0.00
 005227,-0.00003677,-0.00212658,0.00026934,-0.00641445,-0.09811990,0.02
 802774,-0.13909102,-0.00009146,-0.00005138,-0.00008174,0.00017267,-0.0
 0508686,-0.00182148,0.00185762,0.00152391,0.00309540,0.00035395,-0.000
 08069,0.00081041,-0.00146916,0.00968150,0.01600719,0.14689845,-0.06862
 618,0.19819228,0.00111758,-0.00026551,-0.00206025,-0.00151262,-0.00023
 513,-0.00000082,0.00174732,0.00001957,0.00002394,-0.00064638,-0.000048
 23,-0.00000816,-0.00087107,0.00039842,0.00013537,0.00031476,0.00012815
 ,-0.00002486,-0.00002670,-0.00007803,-0.00001085,-0.00000183,0.0000494
 9,0.00000401,0.00050819,-0.00255190,0.00019383,-0.01361274,-0.01257869
 ,0.03370000,-0.00094861,0.00161974,0.00060327,-0.00163426,-0.00049518,
 -0.00158485,-0.00009004,-0.00101030,0.00022306,0.00011914,-0.00005202,
 0.00002306,0.00003334,-0.00008989,-0.00002155,-0.00006913,-0.00003091,
 -0.00001697,-0.00000655,-0.00001585,-0.00000796,0.00000892,0.00000079,
 -0.00000237,0.00000100,0.00001202,-0.00000122,0.00000567,-0.00001133,-
 0.00000068,-0.00003723,0.00001310,0.00000562,0.00000258,-0.00001339,-0
 .00000643,0.00013983,0.00017899,0.00103044,0.00023001,-0.00005165,0.00
 020808,-0.00694308,-0.00136477,0.00323247,-0.11935072,-0.02489394,0.08
 317323,-0.00029223,-0.00015407,-0.00012711,0.00288879,0.00344142,-0.00
 210590,0.00171973,-0.00014988,0.00002241,0.00123562,0.00025873,-0.0002
 5598,-0.00255260,0.01594248,0.03060693,0.01714211,0.00987000,-0.031369
 26,0.12138120,-0.00016484,-0.00065494,-0.00128020,-0.00130572,-0.00005
 144,-0.00010874,0.00117642,-0.00007644,-0.00000718,-0.00041369,0.00008
 696,-0.00001733,-0.00062586,0.00033218,0.00012823,0.00019124,0.0000874
 1,-0.00002223,-0.00001898,-0.00006241,-0.00000338,-0.00000553,0.000035
 31,0.00000298,-0.00001252,-0.00332444,0.00051697,-0.01671861,0.0032889
 1,0.02383287,0.00058919,0.00058919,-0.00077288,-0.00011688,0.00061283,
 -0.00072205,-0.00065843,0.00026196,0.00015831,-0.00002036,-0.00009089,
 0.00005367,-0.00000034,-0.00008185,-0.00003366,-0.00004292,-0.00001972
 ,-0.00000673,-0.00000265,-0.00000851,-0.00000776,0.00000426,0.00000065
 ,0.00000488,0.00000008,0.00001185,-0.00000876,0.00000544,-0.00000513,-
 0.00000347,-0.00002528,0.00000763,0.00000375,0.00000306,-0.00000818,-0
 .00000104,-0.00057205,0.00009855,0.00074049,0.00012800,0.00002451,0.00
 012355,-0.00012708,0.00155312,-0.00016969,-0.02512061,-0.08621695,0.03
 951524,-0.00000353,-0.00004995,0.00002481,0.00162883,-0.00732998,0.001
 12305,0.00053370,-0.00042336,0.00054078,-0.00003840,-0.00087602,-0.000
 15650,0.02512019,-0.00091112,-0.04906210,0.00445610,0.00250136,0.02920
 558,0.01215777,0.09069890,-0.00016511,0.00031301,0.00083359,0.00121065
 ,0.00023321,0.00021143,-0.00118633,-0.00012984,-0.00004039,0.00042120,
 0.00007879,0.00005730,0.00061526,-0.00023179,-0.00003466,-0.00020983,-
 0.00009682,-0.00000315,0.00001982,0.00005556,-0.00000907,0.00000135,-0
 .00003399,-0.00000540,0.00061695,0.00246361,0.00039929,0.01367574,0.00
 566330,-0.01359906,0.00086819,-0.00076523,0.00055304,0.00070765,0.0006
 5158,0.00077459,0.00013446,0.00031201,-0.00009489,-0.00012978,0.000031
 27,-0.00018959,-0.00001914,0.00004932,-0.00004143,0.00005475,0.0000283
 8,0.00001858,0.00000115,0.00000639,0.00000625,-0.00000704,0.00000429,0
 .00001037,-0.00000067,-0.00001574,0.00000469,-0.00000523,0.00000284,0.
 00000195,0.00002345,-0.00000728,-0.00000608,0.00000253,0.00001232,0.00
 000820,-0.00037140,-0.00006689,-0.00104241,-0.00012245,0.00005937,-0.0
 0014642,0.00352729,0.00081103,-0.00639936,0.08098098,0.04120809,-0.229
 04120,0.00022350,0.00014996,-0.00002917,-0.00218807,-0.00158315,0.0031
 4744,-0.00011356,0.00053139,0.00178243,-0.00072355,0.00015232,0.000794
 59,0.03162254,-0.03323973,-0.05038332,-0.01388481,0.02694386,-0.071092
 94,-0.11558050,-0.04359144,0.36355481\\-0.00000668,-0.00000889,-0.0000
 0008,-0.00000995,-0.00000399,0.00000351,0.00001224,0.00001879,-0.00000
 553,-0.00000358,-0.00000785,0.00000178,0.00000380,-0.00000239,0.000003
 44,0.00000229,-0.00000238,-0.00000242,0.00000071,0.00000046,0.00000043
 ,0.00000012,0.00000004,-0.00000223,0.00000720,0.00000095,-0.00000094,-
 0.00000595,0.00000706,0.00000223,-0.00000015,-0.00000486,0.00000145,0.
 00001002,0.00000184,0.00000138,-0.00000595,0.00000632,0.00000339,0.000
 00256,-0.00000115,-0.00000288,-0.00000261,-0.00000161,-0.00000199,-0.0
 0000127,-0.00000162,-0.00000005,0.00000041,0.00000149,0.00000033,0.000
 00004,0.00000085,-0.00000236,-0.00000044,-0.00000082,-0.00000334,-0.00
 000011,0.00000053,-0.00000063,-0.00000006,0.,-0.00000151,0.00000005,-0
 .00000060,-0.00000065,-0.00000070,0.00000018,-0.00000172,0.00000063,-0
 .00000099,0.00000173,-0.00000112,-0.00000255,-0.00000384,0.00000265,-0
 .00000214,0.00000387,-0.00000086,-0.00000088,0.00000305,-0.00000083,-0
 .00000041,0.00000459,0.00000102,0.00000197,0.00000334,-0.00000058,0.,0
 .00000448,0.00000021,0.00000127,0.00000101,-0.00000596,0.00000406,-0.0
 0000474,0.00000284,-0.00000269,-0.00000508\\\@


 IF I HAVE SEEN FARTHER, IT IS BY STANDING ON THE
 SHOULDERS OF GIANTS. -- SIR ISAAC NEWTON
 Job cpu time:       0 days  6 hours 32 minutes 28.1 seconds.
 File lengths (MBytes):  RWF=    837 Int=      0 D2E=      0 Chk=     18 Scr=      1
 Normal termination of Gaussian 09 at Thu Nov 14 10:24:11 2019.
pbs_rusage has been removed.
Please contact help@nci.org.au if you require this functionality.
