 Entering Gaussian System, Link 0=/apps/gaussian/g16c01/g16/g16
 Initial command:
 /apps/gaussian/g16c01/g16/l1.exe "/jobfs/11080177.gadi-pbs/Gau-964285.inp" -scrdir="/jobfs/11080177.gadi-pbs/"
 Entering Link 1 = /apps/gaussian/g16c01/g16/l1.exe PID=    964286.
  
 Copyright (c) 1988-2019, Gaussian, Inc.  All Rights Reserved.
  
 This is part of the Gaussian(R) 16 program.  It is based on
 the Gaussian(R) 09 system (copyright 2009, Gaussian, Inc.),
 the Gaussian(R) 03 system (copyright 2003, Gaussian, Inc.),
 the Gaussian(R) 98 system (copyright 1998, Gaussian, Inc.),
 the Gaussian(R) 94 system (copyright 1995, Gaussian, Inc.),
 the Gaussian 92(TM) system (copyright 1992, Gaussian, Inc.),
 the Gaussian 90(TM) system (copyright 1990, Gaussian, Inc.),
 the Gaussian 88(TM) system (copyright 1988, Gaussian, Inc.),
 the Gaussian 86(TM) system (copyright 1986, Carnegie Mellon
 University), and the Gaussian 82(TM) system (copyright 1983,
 Carnegie Mellon University). Gaussian is a federally registered
 trademark of Gaussian, Inc.
  
 This software contains proprietary and confidential information,
 including trade secrets, belonging to Gaussian, Inc.
  
 This software is provided under written license and may be
 used, copied, transmitted, or stored only in accord with that
 written license.
  
 The following legend is applicable only to US Government
 contracts under FAR:
  
                    RESTRICTED RIGHTS LEGEND
  
 Use, reproduction and disclosure by the US Government is
 subject to restrictions as set forth in subparagraphs (a)
 and (c) of the Commercial Computer Software - Restricted
 Rights clause in FAR 52.227-19.
  
 Gaussian, Inc.
 340 Quinnipiac St., Bldg. 40, Wallingford CT 06492
  
  
 ---------------------------------------------------------------
 Warning -- This program may not be used in any manner that
 competes with the business of Gaussian, Inc. or will provide
 assistance to any competitor of Gaussian, Inc.  The licensee
 of this program is prohibited from giving any competitor of
 Gaussian, Inc. access to this program.  By using this program,
 the user acknowledges that Gaussian, Inc. is engaged in the
 business of creating and licensing software in the field of
 computational chemistry and represents and warrants to the
 licensee that it is not a competitor of Gaussian, Inc. and that
 it will not use this program in any manner prohibited above.
 ---------------------------------------------------------------
  

 Cite this work as:
 Gaussian 16, Revision C.01,
 M. J. Frisch, G. W. Trucks, H. B. Schlegel, G. E. Scuseria, 
 M. A. Robb, J. R. Cheeseman, G. Scalmani, V. Barone, 
 G. A. Petersson, H. Nakatsuji, X. Li, M. Caricato, A. V. Marenich, 
 J. Bloino, B. G. Janesko, R. Gomperts, B. Mennucci, H. P. Hratchian, 
 J. V. Ortiz, A. F. Izmaylov, J. L. Sonnenberg, D. Williams-Young, 
 F. Ding, F. Lipparini, F. Egidi, J. Goings, B. Peng, A. Petrone, 
 T. Henderson, D. Ranasinghe, V. G. Zakrzewski, J. Gao, N. Rega, 
 G. Zheng, W. Liang, M. Hada, M. Ehara, K. Toyota, R. Fukuda, 
 J. Hasegawa, M. Ishida, T. Nakajima, Y. Honda, O. Kitao, H. Nakai, 
 T. Vreven, K. Throssell, J. A. Montgomery, Jr., J. E. Peralta, 
 F. Ogliaro, M. J. Bearpark, J. J. Heyd, E. N. Brothers, K. N. Kudin, 
 V. N. Staroverov, T. A. Keith, R. Kobayashi, J. Normand, 
 K. Raghavachari, A. P. Rendell, J. C. Burant, S. S. Iyengar, 
 J. Tomasi, M. Cossi, J. M. Millam, M. Klene, C. Adamo, R. Cammi, 
 J. W. Ochterski, R. L. Martin, K. Morokuma, O. Farkas, 
 J. B. Foresman, and D. J. Fox, Gaussian, Inc., Wallingford CT, 2019.
 
 ******************************************
 Gaussian 16:  ES64L-G16RevC.01  3-Jul-2019
                 9-Sep-2020 
 ******************************************
 %NprocShared=8
 Will use up to    8 processors via shared memory.
 %Mem=192000MB
 %chk=NM2_c2.DSDPBEP86_AUG-cc-PVTZ.chk
 ---------------------------------------------------------------------
 # DSDPBEP86/AUG-cc-PVTZ SCF=Tight INT(grid=ultrafine) MaxDisk=60000MB
 ---------------------------------------------------------------------
 1/38=1,172=1/1;
 2/12=2,17=6,18=5,40=1/2;
 3/5=16,6=1,7=10,11=9,25=1,30=1,74=-77,75=-5/1,2,3;
 4//1;
 5/5=2,32=2,38=5/2;
 8/10=1/1;
 9/16=-3/6;
 6/7=2,8=2,9=2,10=2/1;
 99/5=1,9=1/99;
 ----------------------------
 NM2_c2.DSDPBEP86_AUG-cc-PVTZ
 ----------------------------
 Symbolic Z-matrix:
 Charge =  0 Multiplicity = 1
 C                    -5.84511   1.39561   0.2411 
 N                    -4.62737   0.71737   0.17948 
 C                    -3.35598   1.27974   0.07659 
 O                    -3.15263   2.4706   -0.00794 
 N                    -2.35453   0.34452   0.05028 
 C                    -0.96702   0.79158   0.05509 
 C                    -0.03103  -0.37726  -0.21468 
 C                     1.42867   0.06567  -0.2206 
 C                    -7.00947   0.61845   0.18978 
 C                    -8.26654   1.19267   0.25939 
 C                    -8.391     2.58227   0.39488 
 C                    -7.23153   3.34681   0.43911 
 C                    -5.96638   2.7804    0.36529 
 H                    -4.69465  -0.28138   0.0525 
 H                    -2.53557  -0.56589   0.44771 
 H                    -0.72007   1.27171   1.00932 
 H                    -0.86366   1.55299  -0.71954 
 H                    -0.29427  -0.83028  -1.17504 
 H                    -0.17614  -1.14901   0.55065 
 H                     1.60622   0.8194   -0.99124 
 H                     2.09599  -0.7746   -0.41711 
 H                     1.71362   0.49975   0.74069 
 H                    -6.92872  -0.4575    0.08654 
 H                    -5.08644   3.40323   0.39751 
 C                    -9.71721   3.29821   0.45612 
 C                    -9.45473   0.25608   0.22445 
 H                    -7.31302   4.42146   0.54049 
 F                    -10.59943   2.67474   1.24503 
 F                    -10.28029   3.42535  -0.75366 
 F                    -9.57242   4.54073   0.94181 
 F                    -9.10932  -0.94856  -0.26051 
 F                    -10.44089   0.71482  -0.54865 
 F                    -9.95678   0.04368   1.4468 
 
                          Input orientation:                          
 ---------------------------------------------------------------------
 Center     Atomic      Atomic             Coordinates (Angstroms)
 Number     Number       Type             X           Y           Z
 ---------------------------------------------------------------------
      1          6           0       -5.845111    1.395607    0.241100
      2          7           0       -4.627373    0.717373    0.179484
      3          6           0       -3.355976    1.279735    0.076591
      4          8           0       -3.152633    2.470603   -0.007944
      5          7           0       -2.354530    0.344521    0.050276
      6          6           0       -0.967021    0.791579    0.055090
      7          6           0       -0.031031   -0.377265   -0.214684
      8          6           0        1.428668    0.065668   -0.220604
      9          6           0       -7.009472    0.618452    0.189779
     10          6           0       -8.266535    1.192667    0.259393
     11          6           0       -8.390998    2.582269    0.394882
     12          6           0       -7.231532    3.346806    0.439113
     13          6           0       -5.966380    2.780403    0.365289
     14          1           0       -4.694646   -0.281376    0.052502
     15          1           0       -2.535570   -0.565894    0.447710
     16          1           0       -0.720071    1.271706    1.009319
     17          1           0       -0.863665    1.552994   -0.719538
     18          1           0       -0.294269   -0.830276   -1.175043
     19          1           0       -0.176137   -1.149006    0.550650
     20          1           0        1.606224    0.819402   -0.991236
     21          1           0        2.095988   -0.774604   -0.417105
     22          1           0        1.713617    0.499755    0.740694
     23          1           0       -6.928720   -0.457500    0.086542
     24          1           0       -5.086443    3.403229    0.397508
     25          6           0       -9.717205    3.298207    0.456124
     26          6           0       -9.454733    0.256084    0.224449
     27          1           0       -7.313019    4.421458    0.540493
     28          9           0      -10.599434    2.674736    1.245035
     29          9           0      -10.280288    3.425346   -0.753664
     30          9           0       -9.572420    4.540735    0.941809
     31          9           0       -9.109317   -0.948561   -0.260510
     32          9           0      -10.440895    0.714816   -0.548648
     33          9           0       -9.956782    0.043681    1.446804
 ---------------------------------------------------------------------
                    Distance matrix (angstroms):
                    1          2          3          4          5
     1  C    0.000000
     2  N    1.395236   0.000000
     3  C    2.497255   1.394019   0.000000
     4  O    2.909824   2.298652   1.211058   0.000000
     5  N    3.650391   2.306844   1.370479   2.271692   0.000000
     6  C    4.918863   3.663217   2.438414   2.756809   1.457760
     7  C    6.095437   4.741304   3.726359   4.230543   2.447412
     8  C    7.408763   6.104132   4.945210   5.178538   3.803120
     9  C    1.400836   2.384174   3.714585   4.283079   4.665082
    10  C    2.429983   3.670939   4.914732   5.277934   5.976194
    11  C    2.813068   4.205842   5.210504   5.255017   6.447109
    12  C    2.401780   3.709847   4.407283   4.195833   5.740214
    13  C    1.395632   2.466486   3.024824   2.855250   4.367862
    14  H    2.042404   1.009035   2.056620   3.155131   2.422374
    15  H    3.852692   2.468675   2.053568   3.131885   1.009745
    16  H    5.183777   4.032730   2.796075   2.896469   2.109713
    17  H    5.075668   3.958788   2.630609   2.566661   2.067776
    18  H    6.145882   4.796432   3.923364   4.519754   2.669500
    19  H    6.221587   4.840933   4.029254   4.719441   2.688195
    20  H    7.574501   6.343401   5.096626   5.132256   4.122843
    21  H    8.258578   6.912706   5.847047   6.184400   4.612808
    22  H    7.628008   6.369495   5.172057   5.303309   4.129236
    23  H    2.152232   2.585568   3.972730   4.779284   4.644111
    24  H    2.151879   2.733514   2.758030   2.184904   4.115776
    25  C    4.319633   5.713460   6.684573   6.632790   7.943423
    26  C    3.785256   4.849559   6.185836   6.683904   7.102890
    27  H    3.376413   4.589473   5.073837   4.627681   6.438039
    28  F    5.024703   6.374337   7.468532   7.554235   8.650768
    29  F    4.977970   6.337139   7.296511   7.229876   8.541396
    30  F    4.927033   6.297041   7.072970   6.811839   8.396486
    31  F    4.049911   4.801745   6.178987   6.872886   6.884461
    32  F    4.712579   5.858943   7.134853   7.516243   8.116965
    33  F    4.493023   5.519289   6.853900   7.369035   7.735310
                    6          7          8          9         10
     6  C    0.000000
     7  C    1.521529   0.000000
     8  C    2.518389   1.525432   0.000000
     9  C    6.046431   7.060715   8.466179   0.000000
    10  C    7.313380   8.397201   9.772282   1.383755   0.000000
    11  C    7.644440   8.889289  10.155685   2.409825   1.401728
    12  C    6.776486   8.132858   9.284404   2.748707   2.396632
    13  C    5.389363   6.748008   7.899354   2.406840   2.796933
    14  H    3.878972   4.672247   6.139218   2.487360   3.869626
    15  H    2.111215   2.597511   4.069484   4.635192   5.997663
    16  H    1.096384   2.166117   2.753964   6.376123   7.584046
    17  H    1.091093   2.161957   2.777745   6.282609   7.476004
    18  H    2.143883   1.093985   2.163835   7.003964   8.349068
    19  H    2.153357   1.096529   2.155381   7.067432   8.427503
    20  H    2.777978   2.171554   1.092481   8.698586   9.958654
    21  H    3.472452   2.173261   1.090864   9.231377  10.569281
    22  H    2.782271   2.173868   1.092575   8.741274  10.015748
    23  H    6.091227   6.904730   8.379378   1.083906   2.131356
    24  H    4.889540   6.342248   7.346295   3.390601   3.875390
    25  C    9.110968  10.381765  11.624877   3.818880   2.564458
    26  C    8.506274   9.455165  10.894162   2.472209   1.513349
    27  H    7.326891   8.753593   9.796391   3.831187   3.378358
    28  F    9.886639  11.096695  12.394780   4.269624   2.934354
    29  F    9.712248  10.945210  12.193082   4.412140   3.172750
    30  F    9.428432  10.796403  11.933205   4.745372   3.657948
    31  F    8.332147   9.096360  10.586755   2.658503   2.359118
    32  F    9.493401  10.472318  11.891826   3.511299   2.368356
    33  F    9.127541  10.072650  11.506919   3.255319   2.363693
                   11         12         13         14         15
    11  C    0.000000
    12  C    1.389544   0.000000
    13  C    2.432880   1.388118   0.000000
    14  H    4.688359   4.443981   3.330111   0.000000
    15  H    6.648289   6.112393   4.793219   2.213311   0.000000
    16  H    7.806294   6.857864   5.496790   4.373191   2.643523
    17  H    7.678677   6.716395   5.359206   4.317103   2.940650
    18  H    8.925646   8.257066   6.898005   4.601247   2.779687
    19  H    9.023891   8.366801   7.000109   4.627942   2.432600
    20  H   10.245656   9.302667   7.939145   6.480900   4.598268
    21  H   11.041050  10.233365   8.846016   6.824699   4.716227
    22  H   10.322775   9.392142   8.020264   6.492272   4.390562
    23  H    3.387259   3.832590   3.389368   2.241265   4.409304
    24  H    3.405006   2.146234   1.078535   3.721404   4.718411
    25  C    1.508358   2.486206   3.787487   6.180811   8.155196
    26  C    2.563537   3.813302   4.308206   4.793419   6.971392
    27  H    2.136786   1.082495   2.130069   5.404689   6.906975
    28  F    2.368227   3.527598   4.717023   6.710235   8.727159
    29  F    2.366295   3.274721   4.503089   6.751970   8.795109
    30  F    2.351697   2.675430   4.053969   6.916380   8.708562
    31  F    3.662278   4.739802   4.916793   4.475761   6.622852
    32  F    2.929114   4.266503   5.012306   5.862862   8.070136
    33  F    3.162696   4.399211   4.958087   5.453422   7.512932
                   16         17         18         19         20
    16  H    0.000000
    17  H    1.757466   0.000000
    18  H    3.061220   2.492323   0.000000
    19  H    2.523111   3.063801   1.758852   0.000000
    20  H    3.101362   2.590817   2.523311   3.070644   0.000000
    21  H    3.761949   3.777396   2.508166   2.497856   1.763618
    22  H    2.567276   3.143878   3.077439   2.515094   1.764451
    23  H    6.510683   6.440244   6.763616   6.803746   8.696974
    24  H    4.897234   4.743734   6.584863   6.697566   7.307296
    25  C    9.239110   9.100172  10.416180  10.527042  11.681583
    26  C    8.828467   8.739539   9.330213   9.390049  11.141813
    27  H    7.321728   7.170072   8.932336   9.053467   9.740324
    28  F    9.981275   9.995151  11.150709  11.124221  12.546763
    29  F    9.957109   9.601024  10.863170  11.167802  12.171137
    30  F    9.436905   9.355698  10.927622  10.991646  11.939308
    31  F    8.770490   8.628979   8.863151   8.972172  10.884966
    32  F    9.860618   9.615356  10.282689  10.490354  12.055700
    33  F    9.328250   9.468676  10.049977   9.893765  11.842672
                   21         22         23         24         25
    21  H    0.000000
    22  H    1.763717   0.000000
    23  H    9.044312   8.719761   0.000000
    24  H    8.348964   7.401942   4.289045   0.000000
    25  C   12.526047  11.771831   4.692288   4.632324   0.000000
    26  C   11.614348  11.182930   2.628490   5.386690   3.062202
    27  H   10.790990   9.843779   4.915077   2.452525   2.654980
    28  F   13.260256  12.513837   4.962574   5.625129   1.337694
    29  F   13.073831  12.435672   5.197639   5.319935   1.340453
    30  F   12.893844  11.989353   5.718652   4.659847   1.341912
    31  F   11.207750  10.965215   2.261988   5.962766   4.349497
    32  F   12.625732  12.224598   3.756748   6.065717   2.864821
    33  F   12.223461  11.700632   3.357179   6.008974   3.410393
                   26         27         28         29         30
    26  C    0.000000
    27  H    4.694376   0.000000
    28  F    2.863881   3.787867   0.000000
    29  F    3.417963   3.386999   2.158719   0.000000
    30  F    4.345882   2.297863   2.151431   2.149371   0.000000
    31  F    1.343751   5.718863   4.197069   4.554716   5.638475
    32  F    1.334402   4.970817   2.661526   2.723013   4.196828
    33  F    1.338401   5.193824   2.715908   4.047514   4.541612
                   31         32         33
    31  F    0.000000
    32  F    2.150103   0.000000
    33  F    2.148875   2.160235   0.000000
 Stoichiometry    C12H12F6N2O
 Framework group  C1[X(C12H12F6N2O)]
 Deg. of freedom    93
 Full point group                 C1      NOp   1
 Largest Abelian subgroup         C1      NOp   1
 Largest concise Abelian subgroup C1      NOp   1
                         Standard orientation:                         
 ---------------------------------------------------------------------
 Center     Atomic      Atomic             Coordinates (Angstroms)
 Number     Number       Type             X           Y           Z
 ---------------------------------------------------------------------
      1          6           0        0.565523   -0.043546   -0.051216
      2          7           0        1.883148    0.414358   -0.080751
      3          6           0        3.042573   -0.353770    0.014120
      4          8           0        3.042266   -1.554390    0.172782
      5          7           0        4.189796    0.392248   -0.060377
      6          6           0        5.478121   -0.289424   -0.085038
      7          6           0        6.612680    0.712543    0.069526
      8          6           0        7.973260    0.022991    0.052652
      9          6           0       -0.444334    0.926459   -0.010994
     10          6           0       -1.783180    0.577148    0.004856
     11          6           0       -2.150679   -0.775092   -0.030243
     12          6           0       -1.143133   -1.731408   -0.064085
     13          6           0        0.202532   -1.390928   -0.075496
     14          1           0        1.994477    1.415409   -0.020299
     15          1           0        4.148948    1.294170   -0.512540
     16          1           0        5.593085   -0.862870   -1.012400
     17          1           0        5.486136   -1.008233    0.735775
     18          1           0        6.477326    1.262558    1.005457
     19          1           0        6.565799    1.449352   -0.741209
     20          1           0        8.055415   -0.701456    0.866249
     21          1           0        8.783540    0.744423    0.166525
     22          1           0        8.133181   -0.512270   -0.886305
     23          1           0       -0.175232    1.976104    0.015087
     24          1           0        0.959925   -2.158480   -0.096909
     25          6           0       -3.581492   -1.251107    0.006207
     26          6           0       -2.789907    1.706987    0.018670
     27          1           0       -1.412647   -2.779533   -0.088377
     28          9           0       -4.380276   -0.532879   -0.790985
     29          9           0       -4.099563   -1.203640    1.241586
     30          9           0       -3.675543   -2.527252   -0.397942
     31          9           0       -2.220039    2.860350    0.406832
     32          9           0       -3.802083    1.475596    0.856874
     33          9           0       -3.305882    1.928335   -1.196276
 ---------------------------------------------------------------------
 Rotational constants (GHZ):           0.6929654           0.1113146           0.0994739
 Standard basis: Aug-CC-pVTZ (5D, 7F)
 There are  1455 symmetry adapted cartesian basis functions of A   symmetry.
 There are  1242 symmetry adapted basis functions of A   symmetry.
  1242 basis functions,  1836 primitive gaussians,  1455 cartesian basis functions
    80 alpha electrons       80 beta electrons
       nuclear repulsion energy      1765.1482473473 Hartrees.
 NAtoms=   33 NActive=   33 NUniq=   33 SFac= 1.00D+00 NAtFMM=   60 NAOKFM=F Big=F
 Integral buffers will be    131072 words long.
 Regular integral format.
 Two-electron integral symmetry is turned on.
 Nuclear repulsion after empirical dispersion term =     1765.1243663446 Hartrees.
 One-electron integrals computed using PRISM.
 NBasis=  1242 RedAO= T EigKep=  1.20D-06  NBF=  1242
 NBsUse=  1238 1.00D-06 EigRej=  7.29D-07 NBFU=  1238
 ExpMin= 2.53D-02 ExpMax= 1.95D+04 ExpMxC= 6.65D+02 IAcc=3 IRadAn=         5 AccDes= 0.00D+00
 Harris functional with IExCor= 1004 and IRadAn=       5 diagonalized for initial guess.
 HarFok:  IExCor= 1004 AccDes= 0.00D+00 IRadAn=         5 IDoV= 1 UseB2=F ITyADJ=14
 ICtDFT=  3500011 ScaDFX=  1.000000  1.000000  1.000000  1.000000
 FoFCou: FMM=F IPFlag=           0 FMFlag=      100000 FMFlg1=           0
         NFxFlg=           0 DoJE=T BraDBF=F KetDBF=T FulRan=T
         wScrn=  0.000000 ICntrl=       500 IOpCl=  0 I1Cent=   200000004 NGrid=           0
         NMat0=    1 NMatS0=      1 NMatT0=    0 NMatD0=    1 NMtDS0=    0 NMtDT0=    0
 Petite list used in FoFCou.
 Requested convergence on RMS density matrix=1.00D-08 within 128 cycles.
 Requested convergence on MAX density matrix=1.00D-06.
 Requested convergence on             energy=1.00D-06.
 No special actions if energy rises.
 SCF Done:  E(RDSDPBEP86) =  -1244.84181660     A.U. after   13 cycles
            NFock= 13  Conv=0.75D-08     -V/T= 2.0031
 DoSCS=T DFT=T ScalE2(SS,OS)=  0.220000  0.520000
 ExpMin= 2.53D-02 ExpMax= 1.95D+04 ExpMxC= 6.65D+02 IAcc=3 IRadAn=         5 AccDes= 0.00D+00
 HarFok:  IExCor=  205 AccDes= 0.00D+00 IRadAn=         5 IDoV=-2 UseB2=F ITyADJ=14
 ICtDFT= 12500011 ScaDFX=  1.000000  1.000000  1.000000  1.000000
 GSVD:  LWork=        -609 too small for GESVD, short by        2520 words or        2520 for optimal perf.
 Range of M.O.s used for correlation:    22  1238
 NBasis=  1242 NAE=    80 NBE=    80 NFC=    21 NFV=     0
 NROrb=   1217 NOA=    59 NOB=    59 NVA=  1158 NVB=  1158

 **** Warning!!: The largest alpha MO coefficient is  0.11228579D+03

 DoSCS=T DFT=T ScalE2(SS,OS)=  0.220000  0.520000
 Fully direct method using O(OVN) memory.
 JobTyp=1 Pass  1:  I=   1 to  59 NPSUse=  8 ParTrn=T ParDer=T DoDerP=F.
 Spin components of T(2) and E(2):
     alpha-alpha T2 =       0.1939827389D+00 E2=     -0.1338516001D+00
     alpha-beta  T2 =       0.1001631841D+01 E2=     -0.1781282469D+01
     beta-beta   T2 =       0.1939827389D+00 E2=     -0.1338516001D+00
 E2(DSDPBEP86) =    -0.2048985669D+01 E(DSDPBEP86) =    -0.12468908022715D+04

 **********************************************************************

            Population analysis using the SCF Density.

 **********************************************************************

 Orbital symmetries:
       Occupied  (A) (A) (A) (A) (A) (A) (A) (A) (A) (A) (A) (A)
                 (A) (A) (A) (A) (A) (A) (A) (A) (A) (A) (A) (A)
                 (A) (A) (A) (A) (A) (A) (A) (A) (A) (A) (A) (A)
                 (A) (A) (A) (A) (A) (A) (A) (A) (A) (A) (A) (A)
                 (A) (A) (A) (A) (A) (A) (A) (A) (A) (A) (A) (A)
                 (A) (A) (A) (A) (A) (A) (A) (A) (A) (A) (A) (A)
                 (A) (A) (A) (A) (A) (A) (A) (A)
       Virtual   (A) (A) (A) (A) (A) (A) (A) (A) (A) (A) (A) (A)
                 (A) (A) (A) (A) (A) (A) (A) (A) (A) (A) (A) (A)
                 (A) (A) (A) (A) (A) (A) (A) (A) (A) (A) (A) (A)
                 (A) (A) (A) (A) (A) (A) (A) (A) (A) (A) (A) (A)
                 (A) (A) (A) (A) (A) (A) (A) (A) (A) (A) (A) (A)
                 (A) (A) (A) (A) (A) (A) (A) (A) (A) (A) (A) (A)
                 (A) (A) (A) (A) (A) (A) (A) (A) (A) (A) (A) (A)
                 (A) (A) (A) (A) (A) (A) (A) (A) (A) (A) (A) (A)
                 (A) (A) (A) (A) (A) (A) (A) (A) (A) (A) (A) (A)
                 (A) (A) (A) (A) (A) (A) (A) (A) (A) (A) (A) (A)
                 (A) (A) (A) (A) (A) (A) (A) (A) (A) (A) (A) (A)
                 (A) (A) (A) (A) (A) (A) (A) (A) (A) (A) (A) (A)
                 (A) (A) (A) (A) (A) (A) (A) (A) (A) (A) (A) (A)
                 (A) (A) (A) (A) (A) (A) (A) (A) (A) (A) (A) (A)
                 (A) (A) (A) (A) (A) (A) (A) (A) (A) (A) (A) (A)
                 (A) (A) (A) (A) (A) (A) (A) (A) (A) (A) (A) (A)
                 (A) (A) (A) (A) (A) (A) (A) (A) (A) (A) (A) (A)
                 (A) (A) (A) (A) (A) (A) (A) (A) (A) (A) (A) (A)
                 (A) (A) (A) (A) (A) (A) (A) (A) (A) (A) (A) (A)
                 (A) (A) (A) (A) (A) (A) (A) (A) (A) (A) (A) (A)
                 (A) (A) (A) (A) (A) (A) (A) (A) (A) (A) (A) (A)
                 (A) (A) (A) (A) (A) (A) (A) (A) (A) (A) (A) (A)
                 (A) (A) (A) (A) (A) (A) (A) (A) (A) (A) (A) (A)
                 (A) (A) (A) (A) (A) (A) (A) (A) (A) (A) (A) (A)
                 (A) (A) (A) (A) (A) (A) (A) (A) (A) (A) (A) (A)
                 (A) (A) (A) (A) (A) (A) (A) (A) (A) (A) (A) (A)
                 (A) (A) (A) (A) (A) (A) (A) (A) (A) (A) (A) (A)
                 (A) (A) (A) (A) (A) (A) (A) (A) (A) (A) (A) (A)
                 (A) (A) (A) (A) (A) (A) (A) (A) (A) (A) (A) (A)
                 (A) (A) (A) (A) (A) (A) (A) (A) (A) (A) (A) (A)
                 (A) (A) (A) (A) (A) (A) (A) (A) (A) (A) (A) (A)
                 (A) (A) (A) (A) (A) (A) (A) (A) (A) (A) (A) (A)
                 (A) (A) (A) (A) (A) (A) (A) (A) (A) (A) (A) (A)
                 (A) (A) (A) (A) (A) (A) (A) (A) (A) (A) (A) (A)
                 (A) (A) (A) (A) (A) (A) (A) (A) (A) (A) (A) (A)
                 (A) (A) (A) (A) (A) (A) (A) (A) (A) (A) (A) (A)
                 (A) (A) (A) (A) (A) (A) (A) (A) (A) (A) (A) (A)
                 (A) (A) (A) (A) (A) (A) (A) (A) (A) (A) (A) (A)
                 (A) (A) (A) (A) (A) (A) (A) (A) (A) (A) (A) (A)
                 (A) (A) (A) (A) (A) (A) (A) (A) (A) (A) (A) (A)
                 (A) (A) (A) (A) (A) (A) (A) (A) (A) (A) (A) (A)
                 (A) (A) (A) (A) (A) (A) (A) (A) (A) (A) (A) (A)
                 (A) (A) (A) (A) (A) (A) (A) (A) (A) (A) (A) (A)
                 (A) (A) (A) (A) (A) (A) (A) (A) (A) (A) (A) (A)
                 (A) (A) (A) (A) (A) (A) (A) (A) (A) (A) (A) (A)
                 (A) (A) (A) (A) (A) (A) (A) (A) (A) (A) (A) (A)
                 (A) (A) (A) (A) (A) (A) (A) (A) (A) (A) (A) (A)
                 (A) (A) (A) (A) (A) (A) (A) (A) (A) (A) (A) (A)
                 (A) (A) (A) (A) (A) (A) (A) (A) (A) (A) (A) (A)
                 (A) (A) (A) (A) (A) (A) (A) (A) (A) (A) (A) (A)
                 (A) (A) (A) (A) (A) (A) (A) (A) (A) (A) (A) (A)
                 (A) (A) (A) (A) (A) (A) (A) (A) (A) (A) (A) (A)
                 (A) (A) (A) (A) (A) (A) (A) (A) (A) (A) (A) (A)
                 (A) (A) (A) (A) (A) (A) (A) (A) (A) (A) (A) (A)
                 (A) (A) (A) (A) (A) (A) (A) (A) (A) (A) (A) (A)
                 (A) (A) (A) (A) (A) (A) (A) (A) (A) (A) (A) (A)
                 (A) (A) (A) (A) (A) (A) (A) (A) (A) (A) (A) (A)
                 (A) (A) (A) (A) (A) (A) (A) (A) (A) (A) (A) (A)
                 (A) (A) (A) (A) (A) (A) (A) (A) (A) (A) (A) (A)
                 (A) (A) (A) (A) (A) (A) (A) (A) (A) (A) (A) (A)
                 (A) (A) (A) (A) (A) (A) (A) (A) (A) (A) (A) (A)
                 (A) (A) (A) (A) (A) (A) (A) (A) (A) (A) (A) (A)
                 (A) (A) (A) (A) (A) (A) (A) (A) (A) (A) (A) (A)
                 (A) (A) (A) (A) (A) (A) (A) (A) (A) (A) (A) (A)
                 (A) (A) (A) (A) (A) (A) (A) (A) (A) (A) (A) (A)
                 (A) (A) (A) (A) (A) (A) (A) (A) (A) (A) (A) (A)
                 (A) (A) (A) (A) (A) (A) (A) (A) (A) (A) (A) (A)
                 (A) (A) (A) (A) (A) (A) (A) (A) (A) (A) (A) (A)
                 (A) (A) (A) (A) (A) (A) (A) (A) (A) (A) (A) (A)
                 (A) (A) (A) (A) (A) (A) (A) (A) (A) (A) (A) (A)
                 (A) (A) (A) (A) (A) (A) (A) (A) (A) (A) (A) (A)
                 (A) (A) (A) (A) (A) (A) (A) (A) (A) (A) (A) (A)
                 (A) (A) (A) (A) (A) (A) (A) (A) (A) (A) (A) (A)
                 (A) (A) (A) (A) (A) (A) (A) (A) (A) (A) (A) (A)
                 (A) (A) (A) (A) (A) (A) (A) (A) (A) (A) (A) (A)
                 (A) (A) (A) (A) (A) (A) (A) (A) (A) (A) (A) (A)
                 (A) (A) (A) (A) (A) (A) (A) (A) (A) (A) (A) (A)
                 (A) (A) (A) (A) (A) (A) (A) (A) (A) (A) (A) (A)
                 (A) (A) (A) (A) (A) (A) (A) (A) (A) (A) (A) (A)
                 (A) (A) (A) (A) (A) (A) (A) (A) (A) (A) (A) (A)
                 (A) (A) (A) (A) (A) (A) (A) (A) (A) (A) (A) (A)
                 (A) (A) (A) (A) (A) (A) (A) (A) (A) (A) (A) (A)
                 (A) (A) (A) (A) (A) (A) (A) (A) (A) (A) (A) (A)
                 (A) (A) (A) (A) (A) (A) (A) (A) (A) (A) (A) (A)
                 (A) (A) (A) (A) (A) (A) (A) (A) (A) (A) (A) (A)
                 (A) (A) (A) (A) (A) (A) (A) (A) (A) (A) (A) (A)
                 (A) (A) (A) (A) (A) (A) (A) (A) (A) (A) (A) (A)
                 (A) (A) (A) (A) (A) (A) (A) (A) (A) (A) (A) (A)
                 (A) (A) (A) (A) (A) (A) (A) (A) (A) (A) (A) (A)
                 (A) (A) (A) (A) (A) (A) (A) (A) (A) (A) (A) (A)
                 (A) (A) (A) (A) (A) (A) (A) (A) (A) (A) (A) (A)
                 (A) (A) (A) (A) (A) (A) (A) (A) (A) (A) (A) (A)
                 (A) (A) (A) (A) (A) (A) (A) (A) (A) (A) (A) (A)
                 (A) (A) (A) (A) (A) (A) (A) (A) (A) (A) (A) (A)
                 (A) (A) (A) (A) (A) (A) (A) (A) (A) (A) (A) (A)
                 (A) (A) (A) (A) (A) (A) (A) (A) (A) (A) (A) (A)
                 (A) (A) (A) (A) (A) (A)
 The electronic state is 1-A.
 Alpha  occ. eigenvalues --  -25.71682 -25.71334 -25.71116 -25.71008 -25.70756
 Alpha  occ. eigenvalues --  -25.70451 -19.98597 -15.14263 -15.11998 -11.09495
 Alpha  occ. eigenvalues --  -11.08854 -10.97997 -10.90701 -10.87966 -10.86649
 Alpha  occ. eigenvalues --  -10.86284 -10.85760 -10.85547 -10.84201 -10.83326
 Alpha  occ. eigenvalues --  -10.81927  -1.58294  -1.57486  -1.48846  -1.48523
 Alpha  occ. eigenvalues --   -1.48094  -1.47783  -1.29569  -1.17161  -1.13447
 Alpha  occ. eigenvalues --   -1.08243  -0.98469  -0.97716  -0.96350  -0.89543
 Alpha  occ. eigenvalues --   -0.87202  -0.85172  -0.80621  -0.79719  -0.76127
 Alpha  occ. eigenvalues --   -0.75498  -0.74574  -0.74421  -0.73924  -0.73432
 Alpha  occ. eigenvalues --   -0.73210  -0.70203  -0.69278  -0.64918  -0.62881
 Alpha  occ. eigenvalues --   -0.62789  -0.61984  -0.61945  -0.61390  -0.60327
 Alpha  occ. eigenvalues --   -0.59669  -0.58951  -0.58395  -0.57615  -0.57331
 Alpha  occ. eigenvalues --   -0.57247  -0.56585  -0.56153  -0.55941  -0.55551
 Alpha  occ. eigenvalues --   -0.54351  -0.53080  -0.52711  -0.51254  -0.49243
 Alpha  occ. eigenvalues --   -0.48923  -0.47627  -0.47260  -0.45202  -0.44558
 Alpha  occ. eigenvalues --   -0.42706  -0.39971  -0.36899  -0.34858  -0.30897
 Alpha virt. eigenvalues --    0.00098   0.01445   0.02223   0.02356   0.02441
 Alpha virt. eigenvalues --    0.03129   0.03287   0.03472   0.04473   0.04758
 Alpha virt. eigenvalues --    0.04907   0.05200   0.05998   0.06416   0.06582
 Alpha virt. eigenvalues --    0.06898   0.07038   0.07386   0.08232   0.08503
 Alpha virt. eigenvalues --    0.08697   0.09340   0.09549   0.09613   0.09895
 Alpha virt. eigenvalues --    0.10234   0.10652   0.11016   0.11192   0.11577
 Alpha virt. eigenvalues --    0.11647   0.12299   0.12601   0.12859   0.12977
 Alpha virt. eigenvalues --    0.13248   0.13538   0.13835   0.14001   0.14414
 Alpha virt. eigenvalues --    0.14660   0.15153   0.15461   0.16012   0.16353
 Alpha virt. eigenvalues --    0.16635   0.16879   0.17003   0.17372   0.17565
 Alpha virt. eigenvalues --    0.18019   0.18132   0.18584   0.18834   0.19262
 Alpha virt. eigenvalues --    0.19610   0.19824   0.20145   0.20689   0.21146
 Alpha virt. eigenvalues --    0.21590   0.21693   0.21869   0.22641   0.22738
 Alpha virt. eigenvalues --    0.22819   0.23106   0.23337   0.23651   0.23923
 Alpha virt. eigenvalues --    0.24283   0.24524   0.24844   0.25503   0.25757
 Alpha virt. eigenvalues --    0.25863   0.26236   0.26300   0.27088   0.27302
 Alpha virt. eigenvalues --    0.27609   0.27785   0.28008   0.28358   0.28436
 Alpha virt. eigenvalues --    0.28520   0.28781   0.29366   0.29630   0.29858
 Alpha virt. eigenvalues --    0.30214   0.30304   0.30435   0.30580   0.31094
 Alpha virt. eigenvalues --    0.31145   0.31326   0.31615   0.31791   0.32360
 Alpha virt. eigenvalues --    0.32428   0.32695   0.32868   0.33341   0.33695
 Alpha virt. eigenvalues --    0.34073   0.34129   0.34650   0.34908   0.35114
 Alpha virt. eigenvalues --    0.35369   0.35434   0.35858   0.36012   0.36255
 Alpha virt. eigenvalues --    0.36397   0.36793   0.37173   0.37398   0.37560
 Alpha virt. eigenvalues --    0.37883   0.38155   0.38266   0.38386   0.38940
 Alpha virt. eigenvalues --    0.39174   0.39499   0.39599   0.39842   0.40015
 Alpha virt. eigenvalues --    0.40543   0.40736   0.40910   0.41108   0.41247
 Alpha virt. eigenvalues --    0.41670   0.41981   0.42172   0.42484   0.42584
 Alpha virt. eigenvalues --    0.42717   0.43135   0.43349   0.43553   0.43841
 Alpha virt. eigenvalues --    0.44426   0.44778   0.44988   0.45135   0.45593
 Alpha virt. eigenvalues --    0.45700   0.46368   0.46542   0.46771   0.47302
 Alpha virt. eigenvalues --    0.47392   0.47791   0.48075   0.48310   0.48664
 Alpha virt. eigenvalues --    0.48983   0.49139   0.49401   0.49638   0.50119
 Alpha virt. eigenvalues --    0.50253   0.50554   0.50803   0.50920   0.51397
 Alpha virt. eigenvalues --    0.51590   0.51755   0.52230   0.52477   0.52958
 Alpha virt. eigenvalues --    0.53234   0.53570   0.53885   0.54116   0.54355
 Alpha virt. eigenvalues --    0.54580   0.55044   0.55819   0.55972   0.56375
 Alpha virt. eigenvalues --    0.56570   0.57211   0.57634   0.58080   0.58521
 Alpha virt. eigenvalues --    0.58876   0.58914   0.59668   0.59892   0.60473
 Alpha virt. eigenvalues --    0.60803   0.61093   0.61663   0.62223   0.62806
 Alpha virt. eigenvalues --    0.63043   0.63389   0.64059   0.64466   0.64777
 Alpha virt. eigenvalues --    0.65148   0.65314   0.65600   0.65752   0.66186
 Alpha virt. eigenvalues --    0.67010   0.67451   0.67792   0.68071   0.68450
 Alpha virt. eigenvalues --    0.69057   0.69583   0.69666   0.70891   0.71351
 Alpha virt. eigenvalues --    0.71800   0.71996   0.73096   0.73467   0.73629
 Alpha virt. eigenvalues --    0.74033   0.74209   0.74349   0.74968   0.75371
 Alpha virt. eigenvalues --    0.75979   0.76131   0.76811   0.77124   0.77749
 Alpha virt. eigenvalues --    0.77905   0.78089   0.78245   0.79231   0.79371
 Alpha virt. eigenvalues --    0.80265   0.80525   0.80856   0.81227   0.81683
 Alpha virt. eigenvalues --    0.82206   0.82356   0.82748   0.83492   0.83657
 Alpha virt. eigenvalues --    0.83794   0.84108   0.84515   0.84664   0.84968
 Alpha virt. eigenvalues --    0.85040   0.85381   0.85602   0.86157   0.86459
 Alpha virt. eigenvalues --    0.86991   0.87248   0.87807   0.88161   0.88392
 Alpha virt. eigenvalues --    0.88957   0.89180   0.89387   0.89644   0.90118
 Alpha virt. eigenvalues --    0.90290   0.90646   0.91162   0.91801   0.92044
 Alpha virt. eigenvalues --    0.92407   0.92694   0.93034   0.93456   0.94108
 Alpha virt. eigenvalues --    0.94595   0.94816   0.95017   0.95604   0.96132
 Alpha virt. eigenvalues --    0.96466   0.97126   0.97365   0.97808   0.98092
 Alpha virt. eigenvalues --    0.98293   0.98636   0.99079   0.99716   0.99931
 Alpha virt. eigenvalues --    1.00701   1.00855   1.00893   1.01597   1.01893
 Alpha virt. eigenvalues --    1.02104   1.02366   1.02600   1.02965   1.03399
 Alpha virt. eigenvalues --    1.03753   1.04230   1.04580   1.05035   1.05753
 Alpha virt. eigenvalues --    1.05820   1.06148   1.06685   1.06921   1.07177
 Alpha virt. eigenvalues --    1.07401   1.07999   1.08281   1.08603   1.09086
 Alpha virt. eigenvalues --    1.09225   1.09540   1.09692   1.10339   1.10567
 Alpha virt. eigenvalues --    1.10913   1.11171   1.11788   1.12150   1.12352
 Alpha virt. eigenvalues --    1.12661   1.13296   1.13830   1.14071   1.14305
 Alpha virt. eigenvalues --    1.15320   1.15434   1.15567   1.15785   1.15929
 Alpha virt. eigenvalues --    1.16502   1.16794   1.17316   1.18070   1.18344
 Alpha virt. eigenvalues --    1.18752   1.19370   1.19570   1.19818   1.20195
 Alpha virt. eigenvalues --    1.21061   1.21337   1.21733   1.22263   1.22600
 Alpha virt. eigenvalues --    1.22963   1.23139   1.23332   1.23949   1.24224
 Alpha virt. eigenvalues --    1.24814   1.24990   1.25159   1.26080   1.26748
 Alpha virt. eigenvalues --    1.27074   1.27406   1.27877   1.28250   1.28641
 Alpha virt. eigenvalues --    1.29075   1.29330   1.29669   1.29944   1.30430
 Alpha virt. eigenvalues --    1.30892   1.31511   1.31796   1.32341   1.32547
 Alpha virt. eigenvalues --    1.32725   1.33574   1.33887   1.34027   1.34781
 Alpha virt. eigenvalues --    1.35069   1.35745   1.35892   1.36197   1.36360
 Alpha virt. eigenvalues --    1.37224   1.37312   1.37684   1.37961   1.38341
 Alpha virt. eigenvalues --    1.38773   1.39108   1.39402   1.40601   1.41188
 Alpha virt. eigenvalues --    1.41592   1.41975   1.42408   1.42433   1.42869
 Alpha virt. eigenvalues --    1.43869   1.44541   1.44899   1.45284   1.45525
 Alpha virt. eigenvalues --    1.46039   1.46880   1.47168   1.47657   1.47979
 Alpha virt. eigenvalues --    1.48487   1.49194   1.49545   1.50204   1.50583
 Alpha virt. eigenvalues --    1.51312   1.52053   1.52613   1.52996   1.53045
 Alpha virt. eigenvalues --    1.53904   1.54437   1.55208   1.55473   1.55564
 Alpha virt. eigenvalues --    1.55880   1.56819   1.57391   1.57609   1.57942
 Alpha virt. eigenvalues --    1.58574   1.58939   1.59387   1.60091   1.60446
 Alpha virt. eigenvalues --    1.61089   1.62113   1.62343   1.62458   1.62707
 Alpha virt. eigenvalues --    1.62916   1.63781   1.63923   1.64426   1.64746
 Alpha virt. eigenvalues --    1.65665   1.65836   1.66096   1.66630   1.67493
 Alpha virt. eigenvalues --    1.67703   1.68179   1.68394   1.68825   1.69328
 Alpha virt. eigenvalues --    1.70074   1.70507   1.71034   1.71725   1.71851
 Alpha virt. eigenvalues --    1.72585   1.73002   1.73408   1.74187   1.74466
 Alpha virt. eigenvalues --    1.74530   1.75051   1.75613   1.76904   1.77079
 Alpha virt. eigenvalues --    1.77551   1.77749   1.78291   1.78894   1.79639
 Alpha virt. eigenvalues --    1.79786   1.81312   1.82175   1.82341   1.82617
 Alpha virt. eigenvalues --    1.83489   1.83508   1.84018   1.85113   1.85416
 Alpha virt. eigenvalues --    1.85603   1.86186   1.86407   1.86583   1.86726
 Alpha virt. eigenvalues --    1.87396   1.87884   1.88375   1.88604   1.88977
 Alpha virt. eigenvalues --    1.89952   1.89961   1.91636   1.91837   1.92529
 Alpha virt. eigenvalues --    1.93437   1.93502   1.94090   1.94443   1.94785
 Alpha virt. eigenvalues --    1.95036   1.95566   1.96153   1.97334   1.97489
 Alpha virt. eigenvalues --    1.98257   1.98823   1.99202   1.99494   2.00305
 Alpha virt. eigenvalues --    2.00548   2.00588   2.01543   2.01783   2.02814
 Alpha virt. eigenvalues --    2.03697   2.04001   2.04300   2.04774   2.05529
 Alpha virt. eigenvalues --    2.05992   2.07570   2.07822   2.09331   2.10095
 Alpha virt. eigenvalues --    2.10604   2.10721   2.11704   2.12897   2.13648
 Alpha virt. eigenvalues --    2.14209   2.14726   2.15518   2.16009   2.16439
 Alpha virt. eigenvalues --    2.17180   2.17719   2.18998   2.19019   2.19693
 Alpha virt. eigenvalues --    2.20607   2.21188   2.21572   2.21815   2.23619
 Alpha virt. eigenvalues --    2.24040   2.25499   2.25709   2.26369   2.27085
 Alpha virt. eigenvalues --    2.28308   2.29406   2.29756   2.30257   2.30489
 Alpha virt. eigenvalues --    2.32387   2.33274   2.33753   2.34229   2.34663
 Alpha virt. eigenvalues --    2.35508   2.36265   2.37108   2.37211   2.38188
 Alpha virt. eigenvalues --    2.38528   2.39793   2.41088   2.42259   2.43038
 Alpha virt. eigenvalues --    2.43581   2.44241   2.45400   2.46375   2.47570
 Alpha virt. eigenvalues --    2.48582   2.49214   2.49629   2.50099   2.50671
 Alpha virt. eigenvalues --    2.51180   2.52861   2.53383   2.54902   2.55836
 Alpha virt. eigenvalues --    2.57043   2.57759   2.58470   2.59955   2.60979
 Alpha virt. eigenvalues --    2.62091   2.62302   2.64788   2.65150   2.66722
 Alpha virt. eigenvalues --    2.67171   2.67625   2.69687   2.70018   2.70741
 Alpha virt. eigenvalues --    2.72276   2.72710   2.73765   2.74200   2.75298
 Alpha virt. eigenvalues --    2.75422   2.76962   2.77719   2.78005   2.78628
 Alpha virt. eigenvalues --    2.78968   2.80398   2.81823   2.82060   2.82602
 Alpha virt. eigenvalues --    2.84682   2.85430   2.85766   2.87022   2.87200
 Alpha virt. eigenvalues --    2.87587   2.88452   2.89695   2.89908   2.91232
 Alpha virt. eigenvalues --    2.91432   2.92433   2.93338   2.93850   2.94704
 Alpha virt. eigenvalues --    2.95740   2.96376   2.96964   2.97576   2.99147
 Alpha virt. eigenvalues --    2.99759   3.00471   3.01306   3.02581   3.03011
 Alpha virt. eigenvalues --    3.03851   3.04947   3.05603   3.06719   3.07863
 Alpha virt. eigenvalues --    3.08241   3.09012   3.09388   3.10126   3.10494
 Alpha virt. eigenvalues --    3.10620   3.11828   3.12950   3.13470   3.14231
 Alpha virt. eigenvalues --    3.15945   3.17363   3.18356   3.19294   3.19739
 Alpha virt. eigenvalues --    3.21201   3.21727   3.22390   3.24121   3.24580
 Alpha virt. eigenvalues --    3.24697   3.25727   3.26073   3.26848   3.27460
 Alpha virt. eigenvalues --    3.27849   3.28441   3.28617   3.29603   3.29807
 Alpha virt. eigenvalues --    3.30499   3.30934   3.32342   3.32925   3.33633
 Alpha virt. eigenvalues --    3.34187   3.34427   3.35092   3.35552   3.36136
 Alpha virt. eigenvalues --    3.36587   3.36714   3.37486   3.37966   3.38940
 Alpha virt. eigenvalues --    3.39534   3.40006   3.40733   3.40974   3.41822
 Alpha virt. eigenvalues --    3.42268   3.43456   3.44156   3.44564   3.45993
 Alpha virt. eigenvalues --    3.46231   3.46626   3.47259   3.47952   3.48392
 Alpha virt. eigenvalues --    3.48998   3.49968   3.50923   3.52341   3.52692
 Alpha virt. eigenvalues --    3.54605   3.54883   3.55313   3.55439   3.56491
 Alpha virt. eigenvalues --    3.56704   3.57495   3.58442   3.58694   3.59475
 Alpha virt. eigenvalues --    3.59794   3.60450   3.61357   3.61641   3.62190
 Alpha virt. eigenvalues --    3.62299   3.62813   3.63316   3.63716   3.64233
 Alpha virt. eigenvalues --    3.65342   3.65721   3.66193   3.66606   3.67222
 Alpha virt. eigenvalues --    3.67609   3.67889   3.68363   3.68982   3.69313
 Alpha virt. eigenvalues --    3.70739   3.70958   3.71157   3.71806   3.72285
 Alpha virt. eigenvalues --    3.72550   3.73445   3.74440   3.75354   3.75996
 Alpha virt. eigenvalues --    3.77192   3.77639   3.77720   3.78646   3.79271
 Alpha virt. eigenvalues --    3.79752   3.80691   3.81195   3.81400   3.81914
 Alpha virt. eigenvalues --    3.82101   3.83274   3.84038   3.84387   3.84529
 Alpha virt. eigenvalues --    3.85434   3.85614   3.86190   3.87009   3.87889
 Alpha virt. eigenvalues --    3.88129   3.89143   3.89938   3.90078   3.90874
 Alpha virt. eigenvalues --    3.91481   3.92572   3.92922   3.93670   3.94164
 Alpha virt. eigenvalues --    3.95228   3.96180   3.97943   3.98359   3.99059
 Alpha virt. eigenvalues --    3.99571   4.00511   4.01160   4.01527   4.02145
 Alpha virt. eigenvalues --    4.03482   4.03716   4.05291   4.05761   4.06076
 Alpha virt. eigenvalues --    4.07323   4.07640   4.07764   4.08249   4.08662
 Alpha virt. eigenvalues --    4.09036   4.09907   4.10294   4.11421   4.11752
 Alpha virt. eigenvalues --    4.12616   4.12964   4.13986   4.14047   4.14614
 Alpha virt. eigenvalues --    4.14905   4.15396   4.16377   4.17174   4.17569
 Alpha virt. eigenvalues --    4.17977   4.19026   4.20007   4.20412   4.21152
 Alpha virt. eigenvalues --    4.22182   4.22523   4.23651   4.24322   4.25452
 Alpha virt. eigenvalues --    4.25715   4.26289   4.26612   4.27895   4.28623
 Alpha virt. eigenvalues --    4.29830   4.30306   4.30808   4.30977   4.31699
 Alpha virt. eigenvalues --    4.33711   4.33955   4.34187   4.34333   4.35451
 Alpha virt. eigenvalues --    4.36555   4.36922   4.37589   4.39239   4.39655
 Alpha virt. eigenvalues --    4.41160   4.41775   4.42092   4.42981   4.43654
 Alpha virt. eigenvalues --    4.44050   4.44561   4.46239   4.47305   4.47922
 Alpha virt. eigenvalues --    4.49244   4.49890   4.50841   4.51887   4.52246
 Alpha virt. eigenvalues --    4.53383   4.53855   4.54643   4.55523   4.56089
 Alpha virt. eigenvalues --    4.56423   4.57629   4.58610   4.59419   4.60363
 Alpha virt. eigenvalues --    4.60662   4.62146   4.62910   4.63218   4.64204
 Alpha virt. eigenvalues --    4.64658   4.65621   4.67246   4.68758   4.69708
 Alpha virt. eigenvalues --    4.70544   4.70708   4.72015   4.72721   4.73565
 Alpha virt. eigenvalues --    4.74213   4.74464   4.75504   4.76377   4.77153
 Alpha virt. eigenvalues --    4.77982   4.79286   4.79954   4.80623   4.81719
 Alpha virt. eigenvalues --    4.82229   4.82643   4.83561   4.84546   4.85440
 Alpha virt. eigenvalues --    4.86931   4.87458   4.88379   4.88856   4.90207
 Alpha virt. eigenvalues --    4.91389   4.92103   4.92727   4.93134   4.93881
 Alpha virt. eigenvalues --    4.95265   4.95435   4.96330   4.97484   4.98691
 Alpha virt. eigenvalues --    4.99120   4.99801   5.01218   5.01625   5.02546
 Alpha virt. eigenvalues --    5.04793   5.05237   5.06237   5.08056   5.08897
 Alpha virt. eigenvalues --    5.09306   5.09776   5.11420   5.12679   5.13689
 Alpha virt. eigenvalues --    5.14068   5.14656   5.16247   5.17246   5.18056
 Alpha virt. eigenvalues --    5.20137   5.20373   5.21845   5.22400   5.22862
 Alpha virt. eigenvalues --    5.23346   5.25014   5.27655   5.27968   5.30482
 Alpha virt. eigenvalues --    5.31957   5.33511   5.33882   5.34693   5.37255
 Alpha virt. eigenvalues --    5.38391   5.40330   5.42037   5.42678   5.44469
 Alpha virt. eigenvalues --    5.45233   5.46889   5.47578   5.49738   5.50492
 Alpha virt. eigenvalues --    5.52695   5.53181   5.54718   5.57475   5.58284
 Alpha virt. eigenvalues --    5.58760   5.59221   5.60805   5.61675   5.62561
 Alpha virt. eigenvalues --    5.64585   5.65594   5.67166   5.68617   5.70116
 Alpha virt. eigenvalues --    5.70684   5.71565   5.72827   5.73533   5.74013
 Alpha virt. eigenvalues --    5.75890   5.79774   5.80069   5.82101   5.82823
 Alpha virt. eigenvalues --    5.83400   5.85655   5.86404   5.88042   5.88769
 Alpha virt. eigenvalues --    5.89759   5.92096   5.92848   5.96107   5.97789
 Alpha virt. eigenvalues --    5.98611   5.99322   6.00556   6.02397   6.03103
 Alpha virt. eigenvalues --    6.04070   6.05162   6.06560   6.07539   6.10815
 Alpha virt. eigenvalues --    6.11074   6.13721   6.15662   6.18888   6.20566
 Alpha virt. eigenvalues --    6.23192   6.24273   6.27575   6.29320   6.34027
 Alpha virt. eigenvalues --    6.38621   6.42301   6.42766   6.49843   6.54861
 Alpha virt. eigenvalues --    6.58682   6.59038   6.61844   6.64628   6.66149
 Alpha virt. eigenvalues --    6.66688   6.68219   6.69335   6.72311   6.76956
 Alpha virt. eigenvalues --    6.81275   6.83088   6.85262   6.88528   6.90014
 Alpha virt. eigenvalues --    6.95911   6.99513   7.03574   7.09564   7.10862
 Alpha virt. eigenvalues --    7.11336   7.17274   7.21238   7.21531   7.23238
 Alpha virt. eigenvalues --    7.30369   7.31217   7.33052   7.45381   7.52076
 Alpha virt. eigenvalues --    7.54938   7.60865   7.78718   7.81570   7.93820
 Alpha virt. eigenvalues --    8.71651   8.75478   8.76506   8.77023   8.78461
 Alpha virt. eigenvalues --    8.79747   8.80078   8.81898   8.82669   8.83790
 Alpha virt. eigenvalues --    8.86201   8.87772   8.93524   8.95482   8.98156
 Alpha virt. eigenvalues --    8.99956   9.07797   9.09904   9.10263   9.11262
 Alpha virt. eigenvalues --    9.11896   9.13552   9.15048   9.15615   9.16652
 Alpha virt. eigenvalues --    9.18111   9.18773   9.19303   9.20978   9.21989
 Alpha virt. eigenvalues --    9.23410   9.23836   9.25527   9.25600   9.27210
 Alpha virt. eigenvalues --    9.27441   9.28268   9.28417   9.30241   9.30777
 Alpha virt. eigenvalues --    9.31200   9.33568   9.33784   9.34795   9.35020
 Alpha virt. eigenvalues --    9.38011   9.39337   9.40905   9.41206   9.42650
 Alpha virt. eigenvalues --    9.44652   9.46791   9.47025   9.48579   9.50335
 Alpha virt. eigenvalues --    9.50829   9.52370   9.53000   9.54814   9.55780
 Alpha virt. eigenvalues --    9.58711   9.61851   9.72669   9.74487   9.74728
 Alpha virt. eigenvalues --    9.77808   9.80146   9.84585   9.95451   9.97598
 Alpha virt. eigenvalues --   10.00751  10.01693  15.76463  15.91076  16.09221
 Alpha virt. eigenvalues --   16.23055  16.34777  16.38422  16.51543  16.67669
 Alpha virt. eigenvalues --   16.99464  17.28863  17.42871  17.66697  18.05356
 Alpha virt. eigenvalues --   18.11555  18.90820  19.14461  20.20804  20.37379
 Alpha virt. eigenvalues --   20.58078  21.30694  21.51156
          Condensed to atoms (all electrons):
               1          2          3          4          5          6
     1  C   10.542274  -0.479542  -0.830927   0.186802  -0.181851  -0.007197
     2  N   -0.479542   8.603417   0.404965  -0.066722  -0.495934  -0.141322
     3  C   -0.830927   0.404965   6.332038   0.266306   0.165445  -0.333501
     4  O    0.186802  -0.066722   0.266306   8.913679  -0.199001  -0.036170
     5  N   -0.181851  -0.495934   0.165445  -0.199001   7.458380   0.217623
     6  C   -0.007197  -0.141322  -0.333501  -0.036170   0.217623   5.752050
     7  C   -0.010334  -0.035032   0.028676  -0.014910  -0.090615   0.058404
     8  C    0.002174   0.005417  -0.007053  -0.000080  -0.008670  -0.027766
     9  C   -1.091387  -0.347525   0.009028   0.009889  -0.062272  -0.016255
    10  C   -0.622073   0.182525  -0.021265  -0.006911   0.008481  -0.009490
    11  C   -0.019564   0.004170   0.016552   0.003542   0.018267   0.010299
    12  C    0.053466   0.072413  -0.066160   0.047398  -0.003979  -0.011906
    13  C   -1.309047  -0.520038   0.001654  -0.203939   0.048721  -0.028969
    14  H    0.087437   0.204688  -0.161967   0.016008   0.154509   0.003257
    15  H   -0.011924   0.079743  -0.071174   0.002703   0.201620   0.010229
    16  H   -0.010757   0.013371   0.018792   0.010977  -0.067751   0.288195
    17  H    0.004165  -0.014572  -0.068742  -0.003587  -0.017611   0.434551
    18  H   -0.003335  -0.001279   0.023452   0.002922  -0.049406  -0.033654
    19  H   -0.000467  -0.010845   0.001730   0.000134  -0.012354   0.029415
    20  H    0.000115   0.000362   0.002636   0.000153   0.002883  -0.006402
    21  H    0.000070  -0.000328   0.000710  -0.000149  -0.000926  -0.003024
    22  H    0.000405  -0.000020   0.001861  -0.000287   0.002500  -0.006475
    23  H   -0.664352  -0.019525  -0.057777   0.002556  -0.026200  -0.006891
    24  H   -0.442021   0.004818   0.081026  -0.122698   0.046388  -0.004899
    25  C   -0.018951   0.005840   0.001303   0.000742   0.000508   0.000354
    26  C    0.053997   0.001802   0.004562  -0.000345   0.000142  -0.000102
    27  H    0.107358  -0.055815  -0.044146   0.005463  -0.003936  -0.000357
    28  F    0.000697   0.004664   0.001180   0.000000   0.000073   0.000020
    29  F   -0.003230  -0.001886  -0.001122  -0.000023  -0.000069  -0.000044
    30  F   -0.021708   0.002973   0.000157   0.000057   0.000050   0.000012
    31  F   -0.017971   0.013104   0.003408  -0.000080   0.000434   0.000050
    32  F   -0.001312   0.002067  -0.000199  -0.000027  -0.000007  -0.000028
    33  F    0.019216   0.000103   0.000408   0.000048   0.000215   0.000059
               7          8          9         10         11         12
     1  C   -0.010334   0.002174  -1.091387  -0.622073  -0.019564   0.053466
     2  N   -0.035032   0.005417  -0.347525   0.182525   0.004170   0.072413
     3  C    0.028676  -0.007053   0.009028  -0.021265   0.016552  -0.066160
     4  O   -0.014910  -0.000080   0.009889  -0.006911   0.003542   0.047398
     5  N   -0.090615  -0.008670  -0.062272   0.008481   0.018267  -0.003979
     6  C    0.058404  -0.027766  -0.016255  -0.009490   0.010299  -0.011906
     7  C    5.521486   0.124362   0.001116  -0.000296   0.000586  -0.000016
     8  C    0.124362   5.752706  -0.000109  -0.000055   0.000042  -0.000003
     9  C    0.001116  -0.000109  10.436291  -0.928261  -0.260404  -0.334787
    10  C   -0.000296  -0.000055  -0.928261   8.949787  -1.234589  -0.166907
    11  C    0.000586   0.000042  -0.260404  -1.234589   9.060392  -1.361499
    12  C   -0.000016  -0.000003  -0.334787  -0.166907  -1.361499  10.548897
    13  C   -0.001245  -0.000490  -0.089235   0.115276   0.026980  -1.015530
    14  H    0.001980  -0.000639  -0.058011  -0.031139   0.006752  -0.002206
    15  H   -0.018679   0.005194   0.008241   0.000592   0.000356   0.000144
    16  H   -0.001146  -0.004659   0.000575  -0.000069   0.000117  -0.001318
    17  H   -0.019605  -0.009482  -0.001442   0.000007   0.000154  -0.000887
    18  H    0.414972  -0.018948   0.000894   0.000025  -0.000007  -0.000019
    19  H    0.422388  -0.026129  -0.000171  -0.000178   0.000093  -0.000090
    20  H    0.029531   0.374045   0.000061  -0.000022   0.000017  -0.000007
    21  H   -0.029695   0.447131  -0.000043   0.000001   0.000005  -0.000002
    22  H    0.033847   0.373127   0.000008   0.000009  -0.000008   0.000052
    23  H   -0.000965  -0.000025   0.154314  -0.109708  -0.061420  -0.005383
    24  H    0.000719  -0.000351  -0.101071  -0.025693   0.119411  -0.604722
    25  C   -0.000011   0.000001   0.043438  -0.193389  -0.411952  -0.566963
    26  C   -0.000043  -0.000003  -0.376908  -0.402444  -0.091781   0.061371
    27  H   -0.000009   0.000007   0.083860  -0.082279  -0.337066   0.405411
    28  F    0.000000   0.000000  -0.017921   0.033185   0.024190  -0.050747
    29  F    0.000000  -0.000000  -0.000161  -0.024150   0.048744  -0.024938
    30  F   -0.000001  -0.000000  -0.008820   0.018896  -0.010470  -0.031003
    31  F   -0.000018  -0.000001  -0.024919   0.004491   0.000723  -0.006619
    32  F    0.000001  -0.000000  -0.029041  -0.019800   0.048942   0.003092
    33  F    0.000003   0.000000  -0.023053   0.020142  -0.005371   0.008729
              13         14         15         16         17         18
     1  C   -1.309047   0.087437  -0.011924  -0.010757   0.004165  -0.003335
     2  N   -0.520038   0.204688   0.079743   0.013371  -0.014572  -0.001279
     3  C    0.001654  -0.161967  -0.071174   0.018792  -0.068742   0.023452
     4  O   -0.203939   0.016008   0.002703   0.010977  -0.003587   0.002922
     5  N    0.048721   0.154509   0.201620  -0.067751  -0.017611  -0.049406
     6  C   -0.028969   0.003257   0.010229   0.288195   0.434551  -0.033654
     7  C   -0.001245   0.001980  -0.018679  -0.001146  -0.019605   0.414972
     8  C   -0.000490  -0.000639   0.005194  -0.004659  -0.009482  -0.018948
     9  C   -0.089235  -0.058011   0.008241   0.000575  -0.001442   0.000894
    10  C    0.115276  -0.031139   0.000592  -0.000069   0.000007   0.000025
    11  C    0.026980   0.006752   0.000356   0.000117   0.000154  -0.000007
    12  C   -1.015530  -0.002206   0.000144  -0.001318  -0.000887  -0.000019
    13  C    9.399144   0.016720   0.000139   0.005791  -0.001587   0.000615
    14  H    0.016720   0.869949  -0.039803  -0.001116  -0.000934  -0.000833
    15  H    0.000139  -0.039803   0.760439   0.025939  -0.010203   0.012550
    16  H    0.005791  -0.001116   0.025939   0.414944   0.027219   0.015184
    17  H   -0.001587  -0.000934  -0.010203   0.027219   0.397450  -0.012927
    18  H    0.000615  -0.000833   0.012550   0.015184  -0.012927   0.398097
    19  H   -0.000490  -0.000688  -0.008626  -0.006389   0.005358   0.001532
    20  H    0.000057  -0.000030  -0.000115  -0.006843  -0.008663  -0.000847
    21  H   -0.000015   0.000022   0.000531   0.000656   0.000452   0.000857
    22  H   -0.000077  -0.000069   0.000020  -0.011175  -0.006560  -0.002594
    23  H    0.012652  -0.074186  -0.002366  -0.000452  -0.000010   0.000068
    24  H    0.208875  -0.005331   0.000010   0.000957  -0.002121  -0.000008
    25  C    0.095058   0.000458  -0.000039   0.000010   0.000008  -0.000001
    26  C   -0.009986  -0.003965   0.000096  -0.000015   0.000005   0.000002
    27  H   -0.438671   0.001304   0.000090  -0.000159  -0.000184  -0.000009
    28  F    0.006895  -0.000206  -0.000001   0.000002   0.000001  -0.000000
    29  F    0.010710  -0.000240  -0.000001  -0.000002  -0.000003   0.000000
    30  F    0.025331   0.000311  -0.000016   0.000001  -0.000004  -0.000000
    31  F    0.005244  -0.000164  -0.000184   0.000007   0.000010  -0.000001
    32  F   -0.000453   0.000357  -0.000028  -0.000000   0.000002   0.000000
    33  F   -0.014580  -0.000163   0.000033   0.000000   0.000000  -0.000001
              19         20         21         22         23         24
     1  C   -0.000467   0.000115   0.000070   0.000405  -0.664352  -0.442021
     2  N   -0.010845   0.000362  -0.000328  -0.000020  -0.019525   0.004818
     3  C    0.001730   0.002636   0.000710   0.001861  -0.057777   0.081026
     4  O    0.000134   0.000153  -0.000149  -0.000287   0.002556  -0.122698
     5  N   -0.012354   0.002883  -0.000926   0.002500  -0.026200   0.046388
     6  C    0.029415  -0.006402  -0.003024  -0.006475  -0.006891  -0.004899
     7  C    0.422388   0.029531  -0.029695   0.033847  -0.000965   0.000719
     8  C   -0.026129   0.374045   0.447131   0.373127  -0.000025  -0.000351
     9  C   -0.000171   0.000061  -0.000043   0.000008   0.154314  -0.101071
    10  C   -0.000178  -0.000022   0.000001   0.000009  -0.109708  -0.025693
    11  C    0.000093   0.000017   0.000005  -0.000008  -0.061420   0.119411
    12  C   -0.000090  -0.000007  -0.000002   0.000052  -0.005383  -0.604722
    13  C   -0.000490   0.000057  -0.000015  -0.000077   0.012652   0.208875
    14  H   -0.000688  -0.000030   0.000022  -0.000069  -0.074186  -0.005331
    15  H   -0.008626  -0.000115   0.000531   0.000020  -0.002366   0.000010
    16  H   -0.006389  -0.006843   0.000656  -0.011175  -0.000452   0.000957
    17  H    0.005358  -0.008663   0.000452  -0.006560  -0.000010  -0.002121
    18  H    0.001532  -0.000847   0.000857  -0.002594   0.000068  -0.000008
    19  H    0.370665   0.000487  -0.004265   0.003384  -0.000087   0.000164
    20  H    0.000487   0.312315  -0.000422   0.023127  -0.000006   0.000052
    21  H   -0.004265  -0.000422   0.313850  -0.002425  -0.000012  -0.000003
    22  H    0.003384   0.023127  -0.002425   0.316836   0.000019  -0.000028
    23  H   -0.000087  -0.000006  -0.000012   0.000019   1.728084  -0.043765
    24  H    0.000164   0.000052  -0.000003  -0.000028  -0.043765   1.494014
    25  C    0.000001   0.000000   0.000000   0.000000   0.007770  -0.024063
    26  C   -0.000004   0.000000  -0.000001   0.000000  -0.098766  -0.000363
    27  H    0.000012   0.000005  -0.000000   0.000000   0.009782  -0.228988
    28  F    0.000000   0.000000   0.000000  -0.000000  -0.001834   0.000791
    29  F   -0.000001  -0.000000  -0.000000   0.000000   0.000906   0.000829
    30  F    0.000000   0.000000  -0.000000  -0.000000  -0.000785  -0.002779
    31  F    0.000004  -0.000000  -0.000000  -0.000000  -0.014088   0.000607
    32  F   -0.000000  -0.000000  -0.000000   0.000000   0.005371   0.000054
    33  F    0.000001   0.000000   0.000000  -0.000000   0.010154  -0.000398
              25         26         27         28         29         30
     1  C   -0.018951   0.053997   0.107358   0.000697  -0.003230  -0.021708
     2  N    0.005840   0.001802  -0.055815   0.004664  -0.001886   0.002973
     3  C    0.001303   0.004562  -0.044146   0.001180  -0.001122   0.000157
     4  O    0.000742  -0.000345   0.005463   0.000000  -0.000023   0.000057
     5  N    0.000508   0.000142  -0.003936   0.000073  -0.000069   0.000050
     6  C    0.000354  -0.000102  -0.000357   0.000020  -0.000044   0.000012
     7  C   -0.000011  -0.000043  -0.000009   0.000000   0.000000  -0.000001
     8  C    0.000001  -0.000003   0.000007   0.000000  -0.000000  -0.000000
     9  C    0.043438  -0.376908   0.083860  -0.017921  -0.000161  -0.008820
    10  C   -0.193389  -0.402444  -0.082279   0.033185  -0.024150   0.018896
    11  C   -0.411952  -0.091781  -0.337066   0.024190   0.048744  -0.010470
    12  C   -0.566963   0.061371   0.405411  -0.050747  -0.024938  -0.031003
    13  C    0.095058  -0.009986  -0.438671   0.006895   0.010710   0.025331
    14  H    0.000458  -0.003965   0.001304  -0.000206  -0.000240   0.000311
    15  H   -0.000039   0.000096   0.000090  -0.000001  -0.000001  -0.000016
    16  H    0.000010  -0.000015  -0.000159   0.000002  -0.000002   0.000001
    17  H    0.000008   0.000005  -0.000184   0.000001  -0.000003  -0.000004
    18  H   -0.000001   0.000002  -0.000009  -0.000000   0.000000  -0.000000
    19  H    0.000001  -0.000004   0.000012   0.000000  -0.000001   0.000000
    20  H    0.000000   0.000000   0.000005   0.000000  -0.000000   0.000000
    21  H    0.000000  -0.000001  -0.000000   0.000000  -0.000000  -0.000000
    22  H    0.000000   0.000000   0.000000  -0.000000   0.000000  -0.000000
    23  H    0.007770  -0.098766   0.009782  -0.001834   0.000906  -0.000785
    24  H   -0.024063  -0.000363  -0.228988   0.000791   0.000829  -0.002779
    25  C    5.446741  -0.033248  -0.087893   0.175602   0.156967   0.174563
    26  C   -0.033248   5.126914  -0.000391   0.011389  -0.003358   0.005070
    27  H   -0.087893  -0.000391   1.396316  -0.001640   0.008086  -0.006738
    28  F    0.175602   0.011389  -0.001640   9.360929  -0.026479  -0.084228
    29  F    0.156967  -0.003358   0.008086  -0.026479   9.340936  -0.066988
    30  F    0.174563   0.005070  -0.006738  -0.084228  -0.066988   9.374999
    31  F    0.005455   0.186196  -0.000453   0.005970  -0.001483   0.000240
    32  F    0.010260   0.172061  -0.002011  -0.002149  -0.003026   0.004696
    33  F   -0.004795   0.158643  -0.000089  -0.003311  -0.001901  -0.001031
              31         32         33
     1  C   -0.017971  -0.001312   0.019216
     2  N    0.013104   0.002067   0.000103
     3  C    0.003408  -0.000199   0.000408
     4  O   -0.000080  -0.000027   0.000048
     5  N    0.000434  -0.000007   0.000215
     6  C    0.000050  -0.000028   0.000059
     7  C   -0.000018   0.000001   0.000003
     8  C   -0.000001  -0.000000   0.000000
     9  C   -0.024919  -0.029041  -0.023053
    10  C    0.004491  -0.019800   0.020142
    11  C    0.000723   0.048942  -0.005371
    12  C   -0.006619   0.003092   0.008729
    13  C    0.005244  -0.000453  -0.014580
    14  H   -0.000164   0.000357  -0.000163
    15  H   -0.000184  -0.000028   0.000033
    16  H    0.000007  -0.000000   0.000000
    17  H    0.000010   0.000002   0.000000
    18  H   -0.000001   0.000000  -0.000001
    19  H    0.000004  -0.000000   0.000001
    20  H   -0.000000  -0.000000   0.000000
    21  H   -0.000000  -0.000000   0.000000
    22  H   -0.000000   0.000000  -0.000000
    23  H   -0.014088   0.005371   0.010154
    24  H    0.000607   0.000054  -0.000398
    25  C    0.005455   0.010260  -0.004795
    26  C    0.186196   0.172061   0.158643
    27  H   -0.000453  -0.002011  -0.000089
    28  F    0.005970  -0.002149  -0.003311
    29  F   -0.001483  -0.003026  -0.001901
    30  F    0.000240   0.004696  -0.001031
    31  F    9.375680  -0.089181  -0.066612
    32  F   -0.089181   9.353838  -0.022568
    33  F   -0.066612  -0.022568   9.331103
 Mulliken charges:
               1
     1  C    0.689772
     2  N   -0.416055
     3  C    0.298144
     4  O   -0.814448
     5  N   -0.105657
     6  C   -0.130066
     7  C   -0.415451
     8  C   -0.979742
     9  C   -0.975921
    10  C    0.545301
    11  C    0.403797
    12  C   -0.945280
    13  C   -0.345512
    14  H    0.017936
    15  H    0.054490
    16  H    0.289113
    17  H    0.309742
    18  H    0.252697
    19  H    0.235417
    20  H    0.277508
    21  H    0.277023
    22  H    0.274521
    23  H    0.256927
    24  H    0.650588
    25  C    1.216224
    26  C    1.239471
    27  H    0.273140
    28  F   -0.437072
    29  F   -0.408076
    30  F   -0.372785
    31  F   -0.379851
    32  F   -0.430910
    33  F   -0.404986
 Sum of Mulliken charges =  -0.00000
 Mulliken charges with hydrogens summed into heavy atoms:
               1
     1  C    0.689772
     2  N   -0.398119
     3  C    0.298144
     4  O   -0.814448
     5  N   -0.051167
     6  C    0.468789
     7  C    0.072663
     8  C   -0.150689
     9  C   -0.718993
    10  C    0.545301
    11  C    0.403797
    12  C   -0.672140
    13  C    0.305076
    25  C    1.216224
    26  C    1.239471
    28  F   -0.437072
    29  F   -0.408076
    30  F   -0.372785
    31  F   -0.379851
    32  F   -0.430910
    33  F   -0.404986
 Electronic spatial extent (au):  <R**2>=          10076.9378
 Charge=             -0.0000 electrons
 Dipole moment (field-independent basis, Debye):
    X=              6.8509    Y=              2.5984    Z=             -0.8411  Tot=              7.3752
 Quadrupole moment (field-independent basis, Debye-Ang):
   XX=           -116.9170   YY=           -120.2811   ZZ=           -122.3710
   XY=             12.5514   XZ=             -2.9465   YZ=             -0.1684
 Traceless Quadrupole moment (field-independent basis, Debye-Ang):
   XX=              2.9394   YY=             -0.4247   ZZ=             -2.5146
   XY=             12.5514   XZ=             -2.9465   YZ=             -0.1684
 Octapole moment (field-independent basis, Debye-Ang**2):
  XXX=             93.1634  YYY=             12.5011  ZZZ=              1.1958  XYY=            -26.3590
  XXY=             41.3565  XXZ=            -10.7588  XZZ=            -27.7455  YZZ=              4.0306
  YYZ=             -2.0966  XYZ=             -3.7523
 Hexadecapole moment (field-independent basis, Debye-Ang**3):
 XXXX=         -10098.0468 YYYY=          -1363.2363 ZZZZ=           -274.5969 XXXY=             81.6160
 XXXZ=            -28.4521 YYYX=             35.1354 YYYZ=             -7.0903 ZZZX=             -1.9272
 ZZZY=              2.3500 XXYY=          -2071.7715 XXZZ=          -1840.8382 YYZZ=           -279.6537
 XXYZ=             -8.9833 YYXZ=            -11.9366 ZZXY=            -10.0786
 N-N= 1.765124366345D+03 E-N=-6.466569391010D+03  KE= 1.241009355822D+03
 Unable to Open any file for archive entry.
 1\1\GINC-GADI-CPU-CLX-2471\SP\RDSDPBEP86-FC\Aug-CC-pVTZ\C12H12F6N2O1\H
 IO507\09-Sep-2020\0\\# DSDPBEP86/AUG-cc-PVTZ SCF=Tight INT(grid=ultraf
 ine) MaxDisk=60000MB\\NM2_c2.DSDPBEP86_AUG-cc-PVTZ\\0,1\C,0,-5.8451110
 657,1.3956072891,0.2410996075\N,0,-4.6273729895,0.7173734403,0.1794840
 355\C,0,-3.3559758025,1.279735103,0.0765910143\O,0,-3.1526328263,2.470
 6033855,-0.007944027\N,0,-2.3545297797,0.3445209325,0.0502761653\C,0,-
 0.9670212277,0.7915786583,0.0550898992\C,0,-0.0310305275,-0.3772647782
 ,-0.2146835876\C,0,1.4286680526,0.065667665,-0.2206035552\C,0,-7.00947
 21727,0.6184521531,0.1897791191\C,0,-8.2665354785,1.1926672156,0.25939
 29305\C,0,-8.390997741,2.5822691817,0.3948816493\C,0,-7.231532269,3.34
 68059155,0.4391125309\C,0,-5.9663799895,2.7804033184,0.3652893505\H,0,
 -4.6946457214,-0.2813762974,0.0525015468\H,0,-2.5355703394,-0.56589362
 2,0.4477100621\H,0,-0.7200714954,1.2717056925,1.0093185964\H,0,-0.8636
 648896,1.5529941913,-0.7195378329\H,0,-0.2942686982,-0.8302763705,-1.1
 750427021\H,0,-0.1761373625,-1.1490062619,0.5506502582\H,0,1.606224421
 6,0.8194015671,-0.9912355711\H,0,2.0959881347,-0.7746037732,-0.4171053
 005\H,0,1.7136165905,0.4997547845,0.7406940353\H,0,-6.9287201985,-0.45
 74996853,0.0865417836\H,0,-5.086443091,3.4032285416,0.397508339\C,0,-9
 .7172052082,3.2982067907,0.4561241002\C,0,-9.4547334297,0.2560835061,0
 .2244489373\H,0,-7.3130192581,4.4214579091,0.5404927392\F,0,-10.599433
 9425,2.6747356283,1.2450349391\F,0,-10.2802880573,3.4253464609,-0.7536
 636452\F,0,-9.5724201183,4.5407348691,0.9418093387\F,0,-9.109317486,-0
 .9485608369,-0.2605104779\F,0,-10.4408945084,0.7148159864,-0.548648047
 5\F,0,-9.9567815251,0.0436814395,1.446803769\\Version=ES64L-G16RevC.01
 \State=1-A\HF=-1244.8418166\MP2=-1246.8908023\RMSD=7.539e-09\PG=C01 [X
 (C12H12F6N2O1)]\\@
 The archive entry for this job was punched.


 HIGGLEDY-PIGGLEDY
 NIC'LAUS COPERNICUS
 LOOKED AT THE UNIVERSE,
 SPOKE TO THE THRONG;
 GIVE UP YOUR PTOLOMY,
 RISE UP AND FOLLOW ME,
 HELIOCENTRICALLY
 PTOLEMY'S WRONG.
   -- NANCY L. STARK
 Job cpu time:       1 days  5 hours 45 minutes  8.3 seconds.
 Elapsed time:       0 days  3 hours 45 minutes  2.2 seconds.
 File lengths (MBytes):  RWF=    796 Int=      0 D2E=      0 Chk=    101 Scr=      1
 Normal termination of Gaussian 16 at Wed Sep  9 20:09:25 2020.
