 Entering Gaussian System, Link 0=/apps/gaussian/g09e01/g09/g09
 Initial command:
 /apps/gaussian/g09e01/g09/l1.exe "/jobfs/local/3579227.r-man2/Gau-44880.inp" -scrdir="/jobfs/local/3579227.r-man2/"
 Entering Link 1 = /apps/gaussian/g09e01/g09/l1.exe PID=     44881.
  
 Copyright (c) 1988,1990,1992,1993,1995,1998,2003,2009,2015,
            Gaussian, Inc.  All Rights Reserved.
  
 This is part of the Gaussian(R) 09 program.  It is based on
 the Gaussian(R) 03 system (copyright 2003, Gaussian, Inc.),
 the Gaussian(R) 98 system (copyright 1998, Gaussian, Inc.),
 the Gaussian(R) 94 system (copyright 1995, Gaussian, Inc.),
 the Gaussian 92(TM) system (copyright 1992, Gaussian, Inc.),
 the Gaussian 90(TM) system (copyright 1990, Gaussian, Inc.),
 the Gaussian 88(TM) system (copyright 1988, Gaussian, Inc.),
 the Gaussian 86(TM) system (copyright 1986, Carnegie Mellon
 University), and the Gaussian 82(TM) system (copyright 1983,
 Carnegie Mellon University). Gaussian is a federally registered
 trademark of Gaussian, Inc.
  
 This software contains proprietary and confidential information,
 including trade secrets, belonging to Gaussian, Inc.
  
 This software is provided under written license and may be
 used, copied, transmitted, or stored only in accord with that
 written license.
  
 The following legend is applicable only to US Government
 contracts under FAR:
  
                    RESTRICTED RIGHTS LEGEND
  
 Use, reproduction and disclosure by the US Government is
 subject to restrictions as set forth in subparagraphs (a)
 and (c) of the Commercial Computer Software - Restricted
 Rights clause in FAR 52.227-19.
  
 Gaussian, Inc.
 340 Quinnipiac St., Bldg. 40, Wallingford CT 06492
  
  
 ---------------------------------------------------------------
 Warning -- This program may not be used in any manner that
 competes with the business of Gaussian, Inc. or will provide
 assistance to any competitor of Gaussian, Inc.  The licensee
 of this program is prohibited from giving any competitor of
 Gaussian, Inc. access to this program.  By using this program,
 the user acknowledges that Gaussian, Inc. is engaged in the
 business of creating and licensing software in the field of
 computational chemistry and represents and warrants to the
 licensee that it is not a competitor of Gaussian, Inc. and that
 it will not use this program in any manner prohibited above.
 ---------------------------------------------------------------
  

 Cite this work as:
 Gaussian 09, Revision E.01,
 M. J. Frisch, G. W. Trucks, H. B. Schlegel, G. E. Scuseria, 
 M. A. Robb, J. R. Cheeseman, G. Scalmani, V. Barone, B. Mennucci, 
 G. A. Petersson, H. Nakatsuji, M. Caricato, X. Li, H. P. Hratchian, 
 A. F. Izmaylov, J. Bloino, G. Zheng, J. L. Sonnenberg, M. Hada, 
 M. Ehara, K. Toyota, R. Fukuda, J. Hasegawa, M. Ishida, T. Nakajima, 
 Y. Honda, O. Kitao, H. Nakai, T. Vreven, J. A. Montgomery, Jr., 
 J. E. Peralta, F. Ogliaro, M. Bearpark, J. J. Heyd, E. Brothers, 
 K. N. Kudin, V. N. Staroverov, T. Keith, R. Kobayashi, J. Normand, 
 K. Raghavachari, A. Rendell, J. C. Burant, S. S. Iyengar, J. Tomasi, 
 M. Cossi, N. Rega, J. M. Millam, M. Klene, J. E. Knox, J. B. Cross, 
 V. Bakken, C. Adamo, J. Jaramillo, R. Gomperts, R. E. Stratmann, 
 O. Yazyev, A. J. Austin, R. Cammi, C. Pomelli, J. W. Ochterski, 
 R. L. Martin, K. Morokuma, V. G. Zakrzewski, G. A. Voth, 
 P. Salvador, J. J. Dannenberg, S. Dapprich, A. D. Daniels, 
 O. Farkas, J. B. Foresman, J. V. Ortiz, J. Cioslowski, 
 and D. J. Fox, Gaussian, Inc., Wallingford CT, 2013.
 
 ******************************************
 Gaussian 09:  ES64L-G09RevE.01 30-Nov-2015
                14-Nov-2019 
 ******************************************
 %chk=NM2_c2.M062X_6-311pGd_opt_Pentadecane_GD3.chk
 %mem=196608000
 %nproc=8
 Will use up to    8 processors via shared memory.
 ----------------------------------------------------------------------
 # M062X/6-311+G* SCF=Tight INT(grid=ultrafine) OPT IOP(2/17=4) Empiric
 alDispersion=GD3 SCRF=(SMD,Solvent=n-Pentadecane) maxdisk=2684354560
 ----------------------------------------------------------------------
 1/14=-1,18=20,19=15,26=4,38=1/1,3;
 2/9=110,12=2,17=4,18=5,40=1/2;
 3/5=4,6=6,7=11,11=2,16=1,25=1,30=1,70=32201,71=1,72=151,74=-55,75=-5,124=31/1,2,3;
 4//1;
 5/5=2,32=2,38=5,53=151/2;
 6/7=2,8=2,9=2,10=2,28=1/1;
 7//1,2,3,16;
 1/14=-1,18=20,19=15,26=4/3(2);
 2/9=110,17=4/2;
 99//99;
 2/9=110,17=4/2;
 3/5=4,6=6,7=11,11=2,16=1,25=1,30=1,70=32205,71=1,72=151,74=-55,75=-5,124=31/1,2,3;
 4/5=5,16=3,69=1/1;
 5/5=2,32=2,38=5,53=151/2;
 7//1,2,3,16;
 1/14=-1,18=20,19=15,26=4/3(-5);
 2/9=110,17=4/2;
 6/7=2,8=2,9=2,10=2,19=2,28=1/1;
 99/9=1/99;
 -----------------------------------------
 NM2_c2.M062X_6-311pGd_opt_Pentadecane_GD3
 -----------------------------------------
 Symbolic Z-matrix:
 Charge =  0 Multiplicity = 1
 C                    -5.83625   1.4113    0.29683 
 N                    -4.61827   0.74228   0.22748 
 C                    -3.3437    1.30277   0.19514 
 O                    -3.13215   2.49352   0.31522 
 N                    -2.35221   0.38239   0.03753 
 C                    -0.96848   0.81196  -0.11535 
 C                    -0.03363  -0.3869   -0.05318 
 C                     1.42296   0.03264  -0.21356 
 C                    -6.9954    0.62858   0.19286 
 C                    -8.25626   1.19393   0.24957 
 C                    -8.39435   2.57947   0.4214 
 C                    -7.2418    3.34975   0.51508 
 C                    -5.97213   2.79154   0.4593 
 H                    -4.67827  -0.26536   0.18496 
 H                    -2.58441  -0.55092  -0.27031 
 H                    -0.74137   1.51537   0.68788 
 H                    -0.83833   1.34961  -1.06141 
 H                    -0.30009  -1.09889  -0.84302 
 H                    -0.17571  -0.90171   0.90203 
 H                     1.58892   0.52792  -1.17361 
 H                     2.08969  -0.83016  -0.16566 
 H                     1.72139   0.7276    0.57535 
 H                    -6.90009  -0.44191   0.05365 
 H                    -5.0989    3.41875   0.54301 
 C                    -9.72554   3.28212   0.47099 
 C                    -9.43709   0.25453   0.15748 
 H                    -7.32958   4.42093   0.64558 
 F                    -10.62475   2.63103   1.22133 
 F                    -10.2684   3.43866  -0.7475 
 F                    -9.60913   4.51298   0.99213 
 F                    -9.08116  -0.93379  -0.35705 
 F                    -10.41146   0.73295  -0.62265 
 F                    -9.97174   0.0004    1.36016 
 

 GradGradGradGradGradGradGradGradGradGradGradGradGradGradGradGradGradGrad
 Berny optimization.
 Initialization pass.
                           ----------------------------
                           !    Initial Parameters    !
                           ! (Angstroms and Degrees)  !
 --------------------------                            --------------------------
 ! Name  Definition              Value          Derivative Info.                !
 --------------------------------------------------------------------------------
 ! R1    R(1,2)                  1.3914         estimate D2E/DX2                !
 ! R2    R(1,9)                  1.4025         estimate D2E/DX2                !
 ! R3    R(1,13)                 1.3964         estimate D2E/DX2                !
 ! R4    R(2,3)                  1.3927         estimate D2E/DX2                !
 ! R5    R(2,14)                 1.0103         estimate D2E/DX2                !
 ! R6    R(3,4)                  1.2153         estimate D2E/DX2                !
 ! R7    R(3,5)                  1.362          estimate D2E/DX2                !
 ! R8    R(5,6)                  1.4569         estimate D2E/DX2                !
 ! R9    R(5,15)                 1.0098         estimate D2E/DX2                !
 ! R10   R(6,7)                  1.5215         estimate D2E/DX2                !
 ! R11   R(6,16)                 1.0916         estimate D2E/DX2                !
 ! R12   R(6,17)                 1.0959         estimate D2E/DX2                !
 ! R13   R(7,8)                  1.5243         estimate D2E/DX2                !
 ! R14   R(7,18)                 1.0962         estimate D2E/DX2                !
 ! R15   R(7,19)                 1.0944         estimate D2E/DX2                !
 ! R16   R(8,20)                 1.0929         estimate D2E/DX2                !
 ! R17   R(8,21)                 1.0914         estimate D2E/DX2                !
 ! R18   R(8,22)                 1.0929         estimate D2E/DX2                !
 ! R19   R(9,10)                 1.383          estimate D2E/DX2                !
 ! R20   R(9,23)                 1.0837         estimate D2E/DX2                !
 ! R21   R(10,11)                1.403          estimate D2E/DX2                !
 ! R22   R(10,26)                1.5117         estimate D2E/DX2                !
 ! R23   R(11,12)                1.3894         estimate D2E/DX2                !
 ! R24   R(11,25)                1.5061         estimate D2E/DX2                !
 ! R25   R(12,13)                1.3881         estimate D2E/DX2                !
 ! R26   R(12,27)                1.0827         estimate D2E/DX2                !
 ! R27   R(13,24)                1.0784         estimate D2E/DX2                !
 ! R28   R(25,28)                1.34           estimate D2E/DX2                !
 ! R29   R(25,29)                1.3431         estimate D2E/DX2                !
 ! R30   R(25,30)                1.3417         estimate D2E/DX2                !
 ! R31   R(26,31)                1.343          estimate D2E/DX2                !
 ! R32   R(26,32)                1.3367         estimate D2E/DX2                !
 ! R33   R(26,33)                1.3405         estimate D2E/DX2                !
 ! A1    A(2,1,9)              116.8366         estimate D2E/DX2                !
 ! A2    A(2,1,13)             124.4895         estimate D2E/DX2                !
 ! A3    A(9,1,13)             118.6738         estimate D2E/DX2                !
 ! A4    A(1,2,3)              127.5007         estimate D2E/DX2                !
 ! A5    A(1,2,14)             115.447          estimate D2E/DX2                !
 ! A6    A(3,2,14)             117.0479         estimate D2E/DX2                !
 ! A7    A(2,3,4)              123.4554         estimate D2E/DX2                !
 ! A8    A(2,3,5)              113.3876         estimate D2E/DX2                !
 ! A9    A(4,3,5)              123.1486         estimate D2E/DX2                !
 ! A10   A(3,5,6)              120.285          estimate D2E/DX2                !
 ! A11   A(3,5,15)             119.5014         estimate D2E/DX2                !
 ! A12   A(6,5,15)             117.3169         estimate D2E/DX2                !
 ! A13   A(5,6,7)              110.2999         estimate D2E/DX2                !
 ! A14   A(5,6,16)             108.0828         estimate D2E/DX2                !
 ! A15   A(5,6,17)             110.3667         estimate D2E/DX2                !
 ! A16   A(7,6,16)             110.4778         estimate D2E/DX2                !
 ! A17   A(7,6,17)             110.4173         estimate D2E/DX2                !
 ! A18   A(16,6,17)            107.1203         estimate D2E/DX2                !
 ! A19   A(6,7,8)              111.4665         estimate D2E/DX2                !
 ! A20   A(6,7,18)             109.4489         estimate D2E/DX2                !
 ! A21   A(6,7,19)             109.0596         estimate D2E/DX2                !
 ! A22   A(8,7,18)             109.5865         estimate D2E/DX2                !
 ! A23   A(8,7,19)             110.2047         estimate D2E/DX2                !
 ! A24   A(18,7,19)            106.9651         estimate D2E/DX2                !
 ! A25   A(7,8,20)             111.2388         estimate D2E/DX2                !
 ! A26   A(7,8,21)             111.1951         estimate D2E/DX2                !
 ! A27   A(7,8,22)             111.1012         estimate D2E/DX2                !
 ! A28   A(20,8,21)            107.699          estimate D2E/DX2                !
 ! A29   A(20,8,22)            107.7254         estimate D2E/DX2                !
 ! A30   A(21,8,22)            107.7099         estimate D2E/DX2                !
 ! A31   A(1,9,10)             121.4881         estimate D2E/DX2                !
 ! A32   A(1,9,23)             119.216          estimate D2E/DX2                !
 ! A33   A(10,9,23)            119.2922         estimate D2E/DX2                !
 ! A34   A(9,10,11)            119.8991         estimate D2E/DX2                !
 ! A35   A(9,10,26)            117.1046         estimate D2E/DX2                !
 ! A36   A(11,10,26)           122.9749         estimate D2E/DX2                !
 ! A37   A(10,11,12)           118.3016         estimate D2E/DX2                !
 ! A38   A(10,11,25)           123.4892         estimate D2E/DX2                !
 ! A39   A(12,11,25)           118.186          estimate D2E/DX2                !
 ! A40   A(11,12,13)           122.2155         estimate D2E/DX2                !
 ! A41   A(11,12,27)           119.2994         estimate D2E/DX2                !
 ! A42   A(13,12,27)           118.4824         estimate D2E/DX2                !
 ! A43   A(1,13,12)            119.4177         estimate D2E/DX2                !
 ! A44   A(1,13,24)            120.3395         estimate D2E/DX2                !
 ! A45   A(12,13,24)           120.2427         estimate D2E/DX2                !
 ! A46   A(11,25,28)           112.6369         estimate D2E/DX2                !
 ! A47   A(11,25,29)           112.4422         estimate D2E/DX2                !
 ! A48   A(11,25,30)           111.3526         estimate D2E/DX2                !
 ! A49   A(28,25,29)           107.0623         estimate D2E/DX2                !
 ! A50   A(28,25,30)           106.6476         estimate D2E/DX2                !
 ! A51   A(29,25,30)           106.2919         estimate D2E/DX2                !
 ! A52   A(10,26,31)           111.4797         estimate D2E/DX2                !
 ! A53   A(10,26,32)           112.4894         estimate D2E/DX2                !
 ! A54   A(10,26,33)           112.0058         estimate D2E/DX2                !
 ! A55   A(31,26,32)           106.6351         estimate D2E/DX2                !
 ! A56   A(31,26,33)           106.3623         estimate D2E/DX2                !
 ! A57   A(32,26,33)           107.5019         estimate D2E/DX2                !
 ! D1    D(9,1,2,3)            174.2899         estimate D2E/DX2                !
 ! D2    D(9,1,2,14)            -4.9119         estimate D2E/DX2                !
 ! D3    D(13,1,2,3)            -5.6302         estimate D2E/DX2                !
 ! D4    D(13,1,2,14)          175.1681         estimate D2E/DX2                !
 ! D5    D(2,1,9,10)           179.9924         estimate D2E/DX2                !
 ! D6    D(2,1,9,23)            -0.7134         estimate D2E/DX2                !
 ! D7    D(13,1,9,10)           -0.0827         estimate D2E/DX2                !
 ! D8    D(13,1,9,23)          179.2115         estimate D2E/DX2                !
 ! D9    D(2,1,13,12)          179.9994         estimate D2E/DX2                !
 ! D10   D(2,1,13,24)           -0.1383         estimate D2E/DX2                !
 ! D11   D(9,1,13,12)            0.0807         estimate D2E/DX2                !
 ! D12   D(9,1,13,24)          179.943          estimate D2E/DX2                !
 ! D13   D(1,2,3,4)              5.1095         estimate D2E/DX2                !
 ! D14   D(1,2,3,5)           -175.9151         estimate D2E/DX2                !
 ! D15   D(14,2,3,4)          -175.6999         estimate D2E/DX2                !
 ! D16   D(14,2,3,5)             3.2756         estimate D2E/DX2                !
 ! D17   D(2,3,5,6)            175.4598         estimate D2E/DX2                !
 ! D18   D(2,3,5,15)            15.2334         estimate D2E/DX2                !
 ! D19   D(4,3,5,6)             -5.5612         estimate D2E/DX2                !
 ! D20   D(4,3,5,15)          -165.7875         estimate D2E/DX2                !
 ! D21   D(3,5,6,7)            171.0545         estimate D2E/DX2                !
 ! D22   D(3,5,6,16)            50.1789         estimate D2E/DX2                !
 ! D23   D(3,5,6,17)           -66.6636         estimate D2E/DX2                !
 ! D24   D(15,5,6,7)           -28.2992         estimate D2E/DX2                !
 ! D25   D(15,5,6,16)         -149.1747         estimate D2E/DX2                !
 ! D26   D(15,5,6,17)           93.9827         estimate D2E/DX2                !
 ! D27   D(5,6,7,8)            179.8769         estimate D2E/DX2                !
 ! D28   D(5,6,7,18)            58.4861         estimate D2E/DX2                !
 ! D29   D(5,6,7,19)           -58.2186         estimate D2E/DX2                !
 ! D30   D(16,6,7,8)           -60.6898         estimate D2E/DX2                !
 ! D31   D(16,6,7,18)          177.9194         estimate D2E/DX2                !
 ! D32   D(16,6,7,19)           61.2147         estimate D2E/DX2                !
 ! D33   D(17,6,7,8)            57.6248         estimate D2E/DX2                !
 ! D34   D(17,6,7,18)          -63.766          estimate D2E/DX2                !
 ! D35   D(17,6,7,19)          179.5292         estimate D2E/DX2                !
 ! D36   D(6,7,8,20)           -60.1137         estimate D2E/DX2                !
 ! D37   D(6,7,8,21)           179.8502         estimate D2E/DX2                !
 ! D38   D(6,7,8,22)            59.8927         estimate D2E/DX2                !
 ! D39   D(18,7,8,20)           61.197          estimate D2E/DX2                !
 ! D40   D(18,7,8,21)          -58.8391         estimate D2E/DX2                !
 ! D41   D(18,7,8,22)         -178.7966         estimate D2E/DX2                !
 ! D42   D(19,7,8,20)          178.6466         estimate D2E/DX2                !
 ! D43   D(19,7,8,21)           58.6105         estimate D2E/DX2                !
 ! D44   D(19,7,8,22)          -61.347          estimate D2E/DX2                !
 ! D45   D(1,9,10,11)           -0.3258         estimate D2E/DX2                !
 ! D46   D(1,9,10,26)         -178.6957         estimate D2E/DX2                !
 ! D47   D(23,9,10,11)        -179.6194         estimate D2E/DX2                !
 ! D48   D(23,9,10,26)           2.0107         estimate D2E/DX2                !
 ! D49   D(9,10,11,12)           0.7211         estimate D2E/DX2                !
 ! D50   D(9,10,11,25)         178.9355         estimate D2E/DX2                !
 ! D51   D(26,10,11,12)        178.9913         estimate D2E/DX2                !
 ! D52   D(26,10,11,25)         -2.7943         estimate D2E/DX2                !
 ! D53   D(9,10,26,31)         -18.4212         estimate D2E/DX2                !
 ! D54   D(9,10,26,32)        -138.1485         estimate D2E/DX2                !
 ! D55   D(9,10,26,33)         100.6277         estimate D2E/DX2                !
 ! D56   D(11,10,26,31)        163.2633         estimate D2E/DX2                !
 ! D57   D(11,10,26,32)         43.5361         estimate D2E/DX2                !
 ! D58   D(11,10,26,33)        -77.6878         estimate D2E/DX2                !
 ! D59   D(10,11,12,13)         -0.739          estimate D2E/DX2                !
 ! D60   D(10,11,12,27)        179.8606         estimate D2E/DX2                !
 ! D61   D(25,11,12,13)       -179.0495         estimate D2E/DX2                !
 ! D62   D(25,11,12,27)          1.5501         estimate D2E/DX2                !
 ! D63   D(10,11,25,28)         43.5799         estimate D2E/DX2                !
 ! D64   D(10,11,25,29)        -77.4973         estimate D2E/DX2                !
 ! D65   D(10,11,25,30)        163.3355         estimate D2E/DX2                !
 ! D66   D(12,11,25,28)       -138.2038         estimate D2E/DX2                !
 ! D67   D(12,11,25,29)        100.719          estimate D2E/DX2                !
 ! D68   D(12,11,25,30)        -18.4482         estimate D2E/DX2                !
 ! D69   D(11,12,13,1)           0.3397         estimate D2E/DX2                !
 ! D70   D(11,12,13,24)       -179.5227         estimate D2E/DX2                !
 ! D71   D(27,12,13,1)         179.7449         estimate D2E/DX2                !
 ! D72   D(27,12,13,24)         -0.1176         estimate D2E/DX2                !
 --------------------------------------------------------------------------------
 Trust Radius=3.00D-01 FncErr=1.00D-07 GrdErr=1.00D-06
 Number of steps in this run=    172 maximum allowed number of steps=    198.
 GradGradGradGradGradGradGradGradGradGradGradGradGradGradGradGradGradGrad

                          Input orientation:                          
 ---------------------------------------------------------------------
 Center     Atomic      Atomic             Coordinates (Angstroms)
 Number     Number       Type             X           Y           Z
 ---------------------------------------------------------------------
      1          6           0       -5.836250    1.411301    0.296832
      2          7           0       -4.618272    0.742284    0.227482
      3          6           0       -3.343696    1.302770    0.195137
      4          8           0       -3.132153    2.493522    0.315220
      5          7           0       -2.352207    0.382393    0.037527
      6          6           0       -0.968479    0.811965   -0.115351
      7          6           0       -0.033632   -0.386902   -0.053185
      8          6           0        1.422958    0.032643   -0.213560
      9          6           0       -6.995404    0.628583    0.192860
     10          6           0       -8.256264    1.193933    0.249575
     11          6           0       -8.394353    2.579474    0.421401
     12          6           0       -7.241798    3.349750    0.515081
     13          6           0       -5.972127    2.791540    0.459296
     14          1           0       -4.678270   -0.265361    0.184963
     15          1           0       -2.584410   -0.550922   -0.270314
     16          1           0       -0.741371    1.515373    0.687877
     17          1           0       -0.838330    1.349609   -1.061406
     18          1           0       -0.300090   -1.098891   -0.843016
     19          1           0       -0.175709   -0.901711    0.902027
     20          1           0        1.588920    0.527922   -1.173608
     21          1           0        2.089689   -0.830163   -0.165664
     22          1           0        1.721388    0.727600    0.575345
     23          1           0       -6.900091   -0.441913    0.053650
     24          1           0       -5.098896    3.418746    0.543011
     25          6           0       -9.725541    3.282122    0.470994
     26          6           0       -9.437091    0.254529    0.157484
     27          1           0       -7.329584    4.420934    0.645579
     28          9           0      -10.624750    2.631027    1.221333
     29          9           0      -10.268403    3.438656   -0.747503
     30          9           0       -9.609133    4.512976    0.992131
     31          9           0       -9.081157   -0.933786   -0.357045
     32          9           0      -10.411461    0.732946   -0.622654
     33          9           0       -9.971742    0.000402    1.360162
 ---------------------------------------------------------------------
                    Distance matrix (angstroms):
                    1          2          3          4          5
     1  C    0.000000
     2  N    1.391353   0.000000
     3  C    2.496987   1.392743   0.000000
     4  O    2.912676   2.298495   1.215344   0.000000
     5  N    3.642039   2.302315   1.361979   2.267663   0.000000
     6  C    4.921818   3.666521   2.445189   2.773898   1.456916
     7  C    6.084934   4.729984   3.724672   4.246575   2.444551
     8  C    7.406572   6.098735   4.949874   5.204284   3.799637
     9  C    1.402532   2.380102   3.713422   4.291582   4.652314
    10  C    2.430216   3.665988   4.914075   5.286753   5.963343
    11  C    2.814966   4.203768   5.214432   5.263973   6.440656
    12  C    2.404326   3.710052   4.414486   4.202648   5.739457
    13  C    1.396394   2.467004   3.032303   2.859200   4.368718
    14  H    2.040742   1.010325   2.059180   3.165261   2.419068
    15  H    3.840109   2.461052   2.056535   3.148255   1.009833
    16  H    5.110924   3.979948   2.657083   2.609883   2.073979
    17  H    5.179558   4.039558   2.803205   2.909512   2.105940
    18  H    6.184609   4.814830   4.013637   4.718848   2.679691
    19  H    6.144755   4.784778   3.923720   4.540101   2.670848
    20  H    7.620742   6.366964   5.177312   5.326230   4.125592
    21  H    8.249762   6.901007   5.848184   6.208524   4.608906
    22  H    7.593610   6.349213   5.111796   5.171364   4.123419
    23  H    2.150650   2.576672   3.963821   4.783571   4.622012
    24  H    2.152704   2.737518   2.771118   2.185408   4.125440
    25  C    4.319362   5.709139   6.687441   6.642207   7.934884
    26  C    3.784652   4.843947   6.183016   6.692549   7.087053
    27  H    3.377804   4.588952   5.080663   4.630602   6.438464
    28  F    5.027143   6.374392   7.472020   7.548441   8.654059
    29  F    4.984455   6.336009   7.307677   7.276588   8.521924
    30  F    4.933404   6.301706   7.084936   6.818187   8.404520
    31  F    4.056650   4.802940   6.182681   6.898480   6.867808
    32  F    4.715737   5.855243   7.137702   7.547686   8.093844
    33  F    4.497065   5.522047   6.854519   7.354422   7.742907
                    6          7          8          9         10
     6  C    0.000000
     7  C    1.521540   0.000000
     8  C    2.517134   1.524269   0.000000
     9  C    6.037586   7.039746   8.449210   0.000000
    10  C    7.306906   8.378686   9.759633   1.382969   0.000000
    11  C    7.652176   8.884046  10.162142   2.411486   1.402968
    12  C    6.796494   8.138990   9.306564   2.751234   2.397329
    13  C    5.411601   6.755061   7.921587   2.407585   2.795284
    14  H    3.874708   4.652327   6.121488   2.483608   3.864680
    15  H    2.119601   2.565251   4.050033   4.589405   5.956906
    16  H    1.091575   2.160721   2.774058   6.335959   7.534524
    17  H    1.095911   2.163220   2.750758   6.324763   7.534497
    18  H    2.151188   1.096249   2.155338   6.991741   8.351736
    19  H    2.144814   1.094370   2.161780   7.025166   8.373338
    20  H    2.782244   2.173690   1.092948   8.692985   9.969788
    21  H    3.471528   2.172010   1.091448   9.208442  10.550267
    22  H    2.778410   2.171925   1.092884   8.725741   9.993855
    23  H    6.065046   6.867510   8.340849   1.083709   2.133913
    24  H    4.928397   6.363592   7.387332   3.391808   3.873612
    25  C    9.117653  10.376396  11.632573   3.817365   2.562876
    26  C    8.491323   9.427664  10.868651   2.470425   1.511725
    27  H    7.353049   8.765527   9.828642   3.833870   3.380694
    28  F    9.916616  11.086211  12.407973   4.270795   2.935861
    29  F    9.684406  10.948402  12.189092   4.415124   3.175162
    30  F    9.464930  10.807021  11.968045   4.749623   3.660286
    31  F    8.301903   9.069129  10.549455   2.663410   2.361276
    32  F    9.456929  10.453597  11.862178   3.513602   2.370267
    33  F    9.159395  10.045575  11.502906   3.258188   2.366597
                   11         12         13         14         15
    11  C    0.000000
    12  C    1.389418   0.000000
    13  C    2.431786   1.388083   0.000000
    14  H    4.685964   4.444061   3.330760   0.000000
    15  H    6.635758   6.125631   4.814666   2.161729   0.000000
    16  H    7.731200   6.756505   5.389032   4.350070   2.929931
    17  H    7.797741   6.891319   5.545049   4.348184   2.699378
    18  H    8.980324   8.355965   7.000248   4.573836   2.417928
    19  H    8.938443   8.255560   6.887277   4.603496   2.701717
    20  H   10.315942   9.423162   8.059763   6.461632   4.404149
    21  H   11.040173  10.247524   8.860033   6.800530   4.683602
    22  H   10.285006   9.339058   7.966397   6.487988   4.570520
    23  H    3.390699   3.834892   3.388345   2.232690   4.329196
    24  H    3.402823   2.144194   1.078392   3.725288   4.768900
    25  C    1.506066   2.485054   3.785356   6.175872   8.138643
    26  C    2.561703   3.811506   4.305053   4.787214   6.913104
    27  H    2.138916   1.082668   2.128924   5.403979   6.933606
    28  F    2.370068   3.529833   4.717347   6.695055   8.774787
    29  F    2.369936   3.280604   4.509225   6.770438   8.671113
    30  F    2.353689   2.680475   4.058949   6.913569   8.751204
    31  F    3.663424   4.742629   4.920420   4.486199   6.508596
    32  F    2.927190   4.264841   5.011598   5.875232   7.939471
    33  F    3.165603   4.402827   4.959730   5.428865   7.585189
                   16         17         18         19         20
    16  H    0.000000
    17  H    1.759793   0.000000
    18  H    3.061493   2.516456   0.000000
    19  H    2.491612   3.059834   1.760547   0.000000
    20  H    3.141726   2.565015   2.514790   3.076691   0.000000
    21  H    3.774251   3.758598   2.498413   2.505417   1.763835
    22  H    2.588132   3.101291   3.071513   2.521974   1.765292
    23  H    6.493308   6.418555   6.692954   6.793267   8.631921
    24  H    4.757294   5.000790   6.734883   6.559956   7.485355
    25  C    9.158807   9.223089  10.476594  10.435015  11.760415
    26  C    8.802647   8.753490   9.290723   9.362929  11.109432
    27  H    7.200599   7.381274   9.060804   8.920440   9.899732
    28  F    9.960444  10.130496  11.170158  11.034703  12.622699
    29  F    9.824647   9.663795  10.952886  11.109555  12.216794
    30  F    9.365650   9.547297  11.023570  10.877336  12.081700
    31  F    8.754557   8.582203   8.796053   8.994070  10.800644
    32  F    9.789808   9.603001  10.278327  10.476993  12.014772
    33  F    9.377999   9.544819   9.980145   9.848145  11.846822
                   21         22         23         24         25
    21  H    0.000000
    22  H    1.763906   0.000000
    23  H    9.000832   8.716067   0.000000
    24  H    8.380406   7.332093   4.288178   0.000000
    25  C   12.526607  11.728966   4.693163   4.629222   0.000000
    26  C   11.582212  11.176316   2.632904   5.383385   3.057419
    27  H   10.814566   9.775773   4.917532   2.447625   2.658568
    28  F   13.249927  12.508695   4.967850   5.622783   1.339966
    29  F   13.087544  12.363448   5.200595   5.328192   1.343108
    30  F   12.913251  11.953388   5.724560   4.662755   1.341692
    31  F   11.172966  10.969253   2.273248   5.967666   4.344509
    32  F   12.606781  12.191852   3.763961   6.065941   2.857420
    33  F   12.185898  11.741978   3.367144   6.008114   3.408946
                   26         27         28         29         30
    26  C    0.000000
    27  H    4.694545   0.000000
    28  F    2.861827   3.793861   0.000000
    29  F    3.413026   3.397382   2.157675   0.000000
    30  F    4.342879   2.307577   2.150754   2.148285   0.000000
    31  F    1.342953   5.722437   4.193072   4.547556   5.636156
    32  F    1.336748   4.970678   2.654900   2.712364   4.188065
    33  F    1.340472   5.199301   2.714016   4.043741   4.542054
                   31         32         33
    31  F    0.000000
    32  F    2.149013   0.000000
    33  F    2.148174   2.159057   0.000000
 Stoichiometry    C12H12F6N2O
 Framework group  C1[X(C12H12F6N2O)]
 Deg. of freedom    93
 Full point group                 C1      NOp   1
 Largest Abelian subgroup         C1      NOp   1
 Largest concise Abelian subgroup C1      NOp   1
                         Standard orientation:                         
 ---------------------------------------------------------------------
 Center     Atomic      Atomic             Coordinates (Angstroms)
 Number     Number       Type             X           Y           Z
 ---------------------------------------------------------------------
      1          6           0        0.568532   -0.065259   -0.086085
      2          7           0        1.884870    0.384304   -0.117915
      3          6           0        3.044915   -0.383851   -0.054959
      4          8           0        3.044311   -1.599187   -0.050547
      5          7           0        4.185018    0.360458   -0.020948
      6          6           0        5.479950   -0.286214    0.145104
      7          6           0        6.602791    0.718207   -0.068090
      8          6           0        7.971475    0.069397    0.102627
      9          6           0       -0.434168    0.914329   -0.040275
     10          6           0       -1.774443    0.575068   -0.006089
     11          6           0       -2.154712   -0.775264   -0.023885
     12          6           0       -1.155950   -1.740460   -0.060657
     13          6           0        0.191738   -1.409825   -0.095200
     14          1           0        2.000067    1.385917   -0.183163
     15          1           0        4.129058    1.346520    0.189554
     16          1           0        5.549568   -1.096964   -0.582477
     17          1           0        5.555527   -0.738585    1.140428
     18          1           0        6.495348    1.542860    0.646168
     19          1           0        6.511181    1.149362   -1.069768
     20          1           0        8.090141   -0.346307    1.106442
     21          1           0        8.773465    0.792999   -0.053800
     22          1           0        8.113343   -0.744065   -0.613298
     23          1           0       -0.151293    1.960268   -0.019846
     24          1           0        0.940453   -2.185115   -0.131007
     25          6           0       -3.587420   -1.235968    0.033860
     26          6           0       -2.772152    1.710665    0.011483
     27          1           0       -1.431168   -2.787496   -0.072528
     28          9           0       -4.392437   -0.518150   -0.761247
     29          9           0       -4.097716   -1.169692    1.274482
     30          9           0       -3.705279   -2.515027   -0.353767
     31          9           0       -2.196898    2.864901    0.386109
     32          9           0       -3.780603    1.492195    0.861301
     33          9           0       -3.305148    1.929753   -1.198799
 ---------------------------------------------------------------------
 Rotational constants (GHZ):      0.6919613      0.1113603      0.0994882
 Standard basis: 6-311+G(d) (5D, 7F)
 There are   519 symmetry adapted cartesian basis functions of A   symmetry.
 There are   498 symmetry adapted basis functions of A   symmetry.
   498 basis functions,   816 primitive gaussians,   519 cartesian basis functions
    80 alpha electrons       80 beta electrons
       nuclear repulsion energy      1765.0235834975 Hartrees.
 NAtoms=   33 NActive=   33 NUniq=   33 SFac= 1.00D+00 NAtFMM=   60 NAOKFM=F Big=F
 Integral buffers will be    131072 words long.
 Raffenetti 2 integral format.
 Two-electron integral symmetry is turned on.
 Nuclear repulsion after empirical dispersion term =     1765.0220355501 Hartrees.
 ------------------------------------------------------------------------------
 Polarizable Continuum Model (PCM)
 =================================
 Model                : PCM (using non-symmetric T matrix).
 Atomic radii         : SMD-Coulomb.
 Polarization charges : Total charges.
 Charge compensation  : None.
 Solution method      : On-the-fly selection.
 Cavity type          : VdW (van der Waals Surface) (Alpha=1.000).
 Cavity algorithm     : GePol (No added spheres)
                        Default sphere list used, NSphG=   33.
                        Lebedev-Laikov grids with approx.  5.0 points / Ang**2.
                        Smoothing algorithm: York/Karplus (Gamma=1.0000).
                        Polarization charges: spherical gaussians, with
                                              point-specific exponents (IZeta= 3).
                        Self-potential: point-specific (ISelfS= 7).
                        Self-field    : sphere-specific E.n sum rule (ISelfD= 2).
 1st derivatives      : Analytical E(r).r(x)/FMM algorithm (CHGder, D1EAlg=3).
                        Cavity 1st derivative terms included.
 Solvent              : n-Pentadecane, Eps=   2.033300 Eps(inf)=   2.049192
 ------------------------------------------------------------------------------
 ------------------------------------------------------------------------------
 Atomic radii for non-electrostatic terms: SMD-CDS.
 ------------------------------------------------------------------------------
 Nuclear repulsion after PCM non-electrostatic terms =     1765.0167881000 Hartrees.
 One-electron integrals computed using PRISM.
 NBasis=   498 RedAO= T EigKep=  1.27D-06  NBF=   498
 NBsUse=   496 1.00D-06 EigRej=  5.41D-07 NBFU=   496
 ExpMin= 4.38D-02 ExpMax= 1.14D+04 ExpMxC= 1.72D+03 IAcc=3 IRadAn=         5 AccDes= 0.00D+00
 Harris functional with IExCor= 1009 and IRadAn=       5 diagonalized for initial guess.
 HarFok:  IExCor= 1009 AccDes= 0.00D+00 IRadAn=         5 IDoV= 1 UseB2=F ITyADJ=14
 ICtDFT=  3500011 ScaDFX=  1.000000  1.000000  1.000000  1.000000
 FoFCou: FMM=F IPFlag=           0 FMFlag=      100000 FMFlg1=           0
         NFxFlg=           0 DoJE=T BraDBF=F KetDBF=T FulRan=T
         wScrn=  0.000000 ICntrl=     500 IOpCl=  0 I1Cent=   200000004 NGrid=           0
         NMat0=    1 NMatS0=      1 NMatT0=    0 NMatD0=    1 NMtDS0=    0 NMtDT0=    0
 Petite list used in FoFCou.
 Requested convergence on RMS density matrix=1.00D-08 within 128 cycles.
 Requested convergence on MAX density matrix=1.00D-06.
 Requested convergence on             energy=1.00D-06.
 No special actions if energy rises.
 Inv3:  Mode=1 IEnd=    18795027.
 Iteration    1 A*A^-1 deviation from unit magnitude is 4.00D-15 for    309.
 Iteration    1 A*A^-1 deviation from orthogonality  is 6.85D-15 for   2471    456.
 Iteration    1 A^-1*A deviation from unit magnitude is 6.44D-15 for    306.
 Iteration    1 A^-1*A deviation from orthogonality  is 2.36D-15 for   2500   2385.
 Error on total polarization charges =  0.01977
 SCF Done:  E(RM062X) =  -1248.26058186     A.U. after   16 cycles
            NFock= 16  Conv=0.37D-08     -V/T= 2.0030
 SMD-CDS (non-electrostatic) energy       (kcal/mol) =      -3.29
 (included in total energy above)

 **********************************************************************

            Population analysis using the SCF density.

 **********************************************************************

 Orbital symmetries:
       Occupied  (A) (A) (A) (A) (A) (A) (A) (A) (A) (A) (A) (A)
                 (A) (A) (A) (A) (A) (A) (A) (A) (A) (A) (A) (A)
                 (A) (A) (A) (A) (A) (A) (A) (A) (A) (A) (A) (A)
                 (A) (A) (A) (A) (A) (A) (A) (A) (A) (A) (A) (A)
                 (A) (A) (A) (A) (A) (A) (A) (A) (A) (A) (A) (A)
                 (A) (A) (A) (A) (A) (A) (A) (A) (A) (A) (A) (A)
                 (A) (A) (A) (A) (A) (A) (A) (A)
       Virtual   (A) (A) (A) (A) (A) (A) (A) (A) (A) (A) (A) (A)
                 (A) (A) (A) (A) (A) (A) (A) (A) (A) (A) (A) (A)
                 (A) (A) (A) (A) (A) (A) (A) (A) (A) (A) (A) (A)
                 (A) (A) (A) (A) (A) (A) (A) (A) (A) (A) (A) (A)
                 (A) (A) (A) (A) (A) (A) (A) (A) (A) (A) (A) (A)
                 (A) (A) (A) (A) (A) (A) (A) (A) (A) (A) (A) (A)
                 (A) (A) (A) (A) (A) (A) (A) (A) (A) (A) (A) (A)
                 (A) (A) (A) (A) (A) (A) (A) (A) (A) (A) (A) (A)
                 (A) (A) (A) (A) (A) (A) (A) (A) (A) (A) (A) (A)
                 (A) (A) (A) (A) (A) (A) (A) (A) (A) (A) (A) (A)
                 (A) (A) (A) (A) (A) (A) (A) (A) (A) (A) (A) (A)
                 (A) (A) (A) (A) (A) (A) (A) (A) (A) (A) (A) (A)
                 (A) (A) (A) (A) (A) (A) (A) (A) (A) (A) (A) (A)
                 (A) (A) (A) (A) (A) (A) (A) (A) (A) (A) (A) (A)
                 (A) (A) (A) (A) (A) (A) (A) (A) (A) (A) (A) (A)
                 (A) (A) (A) (A) (A) (A) (A) (A) (A) (A) (A) (A)
                 (A) (A) (A) (A) (A) (A) (A) (A) (A) (A) (A) (A)
                 (A) (A) (A) (A) (A) (A) (A) (A) (A) (A) (A) (A)
                 (A) (A) (A) (A) (A) (A) (A) (A) (A) (A) (A) (A)
                 (A) (A) (A) (A) (A) (A) (A) (A) (A) (A) (A) (A)
                 (A) (A) (A) (A) (A) (A) (A) (A) (A) (A) (A) (A)
                 (A) (A) (A) (A) (A) (A) (A) (A) (A) (A) (A) (A)
                 (A) (A) (A) (A) (A) (A) (A) (A) (A) (A) (A) (A)
                 (A) (A) (A) (A) (A) (A) (A) (A) (A) (A) (A) (A)
                 (A) (A) (A) (A) (A) (A) (A) (A) (A) (A) (A) (A)
                 (A) (A) (A) (A) (A) (A) (A) (A) (A) (A) (A) (A)
                 (A) (A) (A) (A) (A) (A) (A) (A) (A) (A) (A) (A)
                 (A) (A) (A) (A) (A) (A) (A) (A) (A) (A) (A) (A)
                 (A) (A) (A) (A) (A) (A) (A) (A) (A) (A) (A) (A)
                 (A) (A) (A) (A) (A) (A) (A) (A) (A) (A) (A) (A)
                 (A) (A) (A) (A) (A) (A) (A) (A) (A) (A) (A) (A)
                 (A) (A) (A) (A) (A) (A) (A) (A) (A) (A) (A) (A)
                 (A) (A) (A) (A) (A) (A) (A) (A) (A) (A) (A) (A)
                 (A) (A) (A) (A) (A) (A) (A) (A) (A) (A) (A) (A)
                 (A) (A) (A) (A) (A) (A) (A) (A)
 The electronic state is 1-A.
 Alpha  occ. eigenvalues --  -25.28712 -25.28437 -25.28174 -25.28133 -25.27942
 Alpha  occ. eigenvalues --  -25.27605 -19.60167 -14.80351 -14.78029 -10.81489
 Alpha  occ. eigenvalues --  -10.80945 -10.68993 -10.62454 -10.60053 -10.58926
 Alpha  occ. eigenvalues --  -10.57792 -10.57687 -10.57442 -10.56241 -10.54528
 Alpha  occ. eigenvalues --  -10.53044  -1.48124  -1.47382  -1.38677  -1.38316
 Alpha  occ. eigenvalues --   -1.37985  -1.37648  -1.19583  -1.08037  -1.04520
 Alpha  occ. eigenvalues --   -1.00062  -0.90989  -0.90414  -0.88654  -0.83467
 Alpha  occ. eigenvalues --   -0.81386  -0.78805  -0.75277  -0.74322  -0.71009
 Alpha  occ. eigenvalues --   -0.70446  -0.70359  -0.69787  -0.69778  -0.69535
 Alpha  occ. eigenvalues --   -0.68514  -0.65256  -0.64609  -0.60489  -0.58744
 Alpha  occ. eigenvalues --   -0.58664  -0.57870  -0.57788  -0.57001  -0.56147
 Alpha  occ. eigenvalues --   -0.55644  -0.54784  -0.54473  -0.53547  -0.53355
 Alpha  occ. eigenvalues --   -0.53214  -0.52654  -0.52011  -0.51643  -0.51475
 Alpha  occ. eigenvalues --   -0.50574  -0.49458  -0.48885  -0.47702  -0.46180
 Alpha  occ. eigenvalues --   -0.45485  -0.44037  -0.43402  -0.41391  -0.40929
 Alpha  occ. eigenvalues --   -0.40041  -0.36271  -0.34364  -0.33559  -0.29544
 Alpha virt. eigenvalues --   -0.02021  -0.00907  -0.00492   0.01819   0.02116
 Alpha virt. eigenvalues --    0.02984   0.03149   0.03362   0.04365   0.04593
 Alpha virt. eigenvalues --    0.04940   0.05119   0.06130   0.06319   0.06702
 Alpha virt. eigenvalues --    0.06916   0.06949   0.07467   0.08516   0.08655
 Alpha virt. eigenvalues --    0.08863   0.08952   0.09640   0.10976   0.11119
 Alpha virt. eigenvalues --    0.11271   0.12205   0.12348   0.12719   0.12896
 Alpha virt. eigenvalues --    0.13972   0.14187   0.14439   0.14944   0.15830
 Alpha virt. eigenvalues --    0.16186   0.16490   0.17234   0.17630   0.17641
 Alpha virt. eigenvalues --    0.18074   0.18473   0.19025   0.19328   0.19748
 Alpha virt. eigenvalues --    0.19970   0.20748   0.20997   0.21168   0.21527
 Alpha virt. eigenvalues --    0.21856   0.22694   0.22870   0.23121   0.23577
 Alpha virt. eigenvalues --    0.23650   0.24034   0.24344   0.24733   0.25288
 Alpha virt. eigenvalues --    0.25680   0.25977   0.26695   0.26761   0.27141
 Alpha virt. eigenvalues --    0.27337   0.27903   0.28090   0.28255   0.28560
 Alpha virt. eigenvalues --    0.28668   0.28817   0.29616   0.30137   0.30431
 Alpha virt. eigenvalues --    0.31249   0.31676   0.31869   0.32047   0.32423
 Alpha virt. eigenvalues --    0.33473   0.33935   0.34502   0.34726   0.35302
 Alpha virt. eigenvalues --    0.35569   0.35883   0.36128   0.36832   0.37625
 Alpha virt. eigenvalues --    0.37819   0.38234   0.38841   0.39321   0.39590
 Alpha virt. eigenvalues --    0.40206   0.40562   0.41355   0.42223   0.42868
 Alpha virt. eigenvalues --    0.43344   0.43594   0.44136   0.44778   0.44994
 Alpha virt. eigenvalues --    0.45391   0.46311   0.46327   0.46986   0.48155
 Alpha virt. eigenvalues --    0.48503   0.49071   0.49978   0.50212   0.51359
 Alpha virt. eigenvalues --    0.52326   0.52614   0.53459   0.55319   0.55542
 Alpha virt. eigenvalues --    0.55742   0.56883   0.57380   0.58140   0.59442
 Alpha virt. eigenvalues --    0.59679   0.60937   0.61361   0.61960   0.62988
 Alpha virt. eigenvalues --    0.63713   0.64913   0.65346   0.66595   0.67300
 Alpha virt. eigenvalues --    0.67569   0.68801   0.69909   0.70471   0.70907
 Alpha virt. eigenvalues --    0.71363   0.72292   0.72489   0.73104   0.73408
 Alpha virt. eigenvalues --    0.73901   0.74229   0.74939   0.76390   0.76678
 Alpha virt. eigenvalues --    0.76963   0.78004   0.78196   0.78718   0.79815
 Alpha virt. eigenvalues --    0.80049   0.82062   0.82440   0.82584   0.84757
 Alpha virt. eigenvalues --    0.86336   0.87826   0.88104   0.91207   0.92392
 Alpha virt. eigenvalues --    0.92644   0.93975   0.94674   0.95147   0.96505
 Alpha virt. eigenvalues --    0.97699   0.99460   0.99875   1.02410   1.03447
 Alpha virt. eigenvalues --    1.05190   1.06224   1.06534   1.08239   1.09938
 Alpha virt. eigenvalues --    1.10521   1.11129   1.14580   1.15235   1.15953
 Alpha virt. eigenvalues --    1.16693   1.18347   1.20514   1.23100   1.23878
 Alpha virt. eigenvalues --    1.24454   1.26072   1.26128   1.29165   1.34118
 Alpha virt. eigenvalues --    1.35226   1.37123   1.38205   1.39504   1.41102
 Alpha virt. eigenvalues --    1.43184   1.43890   1.44582   1.45795   1.46345
 Alpha virt. eigenvalues --    1.48184   1.48357   1.48890   1.49367   1.49673
 Alpha virt. eigenvalues --    1.49979   1.52185   1.52780   1.53587   1.54173
 Alpha virt. eigenvalues --    1.54483   1.55045   1.55396   1.56751   1.57938
 Alpha virt. eigenvalues --    1.58256   1.59088   1.59310   1.59623   1.60483
 Alpha virt. eigenvalues --    1.61303   1.61913   1.62078   1.62400   1.63526
 Alpha virt. eigenvalues --    1.64594   1.66194   1.68097   1.72179   1.75084
 Alpha virt. eigenvalues --    1.76439   1.76634   1.77753   1.78248   1.79360
 Alpha virt. eigenvalues --    1.80336   1.82359   1.83719   1.84222   1.84382
 Alpha virt. eigenvalues --    1.86214   1.87782   1.88811   1.89210   1.90879
 Alpha virt. eigenvalues --    1.93817   1.95701   1.96542   1.98518   2.00025
 Alpha virt. eigenvalues --    2.01454   2.04391   2.04862   2.05923   2.10076
 Alpha virt. eigenvalues --    2.10453   2.12000   2.13434   2.14396   2.15221
 Alpha virt. eigenvalues --    2.17022   2.21341   2.22232   2.23726   2.25784
 Alpha virt. eigenvalues --    2.28484   2.33099   2.36470   2.38179   2.39683
 Alpha virt. eigenvalues --    2.41005   2.42974   2.43716   2.45910   2.51735
 Alpha virt. eigenvalues --    2.54508   2.55048   2.56341   2.58429   2.59530
 Alpha virt. eigenvalues --    2.61135   2.62258   2.64686   2.67010   2.70940
 Alpha virt. eigenvalues --    2.72150   2.76184   2.81302   2.81902   2.83243
 Alpha virt. eigenvalues --    2.84848   2.88124   2.90782   2.93154   2.94765
 Alpha virt. eigenvalues --    2.97791   2.99318   2.99397   3.00593   3.01930
 Alpha virt. eigenvalues --    3.05195   3.05648   3.06179   3.09832   3.11678
 Alpha virt. eigenvalues --    3.12942   3.13658   3.17285   3.21887   3.24980
 Alpha virt. eigenvalues --    3.25166   3.28770   3.30814   3.35486   3.38600
 Alpha virt. eigenvalues --    3.41050   3.41654   3.43213   3.44472   3.48475
 Alpha virt. eigenvalues --    3.55329   3.57577   3.66724   3.70204   3.71016
 Alpha virt. eigenvalues --    3.77890   3.78957   3.80364   3.80994   3.82845
 Alpha virt. eigenvalues --    3.84028   3.84563   3.85334   3.85780   3.86174
 Alpha virt. eigenvalues --    3.87069   3.87537   3.88706   3.89108   3.90996
 Alpha virt. eigenvalues --    3.94404   3.98030   3.98993   3.99574   4.00983
 Alpha virt. eigenvalues --    4.01396   4.01799   4.02348   4.05850   4.05904
 Alpha virt. eigenvalues --    4.12018   4.13307   4.21722   4.23355   4.27780
 Alpha virt. eigenvalues --    4.28582   4.31215   4.32725   4.54122   4.58265
 Alpha virt. eigenvalues --    4.72661   4.79935   4.81798   4.89166   4.99429
 Alpha virt. eigenvalues --    4.99785   5.02166   5.03233   5.17664   5.21091
 Alpha virt. eigenvalues --    5.42139   5.90420   6.46417   6.48218   6.49902
 Alpha virt. eigenvalues --    6.50594   6.51399   6.53379   6.53843   6.55095
 Alpha virt. eigenvalues --    6.55490   6.56176   6.58845   6.62543   6.63604
 Alpha virt. eigenvalues --    6.63908   6.88449   6.89662   6.90046   6.91577
 Alpha virt. eigenvalues --   23.45860  23.58307  23.64619  23.65570  23.73405
 Alpha virt. eigenvalues --   23.80557  23.92911  23.93635  23.97380  24.08693
 Alpha virt. eigenvalues --   24.12873  24.20294  35.58814  35.69267  50.14234
 Alpha virt. eigenvalues --   66.89755  66.90172  66.90714  66.91450  66.96253
 Alpha virt. eigenvalues --   66.98538
          Condensed to atoms (all electrons):
               1          2          3          4          5          6
     1  C   29.717137  -0.137555  -1.178407  -0.383333  -0.477067  -0.706708
     2  N   -0.137555   7.942675   0.269629  -0.052482  -0.664251  -0.499074
     3  C   -1.178407   0.269629   8.753867   0.645167   0.079132  -1.156865
     4  O   -0.383333  -0.052482   0.645167   8.061384  -0.199008  -0.129338
     5  N   -0.477067  -0.664251   0.079132  -0.199008   7.830889   0.695216
     6  C   -0.706708  -0.499074  -1.156865  -0.129338   0.695216   8.569834
     7  C    0.018774   0.035408   0.254584   0.014583  -0.164704  -0.917677
     8  C   -0.013091  -0.011197  -0.227458  -0.002130   0.005568   0.380984
     9  C    1.282405   0.125952  -0.025448  -0.100465  -0.092519   0.007995
    10  C   -6.151828   0.190649  -1.607685  -0.061788  -0.022575  -0.101726
    11  C   -5.437296   0.043691   0.014367   0.047731   0.086483   0.016081
    12  C   -4.094546   0.065725   0.249145   0.159510   0.039508  -0.015192
    13  C   -2.004866  -0.214226  -0.228136   0.364598   0.015038  -0.134211
    14  H   -0.087030   0.226718  -0.035073  -0.001423   0.078065   0.021837
    15  H   -0.017763   0.090110   0.045095  -0.002545   0.227456  -0.092671
    16  H    0.009831   0.008156   0.034865   0.000352  -0.046626   0.364717
    17  H    0.014861   0.008859   0.079829  -0.004205  -0.085271   0.352385
    18  H   -0.005837  -0.000516  -0.023550  -0.000189   0.004298  -0.057352
    19  H    0.006255  -0.001007   0.033021  -0.000153   0.003463  -0.089923
    20  H    0.000364   0.000001   0.010419  -0.000041  -0.000036  -0.039737
    21  H    0.000030   0.000002   0.004045   0.000025  -0.001310   0.076011
    22  H   -0.000441  -0.000066  -0.010874  -0.000071   0.000295  -0.050886
    23  H    0.121539  -0.019562  -0.010284   0.000005  -0.001522  -0.001028
    24  H   -0.000008  -0.025402   0.072754   0.006105   0.004122   0.008266
    25  C    0.750171   0.023322   0.041177   0.002846   0.013400   0.004774
    26  C   -4.740067  -0.014690  -0.232134  -0.004634  -0.010762  -0.008893
    27  H    0.000231  -0.001595   0.002548   0.000102   0.000035   0.000030
    28  F   -0.032033   0.000048  -0.001141   0.000002   0.000003  -0.000005
    29  F   -0.006371  -0.000084  -0.000341  -0.000000   0.000002  -0.000001
    30  F    0.005158   0.000072   0.000018   0.000003   0.000007   0.000005
    31  F    0.195336   0.000476  -0.001108  -0.000000   0.000015  -0.000002
    32  F    0.041826   0.000669  -0.001015   0.000001   0.000007  -0.000009
    33  F   -0.030495   0.001039  -0.000148  -0.000001  -0.000003   0.000006
               7          8          9         10         11         12
     1  C    0.018774  -0.013091   1.282405  -6.151828  -5.437296  -4.094546
     2  N    0.035408  -0.011197   0.125952   0.190649   0.043691   0.065725
     3  C    0.254584  -0.227458  -0.025448  -1.607685   0.014367   0.249145
     4  O    0.014583  -0.002130  -0.100465  -0.061788   0.047731   0.159510
     5  N   -0.164704   0.005568  -0.092519  -0.022575   0.086483   0.039508
     6  C   -0.917677   0.380984   0.007995  -0.101726   0.016081  -0.015192
     7  C    6.327520  -0.192706   0.008548   0.002438  -0.002944  -0.005293
     8  C   -0.192706   6.075649   0.000199  -0.000447  -0.000117  -0.000832
     9  C    0.008548   0.000199  15.655478   2.282124  -6.586155  -4.422142
    10  C    0.002438  -0.000447   2.282124  52.473178 -21.156404  -5.438557
    11  C   -0.002944  -0.000117  -6.586155 -21.156404  52.925003   2.922861
    12  C   -0.005293  -0.000832  -4.422142  -5.438557   2.922861  22.415698
    13  C   -0.007530  -0.005908  -1.114280  -7.840402  -8.826092  -4.909195
    14  H   -0.002832   0.000173  -0.011736  -0.003785   0.003824   0.021922
    15  H    0.004340   0.003742  -0.007326  -0.001020  -0.002560   0.003727
    16  H   -0.003482  -0.020900   0.004135   0.000332  -0.000277  -0.002457
    17  H   -0.049519  -0.008602   0.001048   0.000851  -0.000333  -0.000570
    18  H    0.458372  -0.033720   0.000567  -0.000100   0.000014   0.000009
    19  H    0.445341  -0.054688  -0.000434   0.000126  -0.000002   0.000034
    20  H    0.010768   0.364502  -0.000018   0.000003  -0.000000   0.000001
    21  H   -0.115526   0.387348  -0.000017  -0.000001   0.000000   0.000002
    22  H    0.014218   0.393036   0.000029  -0.000003   0.000000  -0.000004
    23  H    0.000027  -0.000002   0.344494  -0.085446  -0.060488  -0.001516
    24  H   -0.000350   0.000053  -0.037719  -0.028528   0.064156   0.021303
    25  C   -0.000287   0.000013  -1.925443  -0.361813  -3.127821  -1.139029
    26  C    0.000170  -0.000009   0.826219  -5.039329  -3.732226  -0.332307
    27  H    0.000002   0.000000   0.002299  -0.020854  -0.131699   0.319824
    28  F    0.000000  -0.000000   0.029922  -0.363553   0.070794   0.148469
    29  F   -0.000000  -0.000000  -0.000155  -0.074326   0.252820  -0.092250
    30  F   -0.000000   0.000000  -0.008485  -0.074105  -0.226408   0.130111
    31  F    0.000001  -0.000000   0.204372  -0.319094  -0.096211  -0.002804
    32  F    0.000000   0.000000   0.085292   0.088008  -0.285863   0.020538
    33  F    0.000000   0.000000  -0.098623   0.391934  -0.091239  -0.011199
              13         14         15         16         17         18
     1  C   -2.004866  -0.087030  -0.017763   0.009831   0.014861  -0.005837
     2  N   -0.214226   0.226718   0.090110   0.008156   0.008859  -0.000516
     3  C   -0.228136  -0.035073   0.045095   0.034865   0.079829  -0.023550
     4  O    0.364598  -0.001423  -0.002545   0.000352  -0.004205  -0.000189
     5  N    0.015038   0.078065   0.227456  -0.046626  -0.085271   0.004298
     6  C   -0.134211   0.021837  -0.092671   0.364717   0.352385  -0.057352
     7  C   -0.007530  -0.002832   0.004340  -0.003482  -0.049519   0.458372
     8  C   -0.005908   0.000173   0.003742  -0.020900  -0.008602  -0.033720
     9  C   -1.114280  -0.011736  -0.007326   0.004135   0.001048   0.000567
    10  C   -7.840402  -0.003785  -0.001020   0.000332   0.000851  -0.000100
    11  C   -8.826092   0.003824  -0.002560  -0.000277  -0.000333   0.000014
    12  C   -4.909195   0.021922   0.003727  -0.002457  -0.000570   0.000009
    13  C   30.675963   0.055329   0.019331  -0.012177   0.000061  -0.000415
    14  H    0.055329   0.336476   0.002049  -0.000013   0.000129   0.000011
    15  H    0.019331   0.002049   0.363458   0.001999   0.002362   0.003293
    16  H   -0.012177  -0.000013   0.001999   0.429204  -0.038753   0.005176
    17  H    0.000061   0.000129   0.002362  -0.038753   0.456720  -0.009431
    18  H   -0.000415   0.000011   0.003293   0.005176  -0.009431   0.464409
    19  H    0.000571   0.000041  -0.001237  -0.007815   0.006050  -0.044129
    20  H    0.000051  -0.000000   0.000024  -0.000180   0.003256  -0.008265
    21  H    0.000051   0.000000  -0.000019  -0.000196  -0.000085  -0.003329
    22  H   -0.000089  -0.000000  -0.000021   0.003374  -0.000805   0.006378
    23  H   -0.010969   0.006944   0.000029  -0.000000   0.000001  -0.000000
    24  H    0.230558   0.000059  -0.000030  -0.000020  -0.000020  -0.000000
    25  C   -2.983626   0.002421  -0.000114  -0.000007  -0.000010   0.000000
    26  C    2.362842   0.005944   0.000543  -0.000001   0.000038  -0.000009
    27  H    0.153266  -0.000001   0.000000  -0.000000   0.000000   0.000000
    28  F    0.086095   0.000000  -0.000000  -0.000000   0.000000  -0.000000
    29  F   -0.028963   0.000000  -0.000000   0.000000  -0.000000   0.000000
    30  F    0.263038   0.000001  -0.000000  -0.000000  -0.000000   0.000000
    31  F   -0.017413   0.000059  -0.000000   0.000000  -0.000000   0.000000
    32  F   -0.000876  -0.000004   0.000000  -0.000000   0.000000  -0.000000
    33  F   -0.013146  -0.000020   0.000000  -0.000000   0.000000   0.000000
              19         20         21         22         23         24
     1  C    0.006255   0.000364   0.000030  -0.000441   0.121539  -0.000008
     2  N   -0.001007   0.000001   0.000002  -0.000066  -0.019562  -0.025402
     3  C    0.033021   0.010419   0.004045  -0.010874  -0.010284   0.072754
     4  O   -0.000153  -0.000041   0.000025  -0.000071   0.000005   0.006105
     5  N    0.003463  -0.000036  -0.001310   0.000295  -0.001522   0.004122
     6  C   -0.089923  -0.039737   0.076011  -0.050886  -0.001028   0.008266
     7  C    0.445341   0.010768  -0.115526   0.014218   0.000027  -0.000350
     8  C   -0.054688   0.364502   0.387348   0.393036  -0.000002   0.000053
     9  C   -0.000434  -0.000018  -0.000017   0.000029   0.344494  -0.037719
    10  C    0.000126   0.000003  -0.000001  -0.000003  -0.085446  -0.028528
    11  C   -0.000002  -0.000000   0.000000   0.000000  -0.060488   0.064156
    12  C    0.000034   0.000001   0.000002  -0.000004  -0.001516   0.021303
    13  C    0.000571   0.000051   0.000051  -0.000089  -0.010969   0.230558
    14  H    0.000041  -0.000000   0.000000  -0.000000   0.006944   0.000059
    15  H   -0.001237   0.000024  -0.000019  -0.000021   0.000029  -0.000030
    16  H   -0.007815  -0.000180  -0.000196   0.003374  -0.000000  -0.000020
    17  H    0.006050   0.003256  -0.000085  -0.000805   0.000001  -0.000020
    18  H   -0.044129  -0.008265  -0.003329   0.006378  -0.000000  -0.000000
    19  H    0.444396   0.005925  -0.003347  -0.008507   0.000000  -0.000000
    20  H    0.005925   0.449074  -0.025332  -0.035647   0.000000  -0.000000
    21  H   -0.003347  -0.025332   0.431325  -0.023887   0.000000   0.000000
    22  H   -0.008507  -0.035647  -0.023887   0.447730  -0.000000  -0.000000
    23  H    0.000000   0.000000   0.000000  -0.000000   0.386576  -0.000051
    24  H   -0.000000  -0.000000   0.000000  -0.000000  -0.000051   0.355953
    25  C    0.000000  -0.000000   0.000000  -0.000000   0.013839   0.015125
    26  C    0.000007   0.000000  -0.000000  -0.000000   0.024638  -0.004233
    27  H   -0.000000   0.000000  -0.000000   0.000000   0.000033  -0.002761
    28  F    0.000000  -0.000000   0.000000  -0.000000   0.000027   0.000007
    29  F   -0.000000  -0.000000   0.000000   0.000000   0.000014   0.000040
    30  F    0.000000  -0.000000   0.000000  -0.000000   0.000011  -0.000030
    31  F   -0.000000  -0.000000  -0.000000   0.000000   0.010903  -0.000003
    32  F    0.000000   0.000000   0.000000  -0.000000   0.000760  -0.000004
    33  F   -0.000000  -0.000000  -0.000000   0.000000  -0.001256  -0.000003
              25         26         27         28         29         30
     1  C    0.750171  -4.740067   0.000231  -0.032033  -0.006371   0.005158
     2  N    0.023322  -0.014690  -0.001595   0.000048  -0.000084   0.000072
     3  C    0.041177  -0.232134   0.002548  -0.001141  -0.000341   0.000018
     4  O    0.002846  -0.004634   0.000102   0.000002  -0.000000   0.000003
     5  N    0.013400  -0.010762   0.000035   0.000003   0.000002   0.000007
     6  C    0.004774  -0.008893   0.000030  -0.000005  -0.000001   0.000005
     7  C   -0.000287   0.000170   0.000002   0.000000  -0.000000  -0.000000
     8  C    0.000013  -0.000009   0.000000  -0.000000  -0.000000   0.000000
     9  C   -1.925443   0.826219   0.002299   0.029922  -0.000155  -0.008485
    10  C   -0.361813  -5.039329  -0.020854  -0.363553  -0.074326  -0.074105
    11  C   -3.127821  -3.732226  -0.131699   0.070794   0.252820  -0.226408
    12  C   -1.139029  -0.332307   0.319824   0.148469  -0.092250   0.130111
    13  C   -2.983626   2.362842   0.153266   0.086095  -0.028963   0.263038
    14  H    0.002421   0.005944  -0.000001   0.000000   0.000000   0.000001
    15  H   -0.000114   0.000543   0.000000  -0.000000  -0.000000  -0.000000
    16  H   -0.000007  -0.000001  -0.000000  -0.000000   0.000000  -0.000000
    17  H   -0.000010   0.000038   0.000000   0.000000  -0.000000  -0.000000
    18  H    0.000000  -0.000009   0.000000  -0.000000   0.000000   0.000000
    19  H    0.000000   0.000007  -0.000000   0.000000  -0.000000   0.000000
    20  H   -0.000000   0.000000   0.000000  -0.000000  -0.000000  -0.000000
    21  H    0.000000  -0.000000  -0.000000   0.000000   0.000000   0.000000
    22  H   -0.000000  -0.000000   0.000000  -0.000000   0.000000  -0.000000
    23  H    0.013839   0.024638   0.000033   0.000027   0.000014   0.000011
    24  H    0.015125  -0.004233  -0.002761   0.000007   0.000040  -0.000030
    25  C   20.770694  -7.226714  -0.022097  -0.082746   0.134800   0.019793
    26  C   -7.226714  22.552425   0.016175   0.296767  -0.020777   0.030426
    27  H   -0.022097   0.016175   0.375574   0.000832  -0.000705   0.010231
    28  F   -0.082746   0.296767   0.000832   8.985862  -0.039848  -0.024419
    29  F    0.134800  -0.020777  -0.000705  -0.039848   8.960456  -0.042064
    30  F    0.019793   0.030426   0.010231  -0.024419  -0.042064   9.033207
    31  F    0.029355   0.143463   0.000011   0.001733   0.000092   0.000070
    32  F    0.258064  -0.053948   0.000046  -0.004838   0.002341   0.001681
    33  F   -0.006483   0.037975   0.000009   0.003546  -0.000960   0.000053
              31         32         33
     1  C    0.195336   0.041826  -0.030495
     2  N    0.000476   0.000669   0.001039
     3  C   -0.001108  -0.001015  -0.000148
     4  O   -0.000000   0.000001  -0.000001
     5  N    0.000015   0.000007  -0.000003
     6  C   -0.000002  -0.000009   0.000006
     7  C    0.000001   0.000000   0.000000
     8  C   -0.000000   0.000000   0.000000
     9  C    0.204372   0.085292  -0.098623
    10  C   -0.319094   0.088008   0.391934
    11  C   -0.096211  -0.285863  -0.091239
    12  C   -0.002804   0.020538  -0.011199
    13  C   -0.017413  -0.000876  -0.013146
    14  H    0.000059  -0.000004  -0.000020
    15  H   -0.000000   0.000000   0.000000
    16  H    0.000000  -0.000000  -0.000000
    17  H   -0.000000   0.000000   0.000000
    18  H    0.000000  -0.000000   0.000000
    19  H   -0.000000   0.000000  -0.000000
    20  H   -0.000000   0.000000  -0.000000
    21  H   -0.000000   0.000000  -0.000000
    22  H    0.000000  -0.000000   0.000000
    23  H    0.010903   0.000760  -0.001256
    24  H   -0.000003  -0.000004  -0.000003
    25  C    0.029355   0.258064  -0.006483
    26  C    0.143463  -0.053948   0.037975
    27  H    0.000011   0.000046   0.000009
    28  F    0.001733  -0.004838   0.003546
    29  F    0.000092   0.002341  -0.000960
    30  F    0.000070   0.001681   0.000053
    31  F    9.040253  -0.026506  -0.042710
    32  F   -0.026506   8.976388  -0.041051
    33  F   -0.042710  -0.041051   8.937486
 Mulliken charges:
               1
     1  C   -0.659175
     2  N   -0.391497
     3  C    0.150004
     4  O   -0.360607
     5  N   -0.317349
     6  C   -0.496842
     7  C   -0.132244
     8  C   -1.039458
     9  C   -0.430116
    10  C   -0.676271
    11  C   -0.683688
    12  C   -0.050497
    13  C    0.125728
    14  H    0.379914
    15  H    0.357749
    16  H    0.270763
    17  H    0.271156
    18  H    0.244314
    19  H    0.266012
    20  H    0.264867
    21  H    0.274207
    22  H    0.266241
    23  H    0.282284
    24  H    0.320660
    25  C    0.796396
    26  C    1.123099
    27  H    0.298465
    28  F   -0.075523
    29  F   -0.043720
    30  F   -0.118374
    31  F   -0.120284
    32  F   -0.061506
    33  F   -0.034708
 Sum of Mulliken charges =  -0.00000
 Mulliken charges with hydrogens summed into heavy atoms:
               1
     1  C   -0.659175
     2  N   -0.011583
     3  C    0.150004
     4  O   -0.360607
     5  N    0.040399
     6  C    0.045077
     7  C    0.378081
     8  C   -0.234142
     9  C   -0.147831
    10  C   -0.676271
    11  C   -0.683688
    12  C    0.247968
    13  C    0.446389
    25  C    0.796396
    26  C    1.123099
    28  F   -0.075523
    29  F   -0.043720
    30  F   -0.118374
    31  F   -0.120284
    32  F   -0.061506
    33  F   -0.034708
 Electronic spatial extent (au):  <R**2>=          10077.3693
 Charge=             -0.0000 electrons
 Dipole moment (field-independent basis, Debye):
    X=              8.0324    Y=              3.1978    Z=              0.2340  Tot=              8.6487
 Quadrupole moment (field-independent basis, Debye-Ang):
   XX=           -117.7555   YY=           -120.4803   ZZ=           -124.2089
   XY=             15.2879   XZ=              1.9465   YZ=              0.5901
 Traceless Quadrupole moment (field-independent basis, Debye-Ang):
   XX=              3.0594   YY=              0.3346   ZZ=             -3.3940
   XY=             15.2879   XZ=              1.9465   YZ=              0.5901
 Octapole moment (field-independent basis, Debye-Ang**2):
  XXX=            127.8162  YYY=             14.1086  ZZZ=              2.2191  XYY=            -22.5058
  XXY=             49.7233  XXZ=              6.3985  XZZ=            -27.4226  YZZ=              3.6964
  YYZ=              0.2445  XYZ=              1.0543
 Hexadecapole moment (field-independent basis, Debye-Ang**3):
 XXXX=         -10103.9223 YYYY=          -1382.5101 ZZZZ=           -280.9476 XXXY=            120.8891
 XXXZ=             24.2373 YYYX=             46.5972 YYYZ=             -3.6520 ZZZX=              1.3999
 ZZZY=              2.1473 XXYY=          -2083.3809 XXZZ=          -1868.7389 YYZZ=           -285.2463
 XXYZ=             17.8974 YYXZ=             -4.8509 ZZXY=            -11.3944
 N-N= 1.765016788100D+03 E-N=-6.469550383157D+03  KE= 1.244500512635D+03
 D1PCM: PCM CHGder 1st derivatives, ID1Alg=3 FixD1E=F DoIter=F DoCFld=F I1PDM=0.
 Calling FoFJK, ICntrl=      2127 FMM=F ISym2X=0 I1Cent= 0 IOpClX= 0 NMat=1 NMatS=1 NMatT=0.
 ***** Axes restored to original set *****
 -------------------------------------------------------------------
 Center     Atomic                   Forces (Hartrees/Bohr)
 Number     Number              X              Y              Z
 -------------------------------------------------------------------
      1        6          -0.000007926    0.000017103    0.000003593
      2        7           0.000004870   -0.000010672   -0.000003257
      3        6          -0.000002268    0.000011033    0.000004278
      4        8          -0.000000444   -0.000002741   -0.000000335
      5        7           0.000003400   -0.000004112   -0.000001561
      6        6           0.000005463    0.000001852   -0.000003282
      7        6          -0.000007586   -0.000004085    0.000004454
      8        6           0.000004403    0.000001531    0.000001861
      9        6          -0.000002047    0.000001631   -0.000000952
     10        6          -0.000000037   -0.000009793   -0.000004155
     11        6           0.000010046    0.000012461   -0.000002690
     12        6          -0.000014462    0.000001378   -0.000004421
     13        6           0.000010719   -0.000011770   -0.000002391
     14        1          -0.000000173    0.000000461    0.000001099
     15        1          -0.000002996   -0.000004154    0.000002148
     16        1           0.000001318    0.000000293    0.000003112
     17        1           0.000000988   -0.000002402    0.000006239
     18        1           0.000000673   -0.000002087    0.000004590
     19        1          -0.000001957   -0.000001373    0.000000967
     20        1           0.000000711   -0.000001581    0.000004181
     21        1          -0.000000522   -0.000003258    0.000004636
     22        1          -0.000001028   -0.000000923    0.000003928
     23        1           0.000000380   -0.000000705   -0.000000205
     24        1          -0.000001890    0.000001610   -0.000000080
     25        6           0.000001078    0.000006344   -0.000002189
     26        6          -0.000003534    0.000004180    0.000004971
     27        1           0.000001106    0.000000351   -0.000001959
     28        9          -0.000003665   -0.000003394   -0.000004945
     29        9           0.000002513   -0.000001310   -0.000000333
     30        9           0.000001911    0.000003801   -0.000003953
     31        9           0.000000255   -0.000003695   -0.000006120
     32        9           0.000001890   -0.000000506   -0.000001093
     33        9          -0.000001188    0.000004533   -0.000006136
 -------------------------------------------------------------------
 Cartesian Forces:  Max     0.000017103 RMS     0.000004767

 GradGradGradGradGradGradGradGradGradGradGradGradGradGradGradGradGradGrad
 Berny optimization.
 FormGI is forming the generalized inverse of G from B-inverse, IUseBI=4.
 GSVD:  received Info=                   1 from GESDD.
 Internal  Forces:  Max     0.000008762 RMS     0.000002482
 Search for a local minimum.
 Step number   1 out of a maximum of  172
 All quantities printed in internal units (Hartrees-Bohrs-Radians)
 Mixed Optimization -- En-DIIS/RFO-DIIS
 Second derivative matrix not updated -- first step.
 ITU=  0
     Eigenvalues ---    0.00445   0.00481   0.00611   0.00686   0.00939
     Eigenvalues ---    0.01527   0.01568   0.01651   0.01788   0.01797
     Eigenvalues ---    0.01806   0.01992   0.02016   0.02101   0.02151
     Eigenvalues ---    0.02186   0.02195   0.02203   0.02237   0.02238
     Eigenvalues ---    0.03729   0.04463   0.04937   0.05521   0.05537
     Eigenvalues ---    0.05550   0.08182   0.09197   0.10499   0.10519
     Eigenvalues ---    0.10790   0.10802   0.12077   0.12651   0.15390
     Eigenvalues ---    0.15999   0.15999   0.15999   0.16000   0.16000
     Eigenvalues ---    0.16000   0.16000   0.21895   0.21904   0.22000
     Eigenvalues ---    0.22135   0.22373   0.23479   0.24596   0.24985
     Eigenvalues ---    0.24992   0.24997   0.25000   0.25000   0.25000
     Eigenvalues ---    0.25000   0.25000   0.25000   0.25000   0.25000
     Eigenvalues ---    0.29959   0.30219   0.31178   0.31749   0.34100
     Eigenvalues ---    0.34138   0.34313   0.34474   0.34481   0.34631
     Eigenvalues ---    0.34646   0.35550   0.35674   0.36189   0.37353
     Eigenvalues ---    0.42056   0.42601   0.45662   0.45918   0.46001
     Eigenvalues ---    0.46151   0.46845   0.47084   0.47271   0.48219
     Eigenvalues ---    0.52550   0.56514   0.56548   0.56828   0.57099
     Eigenvalues ---    0.57213   0.57940   0.97476
 RFO step:  Lambda= 0.00000000D+00 EMin= 4.44919816D-03
 Linear search not attempted -- first point.
 Iteration  1 RMS(Cart)=  0.00017272 RMS(Int)=  0.00000001
 Iteration  2 RMS(Cart)=  0.00000002 RMS(Int)=  0.00000000
 Variable       Old X    -DE/DX   Delta X   Delta X   Delta X     New X
                                 (Linear)    (Quad)   (Total)
    R1        2.62928   0.00001   0.00000   0.00002   0.00002   2.62930
    R2        2.65040   0.00000   0.00000   0.00000   0.00000   2.65041
    R3        2.63880  -0.00001   0.00000  -0.00002  -0.00002   2.63879
    R4        2.63190   0.00000   0.00000   0.00001   0.00001   2.63191
    R5        1.90924  -0.00000   0.00000  -0.00000  -0.00000   1.90924
    R6        2.29667  -0.00000   0.00000  -0.00000  -0.00000   2.29666
    R7        2.57377   0.00001   0.00000   0.00001   0.00001   2.57378
    R8        2.75317   0.00000   0.00000   0.00001   0.00001   2.75318
    R9        1.90831   0.00000   0.00000   0.00001   0.00001   1.90832
   R10        2.87529  -0.00000   0.00000  -0.00000  -0.00000   2.87529
   R11        2.06278   0.00000   0.00000   0.00001   0.00001   2.06278
   R12        2.07097  -0.00000   0.00000  -0.00001  -0.00001   2.07096
   R13        2.88045   0.00000   0.00000   0.00001   0.00001   2.88047
   R14        2.07161  -0.00000   0.00000  -0.00000  -0.00000   2.07161
   R15        2.06806  -0.00000   0.00000  -0.00000  -0.00000   2.06805
   R16        2.06537  -0.00000   0.00000  -0.00000  -0.00000   2.06537
   R17        2.06254   0.00000   0.00000   0.00000   0.00000   2.06254
   R18        2.06525   0.00000   0.00000   0.00000   0.00000   2.06525
   R19        2.61343  -0.00000   0.00000  -0.00000  -0.00000   2.61343
   R20        2.04791   0.00000   0.00000   0.00000   0.00000   2.04792
   R21        2.65122   0.00001   0.00000   0.00002   0.00002   2.65124
   R22        2.85675   0.00000   0.00000   0.00000   0.00000   2.85675
   R23        2.62562  -0.00001   0.00000  -0.00002  -0.00002   2.62560
   R24        2.84605  -0.00000   0.00000  -0.00000  -0.00000   2.84605
   R25        2.62310   0.00001   0.00000   0.00002   0.00002   2.62311
   R26        2.04595  -0.00000   0.00000  -0.00000  -0.00000   2.04595
   R27        2.03786  -0.00000   0.00000  -0.00000  -0.00000   2.03786
   R28        2.53217   0.00000   0.00000   0.00001   0.00001   2.53218
   R29        2.53811  -0.00000   0.00000  -0.00001  -0.00001   2.53810
   R30        2.53543   0.00000   0.00000   0.00000   0.00000   2.53543
   R31        2.53781   0.00001   0.00000   0.00001   0.00001   2.53782
   R32        2.52609  -0.00000   0.00000  -0.00000  -0.00000   2.52608
   R33        2.53313  -0.00000   0.00000  -0.00001  -0.00001   2.53312
    A1        2.03918  -0.00001   0.00000  -0.00002  -0.00002   2.03916
    A2        2.17275   0.00000   0.00000   0.00002   0.00002   2.17277
    A3        2.07125   0.00000   0.00000   0.00001   0.00001   2.07126
    A4        2.22531   0.00000   0.00000   0.00001   0.00001   2.22532
    A5        2.01493  -0.00000   0.00000  -0.00000  -0.00000   2.01493
    A6        2.04287  -0.00000   0.00000  -0.00001  -0.00001   2.04287
    A7        2.15470   0.00000   0.00000   0.00001   0.00001   2.15472
    A8        1.97899  -0.00001   0.00000  -0.00003  -0.00003   1.97896
    A9        2.14935   0.00000   0.00000   0.00002   0.00002   2.14937
   A10        2.09937   0.00001   0.00000   0.00003   0.00003   2.09940
   A11        2.08569  -0.00000   0.00000  -0.00001  -0.00001   2.08568
   A12        2.04757  -0.00000   0.00000   0.00002   0.00002   2.04758
   A13        1.92510  -0.00001   0.00000  -0.00003  -0.00003   1.92507
   A14        1.88640   0.00000   0.00000   0.00000   0.00000   1.88640
   A15        1.92626   0.00000   0.00000   0.00003   0.00003   1.92629
   A16        1.92820   0.00000   0.00000  -0.00001  -0.00001   1.92819
   A17        1.92715   0.00000   0.00000   0.00001   0.00001   1.92716
   A18        1.86960  -0.00000   0.00000  -0.00000  -0.00000   1.86960
   A19        1.94546  -0.00000   0.00000  -0.00001  -0.00001   1.94545
   A20        1.91024   0.00000   0.00000   0.00002   0.00002   1.91026
   A21        1.90345   0.00000   0.00000  -0.00000  -0.00000   1.90345
   A22        1.91265   0.00000   0.00000   0.00001   0.00001   1.91265
   A23        1.92344   0.00000   0.00000   0.00000   0.00000   1.92344
   A24        1.86689  -0.00000   0.00000  -0.00001  -0.00001   1.86688
   A25        1.94148   0.00000   0.00000   0.00001   0.00001   1.94149
   A26        1.94072  -0.00000   0.00000  -0.00001  -0.00001   1.94071
   A27        1.93908  -0.00000   0.00000  -0.00001  -0.00001   1.93907
   A28        1.87970   0.00000   0.00000   0.00001   0.00001   1.87971
   A29        1.88016  -0.00000   0.00000  -0.00000  -0.00000   1.88016
   A30        1.87989   0.00000   0.00000   0.00000   0.00000   1.87990
   A31        2.12037   0.00000   0.00000   0.00000   0.00000   2.12037
   A32        2.08071  -0.00000   0.00000  -0.00000  -0.00000   2.08071
   A33        2.08204   0.00000   0.00000   0.00000   0.00000   2.08204
   A34        2.09263  -0.00000   0.00000  -0.00001  -0.00001   2.09262
   A35        2.04386   0.00000   0.00000   0.00002   0.00002   2.04388
   A36        2.14632  -0.00000   0.00000  -0.00000  -0.00000   2.14631
   A37        2.06475   0.00000   0.00000   0.00001   0.00001   2.06476
   A38        2.15529  -0.00000   0.00000  -0.00001  -0.00001   2.15528
   A39        2.06273   0.00000   0.00000   0.00000   0.00000   2.06274
   A40        2.13306  -0.00000   0.00000  -0.00000  -0.00000   2.13306
   A41        2.08217   0.00000   0.00000   0.00000   0.00000   2.08217
   A42        2.06791  -0.00000   0.00000  -0.00000  -0.00000   2.06791
   A43        2.08423  -0.00000   0.00000  -0.00001  -0.00001   2.08423
   A44        2.10032   0.00000   0.00000   0.00002   0.00002   2.10034
   A45        2.09863  -0.00000   0.00000  -0.00001  -0.00001   2.09862
   A46        1.96589  -0.00000   0.00000  -0.00001  -0.00001   1.96588
   A47        1.96249  -0.00000   0.00000  -0.00002  -0.00002   1.96247
   A48        1.94347   0.00000   0.00000   0.00001   0.00001   1.94348
   A49        1.86859  -0.00000   0.00000  -0.00002  -0.00002   1.86857
   A50        1.86135   0.00000   0.00000   0.00003   0.00003   1.86138
   A51        1.85514   0.00000   0.00000   0.00001   0.00001   1.85515
   A52        1.94569   0.00000   0.00000   0.00001   0.00001   1.94570
   A53        1.96331   0.00000   0.00000  -0.00001  -0.00001   1.96331
   A54        1.95487   0.00000   0.00000   0.00000   0.00000   1.95487
   A55        1.86113  -0.00000   0.00000  -0.00001  -0.00001   1.86112
   A56        1.85637   0.00000   0.00000   0.00002   0.00002   1.85639
   A57        1.87626  -0.00000   0.00000  -0.00001  -0.00001   1.87625
    D1        3.04193   0.00000   0.00000   0.00004   0.00004   3.04197
    D2       -0.08573  -0.00000   0.00000  -0.00001  -0.00001  -0.08573
    D3       -0.09827   0.00000   0.00000   0.00005   0.00005  -0.09821
    D4        3.05726   0.00000   0.00000   0.00000   0.00000   3.05726
    D5        3.14146   0.00000   0.00000   0.00001   0.00001   3.14147
    D6       -0.01245   0.00000   0.00000   0.00003   0.00003  -0.01243
    D7       -0.00144  -0.00000   0.00000   0.00000   0.00000  -0.00144
    D8        3.12783   0.00000   0.00000   0.00002   0.00002   3.12785
    D9        3.14158  -0.00000   0.00000  -0.00002  -0.00002   3.14156
   D10       -0.00241  -0.00000   0.00000  -0.00002  -0.00002  -0.00244
   D11        0.00141  -0.00000   0.00000  -0.00001  -0.00001   0.00140
   D12        3.14060  -0.00000   0.00000  -0.00001  -0.00001   3.14058
   D13        0.08918  -0.00000   0.00000  -0.00001  -0.00001   0.08917
   D14       -3.07030  -0.00000   0.00000  -0.00003  -0.00003  -3.07033
   D15       -3.06654   0.00000   0.00000   0.00004   0.00004  -3.06650
   D16        0.05717   0.00000   0.00000   0.00002   0.00002   0.05718
   D17        3.06235   0.00000   0.00000   0.00012   0.00012   3.06247
   D18        0.26587   0.00000   0.00000   0.00000   0.00000   0.26588
   D19       -0.09706   0.00000   0.00000   0.00010   0.00010  -0.09696
   D20       -2.89354  -0.00000   0.00000  -0.00002  -0.00002  -2.89356
   D21        2.98546  -0.00000   0.00000  -0.00005  -0.00005   2.98541
   D22        0.87579   0.00000   0.00000  -0.00003  -0.00003   0.87576
[...]
 ,-0.00023629,0.00015164,-0.00000318,-0.00037754,0.00044830,-0.00019320
 ,-0.18962572,-0.05487465,0.08180847,-0.00770639,0.00047207,0.00256816,
 0.00063538,-0.00022699,0.00069121,0.22037083,0.00042295,0.00057278,-0.
 00000701,-0.00010882,0.00013897,-0.00000204,0.00000496,-0.00011691,0.0
 0003864,0.00001571,0.00008190,-0.00001558,-0.00000728,0.00004409,-0.00
 001864,-0.00001172,-0.00001131,0.00000964,0.00000303,-0.00000430,0.000
 00100,-0.00000235,0.00000110,-0.00000011,-0.00099321,0.00078568,-0.000
 28407,-0.00051236,-0.00053680,0.00016082,0.00392362,0.01062641,-0.0006
 2346,0.00024489,-0.00106000,-0.00061580,0.00070504,0.00036701,0.000211
 65,-0.00003099,-0.00001690,0.00000930,-0.00000573,-0.00001153,0.000015
 46,0.00000066,-0.00000057,0.00000334,0.00000239,0.00000138,-0.00000671
 ,-0.00000021,0.00000162,0.00000395,-0.00000147,0.00000199,-0.00000527,
 0.00000166,0.00000002,-0.00000353,-0.00000146,0.00000139,0.00000026,0.
 00000148,-0.00000037,0.00000257,-0.00014079,0.00001927,0.00003470,0.00
 006475,-0.00008807,0.00006685,-0.05842164,-0.10569088,0.04504192,-0.00
 564810,0.00235620,0.00332321,0.00060646,0.00027049,0.00006077,0.111766
 85,0.17227972,-0.00099316,0.00007722,-0.00011117,0.00101231,-0.0002643
 8,0.00000965,-0.00079708,-0.00005032,-0.00000417,0.00028215,0.00002019
 ,0.00002959,0.00036128,-0.00020356,0.00005394,-0.00010662,-0.00003959,
 -0.00002366,0.00000664,0.00002906,-0.00001279,0.00000379,-0.00001742,0
 .00000074,0.00087887,-0.00025874,0.00003607,-0.00126448,0.00126659,0.0
 0098774,0.01262827,0.00984146,0.00075107,0.00216324,-0.00296812,-0.000
 74621,0.00054354,0.00094631,0.00024073,0.00003101,0.00005432,-0.000050
 87,-0.00000634,0.00004596,-0.00003915,0.00001065,0.00000700,-0.0000030
 9,0.00002059,0.00000724,-0.00000078,-0.00000045,0.00000062,0.00000150,
 -0.00000109,-0.00000590,0.00000610,-0.00000260,0.00000156,0.00000246,0
 .00001292,-0.00000456,-0.00000155,0.00000021,0.00000606,0.00000050,0.0
 0009531,-0.00004357,-0.00008045,0.00017181,-0.00021243,-0.00000584,0.0
 8387132,0.04045282,-0.12772428,0.00130418,0.00079139,-0.00528703,-0.00
 017928,-0.00000890,-0.00011821,-0.12240321,-0.08988107,0.18610356,0.00
 420738,-0.00061439,-0.00021695,-0.00512564,0.00106970,0.00006024,0.003
 54374,0.00115316,-0.00014748,-0.00082863,-0.00075444,0.00001411,-0.001
 39812,0.00059582,-0.00002442,0.00041520,0.00016742,0.00000881,-0.00003
 668,-0.00010847,0.00001643,-0.00000719,0.00006121,-0.00000286,-0.00409
 876,-0.00020001,0.00157514,0.00090268,-0.00366385,-0.00142952,-0.02009
 373,0.01162188,-0.03604210,0.00143220,0.00321409,-0.00066914,-0.000995
 95,0.00106403,0.00201390,-0.00010205,-0.00024159,-0.00006227,0.0000273
 2,-0.00015380,0.00004459,-0.00003828,-0.00001467,0.00000665,-0.0001107
 4,-0.00003611,0.00003390,0.00000299,0.00001237,-0.00000147,0.00001108,
 0.00000254,0.00000074,-0.00000032,-0.00001241,0.00000675,-0.00004386,0
 .00001127,0.00000106,0.00000215,-0.00001102,-0.00000262,-0.00031467,0.
 00012355,0.00021701,-0.00016443,0.00011997,0.00008206,-0.12072043,0.01
 870852,-0.08160711,-0.00567649,-0.00043867,-0.00269514,0.00018060,-0.0
 0009029,-0.00098460,0.01772219,-0.00772589,0.02503440,0.12208367,-0.00
 140657,0.00112406,0.00021523,0.00218498,-0.00045199,-0.00003131,-0.001
 55799,-0.00057445,0.00003614,0.00038376,0.00037872,0.00000204,0.000608
 54,-0.00023821,-0.00000121,-0.00018728,-0.00008115,0.00000072,0.000017
 76,0.00004489,-0.00000831,0.00000195,-0.00002684,0.00000160,0.00092042
 ,0.00069860,-0.00044073,-0.00136633,0.00081456,-0.00079049,0.01396880,
 0.00717442,0.01748168,-0.00030236,-0.00302916,0.00094435,0.00144306,-0
 .00038510,-0.00091378,0.00003959,0.00009403,0.00003232,-0.00001425,0.0
 0006126,-0.00001789,0.00001736,0.00000729,-0.00000032,0.00004986,0.000
 01537,-0.00001847,-0.00000104,-0.00000370,0.00000368,-0.00000557,-0.00
 000061,-0.00000278,0.00000109,0.00000469,-0.00000475,0.00001808,-0.000
 00374,-0.00000063,0.00000045,0.00000499,0.00000309,-0.00000546,-0.0000
 5748,0.00002977,0.00016577,-0.00015233,-0.00015291,0.01925352,-0.07725
 129,0.02605329,-0.00116283,0.00176554,-0.00055145,0.00033589,0.0001017
 0,0.00046551,-0.00195557,-0.00224346,0.03733637,-0.00899239,0.08790266
 ,0.00227426,-0.00052023,-0.00022882,-0.00276745,0.00061489,0.00015959,
 0.00195502,0.00057696,-0.00013480,-0.00049975,-0.00037419,0.00009833,-
 0.00078800,0.00033677,0.00003270,0.00023238,0.00009962,-0.00002575,-0.
 00002327,-0.00006138,0.00000238,-0.00000435,0.00003468,-0.00000523,-0.
 00215612,0.00030539,0.00075670,0.00003821,-0.00201967,-0.00016325,-0.0
 1508262,0.00476850,-0.01164534,-0.00010724,0.00237527,-0.00007163,-0.0
 0102901,0.00049997,0.00087686,-0.00006055,-0.00012222,-0.00009932,0.00
 001049,-0.00007655,-0.00001105,-0.00001825,-0.00000438,0.00000601,-0.0
 0006952,-0.00002558,0.00002704,0.00000234,0.00001337,0.00000192,0.0000
 0675,-0.00000468,0.00000644,-0.00000346,-0.00000961,0.00000785,-0.0000
 2362,0.00000507,-0.00000080,0.00000330,-0.00000228,0.00000007,-0.00024
 804,0.00012403,0.00001252,-0.00015135,0.00014331,0.00001709,-0.0806568
 4,0.02793848,-0.21187896,-0.00295475,-0.00009684,-0.00522194,0.0003783
 5,0.00010113,-0.00077746,0.00916613,0.03193280,-0.07110312,0.11597585,
 -0.02886891,0.34934343,0.00126432,0.00010196,0.00013354,-0.00174764,0.
 00040694,0.00007407,0.00146846,0.00028639,-0.00004916,-0.00042726,-0.0
 0020324,0.00002795,-0.00063691,0.00029078,-0.00001837,0.00019891,0.000
 08534,-0.00000094,-0.00001637,-0.00004988,0.00001017,-0.00000363,0.000
 02949,-0.00000110,-0.00096571,0.00178322,-0.00018701,-0.00401015,-0.00
 092865,0.00079504,0.00334433,0.03140657,0.01059741,-0.00476752,0.00055
 105,0.00124846,0.00088997,0.00140892,0.00002363,-0.00004289,-0.0000926
 0,-0.00000388,0.00001611,-0.00006765,0.00001938,-0.00001577,-0.0000083
 0,0.00000406,-0.00004552,-0.00001881,0.00001496,0.00000113,0.00000481,
 -0.00000131,0.00000448,0.00000188,-0.00000056,0.00000046,-0.00000606,0
 .00000264,-0.00002157,0.00000641,0.00000069,0.00000099,-0.00000627,-0.
 00000128,-0.00047431,0.00018127,-0.00013329,0.00008082,-0.00004294,0.0
 0003046,-0.07941491,0.00348027,0.00127983,-0.00361332,-0.00043566,0.00
 030237,-0.00357766,0.00380506,0.00091463,-0.00720546,-0.05063400,-0.00
 177595,0.00388701,-0.02302233,-0.02604866,0.09281564,-0.00296188,0.000
 59958,-0.00017347,0.00357769,-0.00031837,-0.00015224,-0.00252978,-0.00
 120082,-0.00005104,0.00059075,0.00081210,0.00005559,0.00096207,-0.0002
 9754,0.00005222,-0.00029926,-0.00013522,0.00000161,0.00003187,0.000067
 75,-0.00001831,0.00000192,-0.00004267,0.00000003,0.00135746,-0.0016266
 6,0.00042840,0.00609761,0.00274764,-0.00151728,0.00249469,-0.03927555,
 -0.01716326,-0.00413820,-0.00315596,0.00001851,0.00092995,0.00016673,0
 .00058446,-0.00005270,0.00017258,0.00001830,-0.00003866,0.00009649,-0.
 00003116,0.00003506,0.00001097,0.00000253,0.00007376,0.00002221,-0.000
 03082,-0.00000236,0.00000119,0.00001177,-0.00000928,-0.00000361,-0.000
 00475,0.00000105,0.00000516,-0.00000766,0.00002770,-0.00000477,-0.0000
 0213,0.00000373,0.00001023,0.00000849,0.00071802,-0.00028749,0.0002813
 3,0.00015147,-0.00012327,-0.00008768,0.01188084,-0.24272834,-0.0684643
 6,-0.00063979,0.00405326,0.00036565,0.00201493,0.00101242,-0.00026235,
 -0.03822880,-0.06403882,0.00766180,-0.01453592,-0.00650430,-0.03746321
 ,0.03200257,0.35337134,-0.00034870,0.00052030,-0.00001098,0.00069538,-
 0.00004930,-0.00000173,-0.00053472,-0.00024657,-0.00000130,0.00014258,
 0.00016025,0.00003851,0.00021304,-0.00007020,0.00003467,-0.00006625,-0
 .00002952,-0.00001764,0.00000621,0.00001368,-0.00000931,0.00000058,-0.
 00000969,-0.00000082,-0.00043451,-0.00059061,-0.00035356,0.00239160,-0
 .00000502,0.00141785,-0.00052413,-0.01200405,0.00368043,-0.00140217,-0
 .00097703,0.00038913,0.00046259,-0.00023489,0.00030127,-0.00001403,0.0
 0003129,-0.00005283,-0.00001194,0.00002491,-0.00002562,0.00001011,0.00
 000570,0.00000197,0.00001226,0.00000246,-0.00000283,0.,0.00000387,0.00
 000458,-0.00000170,-0.00000415,0.00000176,-0.00000116,-0.00000028,0.00
 000033,0.00000636,-0.00000151,-0.00000131,0.00000220,0.00000440,0.0000
 0280,0.00022810,-0.00004988,-0.00020389,0.00004861,-0.00005305,-0.0000
 2149,0.00513384,-0.06843724,-0.09828424,-0.00030860,0.00126861,-0.0012
 8945,0.00069401,0.00004395,-0.00042683,0.00297364,0.01785564,0.0163062
 5,-0.02276294,-0.05227286,-0.05464793,0.01305578,0.11638302,0.13182776
 ,0.00227790,-0.00130366,-0.00016024,-0.00103447,-0.00000198,0.00000444
 ,0.00116391,0.00032906,-0.00003979,-0.00034898,-0.00025996,0.00000126,
 -0.00049776,0.00018233,-0.00002186,0.00017215,0.00007201,-0.00000050,-
 0.00001360,-0.00003653,0.00001233,-0.00000139,0.00002279,-0.00000281,-
 0.00596822,-0.00134707,-0.00163501,0.00781172,-0.02140702,-0.00700928,
 -0.00301011,-0.00045020,-0.00059091,0.00004435,-0.00149915,0.00010427,
 -0.00031450,-0.00054522,-0.00011474,0.00019779,-0.00004532,0.00006220,
 0.00003398,-0.00004506,0.00001679,-0.00001559,-0.00000991,0.00000154,-
 0.00003587,-0.00001527,0.00001384,0.00000241,0.00000061,-0.00000608,0.
 00000475,0.00000277,0.00000145,0.00000018,-0.00000484,0.00000320,-0.00
 001800,0.00000592,0.00000086,-0.00000102,-0.00000689,-0.00000248,-0.00
 327788,-0.00469885,-0.00129453,0.00009390,-0.00016059,-0.00001601,-0.0
 0362870,-0.00104445,-0.00046901,-0.08243317,0.02741017,0.01129583,-0.0
 0028669,-0.00015517,0.00004806,0.00124980,0.00103952,-0.00018900,0.000
 97429,0.00036564,0.00057319,0.00063068,0.00013015,0.00008231,0.1160618
 5,0.00195569,-0.00024798,0.00054071,-0.00234569,0.00039856,0.00013544,
 0.00167811,-0.00015671,-0.00018292,-0.00053980,0.00018310,0.00007882,-
 0.00084359,0.00051134,-0.00001221,0.00019008,0.00008866,0.00001531,-0.
 00001923,-0.00008318,-0.00000390,-0.00001343,0.00004191,0.00000209,0.0
 0147938,-0.00303134,-0.00031857,0.00890060,-0.04286336,-0.01881245,-0.
 00809032,0.00131901,-0.00141592,0.00049384,-0.00247073,0.00040521,-0.0
 0014316,-0.00015775,-0.00024948,-0.00018978,-0.00024275,-0.00007183,-0
 .00003594,-0.00012626,0.00002863,-0.00000712,-0.00000086,0.00001329,-0
 .00005435,-0.00002180,0.00000509,-0.00000042,0.00001967,0.00002445,-0.
 00000037,0.00000055,-0.00001467,0.00000315,-0.00000763,-0.00000464,-0.
 00002779,0.00000565,-0.00000069,0.00000979,0.00000002,0.00000767,-0.00
 258813,-0.00014205,-0.00054525,0.00008101,0.00014279,-0.00005369,-0.00
 064595,0.00395935,0.00031886,0.01831887,-0.23763499,-0.06653061,-0.000
 72824,-0.00038727,0.00020654,0.00009646,-0.00090444,-0.00026605,0.0002
 4195,-0.00092942,0.00032191,0.00025861,-0.00142716,-0.00046618,-0.0792
 6882,0.33011869,0.00031376,-0.00044278,0.00006883,-0.00058502,0.000111
 56,0.00017426,0.00041988,-0.00004353,-0.00006598,-0.00012908,0.0000484
 3,0.00005002,-0.00021098,0.00011929,0.00004943,0.00004277,0.00002507,-
 0.00001494,-0.00000694,-0.00002187,-0.00001267,-0.00000303,0.00001067,
 0.00000188,0.00097980,-0.00079952,0.00072966,0.00323138,-0.01276189,0.
 00298100,-0.00268756,-0.00025315,0.00118054,0.00081781,-0.00065798,-0.
 00033291,-0.00033322,0.00030051,0.00006229,-0.00004025,-0.00005473,-0.
 00015424,-0.00001785,-0.00002411,-0.00003394,0.00000084,0.00000385,0.0
 0000439,-0.00001794,-0.00001041,0.00000550,-0.00000014,0.00001055,0.00
 000953,0.00000144,-0.00000396,0.00000191,-0.00000165,-0.00000439,0.000
 00123,-0.00000595,0.00000055,-0.00000188,0.00000431,0.00000326,0.00000
 319,-0.00119766,-0.00025660,-0.00071696,0.00000869,0.00004029,-0.00003
 695,0.00000495,0.00126901,-0.00131337,0.00786901,-0.06713042,-0.097954
 79,-0.00021691,-0.00008565,-0.00018096,-0.00034461,-0.00067610,0.00062
 223,0.00029244,-0.00016262,0.00069312,0.00002660,-0.00045887,0.0000318
 8,-0.03365921,0.10972502,0.13083125,0.00008185,-0.00007480,0.00176042,
 -0.00223875,-0.00065573,0.00022970,0.00197084,0.00049596,-0.00016684,-
 0.00067537,-0.00028593,0.00006814,-0.00101048,0.00035727,0.00000776,0.
 00032418,0.00016120,-0.00000553,-0.00003212,-0.00007719,0.00001296,-0.
 00000453,0.00004748,-0.00000566,-0.00172663,-0.00687347,-0.00226106,-0
 .03567822,0.01583381,-0.02845176,0.00075484,0.00158096,0.00118921,-0.0
 0086586,-0.00054366,0.00086106,-0.00046927,-0.00043908,-0.00021750,0.0
 0016239,-0.00010432,-0.00001357,0.00004061,-0.00008575,0.00000517,-0.0
 0002164,-0.00001436,0.00000449,-0.00007057,-0.00003435,0.00002852,0.00
 000301,0.00000851,-0.00000535,0.00000942,0.00000130,0.00000519,-0.0000
 0159,-0.00001127,0.00000740,-0.00003494,0.00001039,0.00000010,0.000000
 94,-0.00000961,-0.00000278,0.00064248,0.00040513,-0.00080365,0.0002150
 8,-0.00004965,-0.00017748,-0.00830877,-0.00234280,-0.00341164,-0.20652
 322,0.03671391,-0.09399845,-0.00020006,-0.00016543,-0.00006288,0.00334
 857,0.00209305,0.00096783,0.00285805,0.00041542,0.00198980,0.00135068,
 0.00027895,0.00050302,-0.02500071,0.04561265,-0.00755744,0.25380867,-0
 .00024156,-0.00018136,0.00042250,-0.00087771,0.00005719,0.00007682,0.0
 0048979,0.00000168,0.00001883,-0.00013378,0.00005280,0.00000442,-0.000
 26801,0.00015440,-0.00003059,0.00004892,0.00002666,0.00000899,-0.00000
 606,-0.00002728,0.00000216,-0.00000528,0.00001372,-0.00000004,-0.00072
 816,-0.00223095,-0.00095468,-0.01236463,0.01177336,-0.00590349,0.00069
 637,0.00034132,0.00027665,0.00068036,0.00085061,-0.00017250,-0.0005415
 6,0.00057298,-0.00002363,-0.00007364,-0.00008732,-0.00000704,-0.000012
 09,-0.00004484,0.00002352,-0.00000289,-0.00000132,0.00000422,-0.000013
 74,-0.00000467,-0.00000160,-0.00000025,0.00000495,0.00000821,-0.000001
 01,0.00000185,-0.00000767,0.00000186,-0.00000117,-0.00000318,-0.000008
 58,0.00000169,0.00000036,0.00000285,-0.00000063,0.00000270,-0.00053734
 ,0.00023863,-0.00011864,0.00000258,0.00005030,0.00004042,0.00332901,0.
 00251764,0.00270375,0.04134630,-0.08934433,0.03233621,0.00009924,0.000
 02149,0.00004234,-0.00026539,-0.00521120,-0.00512695,-0.00115612,-0.00
 773775,-0.00113022,-0.00056840,-0.00097102,-0.00059277,0.05773437,-0.0
 4692123,0.01882617,-0.09668714,0.13600169,0.00003329,0.00085768,0.0001
 8853,-0.00108185,-0.00037048,0.00014615,0.00081828,0.00033659,-0.00010
 342,-0.00025495,-0.00018810,0.00005245,-0.00041007,0.00010580,0.000044
 16,0.00012979,0.00007025,-0.00002023,-0.00001568,-0.00003107,-0.000001
 50,-0.00000099,0.00001861,-0.00000215,-0.00188458,-0.00363059,-0.00075
 356,-0.01549981,0.00841726,-0.00094023,0.00080970,0.00102923,0.0010499
 4,-0.00038049,-0.00034982,0.00002134,0.00004889,-0.00029475,-0.0000427
 4,0.00007992,-0.00004329,-0.00007562,0.00001580,-0.00002562,-0.0000322
 3,-0.00000718,-0.00000311,0.00000251,-0.00003343,-0.00001780,0.0000167
 1,0.00000141,0.00000749,-0.00000086,0.00000514,-0.00000334,0.00000785,
 -0.00000282,-0.00000676,0.00000594,-0.00001307,0.00000325,-0.00000134,
 0.00000141,-0.00000122,-0.00000060,0.00019096,0.00005440,-0.00016613,0
 .00006152,-0.00003884,-0.00004076,-0.00157749,0.00040103,-0.00553879,-
 0.09520474,0.02742937,-0.13600223,-0.00007427,-0.00005572,-0.00008403,
 0.00027254,-0.00509070,-0.00234613,0.00144771,0.00110670,0.00262561,0.
 00025729,-0.00022375,0.00064576,-0.00088922,0.00908839,0.01617544,0.14
 193186,-0.07062515,0.19722112,0.00125401,-0.00010921,-0.00212353,-0.00
 159629,-0.00019260,0.00000844,0.00162526,0.00011866,-0.00000561,-0.000
 59517,-0.00008956,-0.00000726,-0.00081325,0.00036557,-0.00003582,0.000
 25884,0.00011514,-0.00000028,-0.00002139,-0.00006587,0.00001783,-0.000
 00521,0.00003956,-0.00000193,0.00046155,-0.00277841,0.00013082,-0.0146
 9893,-0.01388489,0.03311461,-0.00101336,0.00174031,0.00076530,-0.00173
 677,-0.00050755,-0.00165857,-0.00007713,-0.00113694,0.00023474,0.00008
 349,-0.00009935,0.00006174,0.00002895,-0.00008292,0.00004162,-0.000018
 88,-0.00001381,0.00000539,-0.00005127,-0.00002366,0.00001509,0.0000018
 0,0.00000394,-0.00000315,0.00000501,0.00000563,-0.00000383,0.00000240,
 -0.00000692,0.00000176,-0.00002958,0.00000951,0.00000176,0.00000067,-0
 .00001033,-0.00000182,0.00014042,0.00013594,0.00104608,0.00019713,-0.0
 0003394,0.00022239,-0.00597107,-0.00094547,0.00271983,-0.11974633,-0.0
 2800525,0.08076448,-0.00025907,-0.00016844,-0.00015566,0.00245020,0.00
 334898,-0.00168105,0.00150542,-0.00021197,0.00008678,0.00103260,0.0000
 7439,-0.00025134,-0.00483301,0.01622193,0.03300176,0.01729112,0.010061
 69,-0.02877485,0.12512786,0.00001866,-0.00056703,-0.00133125,-0.001382
 52,-0.00004350,-0.00008786,0.00114609,0.00001932,-0.00005887,-0.000390
 78,0.00003273,0.00000090,-0.00060758,0.00030902,-0.00002627,0.00016222
 ,0.00007735,0.00001626,-0.00001521,-0.00005304,0.00001021,-0.00000673,
 0.00002941,-0.00000096,-0.00005313,-0.00348994,0.00040600,-0.01767597,
 0.00220843,0.02400305,0.00053365,0.00072573,-0.00069493,-0.00025229,0.
 00052372,-0.00074320,-0.00066314,0.00010366,0.00014016,-0.00001574,-0.
 00011450,0.00006248,0.00000116,-0.00007342,0.00003877,-0.00000961,-0.0
 0000820,0.00000614,-0.00003698,-0.00001486,0.00000575,0.00000025,0.000
 00658,0.00000592,0.00000169,0.00000360,-0.00000858,0.00000273,-0.00000
 416,-0.00000210,-0.00002087,0.00000562,0.00000108,0.00000275,-0.000005
 06,0.00000162,-0.00040465,0.00007706,0.00074878,0.00011544,0.00002113,
 0.00013715,-0.00021206,0.00187590,-0.00009247,-0.02799050,-0.08685535,
 0.04130394,-0.00002045,-0.00007598,0.00001767,0.00162276,-0.00761446,0
 .00080562,0.00058257,-0.00052183,0.00058782,-0.00000675,-0.00100808,-0
 .00022332,0.02501060,0.00096762,-0.04664561,0.00443855,0.00008211,0.03
 207406,0.01612583,0.09338040,-0.00026188,0.00020866,0.00075901,0.00118
 547,0.00019422,0.00022462,-0.00103205,-0.00020986,-0.00003988,0.000358
 51,0.00011540,0.00006841,0.00052487,-0.00022872,0.00009588,-0.00015530
 ,-0.00007067,-0.00003228,0.00001256,0.00003986,-0.00003124,0.00000466,
 -0.00002534,0.00000301,0.00051904,0.00246743,0.00040940,0.01297068,0.0
 0580888,-0.01163865,0.00084583,-0.00088697,0.00044967,0.00072088,0.000
 62990,0.00076275,0.00011343,0.00037130,-0.00006813,-0.00007755,0.00006
 305,-0.00021282,-0.00002764,0.00006162,-0.00008190,0.00001651,0.000015
 70,-0.00000236,0.00002554,0.00000744,-0.00000195,-0.00000089,0.0000056
 5,0.00000712,-0.00000081,-0.00001044,0.00001095,-0.00000478,-0.0000000
 2,0.00000365,0.00001856,-0.00000592,-0.00000385,0.00000279,0.00001088,
 0.00000249,-0.00033001,0.00002004,-0.00085974,-0.00009667,0.00004658,-
 0.00014891,0.00293670,0.00043053,-0.00507915,0.08011420,0.04408946,-0.
 21253653,0.00019881,0.00015464,-0.00001376,-0.00171320,-0.00154243,0.0
 0250638,-0.00018318,0.00052694,0.00134775,-0.00059743,0.00023863,0.000
 66680,0.03387911,-0.03196836,-0.05285800,-0.01243103,0.02989990,-0.072
 05094,-0.11753572,-0.05045798,0.34834220\\0.00000793,-0.00001709,-0.00
 000359,-0.00000487,0.00001067,0.00000326,0.00000227,-0.00001104,-0.000
 00428,0.00000044,0.00000274,0.00000034,-0.00000340,0.00000411,0.000001
 56,-0.00000546,-0.00000185,0.00000328,0.00000759,0.00000408,-0.0000044
 5,-0.00000440,-0.00000153,-0.00000186,0.00000204,-0.00000163,0.0000009
 5,0.00000004,0.00000979,0.00000415,-0.00001004,-0.00001245,0.00000269,
 0.00001445,-0.00000138,0.00000442,-0.00001071,0.00001176,0.00000239,0.
 00000017,-0.00000046,-0.00000110,0.00000300,0.00000416,-0.00000215,-0.
 00000132,-0.00000029,-0.00000311,-0.00000099,0.00000240,-0.00000624,-0
 .00000067,0.00000209,-0.00000459,0.00000196,0.00000137,-0.00000097,-0.
 00000071,0.00000158,-0.00000418,0.00000052,0.00000326,-0.00000464,0.00
 000103,0.00000092,-0.00000393,-0.00000038,0.00000070,0.00000021,0.0000
 0189,-0.00000161,0.00000008,-0.00000108,-0.00000634,0.00000219,0.00000
 353,-0.00000418,-0.00000497,-0.00000111,-0.00000035,0.00000196,0.00000
 366,0.00000339,0.00000494,-0.00000251,0.00000131,0.00000033,-0.0000019
 1,-0.00000380,0.00000395,-0.00000026,0.00000370,0.00000612,-0.00000189
 ,0.00000051,0.00000109,0.00000119,-0.00000453,0.00000614\\\@


 PICNIC:  A SNACK IN THE GRASS.
 Job cpu time:       0 days  6 hours 52 minutes 12.2 seconds.
 File lengths (MBytes):  RWF=    942 Int=      0 D2E=      0 Chk=     27 Scr=      1
 Normal termination of Gaussian 09 at Thu Nov 14 10:28:03 2019.
pbs_rusage has been removed.
Please contact help@nci.org.au if you require this functionality.
