 Entering Gaussian System, Link 0=/apps/gaussian/g09e01/g09/g09
 Initial command:
 /apps/gaussian/g09e01/g09/l1.exe "/jobfs/local/3579205.r-man2/Gau-27208.inp" -scrdir="/jobfs/local/3579205.r-man2/"
 Entering Link 1 = /apps/gaussian/g09e01/g09/l1.exe PID=     27218.
  
 Copyright (c) 1988,1990,1992,1993,1995,1998,2003,2009,2015,
            Gaussian, Inc.  All Rights Reserved.
  
 This is part of the Gaussian(R) 09 program.  It is based on
 the Gaussian(R) 03 system (copyright 2003, Gaussian, Inc.),
 the Gaussian(R) 98 system (copyright 1998, Gaussian, Inc.),
 the Gaussian(R) 94 system (copyright 1995, Gaussian, Inc.),
 the Gaussian 92(TM) system (copyright 1992, Gaussian, Inc.),
 the Gaussian 90(TM) system (copyright 1990, Gaussian, Inc.),
 the Gaussian 88(TM) system (copyright 1988, Gaussian, Inc.),
 the Gaussian 86(TM) system (copyright 1986, Carnegie Mellon
 University), and the Gaussian 82(TM) system (copyright 1983,
 Carnegie Mellon University). Gaussian is a federally registered
 trademark of Gaussian, Inc.
  
 This software contains proprietary and confidential information,
 including trade secrets, belonging to Gaussian, Inc.
  
 This software is provided under written license and may be
 used, copied, transmitted, or stored only in accord with that
 written license.
  
 The following legend is applicable only to US Government
 contracts under FAR:
  
                    RESTRICTED RIGHTS LEGEND
  
 Use, reproduction and disclosure by the US Government is
 subject to restrictions as set forth in subparagraphs (a)
 and (c) of the Commercial Computer Software - Restricted
 Rights clause in FAR 52.227-19.
  
 Gaussian, Inc.
 340 Quinnipiac St., Bldg. 40, Wallingford CT 06492
  
  
 ---------------------------------------------------------------
 Warning -- This program may not be used in any manner that
 competes with the business of Gaussian, Inc. or will provide
 assistance to any competitor of Gaussian, Inc.  The licensee
 of this program is prohibited from giving any competitor of
 Gaussian, Inc. access to this program.  By using this program,
 the user acknowledges that Gaussian, Inc. is engaged in the
 business of creating and licensing software in the field of
 computational chemistry and represents and warrants to the
 licensee that it is not a competitor of Gaussian, Inc. and that
 it will not use this program in any manner prohibited above.
 ---------------------------------------------------------------
  

 Cite this work as:
 Gaussian 09, Revision E.01,
 M. J. Frisch, G. W. Trucks, H. B. Schlegel, G. E. Scuseria, 
 M. A. Robb, J. R. Cheeseman, G. Scalmani, V. Barone, B. Mennucci, 
 G. A. Petersson, H. Nakatsuji, M. Caricato, X. Li, H. P. Hratchian, 
 A. F. Izmaylov, J. Bloino, G. Zheng, J. L. Sonnenberg, M. Hada, 
 M. Ehara, K. Toyota, R. Fukuda, J. Hasegawa, M. Ishida, T. Nakajima, 
 Y. Honda, O. Kitao, H. Nakai, T. Vreven, J. A. Montgomery, Jr., 
 J. E. Peralta, F. Ogliaro, M. Bearpark, J. J. Heyd, E. Brothers, 
 K. N. Kudin, V. N. Staroverov, T. Keith, R. Kobayashi, J. Normand, 
 K. Raghavachari, A. Rendell, J. C. Burant, S. S. Iyengar, J. Tomasi, 
 M. Cossi, N. Rega, J. M. Millam, M. Klene, J. E. Knox, J. B. Cross, 
 V. Bakken, C. Adamo, J. Jaramillo, R. Gomperts, R. E. Stratmann, 
 O. Yazyev, A. J. Austin, R. Cammi, C. Pomelli, J. W. Ochterski, 
 R. L. Martin, K. Morokuma, V. G. Zakrzewski, G. A. Voth, 
 P. Salvador, J. J. Dannenberg, S. Dapprich, A. D. Daniels, 
 O. Farkas, J. B. Foresman, J. V. Ortiz, J. Cioslowski, 
 and D. J. Fox, Gaussian, Inc., Wallingford CT, 2013.
 
 ******************************************
 Gaussian 09:  ES64L-G09RevE.01 30-Nov-2015
                14-Nov-2019 
 ******************************************
 %chk=NM2.M062X_6-311pGd_opt_water_GD3.chk
 %mem=196608000
 %nproc=8
 Will use up to    8 processors via shared memory.
 ----------------------------------------------------------------------
 # M062X/6-311+G* SCF=Tight INT(grid=ultrafine) OPT IOP(2/17=4) Empiric
 alDispersion=GD3 SCRF=(SMD,Solvent=h2o) maxdisk=2684354560
 ----------------------------------------------------------------------
 1/14=-1,18=20,19=15,26=4,38=1/1,3;
 2/9=110,12=2,17=4,18=5,40=1/2;
 3/5=4,6=6,7=11,11=2,16=1,25=1,30=1,70=32201,71=1,72=1,74=-55,75=-5,124=31/1,2,3;
 4//1;
 5/5=2,32=2,38=5,53=1/2;
 6/7=2,8=2,9=2,10=2,28=1/1;
 7//1,2,3,16;
 1/14=-1,18=20,19=15,26=4/3(2);
 2/9=110,17=4/2;
 99//99;
 2/9=110,17=4/2;
 3/5=4,6=6,7=11,11=2,16=1,25=1,30=1,70=32205,71=1,72=1,74=-55,75=-5,124=31/1,2,3;
 4/5=5,16=3,69=1/1;
 5/5=2,32=2,38=5,53=1/2;
 7//1,2,3,16;
 1/14=-1,18=20,19=15,26=4/3(-5);
 2/9=110,17=4/2;
 6/7=2,8=2,9=2,10=2,19=2,28=1/1;
 99/9=1/99;
 --------------------------------
 NM2.M062X_6-311pGd_opt_water_GD3
 --------------------------------
 Symbolic Z-matrix:
 Charge =  0 Multiplicity = 1
 C                    -5.89618   1.12844   0.17063 
 N                    -4.63714   0.55394   0.03353 
 C                    -3.40697   1.18857   0.09027 
 O                    -3.28607   2.40501   0.24853 
 N                    -2.34899   0.36632  -0.04276 
 C                    -0.98557   0.87662   0.03398 
 C                     0.01126  -0.25327  -0.16122 
 C                     1.44379   0.2597   -0.08239 
 C                    -6.13903   2.50483   0.07314 
 C                    -7.42873   2.99872   0.20721 
 C                    -8.50865   2.13788   0.44494 
 C                    -8.26067   0.76968   0.51536 
 C                    -6.97877   0.26919   0.38159 
 H                    -4.6271   -0.45878   0.00547 
 H                    -2.48801  -0.63024  -0.14353 
 H                    -0.82833   1.35493   1.00526 
 H                    -0.84347   1.64185  -0.73399 
 H                    -0.1655   -0.72636  -1.13209 
 H                    -0.15606  -1.01822   0.60356 
 H                     1.63401   1.01227  -0.85194 
 H                     2.16011  -0.5516   -0.22402 
 H                     1.64405   0.71704   0.88994 
 H                    -5.3227    3.18267  -0.11522 
 H                    -6.80948  -0.79989   0.44728 
 C                    -9.93043   2.60245   0.59431 
 C                    -7.58985   4.4973    0.11104 
 H                    -9.07761   0.08048   0.68677 
 F                    -10.04152   3.71122   1.34459 
 F                    -10.69624   1.67101   1.1812 
 F                    -10.51535   2.87628  -0.5871 
 F                    -6.54091   5.07804  -0.48532 
 F                    -7.7032    5.07352   1.32041 
 F                    -8.67351   4.85396  -0.59501 
 

 GradGradGradGradGradGradGradGradGradGradGradGradGradGradGradGradGradGrad
 Berny optimization.
 Initialization pass.
                           ----------------------------
                           !    Initial Parameters    !
                           ! (Angstroms and Degrees)  !
 --------------------------                            --------------------------
 ! Name  Definition              Value          Derivative Info.                !
 --------------------------------------------------------------------------------
 ! R1    R(1,2)                  1.3907         estimate D2E/DX2                !
 ! R2    R(1,9)                  1.4011         estimate D2E/DX2                !
 ! R3    R(1,13)                 1.3981         estimate D2E/DX2                !
 ! R4    R(2,3)                  1.3854         estimate D2E/DX2                !
 ! R5    R(2,14)                 1.0132         estimate D2E/DX2                !
 ! R6    R(3,4)                  1.2326         estimate D2E/DX2                !
 ! R7    R(3,5)                  1.3465         estimate D2E/DX2                !
 ! R8    R(5,6)                  1.4578         estimate D2E/DX2                !
 ! R9    R(5,15)                 1.0112         estimate D2E/DX2                !
 ! R10   R(6,7)                  1.5194         estimate D2E/DX2                !
 ! R11   R(6,16)                 1.094          estimate D2E/DX2                !
 ! R12   R(6,17)                 1.0934         estimate D2E/DX2                !
 ! R13   R(7,8)                  1.5236         estimate D2E/DX2                !
 ! R14   R(7,18)                 1.0944         estimate D2E/DX2                !
 ! R15   R(7,19)                 1.0945         estimate D2E/DX2                !
 ! R16   R(8,20)                 1.093          estimate D2E/DX2                !
 ! R17   R(8,21)                 1.0915         estimate D2E/DX2                !
 ! R18   R(8,22)                 1.093          estimate D2E/DX2                !
 ! R19   R(9,10)                 1.3875         estimate D2E/DX2                !
 ! R20   R(9,23)                 1.0777         estimate D2E/DX2                !
 ! R21   R(10,11)                1.4014         estimate D2E/DX2                !
 ! R22   R(10,26)                1.5103         estimate D2E/DX2                !
 ! R23   R(11,12)                1.3923         estimate D2E/DX2                !
 ! R24   R(11,25)                1.5032         estimate D2E/DX2                !
 ! R25   R(12,13)                1.3826         estimate D2E/DX2                !
 ! R26   R(12,27)                1.0825         estimate D2E/DX2                !
 ! R27   R(13,24)                1.0844         estimate D2E/DX2                !
 ! R28   R(25,28)                1.3434         estimate D2E/DX2                !
 ! R29   R(25,29)                1.3411         estimate D2E/DX2                !
 ! R30   R(25,30)                1.3464         estimate D2E/DX2                !
 ! R31   R(26,31)                1.3391         estimate D2E/DX2                !
 ! R32   R(26,32)                1.3444         estimate D2E/DX2                !
 ! R33   R(26,33)                1.3416         estimate D2E/DX2                !
 ! A1    A(2,1,9)              123.7729         estimate D2E/DX2                !
 ! A2    A(2,1,13)             117.516          estimate D2E/DX2                !
 ! A3    A(9,1,13)             118.6876         estimate D2E/DX2                !
 ! A4    A(1,2,3)              127.6346         estimate D2E/DX2                !
 ! A5    A(1,2,14)             115.1274         estimate D2E/DX2                !
 ! A6    A(3,2,14)             116.7581         estimate D2E/DX2                !
 ! A7    A(2,3,4)              122.9851         estimate D2E/DX2                !
 ! A8    A(2,3,5)              114.4507         estimate D2E/DX2                !
 ! A9    A(4,3,5)              122.5642         estimate D2E/DX2                !
 ! A10   A(3,5,6)              121.0573         estimate D2E/DX2                !
 ! A11   A(3,5,15)             120.2395         estimate D2E/DX2                !
 ! A12   A(6,5,15)             118.605          estimate D2E/DX2                !
 ! A13   A(5,6,7)              110.2757         estimate D2E/DX2                !
 ! A14   A(5,6,16)             109.5235         estimate D2E/DX2                !
 ! A15   A(5,6,17)             109.2417         estimate D2E/DX2                !
 ! A16   A(7,6,16)             110.1753         estimate D2E/DX2                !
 ! A17   A(7,6,17)             110.1792         estimate D2E/DX2                !
 ! A18   A(16,6,17)            107.3915         estimate D2E/DX2                !
 ! A19   A(6,7,8)              111.09           estimate D2E/DX2                !
 ! A20   A(6,7,18)             109.2374         estimate D2E/DX2                !
 ! A21   A(6,7,19)             109.2486         estimate D2E/DX2                !
 ! A22   A(8,7,18)             110.0783         estimate D2E/DX2                !
 ! A23   A(8,7,19)             110.0518         estimate D2E/DX2                !
 ! A24   A(18,7,19)            107.0412         estimate D2E/DX2                !
 ! A25   A(7,8,20)             111.0387         estimate D2E/DX2                !
 ! A26   A(7,8,21)             111.1036         estimate D2E/DX2                !
 ! A27   A(7,8,22)             111.0485         estimate D2E/DX2                !
 ! A28   A(20,8,21)            107.8305         estimate D2E/DX2                !
 ! A29   A(20,8,22)            107.8383         estimate D2E/DX2                !
 ! A30   A(21,8,22)            107.8301         estimate D2E/DX2                !
 ! A31   A(1,9,10)             120.2701         estimate D2E/DX2                !
 ! A32   A(1,9,23)             119.9195         estimate D2E/DX2                !
 ! A33   A(10,9,23)            119.8083         estimate D2E/DX2                !
 ! A34   A(9,10,11)            120.9321         estimate D2E/DX2                !
 ! A35   A(9,10,26)            116.5002         estimate D2E/DX2                !
 ! A36   A(11,10,26)           122.5563         estimate D2E/DX2                !
 ! A37   A(10,11,12)           118.3594         estimate D2E/DX2                !
 ! A38   A(10,11,25)           123.7719         estimate D2E/DX2                !
 ! A39   A(12,11,25)           117.8496         estimate D2E/DX2                !
 ! A40   A(11,12,13)           121.0624         estimate D2E/DX2                !
 ! A41   A(11,12,27)           119.9515         estimate D2E/DX2                !
 ! A42   A(13,12,27)           118.9836         estimate D2E/DX2                !
 ! A43   A(1,13,12)            120.6657         estimate D2E/DX2                !
 ! A44   A(1,13,24)            119.6135         estimate D2E/DX2                !
 ! A45   A(12,13,24)           119.7195         estimate D2E/DX2                !
 ! A46   A(11,25,28)           112.8801         estimate D2E/DX2                !
 ! A47   A(11,25,29)           111.6504         estimate D2E/DX2                !
 ! A48   A(11,25,30)           112.741          estimate D2E/DX2                !
 ! A49   A(28,25,29)           106.3569         estimate D2E/DX2                !
 ! A50   A(28,25,30)           106.6349         estimate D2E/DX2                !
 ! A51   A(29,25,30)           106.091          estimate D2E/DX2                !
 ! A52   A(10,26,31)           112.0312         estimate D2E/DX2                !
 ! A53   A(10,26,32)           112.1478         estimate D2E/DX2                !
 ! A54   A(10,26,33)           112.5479         estimate D2E/DX2                !
 ! A55   A(31,26,32)           106.3063         estimate D2E/DX2                !
 ! A56   A(31,26,33)           106.4416         estimate D2E/DX2                !
 ! A57   A(32,26,33)           106.9392         estimate D2E/DX2                !
 ! D1    D(9,1,2,3)             16.0225         estimate D2E/DX2                !
 ! D2    D(9,1,2,14)          -172.2523         estimate D2E/DX2                !
 ! D3    D(13,1,2,3)          -165.7706         estimate D2E/DX2                !
 ! D4    D(13,1,2,14)            5.9546         estimate D2E/DX2                !
 ! D5    D(2,1,9,10)           179.2644         estimate D2E/DX2                !
 ! D6    D(2,1,9,23)            -0.2044         estimate D2E/DX2                !
 ! D7    D(13,1,9,10)            1.0772         estimate D2E/DX2                !
 ! D8    D(13,1,9,23)         -178.3916         estimate D2E/DX2                !
 ! D9    D(2,1,13,12)         -179.4464         estimate D2E/DX2                !
 ! D10   D(2,1,13,24)            0.9547         estimate D2E/DX2                !
 ! D11   D(9,1,13,12)           -1.1455         estimate D2E/DX2                !
 ! D12   D(9,1,13,24)          179.2557         estimate D2E/DX2                !
 ! D13   D(1,2,3,4)             -1.713          estimate D2E/DX2                !
 ! D14   D(1,2,3,5)            178.3248         estimate D2E/DX2                !
 ! D15   D(14,2,3,4)          -173.322          estimate D2E/DX2                !
 ! D16   D(14,2,3,5)             6.7157         estimate D2E/DX2                !
 ! D17   D(2,3,5,6)           -178.203          estimate D2E/DX2                !
 ! D18   D(2,3,5,15)            -1.8559         estimate D2E/DX2                !
 ! D19   D(4,3,5,6)              1.8346         estimate D2E/DX2                !
 ! D20   D(4,3,5,15)           178.1816         estimate D2E/DX2                !
 ! D21   D(3,5,6,7)           -179.4551         estimate D2E/DX2                !
 ! D22   D(3,5,6,16)            59.139          estimate D2E/DX2                !
 ! D23   D(3,5,6,17)           -58.2265         estimate D2E/DX2                !
 ! D24   D(15,5,6,7)             4.1394         estimate D2E/DX2                !
 ! D25   D(15,5,6,16)         -117.2665         estimate D2E/DX2                !
 ! D26   D(15,5,6,17)          125.368          estimate D2E/DX2                !
 ! D27   D(5,6,7,8)           -179.9173         estimate D2E/DX2                !
 ! D28   D(5,6,7,18)            58.4618         estimate D2E/DX2                !
 ! D29   D(5,6,7,19)           -58.3221         estimate D2E/DX2                !
 ! D30   D(16,6,7,8)           -58.8998         estimate D2E/DX2                !
 ! D31   D(16,6,7,18)          179.4794         estimate D2E/DX2                !
 ! D32   D(16,6,7,19)           62.6955         estimate D2E/DX2                !
 ! D33   D(17,6,7,8)            59.4142         estimate D2E/DX2                !
 ! D34   D(17,6,7,18)          -62.2067         estimate D2E/DX2                !
 ! D35   D(17,6,7,19)         -178.9905         estimate D2E/DX2                !
 ! D36   D(6,7,8,20)           -59.9118         estimate D2E/DX2                !
 ! D37   D(6,7,8,21)          -179.9188         estimate D2E/DX2                !
 ! D38   D(6,7,8,22)            60.0683         estimate D2E/DX2                !
 ! D39   D(18,7,8,20)           61.2165         estimate D2E/DX2                !
 ! D40   D(18,7,8,21)          -58.7905         estimate D2E/DX2                !
 ! D41   D(18,7,8,22)         -178.8034         estimate D2E/DX2                !
 ! D42   D(19,7,8,20)          178.9635         estimate D2E/DX2                !
 ! D43   D(19,7,8,21)           58.9565         estimate D2E/DX2                !
 ! D44   D(19,7,8,22)          -61.0563         estimate D2E/DX2                !
 ! D45   D(1,9,10,11)            0.1697         estimate D2E/DX2                !
 ! D46   D(1,9,10,26)          178.9763         estimate D2E/DX2                !
 ! D47   D(23,9,10,11)         179.639          estimate D2E/DX2                !
 ! D48   D(23,9,10,26)          -1.5544         estimate D2E/DX2                !
 ! D49   D(9,10,11,12)          -1.3447         estimate D2E/DX2                !
 ! D50   D(9,10,11,25)        -179.7158         estimate D2E/DX2                !
 ! D51   D(26,10,11,12)        179.9224         estimate D2E/DX2                !
 ! D52   D(26,10,11,25)          1.5513         estimate D2E/DX2                !
 ! D53   D(9,10,26,31)          19.0549         estimate D2E/DX2                !
 ! D54   D(9,10,26,32)        -100.3993         estimate D2E/DX2                !
 ! D55   D(9,10,26,33)         138.9634         estimate D2E/DX2                !
 ! D56   D(11,10,26,31)       -162.1596         estimate D2E/DX2                !
 ! D57   D(11,10,26,32)         78.3862         estimate D2E/DX2                !
 ! D58   D(11,10,26,33)        -42.2511         estimate D2E/DX2                !
 ! D59   D(10,11,12,13)          1.2822         estimate D2E/DX2                !
 ! D60   D(10,11,12,27)       -179.3103         estimate D2E/DX2                !
 ! D61   D(25,11,12,13)        179.7508         estimate D2E/DX2                !
 ! D62   D(25,11,12,27)         -0.8417         estimate D2E/DX2                !
 ! D63   D(10,11,25,28)        -42.4973         estimate D2E/DX2                !
 ! D64   D(10,11,25,29)       -162.2584         estimate D2E/DX2                !
 ! D65   D(10,11,25,30)         78.4196         estimate D2E/DX2                !
 ! D66   D(12,11,25,28)        139.1239         estimate D2E/DX2                !
 ! D67   D(12,11,25,29)         19.3628         estimate D2E/DX2                !
 ! D68   D(12,11,25,30)        -99.9591         estimate D2E/DX2                !
 ! D69   D(11,12,13,1)          -0.0426         estimate D2E/DX2                !
 ! D70   D(11,12,13,24)        179.5558         estimate D2E/DX2                !
 ! D71   D(27,12,13,1)        -179.4557         estimate D2E/DX2                !
 ! D72   D(27,12,13,24)          0.1427         estimate D2E/DX2                !
 --------------------------------------------------------------------------------
 Trust Radius=3.00D-01 FncErr=1.00D-07 GrdErr=1.00D-06
 Number of steps in this run=    172 maximum allowed number of steps=    198.
 GradGradGradGradGradGradGradGradGradGradGradGradGradGradGradGradGradGrad

                          Input orientation:                          
 ---------------------------------------------------------------------
 Center     Atomic      Atomic             Coordinates (Angstroms)
 Number     Number       Type             X           Y           Z
 ---------------------------------------------------------------------
      1          6           0       -5.896180    1.128439    0.170630
      2          7           0       -4.637144    0.553936    0.033532
      3          6           0       -3.406972    1.188567    0.090266
      4          8           0       -3.286074    2.405013    0.248534
      5          7           0       -2.348994    0.366325   -0.042756
      6          6           0       -0.985570    0.876617    0.033979
      7          6           0        0.011263   -0.253274   -0.161220
      8          6           0        1.443793    0.259703   -0.082391
      9          6           0       -6.139031    2.504834    0.073143
     10          6           0       -7.428733    2.998725    0.207205
     11          6           0       -8.508645    2.137879    0.444942
     12          6           0       -8.260667    0.769682    0.515355
     13          6           0       -6.978771    0.269190    0.381591
     14          1           0       -4.627101   -0.458776    0.005466
     15          1           0       -2.488005   -0.630241   -0.143532
     16          1           0       -0.828326    1.354930    1.005264
     17          1           0       -0.843469    1.641851   -0.733992
     18          1           0       -0.165502   -0.726359   -1.132091
     19          1           0       -0.156055   -1.018224    0.603558
     20          1           0        1.634013    1.012275   -0.851941
     21          1           0        2.160109   -0.551605   -0.224018
     22          1           0        1.644054    0.717044    0.889941
     23          1           0       -5.322698    3.182670   -0.115215
     24          1           0       -6.809484   -0.799894    0.447275
     25          6           0       -9.930428    2.602455    0.594312
     26          6           0       -7.589853    4.497298    0.111040
     27          1           0       -9.077610    0.080479    0.686771
     28          9           0      -10.041525    3.711225    1.344592
     29          9           0      -10.696244    1.671006    1.181196
     30          9           0      -10.515354    2.876285   -0.587096
     31          9           0       -6.540911    5.078040   -0.485318
     32          9           0       -7.703197    5.073516    1.320406
     33          9           0       -8.673507    4.853960   -0.595007
 ---------------------------------------------------------------------
                    Distance matrix (angstroms):
                    1          2          3          4          5
     1  C    0.000000
     2  N    1.390692   0.000000
     3  C    2.491231   1.385387   0.000000
     4  O    2.906607   2.301761   1.232642   0.000000
     5  N    3.634403   2.297095   1.346513   2.262569   0.000000
     6  C    4.918961   3.665803   2.442062   2.770262   1.457810
     7  C    6.075948   4.721992   3.718398   4.255212   2.443103
     8  C    7.395535   6.089154   4.941915   5.204182   3.794492
     9  C    1.401051   2.462364   3.032654   2.860085   4.353278
    10  C    2.418269   3.714852   4.411905   4.185191   5.726758
    11  C    2.814105   4.203172   5.201351   5.233085   6.427873
    12  C    2.416266   3.661779   4.890248   5.243289   5.951644
    13  C    1.398147   2.384417   3.699712   4.267956   4.650198
    14  H    2.038895   1.013150   2.051742   3.171549   2.423404
    15  H    3.848027   2.460167   2.051152   3.162815   1.011249
    16  H    5.141115   4.011601   2.741225   2.777740   2.094783
    17  H    5.158665   4.020525   2.730644   2.741185   2.090784
    18  H    6.162632   4.795145   3.958312   4.631371   2.673621
    19  H    6.143666   4.782967   3.962557   4.652055   2.672766
    20  H    7.600194   6.349924   5.131312   5.230490   4.115382
    21  H    8.239059   6.891385   5.841179   6.214966   4.605156
    22  H    7.585630   6.341410   5.135628   5.250410   4.115502
    23  H    2.151849   2.720727   2.772845   2.210181   4.096335
    24  H    2.151540   2.592894   3.957085   4.767111   4.636396
    25  C    4.315946   5.703487   6.693924   6.656274   7.929961
    26  C    3.771113   4.926927   5.333350   4.787387   6.674968
    27  H    3.389117   4.513161   5.808598   6.255989   6.774082
    28  F    5.023231   6.394895   7.207941   6.967327   8.502242
    29  F    4.935203   6.267190   7.386227   7.504614   8.536793
    30  F    4.996586   6.350735   7.337322   7.292657   8.560703
    31  F    4.055280   4.935693   5.028009   4.275228   6.322048
    32  F    4.488978   5.611001   5.921454   5.270748   7.258330
    33  F    4.709485   5.931063   6.452991   5.977736   7.774530
                    6          7          8          9         10
     6  C    0.000000
     7  C    1.519353   0.000000
     8  C    2.509169   1.523647   0.000000
     9  C    5.404700   6.744494   7.909742   0.000000
    10  C    6.785845   8.128024   9.290201   1.387528   0.000000
    11  C    7.639131   8.869830  10.141827   2.426513   1.401351
    12  C    7.291789   8.362358   9.736217   2.776265   2.399105
    13  C    6.033925   7.030518   8.435339   2.407988   2.771865
    14  H    3.878767   4.645906   6.113893   3.327686   4.454678
    15  H    2.135285   2.527600   4.031721   4.817222   6.140293
    16  H    1.094031   2.156830   2.746824   5.513140   6.848674
    17  H    1.093415   2.156417   2.750725   5.425788   6.789157
    18  H    2.145172   1.094370   2.159634   6.897554   8.271910
    19  H    2.145446   1.094546   2.159430   6.963424   8.317741
    20  H    2.768659   2.170720   1.093048   7.968922   9.338155
    21  H    3.464344   2.170364   1.091507   8.849059  10.234094
    22  H    2.770029   2.170820   1.093021   8.027438   9.380174
    23  H    4.914348   6.344996   7.370903   1.077655   2.138498
    24  H    6.074494   6.869618   8.337858   3.392743   3.856243
    25  C    9.127046  10.371270  11.632683   3.828295   2.562296
    26  C    7.532053   8.967666   9.980049   2.465002   1.510275
    27  H    8.157271   9.134446  10.551002   3.858664   3.385991
    28  F    9.579301  10.910695  12.077326   4.278016   2.937343
    29  F    9.810420  10.961553  12.286941   4.763533   3.658978
    30  F    9.757109  10.990231  12.252445   4.441407   3.189535
    31  F    6.984515   8.453339   9.334572   2.663603   2.364608
    32  F    8.024672   9.491196  10.431110   3.255827   2.370507
    33  F    8.678667  10.084505  11.123387   3.519714   2.373796
                   11         12         13         14         15
    11  C    0.000000
    12  C    1.392269   0.000000
    13  C    2.415890   1.382622   0.000000
    14  H    4.690644   3.869354   2.490332   0.000000
    15  H    6.652585   5.976416   4.609957   2.151123   0.000000
    16  H    7.740431   7.471427   6.276605   4.326641   2.831108
    17  H    7.771155   7.572079   6.385190   4.390365   2.866277
    18  H    8.960967   8.395471   7.050035   4.612104   2.525967
    19  H    8.930392   8.299947   6.946665   4.545432   2.479247
    20  H   10.287001   9.991649   8.732343   6.488504   4.493410
    21  H   11.022846  10.530197   9.195629   6.791723   4.649476
    22  H   10.261291   9.911942   8.649399   6.441447   4.467343
    23  H    3.399356   3.853802   3.387884   3.709252   4.751271
    24  H    3.393768   2.138723   1.084395   2.252632   4.364976
    25  C    1.503200   2.480603   3.768509   6.151679   8.147662
    26  C    2.553924   3.809014   4.280598   5.775095   7.237770
    27  H    2.148278   1.082488   2.129289   4.534534   6.679627
    28  F    2.373712   3.537197   4.706956   6.964061   8.838467
    29  F    2.354916   2.681000   4.052661   6.538563   8.627040
    30  F    2.374284   3.276703   4.499190   6.793032   8.771020
    31  F    3.658129   4.745615   4.905945   5.878765   7.009090
    32  F    3.167514   4.413827   4.948506   6.465113   7.866014
    33  F    2.913035   4.252608   4.984575   6.705157   8.278933
                   16         17         18         19         20
    16  H    0.000000
    17  H    1.762829   0.000000
    18  H    3.056041   2.495304   0.000000
    19  H    2.499035   3.055746   1.760043   0.000000
    20  H    3.103181   2.558944   2.517853   3.073393   0.000000
    21  H    3.751900   3.754038   2.502718   2.503444   1.765442
    22  H    2.555946   3.111302   3.073519   2.516657   1.766753
    23  H    4.979506   4.777080   6.550666   6.697637   7.324561
    24  H    6.381917   6.553689   6.829517   6.658845   8.732958
    25  C    9.196383   9.233633  10.460175  10.423424  11.762509
    26  C    7.509485   7.374371   9.162585   9.269569   9.907190
    27  H    8.353224   8.500442   9.131535   8.989339  10.861618
    28  F    9.515792   9.654379  11.106842  10.983594  12.183073
    29  F    9.874546  10.037229  11.045143  10.893172  12.514104
    30  F    9.934215   9.751449  10.972488  11.131034  12.294380
    31  F    6.979758   6.658084   8.646110   8.894745   9.137518
    32  F    7.822470   7.940576   9.821922   9.725354  10.411352
    33  F    8.737903   8.464423  10.188944  10.414706  11.003160
                   21         22         23         24         25
    21  H    0.000000
    22  H    1.765414   0.000000
    23  H    8.363554   7.458236   0.000000
    24  H    8.998104   8.599963   4.288093   0.000000
    25  C   12.521935  11.730763   4.698006   4.619295   0.000000
    26  C   10.984782  10.008099   2.630481   5.364911   3.049963
    27  H   11.292271  10.742466   4.936206   2.444751   2.663871
    28  F   13.019682  12.071643   4.967669   5.621517   1.343367
    29  F   13.122516  12.380542   5.730690   4.663784   1.341083
    30  F   13.135814  12.437650   5.223046   5.321436   1.346419
    31  F   10.366722   9.375675   2.283298   5.957514   4.333930
    32  F   11.459146  10.321591   3.362006   6.004833   3.404984
    33  F   12.113009  11.214776   3.775094   6.043757   2.839649
                   26         27         28         29         30
    26  C    0.000000
    27  H    4.696081   0.000000
    28  F    2.854865   3.813683   0.000000
    29  F    4.333916   2.322543   2.148918   0.000000
    30  F    3.416670   3.392104   2.157095   2.147621   0.000000
    31  F    1.339098   5.725754   4.179839   5.626006   4.544698
    32  F    1.344411   5.217367   2.706326   4.533738   4.046556
    33  F    1.341647   4.959070   2.634267   4.168640   2.702529
                   31         32         33
    31  F    0.000000
    32  F    2.147456   0.000000
    33  F    2.147140   2.158359   0.000000
 Stoichiometry    C12H12F6N2O
 Framework group  C1[X(C12H12F6N2O)]
 Deg. of freedom    93
 Full point group                 C1      NOp   1
 Largest Abelian subgroup         C1      NOp   1
 Largest concise Abelian subgroup C1      NOp   1
                         Standard orientation:                         
 ---------------------------------------------------------------------
 Center     Atomic      Atomic             Coordinates (Angstroms)
 Number     Number       Type             X           Y           Z
 ---------------------------------------------------------------------
      1          6           0        0.491584   -0.965228   -0.122120
      2          7           0        1.871982   -1.114639   -0.200862
      3          6           0        2.840678   -0.144846    0.000208
      4          8           0        2.570790    1.030130    0.257106
      5          7           0        4.106599   -0.590561   -0.108779
      6          6           0        5.239221    0.299910    0.113565
      7          6           0        6.545545   -0.450146   -0.084840
      8          6           0        7.742841    0.463654    0.145275
      9          6           0       -0.159632    0.275196   -0.136537
     10          6           0       -1.544049    0.339159   -0.069210
     11          6           0       -2.315666   -0.827394    0.017661
     12          6           0       -1.660686   -2.055923    0.006177
     13          6           0       -0.281654   -2.128542   -0.061962
     14          1           0        2.196285   -2.069049   -0.302858
     15          1           0        4.288228   -1.568026   -0.293703
     16          1           0        5.189201    0.709052    1.126978
     17          1           0        5.178020    1.141348   -0.581987
     18          1           0        6.575392   -0.860298   -1.099005
     19          1           0        6.582884   -1.298669    0.605556
     20          1           0        7.731328    1.307845   -0.548960
     21          1           0        8.681434   -0.074613    0.001398
     22          1           0        7.740096    0.865874    1.161595
     23          1           0        0.415726    1.183536   -0.208796
     24          1           0        0.206329   -3.096934   -0.062278
     25          6           0       -3.817231   -0.832777    0.087542
     26          6           0       -2.155530    1.720105   -0.066784
     27          1           0       -2.232211   -2.973619    0.060704
     28          9           0       -4.305382    0.113558    0.906560
     29          9           0       -4.287239   -2.004000    0.541231
     30          9           0       -4.394850   -0.638768   -1.113107
     31          9           0       -1.307707    2.645693   -0.533332
     32          9           0       -2.505342    2.117344    1.169045
     33          9           0       -3.257438    1.796163   -0.828380
 ---------------------------------------------------------------------
 Rotational constants (GHZ):      0.7115469      0.1180689      0.1053681
 Standard basis: 6-311+G(d) (5D, 7F)
 There are   519 symmetry adapted cartesian basis functions of A   symmetry.
 There are   498 symmetry adapted basis functions of A   symmetry.
   498 basis functions,   816 primitive gaussians,   519 cartesian basis functions
    80 alpha electrons       80 beta electrons
       nuclear repulsion energy      1780.5321005714 Hartrees.
 NAtoms=   33 NActive=   33 NUniq=   33 SFac= 1.00D+00 NAtFMM=   60 NAOKFM=F Big=F
 Integral buffers will be    131072 words long.
 Raffenetti 2 integral format.
 Two-electron integral symmetry is turned on.
 Nuclear repulsion after empirical dispersion term =     1780.5305210529 Hartrees.
 ------------------------------------------------------------------------------
 Polarizable Continuum Model (PCM)
 =================================
 Model                : PCM (using non-symmetric T matrix).
 Atomic radii         : SMD-Coulomb.
 Polarization charges : Total charges.
 Charge compensation  : None.
 Solution method      : On-the-fly selection.
 Cavity type          : VdW (van der Waals Surface) (Alpha=1.000).
 Cavity algorithm     : GePol (No added spheres)
                        Default sphere list used, NSphG=   33.
                        Lebedev-Laikov grids with approx.  5.0 points / Ang**2.
                        Smoothing algorithm: York/Karplus (Gamma=1.0000).
                        Polarization charges: spherical gaussians, with
                                              point-specific exponents (IZeta= 3).
                        Self-potential: point-specific (ISelfS= 7).
                        Self-field    : sphere-specific E.n sum rule (ISelfD= 2).
 1st derivatives      : Analytical E(r).r(x)/FMM algorithm (CHGder, D1EAlg=3).
                        Cavity 1st derivative terms included.
 Solvent              : Water, Eps=  78.355300 Eps(inf)=   1.777849
 ------------------------------------------------------------------------------
 ------------------------------------------------------------------------------
 Atomic radii for non-electrostatic terms: SMD-CDS.
 ------------------------------------------------------------------------------
 Nuclear repulsion after PCM non-electrostatic terms =     1780.5436955216 Hartrees.
 One-electron integrals computed using PRISM.
 NBasis=   498 RedAO= T EigKep=  1.65D-06  NBF=   498
 NBsUse=   496 1.00D-06 EigRej=  8.90D-07 NBFU=   496
 ExpMin= 4.38D-02 ExpMax= 1.14D+04 ExpMxC= 1.72D+03 IAcc=3 IRadAn=         5 AccDes= 0.00D+00
 Harris functional with IExCor= 1009 and IRadAn=       5 diagonalized for initial guess.
 HarFok:  IExCor= 1009 AccDes= 0.00D+00 IRadAn=         5 IDoV= 1 UseB2=F ITyADJ=14
 ICtDFT=  3500011 ScaDFX=  1.000000  1.000000  1.000000  1.000000
 FoFCou: FMM=F IPFlag=           0 FMFlag=      100000 FMFlg1=           0
         NFxFlg=           0 DoJE=T BraDBF=F KetDBF=T FulRan=T
         wScrn=  0.000000 ICntrl=     500 IOpCl=  0 I1Cent=   200000004 NGrid=           0
         NMat0=    1 NMatS0=      1 NMatT0=    0 NMatD0=    1 NMtDS0=    0 NMtDT0=    0
 Petite list used in FoFCou.
 Requested convergence on RMS density matrix=1.00D-08 within 128 cycles.
 Requested convergence on MAX density matrix=1.00D-06.
 Requested convergence on             energy=1.00D-06.
 No special actions if energy rises.
 Inv3:  Mode=1 IEnd=    17846163.
 Iteration    1 A*A^-1 deviation from unit magnitude is 6.22D-15 for   2436.
 Iteration    1 A*A^-1 deviation from orthogonality  is 3.72D-15 for   2407   1747.
 Iteration    1 A^-1*A deviation from unit magnitude is 5.77D-15 for   2436.
 Iteration    1 A^-1*A deviation from orthogonality  is 1.45D-10 for   2186   2107.
 Iteration    2 A*A^-1 deviation from unit magnitude is 6.22D-15 for    913.
 Iteration    2 A*A^-1 deviation from orthogonality  is 3.35D-15 for   2404    293.
 Iteration    2 A^-1*A deviation from unit magnitude is 1.55D-15 for    610.
 Iteration    2 A^-1*A deviation from orthogonality  is 5.41D-16 for   2423    283.
 Error on total polarization charges =  0.04488
 SCF Done:  E(RM062X) =  -1248.26450987     A.U. after   15 cycles
            NFock= 15  Conv=0.48D-08     -V/T= 2.0031
 SMD-CDS (non-electrostatic) energy       (kcal/mol) =       8.27
 (included in total energy above)

 **********************************************************************

            Population analysis using the SCF density.

 **********************************************************************

 Orbital symmetries:
       Occupied  (A) (A) (A) (A) (A) (A) (A) (A) (A) (A) (A) (A)
                 (A) (A) (A) (A) (A) (A) (A) (A) (A) (A) (A) (A)
                 (A) (A) (A) (A) (A) (A) (A) (A) (A) (A) (A) (A)
                 (A) (A) (A) (A) (A) (A) (A) (A) (A) (A) (A) (A)
                 (A) (A) (A) (A) (A) (A) (A) (A) (A) (A) (A) (A)
                 (A) (A) (A) (A) (A) (A) (A) (A) (A) (A) (A) (A)
                 (A) (A) (A) (A) (A) (A) (A) (A)
       Virtual   (A) (A) (A) (A) (A) (A) (A) (A) (A) (A) (A) (A)
                 (A) (A) (A) (A) (A) (A) (A) (A) (A) (A) (A) (A)
                 (A) (A) (A) (A) (A) (A) (A) (A) (A) (A) (A) (A)
                 (A) (A) (A) (A) (A) (A) (A) (A) (A) (A) (A) (A)
                 (A) (A) (A) (A) (A) (A) (A) (A) (A) (A) (A) (A)
                 (A) (A) (A) (A) (A) (A) (A) (A) (A) (A) (A) (A)
                 (A) (A) (A) (A) (A) (A) (A) (A) (A) (A) (A) (A)
                 (A) (A) (A) (A) (A) (A) (A) (A) (A) (A) (A) (A)
                 (A) (A) (A) (A) (A) (A) (A) (A) (A) (A) (A) (A)
                 (A) (A) (A) (A) (A) (A) (A) (A) (A) (A) (A) (A)
                 (A) (A) (A) (A) (A) (A) (A) (A) (A) (A) (A) (A)
                 (A) (A) (A) (A) (A) (A) (A) (A) (A) (A) (A) (A)
                 (A) (A) (A) (A) (A) (A) (A) (A) (A) (A) (A) (A)
                 (A) (A) (A) (A) (A) (A) (A) (A) (A) (A) (A) (A)
                 (A) (A) (A) (A) (A) (A) (A) (A) (A) (A) (A) (A)
                 (A) (A) (A) (A) (A) (A) (A) (A) (A) (A) (A) (A)
                 (A) (A) (A) (A) (A) (A) (A) (A) (A) (A) (A) (A)
                 (A) (A) (A) (A) (A) (A) (A) (A) (A) (A) (A) (A)
                 (A) (A) (A) (A) (A) (A) (A) (A) (A) (A) (A) (A)
                 (A) (A) (A) (A) (A) (A) (A) (A) (A) (A) (A) (A)
                 (A) (A) (A) (A) (A) (A) (A) (A) (A) (A) (A) (A)
                 (A) (A) (A) (A) (A) (A) (A) (A) (A) (A) (A) (A)
                 (A) (A) (A) (A) (A) (A) (A) (A) (A) (A) (A) (A)
                 (A) (A) (A) (A) (A) (A) (A) (A) (A) (A) (A) (A)
                 (A) (A) (A) (A) (A) (A) (A) (A) (A) (A) (A) (A)
                 (A) (A) (A) (A) (A) (A) (A) (A) (A) (A) (A) (A)
                 (A) (A) (A) (A) (A) (A) (A) (A) (A) (A) (A) (A)
                 (A) (A) (A) (A) (A) (A) (A) (A) (A) (A) (A) (A)
                 (A) (A) (A) (A) (A) (A) (A) (A) (A) (A) (A) (A)
                 (A) (A) (A) (A) (A) (A) (A) (A) (A) (A) (A) (A)
                 (A) (A) (A) (A) (A) (A) (A) (A) (A) (A) (A) (A)
                 (A) (A) (A) (A) (A) (A) (A) (A) (A) (A) (A) (A)
                 (A) (A) (A) (A) (A) (A) (A) (A) (A) (A) (A) (A)
                 (A) (A) (A) (A) (A) (A) (A) (A) (A) (A) (A) (A)
                 (A) (A) (A) (A) (A) (A) (A) (A)
 The electronic state is 1-A.
 Alpha  occ. eigenvalues --  -25.28838 -25.28794 -25.28674 -25.28604 -25.28492
 Alpha  occ. eigenvalues --  -25.28264 -19.60230 -14.79346 -14.77256 -10.81608
 Alpha  occ. eigenvalues --  -10.81431 -10.68816 -10.61874 -10.59716 -10.58809
 Alpha  occ. eigenvalues --  -10.57110 -10.56705 -10.56678 -10.56256 -10.53072
 Alpha  occ. eigenvalues --  -10.51757  -1.48398  -1.47872  -1.38954  -1.38581
 Alpha  occ. eigenvalues --   -1.38446  -1.38195  -1.19073  -1.07236  -1.03823
 Alpha  occ. eigenvalues --   -0.99736  -0.90727  -0.90093  -0.87780  -0.83263
 Alpha  occ. eigenvalues --   -0.81613  -0.78233  -0.75014  -0.74295  -0.71112
 Alpha  occ. eigenvalues --   -0.70737  -0.70471  -0.69969  -0.69362  -0.68786
 Alpha  occ. eigenvalues --   -0.67815  -0.65599  -0.63539  -0.59993  -0.59155
 Alpha  occ. eigenvalues --   -0.59082  -0.58330  -0.58204  -0.56379  -0.56019
 Alpha  occ. eigenvalues --   -0.55720  -0.54820  -0.54223  -0.53788  -0.53250
 Alpha  occ. eigenvalues --   -0.52834  -0.52657  -0.52350  -0.52130  -0.51489
 Alpha  occ. eigenvalues --   -0.50515  -0.49303  -0.47959  -0.46818  -0.45582
 Alpha  occ. eigenvalues --   -0.45453  -0.43565  -0.42141  -0.40213  -0.40015
 Alpha  occ. eigenvalues --   -0.39114  -0.36627  -0.33938  -0.33319  -0.28936
 Alpha virt. eigenvalues --   -0.02037  -0.00335   0.01177   0.02335   0.02668
 Alpha virt. eigenvalues --    0.03211   0.03609   0.03826   0.04509   0.04753
 Alpha virt. eigenvalues --    0.05280   0.05513   0.06440   0.06466   0.06851
 Alpha virt. eigenvalues --    0.07350   0.07578   0.08148   0.08790   0.08898
 Alpha virt. eigenvalues --    0.09208   0.09354   0.09853   0.11167   0.11579
 Alpha virt. eigenvalues --    0.11905   0.12115   0.12250   0.12810   0.13393
 Alpha virt. eigenvalues --    0.14000   0.14460   0.15430   0.15470   0.16074
 Alpha virt. eigenvalues --    0.16627   0.16958   0.17458   0.18224   0.18348
 Alpha virt. eigenvalues --    0.18683   0.19390   0.19934   0.20152   0.20530
 Alpha virt. eigenvalues --    0.20728   0.21337   0.21595   0.21704   0.22065
 Alpha virt. eigenvalues --    0.22298   0.22761   0.22969   0.23228   0.23981
 Alpha virt. eigenvalues --    0.24350   0.24631   0.25229   0.25473   0.25887
 Alpha virt. eigenvalues --    0.25940   0.26267   0.26902   0.27075   0.27249
 Alpha virt. eigenvalues --    0.27444   0.27618   0.28322   0.28565   0.29166
 Alpha virt. eigenvalues --    0.29522   0.29868   0.30247   0.30363   0.30784
 Alpha virt. eigenvalues --    0.31452   0.31838   0.32423   0.32695   0.32877
 Alpha virt. eigenvalues --    0.33329   0.33950   0.34258   0.34883   0.35215
 Alpha virt. eigenvalues --    0.35733   0.36390   0.36512   0.36952   0.37737
 Alpha virt. eigenvalues --    0.38128   0.38206   0.38511   0.39429   0.39894
 Alpha virt. eigenvalues --    0.40039   0.40585   0.41125   0.41804   0.42313
 Alpha virt. eigenvalues --    0.42935   0.43489   0.44090   0.44570   0.44926
 Alpha virt. eigenvalues --    0.45423   0.45491   0.45925   0.48078   0.48333
 Alpha virt. eigenvalues --    0.48825   0.49194   0.49791   0.50712   0.51106
 Alpha virt. eigenvalues --    0.51874   0.53134   0.53930   0.54507   0.55272
 Alpha virt. eigenvalues --    0.56476   0.56903   0.58027   0.58899   0.59730
 Alpha virt. eigenvalues --    0.60426   0.60761   0.62165   0.62317   0.63281
 Alpha virt. eigenvalues --    0.64563   0.65990   0.66687   0.67581   0.68021
 Alpha virt. eigenvalues --    0.68706   0.69360   0.69811   0.70050   0.70482
 Alpha virt. eigenvalues --    0.71248   0.71788   0.72636   0.73001   0.74023
 Alpha virt. eigenvalues --    0.74375   0.74591   0.75391   0.76680   0.77308
 Alpha virt. eigenvalues --    0.78528   0.78860   0.79234   0.79771   0.80804
 Alpha virt. eigenvalues --    0.81249   0.81921   0.82718   0.84152   0.85993
 Alpha virt. eigenvalues --    0.86950   0.87679   0.89338   0.90482   0.91394
 Alpha virt. eigenvalues --    0.93723   0.94219   0.95110   0.95963   0.96267
 Alpha virt. eigenvalues --    0.97755   0.99111   1.00323   1.03286   1.04219
 Alpha virt. eigenvalues --    1.05235   1.05882   1.07667   1.08276   1.10344
 Alpha virt. eigenvalues --    1.10631   1.12479   1.14183   1.14768   1.15783
 Alpha virt. eigenvalues --    1.17305   1.18636   1.21130   1.22004   1.23373
 Alpha virt. eigenvalues --    1.24996   1.26179   1.27681   1.29970   1.32149
 Alpha virt. eigenvalues --    1.34213   1.38327   1.39302   1.39591   1.40109
 Alpha virt. eigenvalues --    1.43259   1.44170   1.45466   1.46506   1.46944
 Alpha virt. eigenvalues --    1.47904   1.48494   1.49027   1.49600   1.49962
 Alpha virt. eigenvalues --    1.50819   1.51598   1.52179   1.53264   1.54073
 Alpha virt. eigenvalues --    1.54731   1.55446   1.55710   1.56247   1.56994
 Alpha virt. eigenvalues --    1.57975   1.58211   1.59600   1.59690   1.61003
 Alpha virt. eigenvalues --    1.61336   1.61933   1.62667   1.63317   1.63932
 Alpha virt. eigenvalues --    1.64978   1.66849   1.69457   1.73387   1.75804
 Alpha virt. eigenvalues --    1.76762   1.77344   1.78409   1.79003   1.80232
 Alpha virt. eigenvalues --    1.80500   1.81905   1.83126   1.84588   1.85219
 Alpha virt. eigenvalues --    1.86506   1.88392   1.89075   1.90589   1.91384
 Alpha virt. eigenvalues --    1.96281   1.96699   1.97442   1.98897   2.00717
 Alpha virt. eigenvalues --    2.01657   2.03220   2.04462   2.07035   2.08524
 Alpha virt. eigenvalues --    2.11307   2.11838   2.13671   2.15230   2.16052
 Alpha virt. eigenvalues --    2.17657   2.20741   2.23200   2.25219   2.26571
 Alpha virt. eigenvalues --    2.28151   2.34638   2.36596   2.37693   2.39858
 Alpha virt. eigenvalues --    2.41004   2.42483   2.43461   2.48782   2.52467
 Alpha virt. eigenvalues --    2.55625   2.56346   2.57664   2.59372   2.60524
 Alpha virt. eigenvalues --    2.60605   2.63915   2.65408   2.68291   2.71953
 Alpha virt. eigenvalues --    2.73391   2.79114   2.82182   2.83418   2.85068
 Alpha virt. eigenvalues --    2.86694   2.87564   2.90430   2.95231   2.96517
 Alpha virt. eigenvalues --    2.97238   2.98809   2.99198   2.99819   3.02035
 Alpha virt. eigenvalues --    3.04822   3.06398   3.07344   3.09868   3.13645
 Alpha virt. eigenvalues --    3.13919   3.14614   3.18175   3.23429   3.24864
 Alpha virt. eigenvalues --    3.25781   3.29711   3.30717   3.36083   3.38976
 Alpha virt. eigenvalues --    3.40104   3.40925   3.42099   3.44887   3.49282
 Alpha virt. eigenvalues --    3.53697   3.58144   3.67542   3.69528   3.71261
 Alpha virt. eigenvalues --    3.78584   3.80026   3.80354   3.81211   3.83349
 Alpha virt. eigenvalues --    3.83736   3.83942   3.84941   3.85508   3.85759
 Alpha virt. eigenvalues --    3.86997   3.87515   3.88261   3.88720   3.90709
 Alpha virt. eigenvalues --    3.93980   3.98205   3.98886   3.99581   4.00450
 Alpha virt. eigenvalues --    4.00736   4.00978   4.02945   4.05503   4.06786
 Alpha virt. eigenvalues --    4.11315   4.13527   4.21280   4.22611   4.27024
 Alpha virt. eigenvalues --    4.27877   4.29983   4.31792   4.55079   4.58399
 Alpha virt. eigenvalues --    4.72394   4.79614   4.81644   4.90425   4.98750
 Alpha virt. eigenvalues --    4.98812   5.01555   5.02745   5.18036   5.22109
 Alpha virt. eigenvalues --    5.41736   5.88823   6.46304   6.48063   6.49688
 Alpha virt. eigenvalues --    6.49987   6.50761   6.53047   6.53467   6.54713
 Alpha virt. eigenvalues --    6.55434   6.55951   6.58298   6.62428   6.63131
 Alpha virt. eigenvalues --    6.63852   6.87462   6.88792   6.89170   6.91068
 Alpha virt. eigenvalues --   23.45510  23.59856  23.64630  23.65666  23.74647
 Alpha virt. eigenvalues --   23.82355  23.92770  23.93703  23.98082  24.08926
 Alpha virt. eigenvalues --   24.13163  24.20681  35.60314  35.70984  50.13079
 Alpha virt. eigenvalues --   66.89234  66.89705  66.90429  66.91137  66.95782
 Alpha virt. eigenvalues --   66.98195
          Condensed to atoms (all electrons):
               1          2          3          4          5          6
     1  C   22.600728  -0.189617  -0.371233  -0.017532  -0.319828  -0.533487
     2  N   -0.189617   7.748532   0.381134  -0.116293  -0.494863  -0.485849
     3  C   -0.371233   0.381134   8.522639   0.620418   0.290277  -1.179056
     4  O   -0.017532  -0.116293   0.620418   8.287240  -0.191350  -0.122715
     5  N   -0.319828  -0.494863   0.290277  -0.191350   7.589137   0.584541
     6  C   -0.533487  -0.485849  -1.179056  -0.122715   0.584541   8.771454
     7  C   -0.009045   0.037048   0.246553   0.017443  -0.133986  -1.002270
     8  C   -0.021274  -0.016523  -0.307077  -0.003728   0.005579   0.460777
     9  C   -2.688135   0.177414   0.036022   0.101452  -0.077262  -0.258278
    10  C   -4.408633   0.160804   0.105720  -0.026519   0.036397  -0.033758
    11  C    0.113746  -0.058648  -1.848387  -0.035316  -0.042490  -0.135979
    12  C    1.496213   0.003614   0.603686   0.015740   0.016880   0.061738
    13  C   -4.775116  -0.090415  -1.376032  -0.015279  -0.100689  -0.149773
    14  H    0.002172   0.243748  -0.032689  -0.000401   0.057359   0.016568
    15  H   -0.017292   0.068369   0.034038  -0.001988   0.253856  -0.073455
    16  H    0.001419   0.013089   0.087774  -0.000273  -0.058678   0.304704
    17  H    0.010153  -0.000362   0.005202   0.001007  -0.054659   0.413528
    18  H    0.000611  -0.000294   0.013744  -0.000149   0.006275  -0.076789
    19  H   -0.000612  -0.001999  -0.011240  -0.000135   0.007436  -0.062235
    20  H   -0.000143  -0.000052  -0.002861  -0.000054   0.000107  -0.051853
    21  H    0.000130   0.000018   0.007309   0.000023  -0.001285   0.086953
    22  H   -0.000016  -0.000024   0.000295  -0.000049  -0.000116  -0.046004
    23  H    0.007048  -0.018097   0.054688  -0.001592   0.002426   0.005811
    24  H    0.029114  -0.016320  -0.008806  -0.000008  -0.000454  -0.000448
    25  C   -0.793851  -0.007224  -0.235006  -0.002399   0.004382  -0.004138
    26  C   -3.397026   0.020467   0.171573   0.008952   0.016665   0.015269
    27  H   -0.014307  -0.001808   0.001611  -0.000011  -0.000044   0.000009
    28  F    0.010212   0.000086   0.001355   0.000000   0.000004   0.000010
    29  F    0.008097  -0.000090  -0.000279   0.000000  -0.000000  -0.000003
    30  F   -0.011174  -0.000034  -0.000958  -0.000002   0.000002  -0.000001
    31  F    0.229990  -0.000404   0.004036  -0.000455  -0.000058  -0.000059
    32  F    0.028446   0.000420  -0.001792   0.000081  -0.000018  -0.000073
    33  F    0.007771   0.000351  -0.001534  -0.000028   0.000009  -0.000004
               7          8          9         10         11         12
     1  C   -0.009045  -0.021274  -2.688135  -4.408633   0.113746   1.496213
     2  N    0.037048  -0.016523   0.177414   0.160804  -0.058648   0.003614
     3  C    0.246553  -0.307077   0.036022   0.105720  -1.848387   0.603686
     4  O    0.017443  -0.003728   0.101452  -0.026519  -0.035316   0.015740
     5  N   -0.133986   0.005579  -0.077262   0.036397  -0.042490   0.016880
     6  C   -1.002270   0.460777  -0.258278  -0.033758  -0.135979   0.061738
     7  C    6.442750  -0.244314   0.003264  -0.002622   0.001243  -0.000939
     8  C   -0.244314   6.186748  -0.009715  -0.000712  -0.001120   0.000614
     9  C    0.003264  -0.009715  16.389068   2.361463  -7.392503   0.584467
    10  C   -0.002622  -0.000712   2.361463  32.970463 -11.306370   0.503747
    11  C    0.001243  -0.001120  -7.392503 -11.306370  44.361150 -11.110849
    12  C   -0.000939   0.000614   0.584467   0.503747 -11.110849  17.114605
    13  C    0.012732  -0.001708  -4.064837  -5.216579   1.713268  -2.695280
    14  H   -0.002378   0.000121   0.037021   0.015219   0.000146   0.011508
    15  H   -0.008891   0.002031   0.012989  -0.000088  -0.000701  -0.000009
    16  H   -0.008370  -0.023488   0.009669   0.000657   0.000479  -0.000181
    17  H   -0.026565  -0.012791  -0.013239  -0.000277  -0.000120   0.000156
    18  H    0.454453  -0.051853   0.001375   0.000057   0.000032  -0.000041
    19  H    0.460167  -0.044015  -0.000957  -0.000025  -0.000021   0.000048
    20  H    0.021235   0.378480  -0.000031  -0.000004  -0.000001   0.000001
    21  H   -0.121341   0.378103   0.000026   0.000001   0.000000  -0.000000
    22  H    0.011835   0.378946   0.000035   0.000002   0.000000  -0.000001
    23  H   -0.000288   0.000038   0.379857  -0.053573  -0.022605  -0.007362
    24  H   -0.000014  -0.000000  -0.029817   0.012127  -0.018952   0.043664
    25  C   -0.000200  -0.000017  -2.963836  -0.021640  -4.082482  -1.766273
    26  C   -0.000803   0.000132   3.047774  -8.153809  -3.211511   1.019964
    27  H    0.000001  -0.000000  -0.001330   0.010819   0.004585   0.298631
    28  F   -0.000000   0.000000   0.099151  -0.252954   0.003535   0.082298
    29  F   -0.000000  -0.000000  -0.000668   0.013103  -0.101262   0.016169
    30  F   -0.000000   0.000000  -0.006044  -0.069800   0.135683  -0.068698
    31  F    0.000006  -0.000001   0.193655  -0.420267  -0.046260   0.025138
    32  F   -0.000001  -0.000000  -0.060404   0.248891  -0.110826   0.013608
    33  F   -0.000000   0.000000  -0.040511   0.110670  -0.176618   0.014334
              13         14         15         16         17         18
     1  C   -4.775116   0.002172  -0.017292   0.001419   0.010153   0.000611
     2  N   -0.090415   0.243748   0.068369   0.013089  -0.000362  -0.000294
     3  C   -1.376032  -0.032689   0.034038   0.087774   0.005202   0.013744
     4  O   -0.015279  -0.000401  -0.001988  -0.000273   0.001007  -0.000149
     5  N   -0.100689   0.057359   0.253856  -0.058678  -0.054659   0.006275
     6  C   -0.149773   0.016568  -0.073455   0.304704   0.413528  -0.076789
     7  C    0.012732  -0.002378  -0.008891  -0.008370  -0.026565   0.454453
     8  C   -0.001708   0.000121   0.002031  -0.023488  -0.012791  -0.051853
     9  C   -4.064837   0.037021   0.012989   0.009669  -0.013239   0.001375
    10  C   -5.216579   0.015219  -0.000088   0.000657  -0.000277   0.000057
    11  C    1.713268   0.000146  -0.000701   0.000479  -0.000120   0.000032
    12  C   -2.695280   0.011508  -0.000009  -0.000181   0.000156  -0.000041
    13  C   20.913030  -0.067544  -0.002905  -0.000548   0.002127  -0.000424
    14  H   -0.067544   0.268285   0.001546  -0.000075   0.000092   0.000029
    15  H   -0.002905   0.001546   0.278850   0.002981   0.000775  -0.001133
    16  H   -0.000548  -0.000075   0.002981   0.434877  -0.043476   0.005387
    17  H    0.002127   0.000092   0.000775  -0.043476   0.442206  -0.008053
    18  H   -0.000424   0.000029  -0.001133   0.005387  -0.008053   0.435355
    19  H    0.000370   0.000015  -0.001290  -0.008250   0.005538  -0.041104
    20  H    0.000006  -0.000000  -0.000027  -0.000464   0.003366  -0.008315
    21  H   -0.000005   0.000000  -0.000032  -0.000049  -0.000046  -0.003206
    22  H   -0.000003  -0.000000  -0.000013   0.003409  -0.000446   0.005849
    23  H   -0.052168   0.000137  -0.000001  -0.000024   0.000014  -0.000000
    24  H    0.305612   0.004744  -0.000008   0.000001  -0.000000  -0.000000
    25  C    0.225479   0.001982  -0.000062   0.000010  -0.000006   0.000001
    26  C    1.293479  -0.000065   0.000041  -0.000119   0.000038  -0.000001
    27  H    0.026219  -0.000001   0.000000  -0.000000   0.000000  -0.000000
    28  F    0.016978   0.000001  -0.000000   0.000000   0.000000   0.000000
    29  F    0.131693   0.000000  -0.000000   0.000000  -0.000000   0.000000
    30  F    0.003863   0.000001  -0.000000   0.000000  -0.000000   0.000000
    31  F   -0.013471  -0.000001   0.000000   0.000000  -0.000001   0.000000
    32  F   -0.017722   0.000000  -0.000000   0.000000  -0.000000  -0.000000
    33  F    0.001124   0.000001  -0.000000  -0.000000   0.000000  -0.000000
              19         20         21         22         23         24
     1  C   -0.000612  -0.000143   0.000130  -0.000016   0.007048   0.029114
     2  N   -0.001999  -0.000052   0.000018  -0.000024  -0.018097  -0.016320
     3  C   -0.011240  -0.002861   0.007309   0.000295   0.054688  -0.008806
     4  O   -0.000135  -0.000054   0.000023  -0.000049  -0.001592  -0.000008
     5  N    0.007436   0.000107  -0.001285  -0.000116   0.002426  -0.000454
     6  C   -0.062235  -0.051853   0.086953  -0.046004   0.005811  -0.000448
     7  C    0.460167   0.021235  -0.121341   0.011835  -0.000288  -0.000014
     8  C   -0.044015   0.378480   0.378103   0.378946   0.000038  -0.000000
     9  C   -0.000957  -0.000031   0.000026   0.000035   0.379857  -0.029817
    10  C   -0.000025  -0.000004   0.000001   0.000002  -0.053573   0.012127
    11  C   -0.000021  -0.000001   0.000000   0.000000  -0.022605  -0.018952
    12  C    0.000048   0.000001  -0.000000  -0.000001  -0.007362   0.043664
    13  C    0.000370   0.000006  -0.000005  -0.000003  -0.052168   0.305612
    14  H    0.000015  -0.000000   0.000000  -0.000000   0.000137   0.004744
    15  H   -0.001290  -0.000027  -0.000032  -0.000013  -0.000001  -0.000008
    16  H   -0.008250  -0.000464  -0.000049   0.003409  -0.000024   0.000001
    17  H    0.005538   0.003366  -0.000046  -0.000446   0.000014  -0.000000
    18  H   -0.041104  -0.008315  -0.003206   0.005849  -0.000000  -0.000000
    19  H    0.436434   0.005897  -0.003126  -0.008184   0.000000  -0.000000
    20  H    0.005897   0.446106  -0.024360  -0.036623  -0.000000   0.000000
    21  H   -0.003126  -0.024360   0.424807  -0.024384   0.000000   0.000000
    22  H   -0.008184  -0.036623  -0.024384   0.445500  -0.000000  -0.000000
    23  H    0.000000  -0.000000   0.000000  -0.000000   0.337979  -0.000009
    24  H   -0.000000   0.000000   0.000000  -0.000000  -0.000009   0.365656
    25  C   -0.000000  -0.000000   0.000000   0.000000   0.006802   0.011077
    26  C    0.000002  -0.000000  -0.000000  -0.000000   0.010119   0.001066
    27  H   -0.000000   0.000000  -0.000000   0.000000   0.000040  -0.003216
    28  F    0.000000  -0.000000   0.000000  -0.000000   0.000003   0.000019
    29  F   -0.000000  -0.000000   0.000000  -0.000000   0.000007   0.000023
    30  F   -0.000000  -0.000000  -0.000000   0.000000   0.000007   0.000032
    31  F   -0.000000  -0.000000  -0.000000   0.000000   0.012492  -0.000003
    32  F    0.000000   0.000000   0.000000  -0.000000  -0.000520  -0.000003
    33  F    0.000000  -0.000000  -0.000000  -0.000000   0.000748  -0.000003
              25         26         27         28         29         30
     1  C   -0.793851  -3.397026  -0.014307   0.010212   0.008097  -0.011174
     2  N   -0.007224   0.020467  -0.001808   0.000086  -0.000090  -0.000034
     3  C   -0.235006   0.171573   0.001611   0.001355  -0.000279  -0.000958
     4  O   -0.002399   0.008952  -0.000011   0.000000   0.000000  -0.000002
     5  N    0.004382   0.016665  -0.000044   0.000004  -0.000000   0.000002
     6  C   -0.004138   0.015269   0.000009   0.000010  -0.000003  -0.000001
     7  C   -0.000200  -0.000803   0.000001  -0.000000  -0.000000  -0.000000
     8  C   -0.000017   0.000132  -0.000000   0.000000  -0.000000   0.000000
     9  C   -2.963836   3.047774  -0.001330   0.099151  -0.000668  -0.006044
    10  C   -0.021640  -8.153809   0.010819  -0.252954   0.013103  -0.069800
    11  C   -4.082482  -3.211511   0.004585   0.003535  -0.101262   0.135683
    12  C   -1.766273   1.019964   0.298631   0.082298   0.016169  -0.068698
    13  C    0.225479   1.293479   0.026219   0.016978   0.131693   0.003863
    14  H    0.001982  -0.000065  -0.000001   0.000001   0.000000   0.000001
    15  H   -0.000062   0.000041   0.000000  -0.000000  -0.000000  -0.000000
    16  H    0.000010  -0.000119  -0.000000   0.000000   0.000000   0.000000
    17  H   -0.000006   0.000038   0.000000   0.000000  -0.000000  -0.000000
    18  H    0.000001  -0.000001  -0.000000   0.000000   0.000000   0.000000
    19  H   -0.000000   0.000002  -0.000000   0.000000  -0.000000  -0.000000
    20  H   -0.000000  -0.000000   0.000000  -0.000000  -0.000000  -0.000000
    21  H    0.000000  -0.000000  -0.000000   0.000000   0.000000  -0.000000
    22  H    0.000000  -0.000000   0.000000  -0.000000  -0.000000   0.000000
    23  H    0.006802   0.010119   0.000040   0.000003   0.000007   0.000007
    24  H    0.011077   0.001066  -0.003216   0.000019   0.000023   0.000032
    25  C   20.580375  -6.191836  -0.020554  -0.071243   0.048444   0.189533
    26  C   -6.191836  19.810929   0.012001   0.265097   0.033932  -0.015779
    27  H   -0.020554   0.012001   0.354648   0.000587   0.007432  -0.000622
    28  F   -0.071243   0.265097   0.000587   9.006061  -0.027287  -0.036735
    29  F    0.048444   0.033932   0.007432  -0.027287   9.034409  -0.040160
    30  F    0.189533  -0.015779  -0.000622  -0.036735  -0.040160   8.980209
    31  F    0.006806   0.171830   0.000007   0.001552   0.000091   0.000144
    32  F   -0.030787   0.103899   0.000000   0.002079   0.000109  -0.001083
    33  F    0.265312  -0.028456   0.000036  -0.004217   0.001632   0.002183
              31         32         33
     1  C    0.229990   0.028446   0.007771
     2  N   -0.000404   0.000420   0.000351
     3  C    0.004036  -0.001792  -0.001534
     4  O   -0.000455   0.000081  -0.000028
     5  N   -0.000058  -0.000018   0.000009
     6  C   -0.000059  -0.000073  -0.000004
     7  C    0.000006  -0.000001  -0.000000
     8  C   -0.000001  -0.000000   0.000000
     9  C    0.193655  -0.060404  -0.040511
    10  C   -0.420267   0.248891   0.110670
    11  C   -0.046260  -0.110826  -0.176618
    12  C    0.025138   0.013608   0.014334
    13  C   -0.013471  -0.017722   0.001124
    14  H   -0.000001   0.000000   0.000001
    15  H    0.000000  -0.000000  -0.000000
    16  H    0.000000   0.000000  -0.000000
    17  H   -0.000001  -0.000000   0.000000
    18  H    0.000000  -0.000000  -0.000000
    19  H   -0.000000   0.000000   0.000000
    20  H   -0.000000   0.000000  -0.000000
    21  H   -0.000000   0.000000  -0.000000
    22  H    0.000000  -0.000000  -0.000000
    23  H    0.012492  -0.000520   0.000748
    24  H   -0.000003  -0.000003  -0.000003
    25  C    0.006806  -0.030787   0.265312
    26  C    0.171830   0.103899  -0.028456
    27  H    0.000007   0.000000   0.000036
    28  F    0.001552   0.002079  -0.004217
    29  F    0.000091   0.000109   0.001632
    30  F    0.000144  -0.001083   0.002183
    31  F    9.018121  -0.040700  -0.024604
    32  F   -0.040700   8.953257  -0.036787
    33  F   -0.024604  -0.036787   8.995215
 Mulliken charges:
               1
     1  C   -0.977531
     2  N   -0.356178
     3  C    0.188874
     4  O   -0.516082
     5  N   -0.395552
     6  C   -0.505134
     7  C   -0.146703
     8  C   -1.053231
     9  C    0.172863
    10  C   -0.582507
    11  C   -0.630845
    12  C   -0.277189
    13  C   -0.005482
    14  H    0.442457
    15  H    0.452420
    16  H    0.279540
    17  H    0.275840
    18  H    0.268196
    19  H    0.267286
    20  H    0.269590
    21  H    0.280464
    22  H    0.269991
    23  H    0.338023
    24  H    0.304925
    25  C    0.851352
    26  C    0.996176
    27  H    0.325269
    28  F   -0.096594
    29  F   -0.125392
    30  F   -0.060566
    31  F   -0.117587
    32  F   -0.050074
    33  F   -0.086623
 Sum of Mulliken charges =  -0.00000
 Mulliken charges with hydrogens summed into heavy atoms:
               1
     1  C   -0.977531
     2  N    0.086280
     3  C    0.188874
     4  O   -0.516082
     5  N    0.056869
     6  C    0.050245
     7  C    0.388780
     8  C   -0.233185
     9  C    0.510886
    10  C   -0.582507
    11  C   -0.630845
    12  C    0.048080
    13  C    0.299444
    25  C    0.851352
    26  C    0.996176
    28  F   -0.096594
    29  F   -0.125392
    30  F   -0.060566
    31  F   -0.117587
    32  F   -0.050074
    33  F   -0.086623
 Electronic spatial extent (au):  <R**2>=           9561.3209
 Charge=             -0.0000 electrons
 Dipole moment (field-independent basis, Debye):
    X=              9.7065    Y=             -9.3861    Z=             -1.2266  Tot=             13.5580
 Quadrupole moment (field-independent basis, Debye-Ang):
   XX=           -109.6453   YY=           -111.7191   ZZ=           -124.5788
   XY=            -13.2737   XZ=             -2.9004   YZ=              0.0990
 Traceless Quadrupole moment (field-independent basis, Debye-Ang):
   XX=              5.6691   YY=              3.5953   ZZ=             -9.2644
   XY=            -13.2737   XZ=             -2.9004   YZ=              0.0990
 Octapole moment (field-independent basis, Debye-Ang**2):
  XXX=            184.0513  YYY=            -35.0338  ZZZ=              2.1000  XYY=             -8.7903
  XXY=            -52.6554  XXZ=             -7.8046  XZZ=            -23.1903  YZZ=             10.2440
  YYZ=             -5.5306  XYZ=              1.5917
 Hexadecapole moment (field-independent basis, Debye-Ang**3):
 XXXX=          -9455.6209 YYYY=          -1281.2239 ZZZZ=           -287.4777 XXXY=           -268.0916
 XXXZ=            -47.5833 YYYX=            -72.4086 YYYZ=              4.9128 ZZZX=             -3.2376
 ZZZY=             -6.3280 XXYY=          -1893.1206 XXZZ=          -1770.7393 YYZZ=           -291.6791
 XXYZ=              4.1431 YYXZ=            -12.2284 ZZXY=             -5.7902
 N-N= 1.780543695522D+03 E-N=-6.501389465946D+03  KE= 1.244466982387D+03
 D1PCM: PCM CHGder 1st derivatives, ID1Alg=3 FixD1E=F DoIter=F DoCFld=F I1PDM=0.
 Calling FoFJK, ICntrl=      2127 FMM=F ISym2X=0 I1Cent= 0 IOpClX= 0 NMat=1 NMatS=1 NMatT=0.
 ***** Axes restored to original set *****
 -------------------------------------------------------------------
 Center     Atomic                   Forces (Hartrees/Bohr)
 Number     Number              X              Y              Z
 -------------------------------------------------------------------
      1        6          -0.000003146   -0.000009168   -0.000003327
      2        7           0.000001373    0.000000340   -0.000008694
      3        6           0.000000018   -0.000010006    0.000013249
      4        8           0.000001536    0.000007904   -0.000000469
      5        7          -0.000010210    0.000000141   -0.000008296
      6        6           0.000007340    0.000002516    0.000005994
      7        6          -0.000000819   -0.000000464    0.000003599
      8        6           0.000002250    0.000002181   -0.000000286
      9        6          -0.000004029    0.000009983    0.000005255
     10        6          -0.000005004    0.000000612   -0.000002169
     11        6          -0.000001666   -0.000010539   -0.000003948
     12        6          -0.000005656    0.000007401   -0.000007129
     13        6           0.000009142   -0.000000352   -0.000006928
     14        1           0.000000918    0.000000977   -0.000003789
     15        1           0.000003291    0.000002783   -0.000005944
     16        1          -0.000004045   -0.000001370    0.000000449
     17        1           0.000001688    0.000001146    0.000005085
     18        1           0.000000885    0.000005168   -0.000000697
     19        1           0.000000446   -0.000000925   -0.000005285
     20        1           0.000001058    0.000001144    0.000006989
     21        1          -0.000000505    0.000002779    0.000002958
     22        1          -0.000000658   -0.000002574    0.000003413
     23        1           0.000003425   -0.000001038    0.000005894
     24        1          -0.000000916   -0.000000470   -0.000008113
     25        6           0.000006694    0.000018924    0.000034954
     26        6           0.000017079    0.000002453    0.000013092
     27        1           0.000000090   -0.000001619   -0.000008855
     28        9          -0.000000411   -0.000024662   -0.000017951
     29        9          -0.000003470   -0.000004627   -0.000005609
     30        9          -0.000005314    0.000003809   -0.000019404
     31        9          -0.000003743   -0.000000749    0.000006689
     32        9          -0.000002363   -0.000005405    0.000005134
     33        9          -0.000005279    0.000003706    0.000004139
 -------------------------------------------------------------------
 Cartesian Forces:  Max     0.000034954 RMS     0.000007477

 GradGradGradGradGradGradGradGradGradGradGradGradGradGradGradGradGradGrad
 Berny optimization.
 FormGI is forming the generalized inverse of G from B-inverse, IUseBI=4.
 GSVD:  received Info=                   1 from GESDD.
 Internal  Forces:  Max     0.000027812 RMS     0.000003382
 Search for a local minimum.
 Step number   1 out of a maximum of  172
 All quantities printed in internal units (Hartrees-Bohrs-Radians)
 Mixed Optimization -- En-DIIS/RFO-DIIS
 Second derivative matrix not updated -- first step.
 ITU=  0
     Eigenvalues ---    0.00453   0.00510   0.00630   0.00724   0.00927
     Eigenvalues ---    0.01534   0.01537   0.01578   0.01815   0.01885
     Eigenvalues ---    0.01886   0.02017   0.02106   0.02141   0.02141
     Eigenvalues ---    0.02174   0.02211   0.02236   0.02261   0.02399
     Eigenvalues ---    0.03780   0.04497   0.04959   0.05559   0.05567
     Eigenvalues ---    0.05573   0.08130   0.09162   0.10446   0.10517
     Eigenvalues ---    0.10660   0.10724   0.12034   0.12640   0.15928
     Eigenvalues ---    0.15978   0.15999   0.15999   0.16000   0.16000
     Eigenvalues ---    0.16000   0.16000   0.21889   0.21917   0.22004
     Eigenvalues ---    0.22028   0.22367   0.23481   0.24601   0.24987
     Eigenvalues ---    0.24989   0.24995   0.25000   0.25000   0.25000
     Eigenvalues ---    0.25000   0.25000   0.25000   0.25000   0.25000
     Eigenvalues ---    0.30018   0.30429   0.31323   0.32044   0.34293
     Eigenvalues ---    0.34312   0.34351   0.34421   0.34463   0.34466
     Eigenvalues ---    0.34639   0.35468   0.35695   0.36279   0.37240
     Eigenvalues ---    0.42082   0.42667   0.45449   0.45661   0.45764
     Eigenvalues ---    0.46114   0.47042   0.47199   0.48131   0.48282
     Eigenvalues ---    0.55770   0.55790   0.56228   0.56457   0.56837
     Eigenvalues ---    0.56963   0.57408   0.89994
 RFO step:  Lambda=-1.56653218D-08 EMin= 4.53142326D-03
 Linear search not attempted -- first point.
 Iteration  1 RMS(Cart)=  0.00018057 RMS(Int)=  0.00000002
 Iteration  2 RMS(Cart)=  0.00000002 RMS(Int)=  0.00000000
 Variable       Old X    -DE/DX   Delta X   Delta X   Delta X     New X
                                 (Linear)    (Quad)   (Total)
    R1        2.62803   0.00000   0.00000   0.00000   0.00000   2.62803
    R2        2.64760   0.00000   0.00000   0.00001   0.00001   2.64761
    R3        2.64211  -0.00001   0.00000  -0.00001  -0.00001   2.64210
    R4        2.61800  -0.00000   0.00000  -0.00000  -0.00000   2.61800
    R5        1.91458  -0.00000   0.00000  -0.00000  -0.00000   1.91458
    R6        2.32936   0.00001   0.00000   0.00001   0.00001   2.32936
    R7        2.54454  -0.00000   0.00000  -0.00001  -0.00001   2.54453
    R8        2.75486   0.00000   0.00000   0.00001   0.00001   2.75487
    R9        1.91098  -0.00000   0.00000  -0.00000  -0.00000   1.91098
   R10        2.87116   0.00000   0.00000   0.00000   0.00000   2.87116
   R11        2.06742  -0.00000   0.00000  -0.00001  -0.00001   2.06741
   R12        2.06625  -0.00000   0.00000  -0.00000  -0.00000   2.06625
   R13        2.87928   0.00000   0.00000   0.00000   0.00000   2.87928
   R14        2.06806  -0.00000   0.00000  -0.00000  -0.00000   2.06806
   R15        2.06839  -0.00000   0.00000  -0.00001  -0.00001   2.06839
   R16        2.06556  -0.00000   0.00000  -0.00001  -0.00001   2.06555
   R17        2.06265  -0.00000   0.00000  -0.00001  -0.00001   2.06264
   R18        2.06551  -0.00000   0.00000  -0.00000  -0.00000   2.06551
   R19        2.62205  -0.00000   0.00000  -0.00000  -0.00000   2.62205
   R20        2.03647   0.00000   0.00000   0.00000   0.00000   2.03647
   R21        2.64817   0.00000   0.00000   0.00001   0.00001   2.64818
   R22        2.85401  -0.00000   0.00000  -0.00000  -0.00000   2.85400
   R23        2.63101  -0.00001   0.00000  -0.00001  -0.00001   2.63100
   R24        2.84064   0.00000   0.00000   0.00000   0.00000   2.84064
   R25        2.61278   0.00001   0.00000   0.00001   0.00001   2.61279
   R26        2.04560  -0.00000   0.00000  -0.00000  -0.00000   2.04560
   R27        2.04921  -0.00000   0.00000  -0.00000  -0.00000   2.04921
   R28        2.53859  -0.00003   0.00000  -0.00005  -0.00005   2.53855
   R29        2.53428   0.00000   0.00000   0.00000   0.00000   2.53428
   R30        2.54436   0.00002   0.00000   0.00003   0.00003   2.54440
   R31        2.53053  -0.00000   0.00000  -0.00001  -0.00001   2.53052
   R32        2.54057  -0.00000   0.00000  -0.00000  -0.00000   2.54056
   R33        2.53535   0.00001   0.00000   0.00001   0.00001   2.53536
    A1        2.16024  -0.00000   0.00000  -0.00001  -0.00001   2.16023
    A2        2.05104   0.00000   0.00000   0.00001   0.00001   2.05106
    A3        2.07149  -0.00000   0.00000  -0.00000  -0.00000   2.07149
    A4        2.22764  -0.00000   0.00000  -0.00001  -0.00001   2.22763
    A5        2.00935   0.00000   0.00000   0.00001   0.00001   2.00936
    A6        2.03781   0.00000   0.00000  -0.00000  -0.00000   2.03781
    A7        2.14649   0.00000   0.00000   0.00000   0.00000   2.14650
    A8        1.99754   0.00000   0.00000   0.00000   0.00000   1.99755
    A9        2.13915  -0.00000   0.00000  -0.00001  -0.00001   2.13914
   A10        2.11285  -0.00000   0.00000  -0.00001  -0.00001   2.11284
   A11        2.09858   0.00000   0.00000   0.00002   0.00002   2.09859
   A12        2.07005  -0.00000   0.00000  -0.00002  -0.00002   2.07003
   A13        1.92467  -0.00000   0.00000  -0.00000  -0.00000   1.92467
   A14        1.91155  -0.00000   0.00000  -0.00002  -0.00002   1.91153
   A15        1.90663   0.00000   0.00000   0.00001   0.00001   1.90663
   A16        1.92292   0.00000   0.00000   0.00002   0.00002   1.92294
   A17        1.92299  -0.00000   0.00000   0.00000   0.00000   1.92299
   A18        1.87434  -0.00000   0.00000  -0.00001  -0.00001   1.87433
   A19        1.93889   0.00000   0.00000   0.00001   0.00001   1.93889
   A20        1.90655  -0.00000   0.00000  -0.00001  -0.00001   1.90654
   A21        1.90675   0.00000   0.00000   0.00001   0.00001   1.90676
   A22        1.92123  -0.00000   0.00000  -0.00000  -0.00000   1.92123
   A23        1.92077  -0.00000   0.00000   0.00000   0.00000   1.92077
   A24        1.86822  -0.00000   0.00000  -0.00001  -0.00001   1.86821
   A25        1.93799   0.00000   0.00000   0.00001   0.00001   1.93800
   A26        1.93912   0.00000   0.00000   0.00000   0.00000   1.93912
   A27        1.93816   0.00000   0.00000  -0.00000  -0.00000   1.93816
   A28        1.88200  -0.00000   0.00000   0.00000   0.00000   1.88200
   A29        1.88213  -0.00000   0.00000   0.00000   0.00000   1.88214
   A30        1.88199  -0.00000   0.00000  -0.00001  -0.00001   1.88198
   A31        2.09911   0.00000   0.00000   0.00000   0.00000   2.09911
   A32        2.09299  -0.00000   0.00000  -0.00002  -0.00002   2.09297
   A33        2.09105   0.00000   0.00000   0.00002   0.00002   2.09107
   A34        2.11066  -0.00000   0.00000  -0.00000  -0.00000   2.11066
   A35        2.03331  -0.00001   0.00000  -0.00003  -0.00003   2.03329
   A36        2.13901   0.00001   0.00000   0.00003   0.00003   2.13904
   A37        2.06576  -0.00000   0.00000  -0.00000  -0.00000   2.06576
   A38        2.16023   0.00000   0.00000   0.00000   0.00000   2.16023
   A39        2.05686   0.00000   0.00000   0.00000   0.00000   2.05687
   A40        2.11294   0.00000   0.00000   0.00001   0.00001   2.11294
   A41        2.09355  -0.00000   0.00000  -0.00000  -0.00000   2.09355
   A42        2.07665  -0.00000   0.00000  -0.00001  -0.00001   2.07665
   A43        2.10601  -0.00000   0.00000  -0.00000  -0.00000   2.10601
   A44        2.08765   0.00000   0.00000   0.00001   0.00001   2.08766
   A45        2.08950  -0.00000   0.00000  -0.00000  -0.00000   2.08950
   A46        1.97013   0.00000   0.00000   0.00002   0.00002   1.97015
   A47        1.94867   0.00000   0.00000   0.00002   0.00002   1.94868
   A48        1.96770  -0.00001   0.00000  -0.00004  -0.00004   1.96767
   A49        1.85628   0.00000   0.00000   0.00002   0.00002   1.85629
   A50        1.86113  -0.00000   0.00000  -0.00001  -0.00001   1.86112
   A51        1.85164   0.00000   0.00000  -0.00001  -0.00001   1.85163
   A52        1.95531  -0.00000   0.00000   0.00000   0.00000   1.95532
   A53        1.95735  -0.00000   0.00000  -0.00000  -0.00000   1.95735
   A54        1.96433  -0.00000   0.00000  -0.00001  -0.00001   1.96432
   A55        1.85539   0.00000   0.00000   0.00002   0.00002   1.85542
   A56        1.85776  -0.00000   0.00000  -0.00000  -0.00000   1.85775
   A57        1.86644  -0.00000   0.00000  -0.00001  -0.00001   1.86643
    D1        0.27965  -0.00000   0.00000  -0.00005  -0.00005   0.27960
    D2       -3.00637  -0.00000   0.00000  -0.00011  -0.00011  -3.00648
    D3       -2.89324  -0.00000   0.00000  -0.00001  -0.00001  -2.89325
    D4        0.10393  -0.00000   0.00000  -0.00007  -0.00007   0.10386
    D5        3.12875  -0.00000   0.00000  -0.00004  -0.00004   3.12871
    D6       -0.00357  -0.00000   0.00000  -0.00005  -0.00005  -0.00361
    D7        0.01880  -0.00000   0.00000  -0.00008  -0.00008   0.01872
    D8       -3.11352  -0.00000   0.00000  -0.00009  -0.00009  -3.11361
    D9       -3.13193   0.00000   0.00000   0.00003   0.00003  -3.13190
   D10        0.01666   0.00000   0.00000   0.00001   0.00001   0.01668
   D11       -0.01999   0.00000   0.00000   0.00006   0.00006  -0.01993
   D12        3.12860   0.00000   0.00000   0.00005   0.00005   3.12865
   D13       -0.02990  -0.00000   0.00000  -0.00013  -0.00013  -0.03003
   D14        3.11235   0.00000   0.00000   0.00002   0.00002   3.11237
   D15       -3.02504  -0.00000   0.00000  -0.00007  -0.00007  -3.02511
   D16        0.11721   0.00000   0.00000   0.00008   0.00008   0.11729
   D17       -3.11023   0.00000   0.00000   0.00007   0.00007  -3.11016
   D18       -0.03239  -0.00000   0.00000  -0.00006  -0.00006  -0.03245
[...]
 0.00125557,-0.00081512,0.00037749,0.00011334,0.00037647,0.07989369,-0.
 00252864,0.00206357,0.00015539,0.00365425,-0.00051806,-0.00046748,-0.0
 0220280,-0.00133219,0.00004168,0.00044214,0.00071063,0.00006593,0.0008
 2093,-0.00024614,-0.00007819,-0.00016225,-0.00009330,-0.00000001,0.000
 02112,0.00005956,0.00000952,0.00000849,-0.00002720,-0.00000516,0.00250
 673,-0.00189046,0.00059193,-0.00324587,-0.00111089,0.00097808,0.008308
 13,-0.02378887,-0.01994734,0.00364288,0.00238084,-0.00232228,0.0012998
 0,-0.00058628,0.00118071,0.00007355,0.00020197,-0.00006541,-0.00000491
 ,0.00008366,0.00001966,0.00006355,0.00001118,0.00000957,0.00005429,0.0
 0001264,-0.00000540,-0.00000177,-0.00000411,-0.00000254,-0.00000128,-0
 .00000549,0.00000110,0.00000120,0.00000146,-0.00000100,0.00001427,0.00
 000243,0.00000045,0.00000157,0.00000119,0.00000161,0.00008616,-0.00008
 929,0.00000990,0.00052705,-0.00018661,0.00007939,0.03572942,-0.1942365
 9,-0.08539140,0.00593335,-0.00298737,-0.00302529,-0.00047347,0.0005385
 8,-0.00041069,-0.00865509,0.30260289,-0.00093286,0.00089623,-0.0000062
 1,0.00137842,-0.00017548,-0.00011584,-0.00086746,-0.00051663,0.0000026
 3,0.00020015,0.00027067,0.00003627,0.00033892,-0.00010085,-0.00002858,
 -0.00006639,-0.00004136,-0.00000492,0.00000905,0.00002401,0.00000366,0
 .00000383,-0.00001168,-0.00000204,0.00089447,-0.00065647,-0.00007446,-
 0.00205765,-0.00007983,0.00107790,0.00154267,-0.01843039,-0.00088310,0
 .00382886,0.00090743,-0.00133308,-0.00007813,-0.00118328,0.00032749,0.
 00002209,0.00007986,-0.00001915,-0.00000192,0.00003418,0.00000472,0.00
 002485,0.00000554,0.00000498,0.00002166,0.00000485,-0.00000203,-0.0000
 0081,-0.00000127,-0.00000057,-0.00000048,-0.00000254,0.00000047,0.0000
 0039,0.00000035,-0.00000032,0.00000581,0.00000098,0.00000012,0.0000009
 4,0.00000058,0.00000085,0.00001006,-0.00004403,-0.00003772,0.00042991,
 -0.00010924,0.00001469,0.02666121,-0.08352352,-0.12069970,-0.00063860,
 -0.00075552,-0.00296083,-0.00010555,0.00009874,-0.00000324,-0.01224529
 ,0.14475589,0.18088585,0.00240610,-0.00250684,0.00004674,-0.00365435,0
 .00069198,0.00038590,0.00235926,0.00123636,-0.00009175,-0.00071566,-0.
 00060213,-0.00007640,-0.00092190,0.00030874,0.00009328,0.00018643,0.00
 011324,0.00000602,-0.00002320,-0.00006764,-0.00001065,-0.00001012,0.00
 003144,0.00000568,-0.00351401,-0.00036073,-0.00014204,-0.00208224,0.00
 715430,0.00205890,-0.03410624,-0.03478095,0.02269577,-0.00190465,-0.00
 124112,0.00082184,-0.00083267,-0.00080784,-0.00034954,-0.00013882,-0.0
 0020655,0.00007041,0.00000220,-0.00009101,-0.00002359,-0.00006747,-0.0
 0001434,-0.00001008,-0.00005913,-0.00001575,0.00000502,0.00000138,0.00
 000507,0.00000366,0.00000076,0.00000665,-0.00000176,-0.00000110,-0.000
 00180,0.00000065,-0.00001659,-0.00000250,-0.00000050,-0.00000146,-0.00
 000161,-0.00000134,-0.00045673,0.00048594,-0.00032515,-0.00014663,0.00
 018751,0.00008565,-0.15852333,-0.06996536,0.05389697,0.00117933,0.0038
 1725,-0.00029700,-0.00313713,0.00144459,0.00092431,0.00579081,-0.02577
 433,-0.00598562,0.18083558,0.00131540,-0.00069050,-0.00000583,-0.00120
 451,0.00038564,0.00015479,0.00078338,0.00038303,-0.00005767,-0.0001930
 6,-0.00020580,-0.00002248,-0.00027570,0.00010643,0.00003337,0.00005595
 ,0.00002557,0.00000286,-0.00000570,-0.00001930,-0.00000350,-0.00000268
 ,0.00000854,0.00000178,-0.00056344,0.00025202,-0.00007503,0.00042874,0
 .00173706,0.00052131,-0.00622998,-0.00054183,0.00488678,0.00314179,-0.
 00491286,-0.00146791,-0.00034962,0.00122318,-0.00041231,-0.00005866,-0
 .00006590,0.00003113,-0.00000013,-0.00002896,-0.00000752,-0.00002141,-
 0.00000408,-0.00000249,-0.00001929,-0.00000366,0.00000096,0.00000044,0
 .00000152,0.00000122,0.00000005,0.00000232,-0.00000073,-0.00000018,-0.
 00000031,-0.00000009,-0.00000486,-0.00000069,-0.00000013,-0.00000036,-
 0.00000054,-0.00000022,-0.00010648,0.00011184,-0.00010108,-0.00010863,
 0.00003945,0.00002020,-0.08054763,-0.14334673,0.05246459,0.00262942,0.
 00086594,-0.00064170,0.00378445,0.00092555,-0.00068561,-0.03589907,-0.
 08196231,-0.00138149,0.12207221,0.24713226,-0.00076311,0.00012001,0.00
 014193,0.00087658,-0.00016322,-0.00009173,-0.00058224,-0.00029801,0.00
 002296,0.00017976,0.00014755,0.00003404,0.00022765,-0.00008008,-0.0000
 2663,-0.00004460,-0.00002537,-0.00000754,0.00000596,0.00001600,0.00000
 081,0.00000264,-0.00000806,-0.00000075,0.00050855,0.00084632,-0.000434
 65,0.00175684,-0.00229864,0.00098073,0.01104194,0.01152603,0.00119740,
 -0.00047028,0.00160412,0.00002646,0.00056804,-0.00005811,0.00013078,0.
 00003276,0.00004440,-0.00000977,-0.00000004,0.00002362,0.00000009,0.00
 001604,0.00000472,0.00000336,0.00001478,0.00000258,-0.00000039,-0.0000
 0023,-0.00000089,-0.00000046,-0.00000032,-0.00000190,0.00000072,0.0000
 0015,0.00000015,-0.00000003,0.00000398,0.00000063,0.,0.00000052,0.0000
 0048,0.00000049,0.00014223,-0.00020494,-0.00016491,0.00008341,-0.00004
 462,-0.00000463,0.05787163,0.04836902,-0.10188312,-0.00079890,-0.00114
 912,-0.00025054,0.00067095,-0.00061590,-0.00002758,-0.00950040,-0.0118
 7633,0.01652311,-0.07793903,-0.09996568,0.14296482,0.00399720,-0.00286
 727,-0.00058179,-0.00574576,0.00101109,0.00034135,0.00344496,0.0020906
 5,-0.00021759,-0.00064231,-0.00110216,-0.00009335,-0.00129020,0.000395
 06,0.00016573,0.00025343,0.00013942,0.00001737,-0.00003250,-0.00009422
 ,-0.00001358,-0.00001431,0.00004324,0.00000673,-0.00255259,0.00342525,
 0.00173589,0.00415018,0.00150502,-0.00086926,-0.02343484,0.01497097,-0
 .03680361,-0.00222916,-0.00413271,-0.00113664,-0.00238870,0.00038584,0
 .00206665,-0.00015180,-0.00032529,0.00012905,0.00000612,-0.00013313,-0
 .00002726,-0.00009347,-0.00002044,-0.00001659,-0.00008995,-0.00001708,
 0.00000573,0.00000235,0.00000713,0.00000519,0.00000249,0.00000800,-0.0
 0000231,-0.00000173,-0.00000253,0.00000117,-0.00002262,-0.00000350,-0.
 00000084,-0.00000208,-0.00000178,-0.00000173,-0.00005651,0.00013145,0.
 00017417,-0.00042114,0.00027632,0.00021262,-0.12246377,0.02308625,-0.0
 7515364,0.00031251,0.00300207,-0.00092847,0.00009224,0.00002810,-0.000
 89069,0.00900383,-0.00948806,-0.01610265,0.01827019,-0.00608416,0.0152
 1095,0.12573441,-0.00118952,0.00189575,0.00015932,0.00212515,-0.000432
 00,-0.00010625,-0.00128695,-0.00078192,0.00007355,0.00022399,0.0004067
 3,0.00004168,0.00048239,-0.00015252,-0.00006409,-0.00009479,-0.0000484
 9,-0.00000872,0.00001197,0.00003523,0.00000511,0.00000555,-0.00001674,
 -0.00000190,0.00175717,-0.00150962,-0.00089829,-0.00126210,-0.00177308
 ,0.00155308,0.01398482,0.00602763,0.01290974,-0.00050417,0.00087561,-0
 .00033758,0.00031378,0.00045314,-0.00071053,0.00006938,0.00011764,-0.0
 0004321,-0.00000228,0.00005028,0.00000918,0.00003520,0.00000773,0.0000
 0668,0.00003408,0.00000628,-0.00000212,-0.00000109,-0.00000260,-0.0000
 0169,-0.00000089,-0.00000293,0.00000070,0.00000077,0.00000094,-0.00000
 060,0.00000831,0.00000129,0.00000030,0.00000083,0.00000058,0.00000076,
 0.00007137,-0.00013045,-0.00020174,0.00002844,-0.00007777,0.00003918,0
 .02303166,-0.07529329,0.03476477,0.00283407,-0.00186554,0.00159600,-0.
 00017354,0.00015387,0.00036209,-0.01575148,0.00128795,-0.04360448,0.00
 176852,-0.02028182,0.05302007,-0.01973793,0.09332641,0.00196749,-0.001
 60946,-0.00032360,-0.00276859,0.00048124,0.00019211,0.00167724,0.00099
 434,-0.00007279,-0.00035131,-0.00051369,-0.00004338,-0.00063617,0.0001
 9473,0.00008165,0.00012191,0.00006803,0.00000040,-0.00001645,-0.000046
 39,-0.00000864,-0.00000756,0.00002283,0.00000405,-0.00172291,0.0013804
 4,0.00073618,0.00158979,0.00151873,-0.00058471,-0.01357738,0.00632701,
 -0.00853386,-0.00151059,-0.00168041,-0.00024862,-0.00113210,0.00031454
 ,0.00071481,-0.00007017,-0.00016008,0.00005293,0.00000294,-0.00006685,
 -0.00001625,-0.00004594,-0.00000947,-0.00000702,-0.00004434,-0.0000091
 9,0.00000325,0.00000089,0.00000415,0.00000319,0.00000107,0.00000341,-0
 .00000081,-0.00000117,-0.00000157,0.00000065,-0.00001120,-0.00000174,-
 0.00000055,-0.00000072,-0.00000062,-0.00000047,-0.00008342,0.00012594,
 0.00007876,-0.00027127,0.00015058,0.00008741,-0.07828093,0.03344048,-0
 .18473274,-0.00076467,0.00186625,-0.00230645,0.00009751,-0.00032465,-0
 .00036887,-0.02224155,-0.02990787,-0.07082786,0.00381943,0.04597321,-0
 .05948264,0.11315809,-0.05726644,0.32349107,0.00075901,0.00061051,-0.0
 0069488,0.00065534,-0.00023998,0.00001209,-0.00040414,-0.00037971,-0.0
 0001508,-0.00000872,0.00015998,0.00000240,0.00015726,-0.00002329,-0.00
 001503,-0.00003072,-0.00002114,-0.00000170,0.00000649,0.00001132,0.000
 00167,0.00000165,-0.00000514,-0.00000049,-0.00366907,0.00323488,-0.000
 74518,-0.00991264,-0.00973877,0.00934632,0.00306867,-0.00142057,0.0007
 1819,-0.00071969,-0.00061960,-0.00018169,-0.00014892,0.00004918,0.0001
 8282,0.00002638,0.00003828,0.00002627,-0.00000307,0.00001540,0.0000073
 1,0.00001200,0.00000107,0.00000325,0.00001213,0.00000297,-0.00000310,-
 0.00000025,-0.00000108,0.00000008,-0.00000151,0.00000075,-0.00000066,0
 .00000113,0.00000018,-0.00000095,0.00000200,0.00000120,0.00000023,0.00
 000046,-0.00000050,0.00000042,0.00195934,0.00299504,-0.00048086,0.0001
 7531,0.00003562,0.00002557,0.00201544,0.00248649,-0.00069286,-0.174235
 00,-0.08048730,0.06293647,0.00009400,-0.00035439,-0.00014572,-0.000696
 00,-0.00091809,0.00042487,-0.00071378,-0.00066278,0.00037581,-0.000694
 95,-0.00071116,-0.00000987,0.29033397,-0.00267467,0.00182213,-0.000139
 82,0.00197827,-0.00039034,-0.00010980,-0.00158663,-0.00071558,0.000030
 85,0.00070412,0.00037828,0.00006206,0.00063660,-0.00020067,-0.00006766
 ,-0.00013329,-0.00009052,-0.00000494,0.00001826,0.00004692,0.00000718,
 0.00000628,-0.00002230,-0.00000362,0.00032068,-0.00488677,0.00102883,-
 0.03905538,-0.02262708,0.02122209,0.00600264,-0.00506618,0.00128281,-0
 .00230268,-0.00199762,-0.00019916,-0.00030718,-0.00079074,0.00028247,0
 .00011402,0.00011457,0.00001186,-0.00000178,0.00006020,0.00001164,0.00
 004372,0.00001140,0.00000807,0.00004051,0.00001002,-0.00000442,-0.0000
 0064,-0.00000365,-0.00000215,-0.00000059,-0.00000343,0.00000036,0.0000
 0153,0.00000144,-0.00000142,0.00001125,0.00000230,0.00000040,0.0000011
 8,0.00000062,0.00000147,-0.00014607,-0.00452548,0.00121229,0.00004916,
 -0.00014394,0.00005121,0.00360783,-0.00015308,-0.00022051,-0.06827012,
 -0.13327746,0.04376439,0.00020081,-0.00077512,-0.00023258,-0.00056042,
 0.00046724,0.00034170,-0.00114316,-0.00038948,0.00040419,-0.00091966,0
 .00018576,-0.00052921,0.10193989,0.14018307,0.00046408,-0.00010162,0.0
 0013911,-0.00054750,0.00011559,0.00004837,0.00041729,0.00022008,0.0000
 0034,-0.00014896,-0.00011796,-0.00000946,-0.00016433,0.00004659,0.0000
 2255,0.00003208,0.00002475,-0.00000011,-0.00000559,-0.00001184,-0.0000
 0227,-0.00000166,0.00000537,0.00000031,0.00158566,-0.00056248,0.000492
 99,0.01242937,0.00752990,0.00124195,-0.00185371,0.00217858,0.00093912,
 0.00111882,0.00009010,-0.00036676,-0.00035547,0.00011713,0.00002630,-0
 .00002944,-0.00002999,-0.00000150,0.00000224,-0.00001464,-0.00000778,-
 0.00001074,-0.00000165,-0.00000149,-0.00001173,-0.00000351,0.00000221,
 0.00000017,0.00000173,0.00000087,0.00000075,-0.00000016,0.00000047,-0.
 00000091,-0.00000062,0.00000044,-0.00000263,-0.00000072,-0.00000022,0.
 00000010,0.00000015,0.00000009,-0.00038331,0.00066027,0.00015487,-0.00
 005836,0.00002498,-0.00001863,-0.00130161,-0.00056593,-0.00022675,0.06
 004248,0.04886947,-0.10282689,-0.00010928,0.00026162,-0.00013386,0.000
 42454,0.00042032,0.00016392,0.00047376,0.00030607,-0.00015700,0.000389
 32,-0.00002927,0.00033295,-0.11592580,-0.06039649,0.14603844,0.0002805
 0,-0.00085980,-0.00029320,-0.00001074,-0.00001369,0.00004886,0.0000797
 4,-0.00002280,-0.00001503,-0.00005740,0.00002172,0.00000287,-0.0000412
 0,0.00002441,0.00000847,0.00001029,0.00000643,-0.00000176,-0.00000049,
 -0.00000376,0.00000048,-0.00000074,0.00000247,0.00000015,-0.00024803,-
 0.00061510,-0.00042999,0.01040107,0.00526367,0.00476250,-0.00122967,0.
 00029049,0.00113512,-0.00027573,0.00111466,-0.00045068,0.00087056,0.00
 027192,-0.00009719,0.00001043,-0.00000549,0.00002633,-0.00000290,-0.00
 000416,-0.00000084,-0.00000195,-0.00000088,-0.00000026,-0.00000226,-0.
 00000032,0.00000033,0.00000013,0.00000069,0.00000027,-0.00000004,0.000
 00077,-0.00000018,0.00000002,-0.00000023,-0.00000017,-0.00000120,0.000
 00018,0.,0.00000008,-0.00000027,0.00000007,0.00016112,-0.00017266,0.00
 016146,0.00001869,0.00001333,0.00004776,-0.00047431,0.00299810,0.00141
 301,-0.06775722,0.00981524,0.01604566,-0.00005773,0.00011401,-0.000121
 33,-0.00524156,-0.00512856,-0.00105497,-0.00018525,-0.00080983,0.00003
 602,-0.00001213,-0.00040861,-0.00034654,-0.01643830,0.00729771,0.05408
 463,0.08587489,-0.00051417,0.00085720,0.00222662,0.00141140,-0.0005372
 1,0.00000394,-0.00141376,-0.00061200,-0.00002937,0.00062687,0.00030960
 ,0.00006994,0.00059153,-0.00017647,-0.00005345,-0.00012233,-0.00009058
 ,-0.00000469,0.00001877,0.00004386,0.00000682,0.00000664,-0.00002188,-
 0.00000418,-0.00314116,-0.00320383,-0.00020267,0.00661730,-0.02249006,
 -0.04082210,0.00171798,0.00119310,-0.00024702,0.00124236,-0.00143096,0
 .00161149,-0.00052746,-0.00118896,-0.00013467,0.00014521,0.00008064,-0
 .00003082,-0.00000393,0.00005738,0.00000782,0.00003917,0.00001131,0.00
 000925,0.00003531,0.00000989,-0.00000342,-0.00000086,-0.00000325,-0.00
 000115,-0.00000082,-0.00000431,0.00000045,0.00000082,0.00000123,-0.000
 00098,0.00001096,0.00000199,0.00000033,0.00000136,0.00000099,0.0000015
 7,-0.00029571,0.00000452,-0.00110001,0.00002778,-0.00008982,-0.0001823
 0,0.00310612,-0.00101822,-0.00126675,0.00956903,-0.12695004,-0.0814026
 7,-0.00001059,-0.00026695,0.00012850,-0.00363355,-0.00102158,0.0003339
 2,-0.00098967,-0.00035389,0.00036422,-0.00141865,0.00042577,-0.0006453
 2,0.00024091,0.01782992,0.00740249,-0.00711666,0.12378902,-0.00030906,
 0.00044217,0.00090311,0.00091616,-0.00041431,-0.00000125,-0.00088953,-
 0.00035482,-0.00002306,0.00041756,0.00016739,0.00007297,0.00037541,-0.
 00012008,-0.00003516,-0.00007792,-0.00005523,-0.00000967,0.00001164,0.
 00002685,0.00000451,0.00000449,-0.00001322,-0.00000304,-0.00143183,-0.
 00220148,0.00007029,0.00303052,-0.01354691,-0.01221989,0.00158575,-0.0
 0010739,-0.00030154,0.00017858,-0.00108238,0.00076642,-0.00034046,-0.0
 0045569,-0.00007965,0.00011315,0.00005027,-0.00002121,-0.00000249,0.00
 003718,0.00000109,0.00002575,0.00000799,0.00000657,0.00002161,0.000005
 90,-0.00000038,-0.00000051,-0.00000087,-0.00000020,-0.00000013,-0.0000
 0375,0.00000080,0.00000010,0.00000017,-0.00000026,0.00000675,0.0000012
 4,0.00000009,0.00000136,0.00000098,0.00000142,-0.00054713,0.00009667,-
 0.00046089,0.00000447,-0.00007843,-0.00008660,0.00171649,-0.00119191,-
 0.00250309,0.01453081,-0.08550969,-0.19701656,0.00002415,-0.00023675,0
 .00005219,0.00043226,0.00156751,0.00147865,-0.00054362,0.00007028,0.00
 035592,-0.00075943,-0.00018243,0.00033968,0.04470294,-0.00236915,-0.06
 260186,-0.02698952,0.11709755,0.33995190,0.00002356,-0.00061749,0.0011
 0254,-0.00054614,0.00057152,0.00003365,0.00075910,0.00019761,0.0000037
 6,-0.00042144,-0.00005891,-0.00004308,-0.00033946,0.00011987,0.0000344
 1,0.00007157,0.00005134,0.00000666,-0.00000975,-0.00002520,-0.00000467
 ,-0.00000458,0.00001333,0.00000200,0.00163311,0.00338970,-0.00134810,-
 0.01549232,0.00946840,-0.01482804,-0.00082049,-0.00112360,0.00062459,-
 0.00017988,0.00157405,0.00072474,0.00062802,0.00051528,-0.00024435,-0.
 00014980,-0.00003911,-0.00003365,0.00000186,-0.00003399,-0.00000752,-0
 .00002077,-0.00000754,-0.00000333,-0.00002046,-0.00000790,-0.00000005,
 0.00000021,0.00000259,0.00000178,0.00000040,0.00000277,-0.00000066,-0.
 00000027,-0.00000111,0.00000003,-0.00000685,-0.00000055,-0.00000022,-0
 .00000016,-0.00000074,-0.00000010,0.00069051,-0.00042023,-0.00044527,0
 .00004310,0.00005509,-0.00011984,-0.00166619,0.00650666,-0.00294955,-0
 .18434742,0.06209808,-0.07728202,-0.00000734,0.00018823,-0.00002556,-0
 .00193660,-0.00460377,0.00434020,0.00018043,-0.00106365,0.00047195,-0.
 00292937,-0.00566295,0.00145848,-0.09160385,-0.00587221,-0.01055427,-0
 .00566870,-0.00622020,-0.03620831,0.30213998,0.00016768,0.00021672,-0.
 00166372,0.00132146,-0.00096683,-0.00018109,-0.00137479,-0.00059520,0.
 00001390,0.00056234,0.00028911,0.00006430,0.00056529,-0.00016481,-0.00
 006020,-0.00011824,-0.00008313,-0.00000910,0.00001715,0.00004193,0.000
 00637,0.00000641,-0.00002052,-0.00000330,-0.00285285,-0.00601780,0.002
 55741,0.03889781,-0.01006157,0.02145467,0.00055297,0.00150505,-0.00098
 931,0.00031210,-0.00023551,-0.00043144,0.00036917,-0.00064711,0.000213
 47,0.00025194,0.00008088,0.00001057,-0.00000623,0.00005680,0.00001075,
 0.00003731,0.00001116,0.00000740,0.00003514,0.00001131,-0.00000215,-0.
 00000062,-0.00000365,-0.00000195,-0.00000082,-0.00000353,0.00000073,0.
 00000090,0.00000137,-0.00000084,0.00001045,0.00000176,0.00000038,0.000
 00081,0.00000089,0.00000101,-0.00017238,0.00037977,0.00061491,0.000024
 74,-0.00008113,0.00005733,0.00176622,-0.00071425,-0.00003441,0.0544604
 1,-0.10430398,0.03706822,-0.00004723,-0.00012956,0.00000584,-0.0025708
 5,-0.00033903,0.00286313,-0.00075049,-0.00039171,0.00029678,-0.0041573
 1,-0.00288980,-0.00009297,-0.01624018,0.01494558,-0.00643830,-0.012072
 96,0.01484361,-0.01164766,-0.05899535,0.09526315,-0.00060883,-0.000708
 89,0.00021264,-0.00058597,0.00054875,0.00005580,0.00065259,0.00024198,
 -0.00000616,-0.00027622,-0.00011703,-0.00002236,-0.00027192,0.00008951
 ,0.00003311,0.00005548,0.00003967,0.00000096,-0.00000770,-0.00002006,-
 0.00000384,-0.00000334,0.00000995,0.00000153,0.00109249,0.00376477,-0.
 00097636,-0.01618796,0.00407512,0.00041900,-0.00023164,-0.00143829,0.0
 0081152,-0.00004765,0.00043152,-0.00008663,0.00017244,0.00020174,-0.00
 005169,-0.00014386,-0.00003571,0.00000117,0.00000332,-0.00002790,-0.00
 000886,-0.00001649,-0.00000604,-0.00000208,-0.00001731,-0.00000575,0.0
 0000063,-0.00000026,0.00000211,0.00000180,0.00000013,0.00000123,-0.000
 00034,-0.00000060,-0.00000092,0.00000020,-0.00000512,-0.00000064,-0.00
 000023,-0.00000005,-0.00000031,0.00000006,0.00023737,-0.00005454,-0.00
 000363,0.00001142,0.00005161,-0.00000224,-0.00087311,-0.00049877,-0.00
 286560,-0.07456939,0.04275378,-0.11420829,0.00000693,0.00007237,-0.000
 03427,0.00376307,0.00361773,-0.00352565,0.00040408,0.00036289,0.000158
 74,-0.00002056,-0.00108287,0.00144017,0.00014717,-0.00544294,0.0167492
 8,-0.04797232,-0.00313337,-0.06864128,0.13529380,-0.04369073,0.1705529
 1\\0.00000314,0.00000916,0.00000333,-0.00000137,-0.00000034,0.00000869
 ,-0.00000001,0.00001000,-0.00001325,-0.00000154,-0.00000790,0.00000047
 ,0.00001020,-0.00000014,0.00000830,-0.00000734,-0.00000252,-0.00000600
 ,0.00000082,0.00000046,-0.00000360,-0.00000225,-0.00000218,0.00000029,
 0.00000402,-0.00000997,-0.00000525,0.00000501,-0.00000061,0.00000217,0
 .00000166,0.00001053,0.00000395,0.00000565,-0.00000739,0.00000713,-0.0
 0000912,0.00000035,0.00000693,-0.00000092,-0.00000098,0.00000379,-0.00
 000329,-0.00000278,0.00000594,0.00000405,0.00000137,-0.00000045,-0.000
 00169,-0.00000115,-0.00000509,-0.00000088,-0.00000517,0.00000070,-0.00
 000044,0.00000093,0.00000528,-0.00000106,-0.00000114,-0.00000699,0.000
 00050,-0.00000278,-0.00000296,0.00000066,0.00000257,-0.00000341,-0.000
 00342,0.00000104,-0.00000589,0.00000092,0.00000047,0.00000811,-0.00000
 669,-0.00001893,-0.00003495,-0.00001707,-0.00000245,-0.00001310,-0.000
 00009,0.00000162,0.00000886,0.00000041,0.00002466,0.00001795,0.0000034
 7,0.00000463,0.00000561,0.00000531,-0.00000381,0.00001940,0.00000374,0
 .00000075,-0.00000669,0.00000236,0.00000540,-0.00000513,0.00000528,-0.
 00000371,-0.00000414\\\@


 YOU WILL NEVER "FIND" TIME FOR ANYTHING.
 IF YOU WANT TIME, YOU MUST MAKE IT.

                        -- CHARLES BIXTON
 Job cpu time:       0 days  6 hours 56 minutes 21.3 seconds.
 File lengths (MBytes):  RWF=    937 Int=      0 D2E=      0 Chk=     27 Scr=      1
 Normal termination of Gaussian 09 at Thu Nov 14 10:27:19 2019.
pbs_rusage has been removed.
Please contact help@nci.org.au if you require this functionality.
