 Entering Gaussian System, Link 0=/apps/gaussian/g09e01/g09/g09
 AtFile(1): /home/507/hio507/Basis/6-31pGd.gbs
 Initial command:
 /apps/gaussian/g09e01/g09/l1.exe "/jobfs/local/4046912.r-man2/Gau-23193.inp" -scrdir="/jobfs/local/4046912.r-man2/"
 Entering Link 1 = /apps/gaussian/g09e01/g09/l1.exe PID=     23194.
  
 Copyright (c) 1988,1990,1992,1993,1995,1998,2003,2009,2015,
            Gaussian, Inc.  All Rights Reserved.
  
 This is part of the Gaussian(R) 09 program.  It is based on
 the Gaussian(R) 03 system (copyright 2003, Gaussian, Inc.),
 the Gaussian(R) 98 system (copyright 1998, Gaussian, Inc.),
 the Gaussian(R) 94 system (copyright 1995, Gaussian, Inc.),
 the Gaussian 92(TM) system (copyright 1992, Gaussian, Inc.),
 the Gaussian 90(TM) system (copyright 1990, Gaussian, Inc.),
 the Gaussian 88(TM) system (copyright 1988, Gaussian, Inc.),
 the Gaussian 86(TM) system (copyright 1986, Carnegie Mellon
 University), and the Gaussian 82(TM) system (copyright 1983,
 Carnegie Mellon University). Gaussian is a federally registered
 trademark of Gaussian, Inc.
  
 This software contains proprietary and confidential information,
 including trade secrets, belonging to Gaussian, Inc.
  
 This software is provided under written license and may be
 used, copied, transmitted, or stored only in accord with that
 written license.
  
 The following legend is applicable only to US Government
 contracts under FAR:
  
                    RESTRICTED RIGHTS LEGEND
  
 Use, reproduction and disclosure by the US Government is
 subject to restrictions as set forth in subparagraphs (a)
 and (c) of the Commercial Computer Software - Restricted
 Rights clause in FAR 52.227-19.
  
 Gaussian, Inc.
 340 Quinnipiac St., Bldg. 40, Wallingford CT 06492
  
  
 ---------------------------------------------------------------
 Warning -- This program may not be used in any manner that
 competes with the business of Gaussian, Inc. or will provide
 assistance to any competitor of Gaussian, Inc.  The licensee
 of this program is prohibited from giving any competitor of
 Gaussian, Inc. access to this program.  By using this program,
 the user acknowledges that Gaussian, Inc. is engaged in the
 business of creating and licensing software in the field of
 computational chemistry and represents and warrants to the
 licensee that it is not a competitor of Gaussian, Inc. and that
 it will not use this program in any manner prohibited above.
 ---------------------------------------------------------------
  

 Cite this work as:
 Gaussian 09, Revision E.01,
 M. J. Frisch, G. W. Trucks, H. B. Schlegel, G. E. Scuseria, 
 M. A. Robb, J. R. Cheeseman, G. Scalmani, V. Barone, B. Mennucci, 
 G. A. Petersson, H. Nakatsuji, M. Caricato, X. Li, H. P. Hratchian, 
 A. F. Izmaylov, J. Bloino, G. Zheng, J. L. Sonnenberg, M. Hada, 
 M. Ehara, K. Toyota, R. Fukuda, J. Hasegawa, M. Ishida, T. Nakajima, 
 Y. Honda, O. Kitao, H. Nakai, T. Vreven, J. A. Montgomery, Jr., 
 J. E. Peralta, F. Ogliaro, M. Bearpark, J. J. Heyd, E. Brothers, 
 K. N. Kudin, V. N. Staroverov, T. Keith, R. Kobayashi, J. Normand, 
 K. Raghavachari, A. Rendell, J. C. Burant, S. S. Iyengar, J. Tomasi, 
 M. Cossi, N. Rega, J. M. Millam, M. Klene, J. E. Knox, J. B. Cross, 
 V. Bakken, C. Adamo, J. Jaramillo, R. Gomperts, R. E. Stratmann, 
 O. Yazyev, A. J. Austin, R. Cammi, C. Pomelli, J. W. Ochterski, 
 R. L. Martin, K. Morokuma, V. G. Zakrzewski, G. A. Voth, 
 P. Salvador, J. J. Dannenberg, S. Dapprich, A. D. Daniels, 
 O. Farkas, J. B. Foresman, J. V. Ortiz, J. Cioslowski, 
 and D. J. Fox, Gaussian, Inc., Wallingford CT, 2013.
 
 ******************************************
 Gaussian 09:  ES64L-G09RevE.01 30-Nov-2015
                 9-Dec-2019 
 ******************************************
 %chk=29CA.MP2_6-31pGd.chk
 %mem=1114112000
 %nproc=4
 Will use up to    4 processors via shared memory.
 -------------------------------------------------------------
 # MP2/Gen 6D SCF=Tight INT(grid=ultrafine) maxdisk=3489660928
 -------------------------------------------------------------
 1/38=1/1;
 2/12=2,17=6,18=5,40=1/2;
 3/5=7,8=2,11=9,16=1,25=1,30=1,75=-5/1,2,3;
 4//1;
 5/5=2,32=2,38=5/2;
 8/10=1/1;
 9/16=-3/6;
 6/7=2,8=2,9=2,10=2/1;
 99/5=1,9=1/99;
 ----------------
 29CA.MP2_6-31pGd
 ----------------
 Symbolic Z-matrix:
 Charge =  0 Multiplicity = 1
 C                    -6.18847   1.27085   0.00984 
 N                    -4.89858   0.72514   0.01201 
 C                    -3.70523   1.40066  -0.0292 
 O                    -3.5606    2.5944   -0.07472 
 O                    -2.69993   0.50909  -0.01067 
 C                    -1.3789    1.07117  -0.04965 
 C                    -0.39096  -0.07489  -0.02158 
 C                     1.04462   0.44189  -0.06058 
 C                    -6.44105   2.6432   -0.0364 
 C                    -7.75227   3.10755  -0.03534 
 C                    -8.82051   2.21396   0.01162 
 C                    -8.56891   0.84952   0.0576 
 C                    -7.26577   0.38313   0.0567 
 H                    -4.82199  -0.28045   0.04749 
 H                    -1.25342   1.73621   0.80825 
 H                    -1.27806   1.67173  -0.95693 
 H                    -0.58311  -0.73152  -0.87449 
 H                    -0.55852  -0.6673    0.88202 
 H                     1.23326   1.02152  -0.96744 
 H                     1.75821  -0.38267  -0.04042 
 H                     1.25796   1.08599   0.79592 
 H                    -5.62168   3.34444  -0.07299 
 C                    -7.99348   4.59705  -0.08586 
 Cl                   -10.47178   2.75387   0.01464 
 H                    -9.39959   0.15597   0.09407 
 H                    -7.08431  -0.68637   0.09295 
 F                    -6.84611   5.28372  -0.12647 
 F                    -8.6986    4.94982  -1.16872 
 F                    -8.669     5.0278    0.98764 
 
                          Input orientation:                          
 ---------------------------------------------------------------------
 Center     Atomic      Atomic             Coordinates (Angstroms)
 Number     Number       Type             X           Y           Z
 ---------------------------------------------------------------------
      1          6           0       -6.188473    1.270851    0.009839
      2          7           0       -4.898584    0.725139    0.012011
      3          6           0       -3.705227    1.400663   -0.029199
      4          8           0       -3.560600    2.594398   -0.074715
      5          8           0       -2.699925    0.509093   -0.010673
      6          6           0       -1.378905    1.071169   -0.049646
      7          6           0       -0.390961   -0.074887   -0.021581
      8          6           0        1.044622    0.441891   -0.060576
      9          6           0       -6.441050    2.643199   -0.036404
     10          6           0       -7.752275    3.107546   -0.035338
     11          6           0       -8.820508    2.213960    0.011616
     12          6           0       -8.568906    0.849525    0.057605
     13          6           0       -7.265768    0.383126    0.056702
     14          1           0       -4.821990   -0.280454    0.047491
     15          1           0       -1.253415    1.736207    0.808245
     16          1           0       -1.278064    1.671730   -0.956928
     17          1           0       -0.583110   -0.731515   -0.874485
     18          1           0       -0.558523   -0.667295    0.882022
     19          1           0        1.233264    1.021522   -0.967438
     20          1           0        1.758209   -0.382670   -0.040423
     21          1           0        1.257961    1.085993    0.795916
     22          1           0       -5.621679    3.344437   -0.072987
     23          6           0       -7.993477    4.597047   -0.085857
     24         17           0      -10.471780    2.753870    0.014640
     25          1           0       -9.399589    0.155972    0.094069
     26          1           0       -7.084315   -0.686367    0.092951
     27          9           0       -6.846106    5.283722   -0.126475
     28          9           0       -8.698599    4.949823   -1.168717
     29          9           0       -8.668996    5.027804    0.987636
 ---------------------------------------------------------------------
                    Distance matrix (angstroms):
                    1          2          3          4          5
     1  C    0.000000
     2  N    1.400578   0.000000
     3  C    2.486943   1.371909   0.000000
     4  O    2.943577   2.300403   1.203325   0.000000
     5  O    3.570807   2.209365   1.343828   2.256847   0.000000
     6  C    4.814079   3.537186   2.349630   2.660948   1.436156
     7  C    5.951734   4.578191   3.627901   4.144214   2.381694
     8  C    7.280782   5.950395   4.845750   5.083458   3.745482
     9  C    1.396164   2.461808   3.004775   2.881118   4.307097
    10  C    2.412668   3.717749   4.392275   4.223152   5.681444
    11  C    2.795902   4.195006   5.179692   5.274355   6.353629
    12  C    2.417904   3.672712   4.895576   5.305207   5.879243
    13  C    1.396716   2.392181   3.704080   4.316858   4.568077
    14  H    2.067665   1.009129   2.019703   3.141785   2.264935
    15  H    5.020836   3.865683   2.612524   2.615188   2.066114
    16  H    5.020703   3.865624   2.612523   2.615260   2.066111
    17  H    6.017606   4.640154   3.874055   4.535060   2.601189
    18  H    6.017761   4.640250   3.874084   4.535025   2.601230
    19  H    7.489954   6.216650   5.041105   5.123673   4.080192
    20  H    8.117044   6.748547   5.747133   6.095394   4.546546
    21  H    7.490091   6.216733   5.041138   5.123652   4.080228
    22  H    2.151250   2.718606   2.730012   2.193311   4.071819
    23  C    3.785602   4.957783   5.348754   4.864271   6.688700
    24  Cl   4.532780   5.930958   6.900676   6.913597   8.089585
    25  H    3.400193   4.537590   5.830112   6.329945   6.709781
    26  H    2.154098   2.603136   3.973518   4.817478   4.545628
    27  F    4.068685   4.959103   4.995270   4.246139   6.324659
    28  F    4.607013   5.803636   6.231276   5.757074   7.552830
    29  F    4.606928   5.803514   6.231300   5.757236   7.552826
                    6          7          8          9         10
     6  C    0.000000
     7  C    1.513362   0.000000
     8  C    2.503915   1.526263   0.000000
     9  C    5.300638   6.632630   7.802668   0.000000
    10  C    6.690806   8.019788   9.191939   1.391018   0.000000
    11  C    7.529089   8.734826  10.023284   2.418341   1.393493
    12  C    7.194216   8.230406   9.622892   2.784578   2.402954
    13  C    5.927889   6.890492   8.311425   2.407645   2.769047
    14  H    3.700157   4.436333   5.911903   3.343073   4.480176
    15  H    1.092703   2.170829   2.776883   5.333631   6.695325
    16  H    1.092704   2.170828   2.776836   5.333624   6.695245
    17  H    2.136193   1.093402   2.165373   6.812234   8.175541
    18  H    2.136186   1.093400   2.165377   6.812268   8.175637
    19  H    2.769158   2.175974   1.092683   7.898846   9.271474
    20  H    3.457632   2.171179   1.090648   8.739779  10.130693
    21  H    2.769162   2.175979   1.092684   7.898887   9.271570
    22  H    4.813463   6.249387   7.270798   1.079093   2.144055
    23  C    7.495711   8.923528   9.947522   2.495996   1.509749
    24  Cl   9.247485  10.470247  11.746421   4.032572   2.742862
    25  H    8.074008   9.012327  10.449268   3.867334   3.382629
    26  H    5.971681   6.722203   8.208297   3.393601   3.854400
    27  F    6.902303   8.390148   9.258037   2.672928   2.359065
    28  F    8.359079   9.776527  10.792580   3.420406   2.360945
    29  F    8.359207   9.776596  10.792762   3.420343   2.360984
                   11         12         13         14         15
    11  C    0.000000
    12  C    1.388201   0.000000
    13  C    2.402332   1.384087   0.000000
    14  H    4.712911   3.913609   2.532286   0.000000
    15  H    7.623893   7.407163   6.208384   4.168980   0.000000
    16  H    7.623684   7.406867   6.208103   4.168848   1.766522
    17  H    8.792936   8.193986   6.838673   4.361376   3.061134
    18  H    8.793158   8.194306   6.838982   4.361564   2.503027
    19  H   10.171470   9.857121   8.584286   6.276252   3.138057
    20  H   10.892862  10.400828   9.056933   6.581580   3.778857
    21  H   10.171675   9.857400   8.584545   6.276394   2.594213
    22  H    3.393765   3.863650   3.389574   3.714008   4.737584
    23  C    2.524397   3.794156   4.278669   5.819461   7.376466
    24  Cl   1.737300   2.692454   3.987569   6.413137   9.308259
    25  H    2.139497   1.082764   2.146203   4.598591   8.328705
    26  H    3.381254   2.136404   1.085382   2.298900   6.354518
    27  F    3.652502   4.760676   4.921941   5.923459   6.688554
    28  F    2.982112   4.281721   4.940584   6.622919   8.346644
    29  F    2.982162   4.281705   4.940518   6.622759   8.115271
                   16         17         18         19         20
    16  H    0.000000
    17  H    2.503067   0.000000
    18  H    3.061129   1.757852   0.000000
    19  H    2.594157   2.526063   3.079465   0.000000
    20  H    3.778821   2.509806   2.509813   1.762577   0.000000
    21  H    3.137988   3.079467   2.526073   1.764705   1.762578
    22  H    4.737752   6.530158   6.530053   7.292889   8.267717
    23  C    7.376518   9.161279   9.161257   9.934502  10.949659
    24  Cl   9.308028  10.522558  10.522803  11.873229  12.625907
    25  H    8.328342   8.913811   8.914207  10.720706  11.171601
    26  H    6.354165   6.572947   6.573352   8.557069   8.848743
    27  F    6.688739   8.715946   8.715812   9.173320  10.302895
    28  F    8.115115   9.910869  10.100415  10.682415  11.792089
    29  F    8.346882  10.100436   9.910857  10.859437  11.792232
                   21         22         23         24         25
    21  H    0.000000
    22  H    7.292806   0.000000
    23  C    9.934492   2.682279   0.000000
    24  Cl  11.873459   4.886709   3.090207   0.000000
    25  H   10.721049   4.946394   4.661830   2.811579   0.000000
    26  H    8.557393   4.291179   5.364047   4.828694   2.463743
    27  F    9.173202   2.294102   1.337772   4.423299   5.732602
    28  F   10.859192   3.639412   1.339489   3.060508   5.006697
    29  F   10.682654   3.639338   1.339502   3.060642   5.006693
                   26         27         28         29
    26  H    0.000000
    27  F    5.978867   0.000000
    28  F    5.997029   2.151624   0.000000
    29  F    5.996951   2.151666   2.157966   0.000000
 Stoichiometry    C11H11ClF3NO2
 Framework group  C1[X(C11H11ClF3NO2)]
 Deg. of freedom    81
 Full point group                 C1      NOp   1
 Largest Abelian subgroup         C1      NOp   1
 Largest concise Abelian subgroup C1      NOp   1
                         Standard orientation:                         
 ---------------------------------------------------------------------
 Center     Atomic      Atomic             Coordinates (Angstroms)
 Number     Number       Type             X           Y           Z
 ---------------------------------------------------------------------
      1          6           0        0.081672   -1.039998    0.000240
      2          7           0        1.480199   -1.115770    0.000443
      3          6           0        2.373606   -0.074637    0.000150
      4          8           0        2.104673    1.098250   -0.000149
      5          8           0        3.621759   -0.572620    0.000261
      6          6           0        4.673746    0.405064   -0.000142
      7          6           0        5.991907   -0.338386    0.000053
      8          6           0        7.167030    0.635555   -0.000432
      9          6           0       -0.621505    0.166159    0.000203
     10          6           0       -2.012500    0.158090   -0.000003
     11          6           0       -2.714224   -1.045823   -0.000136
     12          6           0       -2.014649   -2.244863   -0.000079
     13          6           0       -0.630566   -2.241469    0.000103
     14          1           0        1.893404   -2.036423    0.000570
     15          1           0        4.565565    1.039524    0.882896
     16          1           0        4.565472    1.038890   -0.883626
     17          1           0        6.034525   -0.987733   -0.878616
     18          1           0        6.034655   -0.987026    0.879236
     19          1           0        7.148450    1.279456   -0.883043
     20          1           0        8.118036    0.101605   -0.000292
     21          1           0        7.148593    1.280171    0.881662
     22          1           0       -0.088629    1.104500    0.000309
     23          6           0       -2.744721    1.478390    0.000081
     24         17           0       -4.450734   -1.098216   -0.000337
     25          1           0       -2.560774   -3.179810   -0.000183
     26          1           0       -0.097041   -3.186671    0.000132
     27          9           0       -1.898356    2.514392    0.000150
     28          9           0       -3.526963    1.612875   -1.078921
     29          9           0       -3.527059    1.612741    1.079045
 ---------------------------------------------------------------------
 Rotational constants (GHZ):      0.8918187      0.1427209      0.1260346
 General basis read from cards:  (6D, 7F)
 There are   368 symmetry adapted cartesian basis functions of A   symmetry.
 There are   368 symmetry adapted basis functions of A   symmetry.
   368 basis functions,   644 primitive gaussians,   368 cartesian basis functions
    72 alpha electrons       72 beta electrons
       nuclear repulsion energy      1451.4999797043 Hartrees.
 NAtoms=   29 NActive=   29 NUniq=   29 SFac= 1.00D+00 NAtFMM=   60 NAOKFM=F Big=F
 Integral buffers will be    131072 words long.
 Raffenetti 1 integral format.
 Two-electron integral symmetry is turned on.
 One-electron integrals computed using PRISM.
 NBasis=   368 RedAO= T EigKep=  1.40D-06  NBF=   368
 NBsUse=   367 1.00D-06 EigRej=  2.87D-07 NBFU=   367
 ExpMin= 4.38D-02 ExpMax= 2.52D+04 ExpMxC= 3.78D+03 IAcc=3 IRadAn=         5 AccDes= 0.00D+00
 Harris functional with IExCor=  205 and IRadAn=       5 diagonalized for initial guess.
 HarFok:  IExCor=  205 AccDes= 0.00D+00 IRadAn=         5 IDoV= 1 UseB2=F ITyADJ=14
 ICtDFT=  3500011 ScaDFX=  1.000000  1.000000  1.000000  1.000000
 FoFCou: FMM=F IPFlag=           0 FMFlag=      100000 FMFlg1=           0
         NFxFlg=           0 DoJE=T BraDBF=F KetDBF=T FulRan=T
         wScrn=  0.000000 ICntrl=     500 IOpCl=  0 I1Cent=   200000004 NGrid=           0
         NMat0=    1 NMatS0=      1 NMatT0=    0 NMatD0=    1 NMtDS0=    0 NMtDT0=    0
 Petite list used in FoFCou.
 Requested convergence on RMS density matrix=1.00D-08 within 128 cycles.
 Requested convergence on MAX density matrix=1.00D-06.
 Requested convergence on             energy=1.00D-06.
 No special actions if energy rises.
 Initial convergence to 1.0D-05 achieved.  Increase integral accuracy.
 SCF Done:  E(RHF) =  -1384.99778322     A.U. after   17 cycles
            NFock= 17  Conv=0.59D-08     -V/T= 2.0017
 ExpMin= 4.38D-02 ExpMax= 2.52D+04 ExpMxC= 3.78D+03 IAcc=3 IRadAn=         5 AccDes= 0.00D+00
 HarFok:  IExCor=  205 AccDes= 0.00D+00 IRadAn=         5 IDoV=-2 UseB2=F ITyADJ=14
 ICtDFT= 12500011 ScaDFX=  1.000000  1.000000  1.000000  1.000000
 Range of M.O.s used for correlation:    23   367
 NBasis=   368 NAE=    72 NBE=    72 NFC=    22 NFV=     0
 NROrb=    345 NOA=    50 NOB=    50 NVA=   295 NVB=   295

 **** Warning!!: The largest alpha MO coefficient is  0.15392594D+03

 Fully direct method using O(OVN) memory.
 JobTyp=1 Pass  1:  I=   1 to  50 NPSUse=  4 ParTrn=T ParDer=T DoDerP=F.
 Spin components of T(2) and E(2):
     alpha-alpha T2 =       0.1140043372D+00 E2=     -0.3553493541D+00
     alpha-beta  T2 =       0.5836598014D+00 E2=     -0.1881855049D+01
     beta-beta   T2 =       0.1140043372D+00 E2=     -0.3553493541D+00
 ANorm=    0.1345982346D+01
 E2 =    -0.2592553757D+01 EUMP2 =    -0.13875903369741D+04

 **********************************************************************

            Population analysis using the SCF density.

 **********************************************************************

 Orbital symmetries:
       Occupied  (A) (A) (A) (A) (A) (A) (A) (A) (A) (A) (A) (A)
                 (A) (A) (A) (A) (A) (A) (A) (A) (A) (A) (A) (A)
                 (A) (A) (A) (A) (A) (A) (A) (A) (A) (A) (A) (A)
                 (A) (A) (A) (A) (A) (A) (A) (A) (A) (A) (A) (A)
                 (A) (A) (A) (A) (A) (A) (A) (A) (A) (A) (A) (A)
                 (A) (A) (A) (A) (A) (A) (A) (A) (A) (A) (A) (A)
       Virtual   (A) (A) (A) (A) (A) (A) (A) (A) (A) (A) (A) (A)
                 (A) (A) (A) (A) (A) (A) (A) (A) (A) (A) (A) (A)
                 (A) (A) (A) (A) (A) (A) (A) (A) (A) (A) (A) (A)
                 (A) (A) (A) (A) (A) (A) (A) (A) (A) (A) (A) (A)
                 (A) (A) (A) (A) (A) (A) (A) (A) (A) (A) (A) (A)
                 (A) (A) (A) (A) (A) (A) (A) (A) (A) (A) (A) (A)
                 (A) (A) (A) (A) (A) (A) (A) (A) (A) (A) (A) (A)
                 (A) (A) (A) (A) (A) (A) (A) (A) (A) (A) (A) (A)
                 (A) (A) (A) (A) (A) (A) (A) (A) (A) (A) (A) (A)
                 (A) (A) (A) (A) (A) (A) (A) (A) (A) (A) (A) (A)
                 (A) (A) (A) (A) (A) (A) (A) (A) (A) (A) (A) (A)
                 (A) (A) (A) (A) (A) (A) (A) (A) (A) (A) (A) (A)
                 (A) (A) (A) (A) (A) (A) (A) (A) (A) (A) (A) (A)
                 (A) (A) (A) (A) (A) (A) (A) (A) (A) (A) (A) (A)
                 (A) (A) (A) (A) (A) (A) (A) (A) (A) (A) (A) (A)
                 (A) (A) (A) (A) (A) (A) (A) (A) (A) (A) (A) (A)
                 (A) (A) (A) (A) (A) (A) (A) (A) (A) (A) (A) (A)
                 (A) (A) (A) (A) (A) (A) (A) (A) (A) (A) (A) (A)
                 (A) (A) (A) (A) (A) (A) (A) (A) (A) (A) (A) (A)
                 (A) (A) (A) (A) (A) (A) (A) (A) (A) (A) (A) (A)
                 (A) (A) (A) (A) (A) (A) (A) (A) (A) (A) (A) (A)
                 (A) (A) (A) (A) (A) (A) (A) (A) (A) (A) (A) (A)
                 (A) (A) (A) (A) (A) (A) (A) (A) (A) (A) (A) (A)
                 (A) (A) (A) (A) (A) (A) (A) (A) (A) (A) (A) (A)
                 (A) (A) (A) (A) (A) (A) (A)
 The electronic state is 1-A.
 Alpha  occ. eigenvalues -- -104.83945 -26.35175 -26.34696 -26.34695 -20.63071
 Alpha  occ. eigenvalues --  -20.56634 -15.63474 -11.52024 -11.43455 -11.32498
 Alpha  occ. eigenvalues --  -11.32308 -11.30196 -11.29027 -11.27648 -11.27436
 Alpha  occ. eigenvalues --  -11.26690 -11.24215 -11.23327 -10.57192  -8.04136
 Alpha  occ. eigenvalues --   -8.03789  -8.03784  -1.73362  -1.63623  -1.63284
 Alpha  occ. eigenvalues --   -1.49365  -1.38581  -1.29014  -1.21316  -1.13460
 Alpha  occ. eigenvalues --   -1.08896  -1.08151  -1.02535  -0.97494  -0.95530
 Alpha  occ. eigenvalues --   -0.89178  -0.87373  -0.83933  -0.82360  -0.82124
 Alpha  occ. eigenvalues --   -0.81659  -0.79696  -0.76512  -0.72151  -0.71021
 Alpha  occ. eigenvalues --   -0.70816  -0.70804  -0.69267  -0.67645  -0.65917
 Alpha  occ. eigenvalues --   -0.65814  -0.65234  -0.64346  -0.64303  -0.63026
 Alpha  occ. eigenvalues --   -0.61821  -0.59827  -0.58900  -0.56527  -0.55961
 Alpha  occ. eigenvalues --   -0.55080  -0.54438  -0.53021  -0.51656  -0.50306
 Alpha  occ. eigenvalues --   -0.49840  -0.47781  -0.47488  -0.46253  -0.45167
 Alpha  occ. eigenvalues --   -0.37857  -0.32727
 Alpha virt. eigenvalues --    0.05096   0.07209   0.07707   0.07892   0.08284
 Alpha virt. eigenvalues --    0.08694   0.08846   0.09658   0.10270   0.10689
 Alpha virt. eigenvalues --    0.11256   0.11628   0.12356   0.13018   0.13024
 Alpha virt. eigenvalues --    0.13411   0.13840   0.14472   0.14807   0.15030
 Alpha virt. eigenvalues --    0.15384   0.15765   0.17154   0.17564   0.17970
 Alpha virt. eigenvalues --    0.18573   0.19739   0.19749   0.20416   0.21190
 Alpha virt. eigenvalues --    0.21206   0.21709   0.22704   0.22967   0.23675
 Alpha virt. eigenvalues --    0.24344   0.25503   0.25632   0.26653   0.27276
 Alpha virt. eigenvalues --    0.28227   0.28400   0.28850   0.29118   0.29332
 Alpha virt. eigenvalues --    0.30020   0.30794   0.31448   0.31999   0.32681
 Alpha virt. eigenvalues --    0.33026   0.33419   0.33806   0.34019   0.34518
 Alpha virt. eigenvalues --    0.35057   0.35590   0.36545   0.37049   0.37996
 Alpha virt. eigenvalues --    0.38782   0.39077   0.39483   0.40324   0.41345
 Alpha virt. eigenvalues --    0.41605   0.41936   0.42248   0.42719   0.42798
 Alpha virt. eigenvalues --    0.43153   0.44142   0.44258   0.45099   0.45123
 Alpha virt. eigenvalues --    0.45931   0.46459   0.46847   0.47307   0.48279
 Alpha virt. eigenvalues --    0.48686   0.49181   0.49793   0.50073   0.51485
 Alpha virt. eigenvalues --    0.51544   0.52183   0.53061   0.54110   0.56128
 Alpha virt. eigenvalues --    0.56946   0.56947   0.58446   0.58911   0.59836
 Alpha virt. eigenvalues --    0.60376   0.62091   0.63927   0.66425   0.68481
 Alpha virt. eigenvalues --    0.69887   0.74781   0.75510   0.79180   0.83160
 Alpha virt. eigenvalues --    0.84290   0.84294   0.86407   0.87771   0.89463
 Alpha virt. eigenvalues --    0.90555   0.91257   0.91905   0.92092   0.92573
 Alpha virt. eigenvalues --    0.92682   0.93460   0.94380   0.94959   0.96659
 Alpha virt. eigenvalues --    0.98011   0.99156   0.99537   1.01477   1.02586
 Alpha virt. eigenvalues --    1.02692   1.05413   1.05715   1.07295   1.08491
 Alpha virt. eigenvalues --    1.09054   1.09363   1.12466   1.15384   1.17163
 Alpha virt. eigenvalues --    1.17354   1.18499   1.18731   1.20032   1.20958
 Alpha virt. eigenvalues --    1.21872   1.22096   1.24526   1.24653   1.25515
 Alpha virt. eigenvalues --    1.28074   1.28776   1.30055   1.30487   1.32424
 Alpha virt. eigenvalues --    1.35208   1.36326   1.36983   1.37545   1.38780
 Alpha virt. eigenvalues --    1.39798   1.40744   1.43394   1.45139   1.45537
 Alpha virt. eigenvalues --    1.46612   1.47560   1.47841   1.51255   1.51312
 Alpha virt. eigenvalues --    1.53305   1.56818   1.57321   1.60188   1.60295
 Alpha virt. eigenvalues --    1.62543   1.63798   1.65588   1.67307   1.68247
 Alpha virt. eigenvalues --    1.69371   1.70132   1.71617   1.73137   1.76430
 Alpha virt. eigenvalues --    1.77559   1.78228   1.80059   1.81140   1.84368
 Alpha virt. eigenvalues --    1.87742   1.88948   1.91900   1.91987   1.94395
 Alpha virt. eigenvalues --    1.95377   1.97519   1.97774   1.97872   1.99863
 Alpha virt. eigenvalues --    2.00947   2.02028   2.03765   2.04602   2.08224
 Alpha virt. eigenvalues --    2.08563   2.10063   2.11950   2.12106   2.12192
 Alpha virt. eigenvalues --    2.12583   2.13327   2.16208   2.16444   2.17416
 Alpha virt. eigenvalues --    2.18131   2.19427   2.20353   2.23145   2.25370
 Alpha virt. eigenvalues --    2.26448   2.27261   2.29140   2.30359   2.31979
 Alpha virt. eigenvalues --    2.33380   2.35176   2.35497   2.35826   2.37923
 Alpha virt. eigenvalues --    2.39021   2.39603   2.40733   2.42246   2.44303
 Alpha virt. eigenvalues --    2.44741   2.45958   2.48747   2.49885   2.51154
 Alpha virt. eigenvalues --    2.53630   2.56649   2.56724   2.58531   2.59425
 Alpha virt. eigenvalues --    2.59822   2.60445   2.66770   2.68181   2.71271
 Alpha virt. eigenvalues --    2.71610   2.73709   2.74135   2.80351   2.82584
 Alpha virt. eigenvalues --    2.82996   2.84945   2.91699   2.96224   2.97814
 Alpha virt. eigenvalues --    2.98413   3.02243   3.05903   3.08696   3.09078
 Alpha virt. eigenvalues --    3.10931   3.11189   3.12555   3.15429   3.20680
 Alpha virt. eigenvalues --    3.25573   3.27454   3.31285   3.40366   3.47075
 Alpha virt. eigenvalues --    3.51422   3.52100   3.60039   3.63203   3.68019
 Alpha virt. eigenvalues --    3.72939   3.81572   4.60766   4.65688   4.68445
 Alpha virt. eigenvalues --    4.70259   4.76716   4.79210   4.81477   4.83340
 Alpha virt. eigenvalues --    4.86661   4.89484   4.97037   5.00604   5.04450
 Alpha virt. eigenvalues --    5.11555   5.20659   6.00152   6.61017   7.42760
          Condensed to atoms (all electrons):
               1          2          3          4          5          6
     1  C   18.609062  -0.274953  -0.981212  -0.440780  -0.128721  -0.442407
     2  N   -0.274953   7.656028   0.357953  -0.012547  -0.078988  -0.182552
     3  C   -0.981212   0.357953   6.139127   0.602797   0.360555  -0.587264
     4  O   -0.440780  -0.012547   0.602797   8.239901  -0.149967  -0.136104
     5  O   -0.128721  -0.078988   0.360555  -0.149967   8.518868   0.115424
     6  C   -0.442407  -0.182552  -0.587264  -0.136104   0.115424   6.849425
     7  C    0.029352   0.020081   0.025267   0.021547  -0.122961  -0.193722
     8  C   -0.005533   0.000261  -0.072657   0.000994   0.018197  -0.032106
     9  C   -2.975321  -0.141372   0.936985   0.457505   0.024549   0.094176
    10  C   -4.512988   0.106635   0.432772   0.093066   0.012494   0.038795
    11  C   -1.782346  -0.039643  -0.516484  -0.009761  -0.012124  -0.068960
    12  C    0.977048   0.118688   0.355878   0.001454   0.010719   0.035996
    13  C   -0.871495   0.141173  -1.918229  -0.074050  -0.026631  -0.275173
    14  H   -0.051568   0.275569  -0.024487   0.003792   0.001363  -0.011481
    15  H    0.002057   0.004375   0.041405  -0.005223  -0.036232   0.371849
    16  H    0.002102   0.004374   0.041418  -0.005221  -0.036235   0.371833
    17  H   -0.000142  -0.000436   0.001858  -0.000317  -0.001526  -0.049255
    18  H   -0.000135  -0.000435   0.001882  -0.000316  -0.001527  -0.049245
    19  H    0.000011  -0.000050  -0.001425  -0.000068  -0.000787  -0.025402
    20  H    0.000045   0.000029   0.004040   0.000015  -0.000124   0.066141
    21  H    0.000010  -0.000050  -0.001441  -0.000068  -0.000787  -0.025414
    22  H    0.039439  -0.008587   0.074579  -0.003651   0.000740   0.009248
    23  C   -1.373707   0.009248  -0.064701   0.006792   0.004069   0.000795
    24  Cl   0.019232  -0.001893  -0.020228   0.000150   0.000004  -0.000627
    25  H   -0.012186  -0.000055   0.003357  -0.000003  -0.000002   0.000040
    26  H    0.182792  -0.010567  -0.006723   0.000089  -0.000294  -0.000509
    27  F    0.136942  -0.000795   0.009652   0.000192  -0.000003   0.000296
    28  F    0.033239   0.000237   0.003476   0.000004   0.000001   0.000043
    29  F    0.033166   0.000237   0.003469   0.000004   0.000001   0.000043
               7          8          9         10         11         12
     1  C    0.029352  -0.005533  -2.975321  -4.512988  -1.782346   0.977048
     2  N    0.020081   0.000261  -0.141372   0.106635  -0.039643   0.118688
     3  C    0.025267  -0.072657   0.936985   0.432772  -0.516484   0.355878
     4  O    0.021547   0.000994   0.457505   0.093066  -0.009761   0.001454
     5  O   -0.122961   0.018197   0.024549   0.012494  -0.012124   0.010719
     6  C   -0.193722  -0.032106   0.094176   0.038795  -0.068960   0.035996
     7  C    5.731745   0.205922  -0.046834  -0.009316   0.002458  -0.000130
     8  C    0.205922   5.445595  -0.001221  -0.000199  -0.000272   0.000078
     9  C   -0.046834  -0.001221  13.415067   2.449009  -3.475990   0.240995
    10  C   -0.009316  -0.000199   2.449009  19.265740  -5.019301  -2.085442
    11  C    0.002458  -0.000272  -3.475990  -5.019301  21.397947  -3.394542
    12  C   -0.000130   0.000078   0.240995  -2.085442  -3.394542  11.721367
    13  C    0.028704  -0.002556  -5.999869  -2.027708   1.269114  -1.981387
    14  H   -0.000228  -0.000247   0.005716   0.003571  -0.002485   0.018773
    15  H   -0.039929  -0.006653   0.001003   0.000344   0.000157  -0.000061
    16  H   -0.039975  -0.006637   0.000987   0.000343   0.000157  -0.000061
    17  H    0.413911  -0.032231   0.000130   0.000011   0.000006  -0.000010
    18  H    0.413855  -0.032217   0.000130   0.000011   0.000006  -0.000010
    19  H   -0.024935   0.406613  -0.000046  -0.000002   0.000000   0.000000
    20  H   -0.103308   0.395780   0.000025   0.000000   0.000000  -0.000000
    21  H   -0.024909   0.406616  -0.000046  -0.000002   0.000000   0.000000
    22  H   -0.000079   0.000031   0.341070  -0.068523  -0.050645  -0.011584
    23  C   -0.001178  -0.000110   0.164982  -2.295949  -1.747424   0.102279
    24  Cl   0.000005  -0.000001   0.015242  -0.011887  -0.552595   0.060976
    25  H    0.000000   0.000000  -0.004556   0.090862   0.067368   0.201736
    26  H   -0.000023  -0.000001   0.041108  -0.010520  -0.057098   0.060398
    27  F    0.000003   0.000001   0.045580  -0.119448  -0.018387   0.009306
    28  F   -0.000001   0.000000   0.053651   0.233914  -0.215705   0.014155
    29  F   -0.000001   0.000000   0.053607   0.233831  -0.215635   0.014104
              13         14         15         16         17         18
     1  C   -0.871495  -0.051568   0.002057   0.002102  -0.000142  -0.000135
     2  N    0.141173   0.275569   0.004375   0.004374  -0.000436  -0.000435
     3  C   -1.918229  -0.024487   0.041405   0.041418   0.001858   0.001882
     4  O   -0.074050   0.003792  -0.005223  -0.005221  -0.000317  -0.000316
     5  O   -0.026631   0.001363  -0.036232  -0.036235  -0.001526  -0.001527
     6  C   -0.275173  -0.011481   0.371849   0.371833  -0.049255  -0.049245
     7  C    0.028704  -0.000228  -0.039929  -0.039975   0.413911   0.413855
     8  C   -0.002556  -0.000247  -0.006653  -0.006637  -0.032231  -0.032217
     9  C   -5.999869   0.005716   0.001003   0.000987   0.000130   0.000130
    10  C   -2.027708   0.003571   0.000344   0.000343   0.000011   0.000011
    11  C    1.269114  -0.002485   0.000157   0.000157   0.000006   0.000006
    12  C   -1.981387   0.018773  -0.000061  -0.000061  -0.000010  -0.000010
    13  C   17.762049   0.036863  -0.000250  -0.000244   0.000025   0.000025
    14  H    0.036863   0.240361  -0.000001  -0.000001  -0.000004  -0.000004
    15  H   -0.000250  -0.000001   0.489411  -0.035452   0.003159  -0.003644
    16  H   -0.000244  -0.000001  -0.035452   0.489417  -0.003643   0.003160
    17  H    0.000025  -0.000004   0.003159  -0.003643   0.496473  -0.029303
    18  H    0.000025  -0.000004  -0.003644   0.003160  -0.029303   0.496472
    19  H    0.000013  -0.000000   0.000163   0.001390  -0.003216   0.003316
    20  H   -0.000006  -0.000000  -0.000115  -0.000115  -0.002591  -0.002591
    21  H    0.000013  -0.000000   0.001390   0.000163   0.003316  -0.003216
    22  H   -0.008043  -0.000100  -0.000004  -0.000004  -0.000000  -0.000000
    23  C    0.530642   0.000951  -0.000060  -0.000059  -0.000001  -0.000001
    24  Cl   0.197057   0.000022  -0.000000  -0.000000  -0.000000  -0.000000
    25  H   -0.009977  -0.000006   0.000000   0.000000  -0.000000  -0.000000
    26  H    0.118898   0.003804  -0.000000  -0.000000  -0.000000  -0.000000
    27  F   -0.008026   0.000000   0.000000   0.000000   0.000000   0.000000
    28  F   -0.019259  -0.000000  -0.000000   0.000000  -0.000000  -0.000000
    29  F   -0.019193  -0.000000   0.000000  -0.000000  -0.000000  -0.000000
              19         20         21         22         23         24
     1  C    0.000011   0.000045   0.000010   0.039439  -1.373707   0.019232
     2  N   -0.000050   0.000029  -0.000050  -0.008587   0.009248  -0.001893
     3  C   -0.001425   0.004040  -0.001441   0.074579  -0.064701  -0.020228
     4  O   -0.000068   0.000015  -0.000068  -0.003651   0.006792   0.000150
     5  O   -0.000787  -0.000124  -0.000787   0.000740   0.004069   0.000004
     6  C   -0.025402   0.066141  -0.025414   0.009248   0.000795  -0.000627
     7  C   -0.024935  -0.103308  -0.024909  -0.000079  -0.001178   0.000005
     8  C    0.406613   0.395780   0.406616   0.000031  -0.000110  -0.000001
     9  C   -0.000046   0.000025  -0.000046   0.341070   0.164982   0.015242
    10  C   -0.000002   0.000000  -0.000002  -0.068523  -2.295949  -0.011887
    11  C    0.000000   0.000000   0.000000  -0.050645  -1.747424  -0.552595
    12  C    0.000000  -0.000000   0.000000  -0.011584   0.102279   0.060976
    13  C    0.000013  -0.000006   0.000013  -0.008043   0.530642   0.197057
    14  H   -0.000000  -0.000000  -0.000000  -0.000100   0.000951   0.000022
    15  H    0.000163  -0.000115   0.001390  -0.000004  -0.000060  -0.000000
    16  H    0.001390  -0.000115   0.000163  -0.000004  -0.000059  -0.000000
    17  H   -0.003216  -0.002591   0.003316  -0.000000  -0.000001  -0.000000
    18  H    0.003316  -0.002591  -0.003216  -0.000000  -0.000001  -0.000000
    19  H    0.503887  -0.024755  -0.031354  -0.000000  -0.000000  -0.000000
    20  H   -0.024755   0.488377  -0.024754   0.000000   0.000000   0.000000
    21  H   -0.031354  -0.024754   0.503888  -0.000000  -0.000000  -0.000000
    22  H   -0.000000   0.000000  -0.000000   0.331788   0.000144   0.000431
    23  C   -0.000000   0.000000  -0.000000   0.000144   8.849631   0.010179
    24  Cl  -0.000000   0.000000  -0.000000   0.000431   0.010179  16.997814
    25  H    0.000000  -0.000000   0.000000   0.000007   0.011857  -0.015723
    26  H   -0.000000   0.000000  -0.000000  -0.000079   0.004374   0.000982
    27  F    0.000000   0.000000   0.000000   0.003029   0.068508  -0.000447
    28  F   -0.000000   0.000000  -0.000000   0.000024   0.019543  -0.009716
    29  F   -0.000000   0.000000  -0.000000   0.000024   0.019672  -0.009706
              25         26         27         28         29
     1  C   -0.012186   0.182792   0.136942   0.033239   0.033166
     2  N   -0.000055  -0.010567  -0.000795   0.000237   0.000237
     3  C    0.003357  -0.006723   0.009652   0.003476   0.003469
     4  O   -0.000003   0.000089   0.000192   0.000004   0.000004
     5  O   -0.000002  -0.000294  -0.000003   0.000001   0.000001
     6  C    0.000040  -0.000509   0.000296   0.000043   0.000043
     7  C    0.000000  -0.000023   0.000003  -0.000001  -0.000001
     8  C    0.000000  -0.000001   0.000001   0.000000   0.000000
     9  C   -0.004556   0.041108   0.045580   0.053651   0.053607
    10  C    0.090862  -0.010520  -0.119448   0.233914   0.233831
    11  C    0.067368  -0.057098  -0.018387  -0.215705  -0.215635
    12  C    0.201736   0.060398   0.009306   0.014155   0.014104
    13  C   -0.009977   0.118898  -0.008026  -0.019259  -0.019193
    14  H   -0.000006   0.003804   0.000000  -0.000000  -0.000000
    15  H    0.000000  -0.000000   0.000000  -0.000000   0.000000
    16  H    0.000000  -0.000000   0.000000   0.000000  -0.000000
    17  H   -0.000000  -0.000000   0.000000  -0.000000  -0.000000
    18  H   -0.000000  -0.000000   0.000000  -0.000000  -0.000000
    19  H    0.000000  -0.000000   0.000000  -0.000000  -0.000000
    20  H   -0.000000   0.000000   0.000000   0.000000   0.000000
    21  H    0.000000  -0.000000   0.000000  -0.000000  -0.000000
    22  H    0.000007  -0.000079   0.003029   0.000024   0.000024
    23  C    0.011857   0.004374   0.068508   0.019543   0.019672
    24  Cl  -0.015723   0.000982  -0.000447  -0.009716  -0.009706
    25  H    0.401160  -0.001226   0.000012   0.000022   0.000022
    26  H   -0.001226   0.434040  -0.000001   0.000001   0.000001
    27  F    0.000012  -0.000001   9.344316  -0.017098  -0.017097
    28  F    0.000022   0.000001  -0.017098   9.292233  -0.027481
    29  F    0.000022   0.000001  -0.017097  -0.027481   9.292229
 Mulliken charges:
               1
     1  C   -0.211003
     2  N   -0.941966
     3  C    0.798379
     4  O   -0.590225
     5  O   -0.470074
     6  C    0.126118
     7  C   -0.285320
     8  C   -0.687446
     9  C    0.303736
    10  C   -0.800115
    11  C    0.442182
    12  C   -0.470725
    13  C   -0.842482
    14  H    0.499828
    15  H    0.212309
    16  H    0.212303
    17  H    0.203786
    18  H    0.203788
    19  H    0.196646
    20  H    0.203908
    21  H    0.196646
    22  H    0.350744
    23  C    1.679521
    24  Cl   0.320728
    25  H    0.267293
    26  H    0.240554
    27  F   -0.436535
    28  F   -0.361284
    29  F   -0.361297
 Sum of Mulliken charges =  -0.00000
 Mulliken charges with hydrogens summed into heavy atoms:
               1
     1  C   -0.211003
     2  N   -0.442138
     3  C    0.798379
     4  O   -0.590225
     5  O   -0.470074
     6  C    0.550730
     7  C    0.122255
     8  C   -0.090245
     9  C    0.654481
    10  C   -0.800115
    11  C    0.442182
    12  C   -0.203432
    13  C   -0.601927
    23  C    1.679521
    24  Cl   0.320728
    27  F   -0.436535
    28  F   -0.361284
    29  F   -0.361297
 Electronic spatial extent (au):  <R**2>=           7984.1610
 Charge=             -0.0000 electrons
 Dipole moment (field-independent basis, Debye):
    X=              5.2940    Y=             -4.4882    Z=              0.0003  Tot=              6.9405
 Quadrupole moment (field-independent basis, Debye-Ang):
   XX=           -105.5956   YY=           -107.5659   ZZ=           -113.7443
   XY=              2.6481   XZ=             -0.0003   YZ=              0.0006
 Traceless Quadrupole moment (field-independent basis, Debye-Ang):
   XX=              3.3730   YY=              1.4027   ZZ=             -4.7757
   XY=              2.6481   XZ=             -0.0003   YZ=              0.0006
 Octapole moment (field-independent basis, Debye-Ang**2):
  XXX=            108.9275  YYY=             -4.7053  ZZZ=             -0.0003  XYY=            -13.2758
  XXY=              4.4865  XXZ=             -0.0044  XZZ=             -2.2812  YZZ=             16.7350
  YYZ=              0.0037  XYZ=              0.0017
 Hexadecapole moment (field-independent basis, Debye-Ang**3):
 XXXX=          -8274.1351 YYYY=          -1172.8021 ZZZZ=           -201.7785 XXXY=            -34.1172
 XXXZ=             -0.0022 YYYX=            -82.8955 YYYZ=              0.0018 ZZZX=             -0.0016
 ZZZY=              0.0017 XXYY=          -1688.6081 XXZZ=          -1506.6154 YYZZ=           -255.8050
 XXYZ=              0.0138 YYXZ=              0.0131 ZZXY=            -27.9346
 N-N= 1.451499979704D+03 E-N=-6.175774087712D+03  KE= 1.382615667824D+03
 1\1\GINC-R3716\SP\RMP2-FC\Gen\C11H11Cl1F3N1O2\ROOT\09-Dec-2019\0\\# MP
 2/Gen 6D SCF=Tight INT(grid=ultrafine) maxdisk=3489660928\\29CA.MP2_6-
 31pGd\\0,1\C,0,-6.1884726944,1.2708506961,0.0098388012\N,0,-4.89858431
 31,0.7251385156,0.0120111908\C,0,-3.7052271321,1.4006634757,-0.0291994
 526\O,0,-3.5605996156,2.5943976032,-0.07471537\O,0,-2.6999251114,0.509
 0928486,-0.0106726713\C,0,-1.3789049779,1.0711693764,-0.049646284\C,0,
 -0.390961166,-0.0748866358,-0.0215811225\C,0,1.0446217515,0.4418911681
 ,-0.0605761812\C,0,-6.4410499935,2.6431988128,-0.0364035918\C,0,-7.752
 2748417,3.1075462676,-0.0353376714\C,0,-8.8205077866,2.2139602,0.01161
 62297\C,0,-8.5689061367,0.8495246288,0.0576045416\C,0,-7.2657680572,0.
 3831264348,0.0567015602\H,0,-4.8219904553,-0.2804542175,0.0474905383\H
 ,0,-1.2534154948,1.7362071636,0.8082452829\H,0,-1.2780638137,1.6717300
 232,-0.9569276035\H,0,-0.583110477,-0.7315151266,-0.8744850897\H,0,-0.
 5585229223,-0.6672951028,0.8820217353\H,0,1.2332644836,1.0215215271,-0
 .9674378891\H,0,1.7582087215,-0.3826702318,-0.0404230569\H,0,1.2579608
 751,1.0859927514,0.7959158978\H,0,-5.6216794759,3.3444373264,-0.072987
 0546\C,0,-7.9934773873,4.597046604,-0.0858574637\Cl,0,-10.471779752,2.
 7538704659,0.0146399129\H,0,-9.3995886316,0.1559723915,0.0940690466\H,
 0,-7.0843149257,-0.686366511,0.0929510234\F,0,-6.8461059374,5.28372202
 8,-0.1264749732\F,0,-8.6985990842,4.9498230623,-1.1687166499\F,0,-8.66
 89956484,5.0278044546,0.9876363646\\Version=ES64L-G09RevE.01\State=1-A
 \HF=-1384.9977832\MP2=-1387.590337\RMSD=5.901e-09\PG=C01 [X(C11H11Cl1F
 3N1O2)]\\@


 IT IS WELL TO REMEMBER THAT MAN IS A PART OF NATURE AND THAT HIS WORKS,
 WHATEVER THEY MAY BE, ARE NO MORE "UNNATURAL" THAN 
 THE FLIGHT OF AN EAGLE OR THE PASSAGE OF A TORNADO.

                                    -- CHARLES MCCARRY IN "THE GREAT SOUTHWEST"
 Job cpu time:       0 days  0 hours 12 minutes 21.7 seconds.
 File lengths (MBytes):  RWF=     74 Int=      0 D2E=      0 Chk=      9 Scr=      1
 Normal termination of Gaussian 09 at Mon Dec  9 10:37:38 2019.
pbs_rusage has been removed.
Please contact help@nci.org.au if you require this functionality.
