 Entering Gaussian System, Link 0=/apps/gaussian/g09e01/g09/g09
 Initial command:
 /apps/gaussian/g09e01/g09/l1.exe "/jobfs/local/3588077.r-man2/Gau-1490.inp" -scrdir="/jobfs/local/3588077.r-man2/"
 Entering Link 1 = /apps/gaussian/g09e01/g09/l1.exe PID=      1491.
  
 Copyright (c) 1988,1990,1992,1993,1995,1998,2003,2009,2015,
            Gaussian, Inc.  All Rights Reserved.
  
 This is part of the Gaussian(R) 09 program.  It is based on
 the Gaussian(R) 03 system (copyright 2003, Gaussian, Inc.),
 the Gaussian(R) 98 system (copyright 1998, Gaussian, Inc.),
 the Gaussian(R) 94 system (copyright 1995, Gaussian, Inc.),
 the Gaussian 92(TM) system (copyright 1992, Gaussian, Inc.),
 the Gaussian 90(TM) system (copyright 1990, Gaussian, Inc.),
 the Gaussian 88(TM) system (copyright 1988, Gaussian, Inc.),
 the Gaussian 86(TM) system (copyright 1986, Carnegie Mellon
 University), and the Gaussian 82(TM) system (copyright 1983,
 Carnegie Mellon University). Gaussian is a federally registered
 trademark of Gaussian, Inc.
  
 This software contains proprietary and confidential information,
 including trade secrets, belonging to Gaussian, Inc.
  
 This software is provided under written license and may be
 used, copied, transmitted, or stored only in accord with that
 written license.
  
 The following legend is applicable only to US Government
 contracts under FAR:
  
                    RESTRICTED RIGHTS LEGEND
  
 Use, reproduction and disclosure by the US Government is
 subject to restrictions as set forth in subparagraphs (a)
 and (c) of the Commercial Computer Software - Restricted
 Rights clause in FAR 52.227-19.
  
 Gaussian, Inc.
 340 Quinnipiac St., Bldg. 40, Wallingford CT 06492
  
  
 ---------------------------------------------------------------
 Warning -- This program may not be used in any manner that
 competes with the business of Gaussian, Inc. or will provide
 assistance to any competitor of Gaussian, Inc.  The licensee
 of this program is prohibited from giving any competitor of
 Gaussian, Inc. access to this program.  By using this program,
 the user acknowledges that Gaussian, Inc. is engaged in the
 business of creating and licensing software in the field of
 computational chemistry and represents and warrants to the
 licensee that it is not a competitor of Gaussian, Inc. and that
 it will not use this program in any manner prohibited above.
 ---------------------------------------------------------------
  

 Cite this work as:
 Gaussian 09, Revision E.01,
 M. J. Frisch, G. W. Trucks, H. B. Schlegel, G. E. Scuseria, 
 M. A. Robb, J. R. Cheeseman, G. Scalmani, V. Barone, B. Mennucci, 
 G. A. Petersson, H. Nakatsuji, M. Caricato, X. Li, H. P. Hratchian, 
 A. F. Izmaylov, J. Bloino, G. Zheng, J. L. Sonnenberg, M. Hada, 
 M. Ehara, K. Toyota, R. Fukuda, J. Hasegawa, M. Ishida, T. Nakajima, 
 Y. Honda, O. Kitao, H. Nakai, T. Vreven, J. A. Montgomery, Jr., 
 J. E. Peralta, F. Ogliaro, M. Bearpark, J. J. Heyd, E. Brothers, 
 K. N. Kudin, V. N. Staroverov, T. Keith, R. Kobayashi, J. Normand, 
 K. Raghavachari, A. Rendell, J. C. Burant, S. S. Iyengar, J. Tomasi, 
 M. Cossi, N. Rega, J. M. Millam, M. Klene, J. E. Knox, J. B. Cross, 
 V. Bakken, C. Adamo, J. Jaramillo, R. Gomperts, R. E. Stratmann, 
 O. Yazyev, A. J. Austin, R. Cammi, C. Pomelli, J. W. Ochterski, 
 R. L. Martin, K. Morokuma, V. G. Zakrzewski, G. A. Voth, 
 P. Salvador, J. J. Dannenberg, S. Dapprich, A. D. Daniels, 
 O. Farkas, J. B. Foresman, J. V. Ortiz, J. Cioslowski, 
 and D. J. Fox, Gaussian, Inc., Wallingford CT, 2013.
 
 ******************************************
 Gaussian 09:  ES64L-G09RevE.01 30-Nov-2015
                14-Nov-2019 
 ******************************************
 %chk=29CA.M062X_6-311pGd_opt_GD3.chk
 %mem=196608000
 %nproc=4
 Will use up to    4 processors via shared memory.
 ----------------------------------------------------------------------
 # M062X/6-311+G* SCF=Tight INT(grid=ultrafine) OPT IOP(2/17=4) Empiric
 alDispersion=GD3 maxdisk=2147483648
 ----------------------------------------------------------------------
 1/14=-1,18=20,19=15,26=4,38=1/1,3;
 2/9=110,12=2,17=4,18=5,40=1/2;
 3/5=4,6=6,7=11,11=2,16=1,25=1,30=1,71=1,74=-55,75=-5,124=31/1,2,3;
 4//1;
 5/5=2,32=2,38=5/2;
 6/7=2,8=2,9=2,10=2,28=1/1;
 7//1,2,3,16;
 1/14=-1,18=20,19=15,26=4/3(2);
 2/9=110,17=4/2;
 99//99;
 2/9=110,17=4/2;
 3/5=4,6=6,7=11,11=2,16=1,25=1,30=1,71=1,74=-55,75=-5,124=31/1,2,3;
 4/5=5,16=3,69=1/1;
 5/5=2,32=2,38=5/2;
 7//1,2,3,16;
 1/14=-1,18=20,19=15,26=4/3(-5);
 2/9=110,17=4/2;
 6/7=2,8=2,9=2,10=2,19=2,28=1/1;
 99/9=1/99;
 ---------------------------
 29CA.M062X_6-311pGd_opt_GD3
 ---------------------------
 Symbolic Z-matrix:
 Charge =  0 Multiplicity = 1
 C                    -6.18847   1.27085   0.00984 
 N                    -4.89858   0.72514   0.01201 
 C                    -3.70523   1.40066  -0.0292 
 O                    -3.5606    2.5944   -0.07472 
 O                    -2.69993   0.50909  -0.01067 
 C                    -1.3789    1.07117  -0.04965 
 C                    -0.39096  -0.07489  -0.02158 
 C                     1.04462   0.44189  -0.06058 
 C                    -6.44105   2.6432   -0.0364 
 C                    -7.75227   3.10755  -0.03534 
 C                    -8.82051   2.21396   0.01162 
 C                    -8.56891   0.84952   0.0576 
 C                    -7.26577   0.38313   0.0567 
 H                    -4.82199  -0.28045   0.04749 
 H                    -1.25342   1.73621   0.80825 
 H                    -1.27806   1.67173  -0.95693 
 H                    -0.58311  -0.73152  -0.87449 
 H                    -0.55852  -0.6673    0.88202 
 H                     1.23326   1.02152  -0.96744 
 H                     1.75821  -0.38267  -0.04042 
 H                     1.25796   1.08599   0.79592 
 H                    -5.62168   3.34444  -0.07299 
 C                    -7.99348   4.59705  -0.08586 
 Cl                   -10.47178   2.75387   0.01464 
 H                    -9.39959   0.15597   0.09407 
 H                    -7.08431  -0.68637   0.09295 
 F                    -6.84611   5.28372  -0.12647 
 F                    -8.6986    4.94982  -1.16872 
 F                    -8.669     5.0278    0.98764 
 

 GradGradGradGradGradGradGradGradGradGradGradGradGradGradGradGradGradGrad
 Berny optimization.
 Initialization pass.
                           ----------------------------
                           !    Initial Parameters    !
                           ! (Angstroms and Degrees)  !
 --------------------------                            --------------------------
 ! Name  Definition              Value          Derivative Info.                !
 --------------------------------------------------------------------------------
 ! R1    R(1,2)                  1.4006         estimate D2E/DX2                !
 ! R2    R(1,9)                  1.3962         estimate D2E/DX2                !
 ! R3    R(1,13)                 1.3967         estimate D2E/DX2                !
 ! R4    R(2,3)                  1.3719         estimate D2E/DX2                !
 ! R5    R(2,14)                 1.0091         estimate D2E/DX2                !
 ! R6    R(3,4)                  1.2033         estimate D2E/DX2                !
 ! R7    R(3,5)                  1.3438         estimate D2E/DX2                !
 ! R8    R(5,6)                  1.4362         estimate D2E/DX2                !
 ! R9    R(6,7)                  1.5134         estimate D2E/DX2                !
 ! R10   R(6,15)                 1.0927         estimate D2E/DX2                !
 ! R11   R(6,16)                 1.0927         estimate D2E/DX2                !
 ! R12   R(7,8)                  1.5263         estimate D2E/DX2                !
 ! R13   R(7,17)                 1.0934         estimate D2E/DX2                !
 ! R14   R(7,18)                 1.0934         estimate D2E/DX2                !
 ! R15   R(8,19)                 1.0927         estimate D2E/DX2                !
 ! R16   R(8,20)                 1.0906         estimate D2E/DX2                !
 ! R17   R(8,21)                 1.0927         estimate D2E/DX2                !
 ! R18   R(9,10)                 1.391          estimate D2E/DX2                !
 ! R19   R(9,22)                 1.0791         estimate D2E/DX2                !
 ! R20   R(10,11)                1.3935         estimate D2E/DX2                !
 ! R21   R(10,23)                1.5097         estimate D2E/DX2                !
 ! R22   R(11,12)                1.3882         estimate D2E/DX2                !
 ! R23   R(11,24)                1.7373         estimate D2E/DX2                !
 ! R24   R(12,13)                1.3841         estimate D2E/DX2                !
 ! R25   R(12,25)                1.0828         estimate D2E/DX2                !
 ! R26   R(13,26)                1.0854         estimate D2E/DX2                !
 ! R27   R(23,27)                1.3378         estimate D2E/DX2                !
 ! R28   R(23,28)                1.3395         estimate D2E/DX2                !
 ! R29   R(23,29)                1.3395         estimate D2E/DX2                !
 ! A1    A(2,1,9)              123.343          estimate D2E/DX2                !
 ! A2    A(2,1,13)             117.5585         estimate D2E/DX2                !
 ! A3    A(9,1,13)             119.0986         estimate D2E/DX2                !
 ! A4    A(1,2,3)              127.532          estimate D2E/DX2                !
 ! A5    A(1,2,14)             117.2726         estimate D2E/DX2                !
 ! A6    A(3,2,14)             115.1953         estimate D2E/DX2                !
 ! A7    A(2,3,4)              126.4526         estimate D2E/DX2                !
 ! A8    A(2,3,5)              108.8824         estimate D2E/DX2                !
 ! A9    A(4,3,5)              124.665          estimate D2E/DX2                !
 ! A10   A(3,5,6)              115.3458         estimate D2E/DX2                !
 ! A11   A(5,6,7)              107.6733         estimate D2E/DX2                !
 ! A12   A(5,6,15)             108.8159         estimate D2E/DX2                !
 ! A13   A(5,6,16)             108.8156         estimate D2E/DX2                !
 ! A14   A(7,6,15)             111.8001         estimate D2E/DX2                !
 ! A15   A(7,6,16)             111.8            estimate D2E/DX2                !
 ! A16   A(15,6,16)            107.8655         estimate D2E/DX2                !
 ! A17   A(6,7,8)              110.9248         estimate D2E/DX2                !
 ! A18   A(6,7,17)             109.0015         estimate D2E/DX2                !
 ! A19   A(6,7,18)             109.0011         estimate D2E/DX2                !
 ! A20   A(8,7,17)             110.4079         estimate D2E/DX2                !
 ! A21   A(8,7,18)             110.4083         estimate D2E/DX2                !
 ! A22   A(17,7,18)            106.998          estimate D2E/DX2                !
 ! A23   A(7,8,19)             111.2968         estimate D2E/DX2                !
 ! A24   A(7,8,20)             111.0357         estimate D2E/DX2                !
 ! A25   A(7,8,21)             111.2971         estimate D2E/DX2                !
 ! A26   A(19,8,20)            107.6636         estimate D2E/DX2                !
 ! A27   A(19,8,21)            107.7066         estimate D2E/DX2                !
 ! A28   A(20,8,21)            107.6635         estimate D2E/DX2                !
 ! A29   A(1,9,10)             119.9094         estimate D2E/DX2                !
 ! A30   A(1,9,22)             120.1664         estimate D2E/DX2                !
 ! A31   A(10,9,22)            119.9243         estimate D2E/DX2                !
 ! A32   A(9,10,11)            120.569          estimate D2E/DX2                !
 ! A33   A(9,10,23)            118.6798         estimate D2E/DX2                !
 ! A34   A(11,10,23)           120.7512         estimate D2E/DX2                !
 ! A35   A(10,11,12)           119.5021         estimate D2E/DX2                !
 ! A36   A(10,11,24)           121.9648         estimate D2E/DX2                !
 ! A37   A(12,11,24)           118.533          estimate D2E/DX2                !
 ! A38   A(11,12,13)           120.1208         estimate D2E/DX2                !
 ! A39   A(11,12,25)           119.4485         estimate D2E/DX2                !
 ! A40   A(13,12,25)           120.4307         estimate D2E/DX2                !
 ! A41   A(1,13,12)            120.8002         estimate D2E/DX2                !
 ! A42   A(1,13,26)            119.8975         estimate D2E/DX2                !
 ! A43   A(12,13,26)           119.3024         estimate D2E/DX2                !
 ! A44   A(10,23,27)           111.7406         estimate D2E/DX2                !
 ! A45   A(10,23,28)           111.7765         estimate D2E/DX2                !
 ! A46   A(10,23,29)           111.7785         estimate D2E/DX2                !
 ! A47   A(27,23,28)           106.9632         estimate D2E/DX2                !
 ! A48   A(27,23,29)           106.9655         estimate D2E/DX2                !
 ! A49   A(28,23,29)           107.3199         estimate D2E/DX2                !
 ! D1    D(9,1,2,3)             -0.0255         estimate D2E/DX2                !
 ! D2    D(9,1,2,14)           179.9926         estimate D2E/DX2                !
 ! D3    D(13,1,2,3)           179.9762         estimate D2E/DX2                !
 ! D4    D(13,1,2,14)           -0.0058         estimate D2E/DX2                !
 ! D5    D(2,1,9,10)          -179.9999         estimate D2E/DX2                !
 ! D6    D(2,1,9,22)             0.0015         estimate D2E/DX2                !
 ! D7    D(13,1,9,10)           -0.0016         estimate D2E/DX2                !
 ! D8    D(13,1,9,22)          179.9998         estimate D2E/DX2                !
 ! D9    D(2,1,13,12)          179.999          estimate D2E/DX2                !
 ! D10   D(2,1,13,26)           -0.0015         estimate D2E/DX2                !
 ! D11   D(9,1,13,12)            0.0006         estimate D2E/DX2                !
 ! D12   D(9,1,13,26)         -179.9999         estimate D2E/DX2                !
 ! D13   D(1,2,3,4)              0.0112         estimate D2E/DX2                !
 ! D14   D(1,2,3,5)           -179.9893         estimate D2E/DX2                !
 ! D15   D(14,2,3,4)           179.9935         estimate D2E/DX2                !
 ! D16   D(14,2,3,5)            -0.007          estimate D2E/DX2                !
 ! D17   D(2,3,5,6)            179.9945         estimate D2E/DX2                !
 ! D18   D(4,3,5,6)             -0.0059         estimate D2E/DX2                !
 ! D19   D(3,5,6,7)            179.9999         estimate D2E/DX2                !
 ! D20   D(3,5,6,15)            58.645          estimate D2E/DX2                !
 ! D21   D(3,5,6,16)           -58.6454         estimate D2E/DX2                !
 ! D22   D(5,6,7,8)            179.9969         estimate D2E/DX2                !
 ! D23   D(5,6,7,17)            58.2274         estimate D2E/DX2                !
 ! D24   D(5,6,7,18)           -58.2332         estimate D2E/DX2                !
 ! D25   D(15,6,7,8)           -60.5296         estimate D2E/DX2                !
 ! D26   D(15,6,7,17)          177.7008         estimate D2E/DX2                !
 ! D27   D(15,6,7,18)           61.2402         estimate D2E/DX2                !
 ! D28   D(16,6,7,8)            60.5239         estimate D2E/DX2                !
 ! D29   D(16,6,7,17)          -61.2457         estimate D2E/DX2                !
 ! D30   D(16,6,7,18)         -177.7063         estimate D2E/DX2                !
 ! D31   D(6,7,8,19)           -60.077          estimate D2E/DX2                !
 ! D32   D(6,7,8,20)          -180.0            estimate D2E/DX2                !
 ! D33   D(6,7,8,21)            60.0768         estimate D2E/DX2                !
 ! D34   D(17,7,8,19)           60.866          estimate D2E/DX2                !
 ! D35   D(17,7,8,20)          -59.057          estimate D2E/DX2                !
 ! D36   D(17,7,8,21)         -178.9802         estimate D2E/DX2                !
 ! D37   D(18,7,8,19)          178.9803         estimate D2E/DX2                !
 ! D38   D(18,7,8,20)           59.0573         estimate D2E/DX2                !
 ! D39   D(18,7,8,21)          -60.8659         estimate D2E/DX2                !
 ! D40   D(1,9,10,11)            0.0018         estimate D2E/DX2                !
 ! D41   D(1,9,10,23)          179.9948         estimate D2E/DX2                !
 ! D42   D(22,9,10,11)        -179.9997         estimate D2E/DX2                !
 ! D43   D(22,9,10,23)          -0.0066         estimate D2E/DX2                !
 ! D44   D(9,10,11,12)          -0.0008         estimate D2E/DX2                !
 ! D45   D(9,10,11,24)         179.9978         estimate D2E/DX2                !
 ! D46   D(23,10,11,12)       -179.9938         estimate D2E/DX2                !
 ! D47   D(23,10,11,24)          0.0049         estimate D2E/DX2                !
 ! D48   D(9,10,23,27)           0.0095         estimate D2E/DX2                !
 ! D49   D(9,10,23,28)         119.8471         estimate D2E/DX2                !
 ! D50   D(9,10,23,29)        -119.8324         estimate D2E/DX2                !
 ! D51   D(11,10,23,27)       -179.9975         estimate D2E/DX2                !
 ! D52   D(11,10,23,28)        -60.1599         estimate D2E/DX2                !
 ! D53   D(11,10,23,29)         60.1607         estimate D2E/DX2                !
 ! D54   D(10,11,12,13)         -0.0002         estimate D2E/DX2                !
 ! D55   D(10,11,12,25)       -180.0            estimate D2E/DX2                !
 ! D56   D(24,11,12,13)       -179.9989         estimate D2E/DX2                !
 ! D57   D(24,11,12,25)          0.0013         estimate D2E/DX2                !
 ! D58   D(11,12,13,1)           0.0003         estimate D2E/DX2                !
 ! D59   D(11,12,13,26)       -179.9992         estimate D2E/DX2                !
 ! D60   D(25,12,13,1)        -179.9999         estimate D2E/DX2                !
 ! D61   D(25,12,13,26)          0.0006         estimate D2E/DX2                !
 --------------------------------------------------------------------------------
 Trust Radius=3.00D-01 FncErr=1.00D-07 GrdErr=1.00D-06
 Number of steps in this run=    149 maximum allowed number of steps=    174.
 GradGradGradGradGradGradGradGradGradGradGradGradGradGradGradGradGradGrad

                          Input orientation:                          
 ---------------------------------------------------------------------
 Center     Atomic      Atomic             Coordinates (Angstroms)
 Number     Number       Type             X           Y           Z
 ---------------------------------------------------------------------
      1          6           0       -6.188473    1.270851    0.009839
      2          7           0       -4.898584    0.725139    0.012011
      3          6           0       -3.705227    1.400663   -0.029199
      4          8           0       -3.560600    2.594398   -0.074715
      5          8           0       -2.699925    0.509093   -0.010673
      6          6           0       -1.378905    1.071169   -0.049646
      7          6           0       -0.390961   -0.074887   -0.021581
      8          6           0        1.044622    0.441891   -0.060576
      9          6           0       -6.441050    2.643199   -0.036404
     10          6           0       -7.752275    3.107546   -0.035338
     11          6           0       -8.820508    2.213960    0.011616
     12          6           0       -8.568906    0.849525    0.057605
     13          6           0       -7.265768    0.383126    0.056702
     14          1           0       -4.821990   -0.280454    0.047491
     15          1           0       -1.253415    1.736207    0.808245
     16          1           0       -1.278064    1.671730   -0.956928
     17          1           0       -0.583110   -0.731515   -0.874485
     18          1           0       -0.558523   -0.667295    0.882022
     19          1           0        1.233264    1.021522   -0.967438
     20          1           0        1.758209   -0.382670   -0.040423
     21          1           0        1.257961    1.085993    0.795916
     22          1           0       -5.621679    3.344437   -0.072987
     23          6           0       -7.993477    4.597047   -0.085857
     24         17           0      -10.471780    2.753870    0.014640
     25          1           0       -9.399589    0.155972    0.094069
     26          1           0       -7.084315   -0.686367    0.092951
     27          9           0       -6.846106    5.283722   -0.126475
     28          9           0       -8.698599    4.949823   -1.168717
     29          9           0       -8.668996    5.027804    0.987636
 ---------------------------------------------------------------------
                    Distance matrix (angstroms):
                    1          2          3          4          5
     1  C    0.000000
     2  N    1.400578   0.000000
     3  C    2.486943   1.371909   0.000000
     4  O    2.943577   2.300403   1.203325   0.000000
     5  O    3.570807   2.209365   1.343828   2.256847   0.000000
     6  C    4.814079   3.537186   2.349630   2.660948   1.436156
     7  C    5.951734   4.578191   3.627901   4.144214   2.381694
     8  C    7.280782   5.950395   4.845750   5.083458   3.745482
     9  C    1.396164   2.461808   3.004775   2.881118   4.307097
    10  C    2.412668   3.717749   4.392275   4.223152   5.681444
    11  C    2.795902   4.195006   5.179692   5.274355   6.353629
    12  C    2.417904   3.672712   4.895576   5.305207   5.879243
    13  C    1.396716   2.392181   3.704080   4.316858   4.568077
    14  H    2.067665   1.009129   2.019703   3.141785   2.264935
    15  H    5.020836   3.865683   2.612524   2.615188   2.066114
    16  H    5.020703   3.865624   2.612523   2.615260   2.066111
    17  H    6.017606   4.640154   3.874055   4.535060   2.601189
    18  H    6.017761   4.640250   3.874084   4.535025   2.601230
    19  H    7.489954   6.216650   5.041105   5.123673   4.080192
    20  H    8.117044   6.748547   5.747133   6.095394   4.546546
    21  H    7.490091   6.216733   5.041138   5.123652   4.080228
    22  H    2.151250   2.718606   2.730012   2.193311   4.071819
    23  C    3.785602   4.957783   5.348754   4.864271   6.688700
    24  Cl   4.532780   5.930958   6.900676   6.913597   8.089585
    25  H    3.400193   4.537590   5.830112   6.329945   6.709781
    26  H    2.154098   2.603136   3.973518   4.817478   4.545628
    27  F    4.068685   4.959103   4.995270   4.246139   6.324659
    28  F    4.607013   5.803636   6.231276   5.757074   7.552830
    29  F    4.606928   5.803514   6.231300   5.757236   7.552826
                    6          7          8          9         10
     6  C    0.000000
     7  C    1.513362   0.000000
     8  C    2.503915   1.526263   0.000000
     9  C    5.300638   6.632630   7.802668   0.000000
    10  C    6.690806   8.019788   9.191939   1.391018   0.000000
    11  C    7.529089   8.734826  10.023284   2.418341   1.393493
    12  C    7.194216   8.230406   9.622892   2.784578   2.402954
    13  C    5.927889   6.890492   8.311425   2.407645   2.769047
    14  H    3.700157   4.436333   5.911903   3.343073   4.480176
    15  H    1.092703   2.170829   2.776883   5.333631   6.695325
    16  H    1.092704   2.170828   2.776836   5.333624   6.695245
    17  H    2.136193   1.093402   2.165373   6.812234   8.175541
    18  H    2.136186   1.093400   2.165377   6.812268   8.175637
    19  H    2.769158   2.175974   1.092683   7.898846   9.271474
    20  H    3.457632   2.171179   1.090648   8.739779  10.130693
    21  H    2.769162   2.175979   1.092684   7.898887   9.271570
    22  H    4.813463   6.249387   7.270798   1.079093   2.144055
    23  C    7.495711   8.923528   9.947522   2.495996   1.509749
    24  Cl   9.247485  10.470247  11.746421   4.032572   2.742862
    25  H    8.074008   9.012327  10.449268   3.867334   3.382629
    26  H    5.971681   6.722203   8.208297   3.393601   3.854400
    27  F    6.902303   8.390148   9.258037   2.672928   2.359065
    28  F    8.359079   9.776527  10.792580   3.420406   2.360945
    29  F    8.359207   9.776596  10.792762   3.420343   2.360984
                   11         12         13         14         15
    11  C    0.000000
    12  C    1.388201   0.000000
    13  C    2.402332   1.384087   0.000000
    14  H    4.712911   3.913609   2.532286   0.000000
    15  H    7.623893   7.407163   6.208384   4.168980   0.000000
    16  H    7.623684   7.406867   6.208103   4.168848   1.766522
    17  H    8.792936   8.193986   6.838673   4.361376   3.061134
    18  H    8.793158   8.194306   6.838982   4.361564   2.503027
    19  H   10.171470   9.857121   8.584286   6.276252   3.138057
    20  H   10.892862  10.400828   9.056933   6.581580   3.778857
    21  H   10.171675   9.857400   8.584545   6.276394   2.594213
    22  H    3.393765   3.863650   3.389574   3.714008   4.737584
    23  C    2.524397   3.794156   4.278669   5.819461   7.376466
    24  Cl   1.737300   2.692454   3.987569   6.413137   9.308259
    25  H    2.139497   1.082764   2.146203   4.598591   8.328705
    26  H    3.381254   2.136404   1.085382   2.298900   6.354518
    27  F    3.652502   4.760676   4.921941   5.923459   6.688554
    28  F    2.982112   4.281721   4.940584   6.622919   8.346644
    29  F    2.982162   4.281705   4.940518   6.622759   8.115271
                   16         17         18         19         20
    16  H    0.000000
    17  H    2.503067   0.000000
    18  H    3.061129   1.757852   0.000000
    19  H    2.594157   2.526063   3.079465   0.000000
    20  H    3.778821   2.509806   2.509813   1.762577   0.000000
    21  H    3.137988   3.079467   2.526073   1.764705   1.762578
    22  H    4.737752   6.530158   6.530053   7.292889   8.267717
    23  C    7.376518   9.161279   9.161257   9.934502  10.949659
    24  Cl   9.308028  10.522558  10.522803  11.873229  12.625907
    25  H    8.328342   8.913811   8.914207  10.720706  11.171601
    26  H    6.354165   6.572947   6.573352   8.557069   8.848743
    27  F    6.688739   8.715946   8.715812   9.173320  10.302895
    28  F    8.115115   9.910869  10.100415  10.682415  11.792089
    29  F    8.346882  10.100436   9.910857  10.859437  11.792232
                   21         22         23         24         25
    21  H    0.000000
    22  H    7.292806   0.000000
    23  C    9.934492   2.682279   0.000000
    24  Cl  11.873459   4.886709   3.090207   0.000000
    25  H   10.721049   4.946394   4.661830   2.811579   0.000000
    26  H    8.557393   4.291179   5.364047   4.828694   2.463743
    27  F    9.173202   2.294102   1.337772   4.423299   5.732602
    28  F   10.859192   3.639412   1.339489   3.060508   5.006697
    29  F   10.682654   3.639338   1.339502   3.060642   5.006693
                   26         27         28         29
    26  H    0.000000
    27  F    5.978867   0.000000
    28  F    5.997029   2.151624   0.000000
    29  F    5.996951   2.151666   2.157966   0.000000
 Stoichiometry    C11H11ClF3NO2
 Framework group  C1[X(C11H11ClF3NO2)]
 Deg. of freedom    81
 Full point group                 C1      NOp   1
 Largest Abelian subgroup         C1      NOp   1
 Largest concise Abelian subgroup C1      NOp   1
                         Standard orientation:                         
 ---------------------------------------------------------------------
 Center     Atomic      Atomic             Coordinates (Angstroms)
 Number     Number       Type             X           Y           Z
 ---------------------------------------------------------------------
      1          6           0        0.081672   -1.039998    0.000240
      2          7           0        1.480199   -1.115770    0.000443
      3          6           0        2.373606   -0.074637    0.000150
      4          8           0        2.104673    1.098250   -0.000149
      5          8           0        3.621759   -0.572620    0.000261
      6          6           0        4.673746    0.405064   -0.000142
      7          6           0        5.991907   -0.338386    0.000053
      8          6           0        7.167030    0.635555   -0.000432
      9          6           0       -0.621505    0.166159    0.000203
     10          6           0       -2.012500    0.158090   -0.000003
     11          6           0       -2.714224   -1.045823   -0.000136
     12          6           0       -2.014649   -2.244863   -0.000079
     13          6           0       -0.630566   -2.241469    0.000103
     14          1           0        1.893404   -2.036423    0.000570
     15          1           0        4.565565    1.039524    0.882896
     16          1           0        4.565472    1.038890   -0.883626
     17          1           0        6.034525   -0.987733   -0.878616
     18          1           0        6.034655   -0.987026    0.879236
     19          1           0        7.148450    1.279456   -0.883043
     20          1           0        8.118036    0.101605   -0.000292
     21          1           0        7.148593    1.280171    0.881662
     22          1           0       -0.088629    1.104500    0.000309
     23          6           0       -2.744721    1.478390    0.000081
     24         17           0       -4.450734   -1.098216   -0.000337
     25          1           0       -2.560774   -3.179810   -0.000183
     26          1           0       -0.097041   -3.186671    0.000132
     27          9           0       -1.898356    2.514392    0.000150
     28          9           0       -3.526963    1.612875   -1.078921
     29          9           0       -3.527059    1.612741    1.079045
 ---------------------------------------------------------------------
 Rotational constants (GHZ):      0.8918187      0.1427209      0.1260346
 Standard basis: 6-311+G(d) (5D, 7F)
 There are   455 symmetry adapted cartesian basis functions of A   symmetry.
 There are   437 symmetry adapted basis functions of A   symmetry.
   437 basis functions,   720 primitive gaussians,   455 cartesian basis functions
    72 alpha electrons       72 beta electrons
       nuclear repulsion energy      1451.4999797043 Hartrees.
 NAtoms=   29 NActive=   29 NUniq=   29 SFac= 1.00D+00 NAtFMM=   60 NAOKFM=F Big=F
 Integral buffers will be    131072 words long.
 Raffenetti 2 integral format.
 Two-electron integral symmetry is turned on.
 Nuclear repulsion after empirical dispersion term =     1451.4987089302 Hartrees.
 One-electron integrals computed using PRISM.
 NBasis=   437 RedAO= T EigKep=  1.00D-06  NBF=   437
 NBsUse=   436 1.00D-06 EigRej=  2.31D-07 NBFU=   436
 ExpMin= 4.38D-02 ExpMax= 1.06D+05 ExpMxC= 3.62D+03 IAcc=3 IRadAn=         5 AccDes= 0.00D+00
 Harris functional with IExCor= 1009 and IRadAn=       5 diagonalized for initial guess.
 HarFok:  IExCor= 1009 AccDes= 0.00D+00 IRadAn=         5 IDoV= 1 UseB2=F ITyADJ=14
 ICtDFT=  3500011 ScaDFX=  1.000000  1.000000  1.000000  1.000000
 FoFCou: FMM=F IPFlag=           0 FMFlag=      100000 FMFlg1=           0
         NFxFlg=           0 DoJE=T BraDBF=F KetDBF=T FulRan=T
         wScrn=  0.000000 ICntrl=     500 IOpCl=  0 I1Cent=   200000004 NGrid=           0
         NMat0=    1 NMatS0=      1 NMatT0=    0 NMatD0=    1 NMtDS0=    0 NMtDT0=    0
 Petite list used in FoFCou.
 Requested convergence on RMS density matrix=1.00D-08 within 128 cycles.
 Requested convergence on MAX density matrix=1.00D-06.
 Requested convergence on             energy=1.00D-06.
 No special actions if energy rises.
 SCF Done:  E(RM062X) =  -1390.67063102     A.U. after   17 cycles
            NFock= 17  Conv=0.24D-08     -V/T= 2.0028

 **********************************************************************

            Population analysis using the SCF density.

 **********************************************************************

 Orbital symmetries:
       Occupied  (A) (A) (A) (A) (A) (A) (A) (A) (A) (A) (A) (A)
                 (A) (A) (A) (A) (A) (A) (A) (A) (A) (A) (A) (A)
                 (A) (A) (A) (A) (A) (A) (A) (A) (A) (A) (A) (A)
                 (A) (A) (A) (A) (A) (A) (A) (A) (A) (A) (A) (A)
                 (A) (A) (A) (A) (A) (A) (A) (A) (A) (A) (A) (A)
                 (A) (A) (A) (A) (A) (A) (A) (A) (A) (A) (A) (A)
       Virtual   (A) (A) (A) (A) (A) (A) (A) (A) (A) (A) (A) (A)
                 (A) (A) (A) (A) (A) (A) (A) (A) (A) (A) (A) (A)
                 (A) (A) (A) (A) (A) (A) (A) (A) (A) (A) (A) (A)
                 (A) (A) (A) (A) (A) (A) (A) (A) (A) (A) (A) (A)
                 (A) (A) (A) (A) (A) (A) (A) (A) (A) (A) (A) (A)
                 (A) (A) (A) (A) (A) (A) (A) (A) (A) (A) (A) (A)
                 (A) (A) (A) (A) (A) (A) (A) (A) (A) (A) (A) (A)
                 (A) (A) (A) (A) (A) (A) (A) (A) (A) (A) (A) (A)
                 (A) (A) (A) (A) (A) (A) (A) (A) (A) (A) (A) (A)
                 (A) (A) (A) (A) (A) (A) (A) (A) (A) (A) (A) (A)
                 (A) (A) (A) (A) (A) (A) (A) (A) (A) (A) (A) (A)
                 (A) (A) (A) (A) (A) (A) (A) (A) (A) (A) (A) (A)
                 (A) (A) (A) (A) (A) (A) (A) (A) (A) (A) (A) (A)
                 (A) (A) (A) (A) (A) (A) (A) (A) (A) (A) (A) (A)
                 (A) (A) (A) (A) (A) (A) (A) (A) (A) (A) (A) (A)
                 (A) (A) (A) (A) (A) (A) (A) (A) (A) (A) (A) (A)
                 (A) (A) (A) (A) (A) (A) (A) (A) (A) (A) (A) (A)
                 (A) (A) (A) (A) (A) (A) (A) (A) (A) (A) (A) (A)
                 (A) (A) (A) (A) (A) (A) (A) (A) (A) (A) (A) (A)
                 (A) (A) (A) (A) (A) (A) (A) (A) (A) (A) (A) (A)
                 (A) (A) (A) (A) (A) (A) (A) (A) (A) (A) (A) (A)
                 (A) (A) (A) (A) (A) (A) (A) (A) (A) (A) (A) (A)
                 (A) (A) (A) (A) (A) (A) (A) (A) (A) (A) (A) (A)
                 (A) (A) (A) (A) (A) (A) (A) (A) (A) (A) (A) (A)
                 (A) (A) (A) (A) (A) (A) (A) (A) (A) (A) (A) (A)
                 (A) (A) (A) (A) (A) (A) (A) (A) (A) (A) (A) (A)
                 (A) (A) (A) (A) (A) (A) (A) (A) (A) (A) (A) (A)
                 (A) (A) (A) (A) (A) (A) (A) (A) (A) (A) (A) (A)
                 (A) (A) (A) (A) (A) (A) (A) (A) (A) (A) (A) (A)
                 (A) (A) (A) (A) (A) (A) (A) (A) (A) (A) (A) (A)
                 (A) (A) (A) (A)
 The electronic state is 1-A.
 Alpha  occ. eigenvalues -- -102.68617 -25.27753 -25.27324 -25.27323 -19.68318
 Alpha  occ. eigenvalues --  -19.62232 -14.81210 -10.80572 -10.71842 -10.62778
 Alpha  occ. eigenvalues --  -10.62485 -10.60677 -10.59361 -10.57975 -10.57878
 Alpha  occ. eigenvalues --  -10.57284 -10.55109 -10.54070  -9.82894  -7.55419
 Alpha  occ. eigenvalues --   -7.54720  -7.54710  -1.47078  -1.37645  -1.37334
 Alpha  occ. eigenvalues --   -1.26376  -1.16462  -1.08758  -1.02094  -0.95698
 Alpha  occ. eigenvalues --   -0.91416  -0.90584  -0.86018  -0.82102  -0.80244
 Alpha  occ. eigenvalues --   -0.75252  -0.73554  -0.70718  -0.69372  -0.69340
 Alpha  occ. eigenvalues --   -0.68765  -0.67407  -0.64723  -0.60636  -0.60351
 Alpha  occ. eigenvalues --   -0.58584  -0.57787  -0.57484  -0.56406  -0.55018
 Alpha  occ. eigenvalues --   -0.54944  -0.53861  -0.53341  -0.52127  -0.51920
 Alpha  occ. eigenvalues --   -0.51108  -0.50216  -0.49709  -0.48012  -0.47213
 Alpha  occ. eigenvalues --   -0.46195  -0.44983  -0.44648  -0.44035  -0.41977
 Alpha  occ. eigenvalues --   -0.41745  -0.39157  -0.38864  -0.38262  -0.37904
 Alpha  occ. eigenvalues --   -0.34550  -0.29234
 Alpha virt. eigenvalues --   -0.01910  -0.00712  -0.00671   0.01101   0.01929
 Alpha virt. eigenvalues --    0.02323   0.02928   0.02961   0.04239   0.04460
 Alpha virt. eigenvalues --    0.04827   0.05222   0.06322   0.06440   0.06512
 Alpha virt. eigenvalues --    0.06965   0.07078   0.07941   0.07963   0.08199
 Alpha virt. eigenvalues --    0.08334   0.08615   0.09286   0.10140   0.11242
 Alpha virt. eigenvalues --    0.11416   0.11620   0.12486   0.12823   0.13185
 Alpha virt. eigenvalues --    0.13610   0.14110   0.14381   0.14577   0.15587
 Alpha virt. eigenvalues --    0.16222   0.17213   0.17468   0.17824   0.17961
 Alpha virt. eigenvalues --    0.18385   0.19153   0.19402   0.19515   0.19848
 Alpha virt. eigenvalues --    0.20358   0.21079   0.21112   0.21219   0.21752
 Alpha virt. eigenvalues --    0.22188   0.22479   0.22842   0.22970   0.23825
 Alpha virt. eigenvalues --    0.24132   0.24729   0.25047   0.25355   0.25634
 Alpha virt. eigenvalues --    0.26012   0.26455   0.26941   0.27385   0.27578
 Alpha virt. eigenvalues --    0.27949   0.28668   0.29024   0.29926   0.30088
 Alpha virt. eigenvalues --    0.30727   0.30992   0.31028   0.31121   0.31486
 Alpha virt. eigenvalues --    0.32375   0.32777   0.33665   0.33960   0.34327
 Alpha virt. eigenvalues --    0.35066   0.36123   0.36472   0.36912   0.38402
 Alpha virt. eigenvalues --    0.38485   0.39534   0.40195   0.40850   0.41286
 Alpha virt. eigenvalues --    0.41807   0.42586   0.42807   0.43947   0.44259
 Alpha virt. eigenvalues --    0.45139   0.45472   0.46084   0.47705   0.48270
 Alpha virt. eigenvalues --    0.48549   0.49114   0.50804   0.50932   0.51483
 Alpha virt. eigenvalues --    0.52486   0.53157   0.54966   0.55311   0.55774
 Alpha virt. eigenvalues --    0.57099   0.57822   0.59326   0.59994   0.61450
 Alpha virt. eigenvalues --    0.61562   0.62710   0.62942   0.63354   0.63778
 Alpha virt. eigenvalues --    0.65217   0.65611   0.66591   0.66845   0.67937
 Alpha virt. eigenvalues --    0.68781   0.69111   0.69494   0.69891   0.71443
 Alpha virt. eigenvalues --    0.72014   0.72393   0.72730   0.73812   0.74785
 Alpha virt. eigenvalues --    0.75656   0.75977   0.76575   0.77431   0.78065
 Alpha virt. eigenvalues --    0.79399   0.80341   0.82840   0.83852   0.85799
 Alpha virt. eigenvalues --    0.87345   0.89352   0.90790   0.91102   0.91946
 Alpha virt. eigenvalues --    0.93082   0.94373   0.94879   0.95585   0.96326
 Alpha virt. eigenvalues --    0.96797   0.99687   1.00910   1.01191   1.03057
 Alpha virt. eigenvalues --    1.04005   1.04147   1.04186   1.07114   1.08398
 Alpha virt. eigenvalues --    1.09837   1.11155   1.11678   1.12524   1.13809
 Alpha virt. eigenvalues --    1.14890   1.18791   1.19523   1.21099   1.21454
 Alpha virt. eigenvalues --    1.22052   1.24198   1.25518   1.26356   1.30673
 Alpha virt. eigenvalues --    1.31230   1.33003   1.33747   1.35779   1.38854
 Alpha virt. eigenvalues --    1.39087   1.40367   1.43272   1.44553   1.46576
 Alpha virt. eigenvalues --    1.48552   1.48958   1.50119   1.50647   1.51134
 Alpha virt. eigenvalues --    1.52658   1.53371   1.53862   1.55717   1.57146
 Alpha virt. eigenvalues --    1.58001   1.58701   1.59438   1.60113   1.60406
 Alpha virt. eigenvalues --    1.61915   1.63190   1.63892   1.66249   1.67779
 Alpha virt. eigenvalues --    1.70688   1.72674   1.74136   1.76714   1.77540
 Alpha virt. eigenvalues --    1.78404   1.79629   1.79789   1.82928   1.83236
 Alpha virt. eigenvalues --    1.85199   1.85922   1.87164   1.87999   1.89420
 Alpha virt. eigenvalues --    1.89775   1.95272   1.95893   1.98098   1.98384
 Alpha virt. eigenvalues --    1.99160   2.03293   2.04076   2.07317   2.08100
 Alpha virt. eigenvalues --    2.09631   2.11790   2.17008   2.18359   2.20007
 Alpha virt. eigenvalues --    2.25175   2.27768   2.31195   2.31877   2.34405
 Alpha virt. eigenvalues --    2.35362   2.35543   2.40815   2.42731   2.48447
 Alpha virt. eigenvalues --    2.49749   2.51005   2.53847   2.54511   2.55414
 Alpha virt. eigenvalues --    2.57220   2.58978   2.60607   2.61623   2.64553
 Alpha virt. eigenvalues --    2.69232   2.69714   2.73008   2.74220   2.79732
 Alpha virt. eigenvalues --    2.80924   2.85188   2.85266   2.91273   2.92248
 Alpha virt. eigenvalues --    2.93534   2.95657   3.00966   3.02163   3.02452
 Alpha virt. eigenvalues --    3.03924   3.05283   3.06166   3.10192   3.11359
 Alpha virt. eigenvalues --    3.11887   3.17407   3.17861   3.20355   3.22761
 Alpha virt. eigenvalues --    3.24441   3.28043   3.28634   3.29030   3.34220
 Alpha virt. eigenvalues --    3.37943   3.39230   3.41621   3.44219   3.44294
 Alpha virt. eigenvalues --    3.52938   3.54923   3.66955   3.70860   3.72737
 Alpha virt. eigenvalues --    3.77235   3.80747   3.81529   3.84518   3.84878
 Alpha virt. eigenvalues --    3.87049   3.87541   3.89043   3.90613   3.96546
 Alpha virt. eigenvalues --    3.96588   4.00720   4.01685   4.03290   4.07785
 Alpha virt. eigenvalues --    4.09962   4.11164   4.18226   4.23613   4.28684
 Alpha virt. eigenvalues --    4.32978   4.55752   4.76646   4.80886   4.99154
 Alpha virt. eigenvalues --    5.03436   5.08158   5.09710   5.15756   5.37378
 Alpha virt. eigenvalues --    5.49903   5.80025   5.96538   6.45391   6.49169
 Alpha virt. eigenvalues --    6.50260   6.54013   6.56780   6.58467   6.63955
 Alpha virt. eigenvalues --    6.88567   6.92436  10.00272  23.43950  23.56368
 Alpha virt. eigenvalues --   23.66071  23.71284  23.80666  23.92735  23.93397
 Alpha virt. eigenvalues --   23.94931  24.07523  24.12088  24.19010  25.95869
 Alpha virt. eigenvalues --   26.31550  26.81761  35.65243  50.01447  50.13566
 Alpha virt. eigenvalues --   66.89130  66.92485  66.97746 216.11195
          Condensed to atoms (all electrons):
               1          2          3          4          5          6
     1  C   28.365478  -0.090877  -1.310004  -0.323636  -0.406780  -0.906208
     2  N   -0.090877   7.665250   0.133970   0.019550  -0.231305  -0.426259
     3  C   -1.310004   0.133970   9.553689   0.541648   0.384900  -0.738702
     4  O   -0.323636   0.019550   0.541648   8.022980  -0.199430  -0.176144
     5  O   -0.406780  -0.231305   0.384900  -0.199430   8.344524   0.419211
     6  C   -0.906208  -0.426259  -0.738702  -0.176144   0.419211   8.814401
     7  C    0.035299   0.045508   0.204681   0.031414  -0.188344  -1.080807
     8  C   -0.020911  -0.009197  -0.269598   0.000776   0.032820   0.363327
     9  C   -3.113366   0.054977   1.418882   0.442390   0.107970   0.008474
    10  C   -6.586607   0.117693   0.283946   0.047829   0.035398   0.032111
    11  C   -5.982236  -0.023227  -1.193831  -0.024729  -0.023619  -0.125730
    12  C    3.211981   0.139124   1.266446  -0.002632   0.017553   0.090773
    13  C   -3.238328  -0.162354  -4.468011  -0.094102  -0.183764  -0.602612
    14  H   -0.020232   0.246054   0.068833  -0.000673   0.026953   0.015887
    15  H    0.005140   0.005573   0.041201  -0.002571  -0.044557   0.354187
    16  H    0.005190   0.005575   0.041200  -0.002571  -0.044562   0.354194
    17  H   -0.000507  -0.000793   0.006550  -0.000339   0.000911  -0.063244
    18  H   -0.000498  -0.000790   0.006570  -0.000339   0.000909  -0.063225
    19  H   -0.000076  -0.000041  -0.000238  -0.000087  -0.000426  -0.048735
    20  H    0.000133   0.000050   0.007956   0.000032  -0.000619   0.088750
    21  H   -0.000077  -0.000041  -0.000256  -0.000087  -0.000425  -0.048744
    22  H   -0.029218  -0.023499   0.115756   0.008999   0.003398   0.013421
    23  C   -3.197579   0.047626  -0.017061  -0.008872   0.004110  -0.004041
    24  Cl  -0.036284  -0.002548  -0.078317   0.000536  -0.000117  -0.002427
    25  H   -0.058918  -0.003003   0.000180  -0.000008  -0.000016   0.000004
    26  H    0.257996  -0.023330   0.020357   0.000057  -0.000602   0.000946
    27  F    0.271674  -0.001359   0.008597   0.000087  -0.000020   0.000182
    28  F    0.008439   0.000582   0.003014  -0.000020  -0.000000   0.000018
    29  F    0.008278   0.000583   0.003005  -0.000020  -0.000000   0.000018
               7          8          9         10         11         12
     1  C    0.035299  -0.020911  -3.113366  -6.586607  -5.982236   3.211981
     2  N    0.045508  -0.009197   0.054977   0.117693  -0.023227   0.139124
     3  C    0.204681  -0.269598   1.418882   0.283946  -1.193831   1.266446
     4  O    0.031414   0.000776   0.442390   0.047829  -0.024729  -0.002632
     5  O   -0.188344   0.032820   0.107970   0.035398  -0.023619   0.017553
     6  C   -1.080807   0.363327   0.008474   0.032111  -0.125730   0.090773
     7  C    6.531730  -0.155231  -0.037798  -0.013583   0.004071  -0.002489
     8  C   -0.155231   6.072109  -0.009454  -0.000189  -0.000790   0.000529
     9  C   -0.037798  -0.009454  18.261697   4.985204  -9.519314   1.276280
    10  C   -0.013583  -0.000189   4.985204  37.042327 -13.346681 -10.556642
    11  C    0.004071  -0.000790  -9.519314 -13.346681  45.111178  -9.238988
    12  C   -0.002489   0.000529   1.276280 -10.556642  -9.238988  26.482476
    13  C    0.052814  -0.006175  -8.742398  -2.830653   3.211617  -5.563634
    14  H   -0.003137  -0.000278   0.101239   0.023961  -0.021674   0.037382
    15  H   -0.024537  -0.014410   0.001069   0.000448   0.000224  -0.000104
    16  H   -0.024595  -0.014389   0.001048   0.000446   0.000224  -0.000104
    17  H    0.441608  -0.044806   0.000709   0.000044   0.000008  -0.000020
    18  H    0.441539  -0.044786   0.000710   0.000044   0.000008  -0.000021
    19  H    0.014762   0.379038   0.000013  -0.000002   0.000000  -0.000000
    20  H   -0.133952   0.390173   0.000024  -0.000000   0.000000  -0.000000
    21  H    0.014791   0.379037   0.000013  -0.000002   0.000000  -0.000000
    22  H   -0.000735   0.000080   0.341907  -0.070427  -0.023627   0.006478
    23  C   -0.001980  -0.000107   0.042927  -3.143027  -1.735949  -0.691029
    24  Cl   0.000014  -0.000007  -0.032375   0.779987  -1.673303  -0.322599
    25  H    0.000001  -0.000000  -0.015324   0.126314   0.220465   0.042196
    26  H   -0.000017   0.000008   0.024351  -0.030125  -0.115140   0.117654
    27  F    0.000024  -0.000000   0.221436  -0.379022  -0.200934  -0.002394
    28  F   -0.000001   0.000000  -0.000899   0.181193  -0.158831   0.107050
    29  F   -0.000001   0.000000  -0.001173   0.181096  -0.158420   0.106984
              13         14         15         16         17         18
     1  C   -3.238328  -0.020232   0.005140   0.005190  -0.000507  -0.000498
     2  N   -0.162354   0.246054   0.005573   0.005575  -0.000793  -0.000790
     3  C   -4.468011   0.068833   0.041201   0.041200   0.006550   0.006570
     4  O   -0.094102  -0.000673  -0.002571  -0.002571  -0.000339  -0.000339
     5  O   -0.183764   0.026953  -0.044557  -0.044562   0.000911   0.000909
     6  C   -0.602612   0.015887   0.354187   0.354194  -0.063244  -0.063225
     7  C    0.052814  -0.003137  -0.024537  -0.024595   0.441608   0.441539
     8  C   -0.006175  -0.000278  -0.014410  -0.014389  -0.044806  -0.044786
     9  C   -8.742398   0.101239   0.001069   0.001048   0.000709   0.000710
    10  C   -2.830653   0.023961   0.000448   0.000446   0.000044   0.000044
    11  C    3.211617  -0.021674   0.000224   0.000224   0.000008   0.000008
    12  C   -5.563634   0.037382  -0.000104  -0.000104  -0.000020  -0.000021
    13  C   28.225767  -0.219657   0.000126   0.000133  -0.000261  -0.000261
    14  H   -0.219657   0.332881  -0.000009  -0.000010   0.000003   0.000004
    15  H    0.000126  -0.000009   0.449293  -0.040464   0.005491  -0.007890
    16  H    0.000133  -0.000010  -0.040464   0.449295  -0.007889   0.005491
    17  H   -0.000261   0.000003   0.005491  -0.007889   0.446515  -0.037125
    18  H   -0.000261   0.000004  -0.007890   0.005491  -0.037125   0.446513
    19  H    0.000010  -0.000000  -0.000531   0.003794  -0.008120   0.006167
    20  H    0.000005  -0.000000  -0.000200  -0.000200  -0.003312  -0.003311
    21  H    0.000010  -0.000000   0.003794  -0.000532   0.006167  -0.008120
    22  H   -0.067029   0.000331  -0.000046  -0.000046  -0.000000  -0.000000
    23  C    0.729297   0.002560  -0.000043  -0.000043  -0.000000  -0.000000
    24  Cl   0.587968  -0.000096   0.000000   0.000000   0.000000   0.000000
    25  H    0.006483  -0.000014   0.000000   0.000000  -0.000000  -0.000000
    26  H    0.062788   0.008704  -0.000000  -0.000000  -0.000000  -0.000000
    27  F   -0.003274  -0.000010   0.000001   0.000001   0.000000   0.000000
    28  F   -0.030406   0.000002  -0.000000   0.000000  -0.000000  -0.000000
    29  F   -0.030316   0.000002   0.000000  -0.000000  -0.000000  -0.000000
              19         20         21         22         23         24
     1  C   -0.000076   0.000133  -0.000077  -0.029218  -3.197579  -0.036284
     2  N   -0.000041   0.000050  -0.000041  -0.023499   0.047626  -0.002548
     3  C   -0.000238   0.007956  -0.000256   0.115756  -0.017061  -0.078317
     4  O   -0.000087   0.000032  -0.000087   0.008999  -0.008872   0.000536
     5  O   -0.000426  -0.000619  -0.000425   0.003398   0.004110  -0.000117
     6  C   -0.048735   0.088750  -0.048744   0.013421  -0.004041  -0.002427
     7  C    0.014762  -0.133952   0.014791  -0.000735  -0.001980   0.000014
     8  C    0.379038   0.390173   0.379037   0.000080  -0.000107  -0.000007
     9  C    0.000013   0.000024   0.000013   0.341907   0.042927  -0.032375
    10  C   -0.000002  -0.000000  -0.000002  -0.070427  -3.143027   0.779987
    11  C    0.000000   0.000000   0.000000  -0.023627  -1.735949  -1.673303
    12  C   -0.000000  -0.000000  -0.000000   0.006478  -0.691029  -0.322599
    13  C    0.000010   0.000005   0.000010  -0.067029   0.729297   0.587968
    14  H   -0.000000  -0.000000  -0.000000   0.000331   0.002560  -0.000096
    15  H   -0.000531  -0.000200   0.003794  -0.000046  -0.000043   0.000000
    16  H    0.003794  -0.000200  -0.000532  -0.000046  -0.000043   0.000000
    17  H   -0.008120  -0.003312   0.006167  -0.000000  -0.000000   0.000000
    18  H    0.006167  -0.003311  -0.008120  -0.000000  -0.000000   0.000000
    19  H    0.457049  -0.024977  -0.037637  -0.000000  -0.000000  -0.000000
    20  H   -0.024977   0.430487  -0.024977   0.000000   0.000000   0.000000
    21  H   -0.037637  -0.024977   0.457050  -0.000000  -0.000000  -0.000000
    22  H   -0.000000   0.000000  -0.000000   0.331754   0.040483  -0.002397
    23  C   -0.000000   0.000000  -0.000000   0.040483  13.354889  -0.385280
    24  Cl  -0.000000   0.000000  -0.000000  -0.002397  -0.385280  17.765912
    25  H    0.000000  -0.000000   0.000000   0.000043   0.019624  -0.020343
    26  H   -0.000000   0.000000  -0.000000  -0.000028   0.002071   0.000154
    27  F    0.000000  -0.000000   0.000000   0.014762   0.218640   0.011577
    28  F   -0.000000   0.000000  -0.000000   0.000467   0.053279  -0.017304
    29  F   -0.000000   0.000000  -0.000000   0.000466   0.053414  -0.017314
              25         26         27         28         29
     1  C   -0.058918   0.257996   0.271674   0.008439   0.008278
     2  N   -0.003003  -0.023330  -0.001359   0.000582   0.000583
     3  C    0.000180   0.020357   0.008597   0.003014   0.003005
     4  O   -0.000008   0.000057   0.000087  -0.000020  -0.000020
     5  O   -0.000016  -0.000602  -0.000020  -0.000000  -0.000000
     6  C    0.000004   0.000946   0.000182   0.000018   0.000018
     7  C    0.000001  -0.000017   0.000024  -0.000001  -0.000001
     8  C   -0.000000   0.000008  -0.000000   0.000000   0.000000
     9  C   -0.015324   0.024351   0.221436  -0.000899  -0.001173
    10  C    0.126314  -0.030125  -0.379022   0.181193   0.181096
    11  C    0.220465  -0.115140  -0.200934  -0.158831  -0.158420
    12  C    0.042196   0.117654  -0.002394   0.107050   0.106984
    13  C    0.006483   0.062788  -0.003274  -0.030406  -0.030316
    14  H   -0.000014   0.008704  -0.000010   0.000002   0.000002
    15  H    0.000000  -0.000000   0.000001  -0.000000   0.000000
    16  H    0.000000  -0.000000   0.000001   0.000000  -0.000000
    17  H   -0.000000  -0.000000   0.000000  -0.000000  -0.000000
    18  H   -0.000000  -0.000000   0.000000  -0.000000  -0.000000
    19  H    0.000000  -0.000000   0.000000  -0.000000  -0.000000
    20  H   -0.000000   0.000000  -0.000000   0.000000   0.000000
    21  H    0.000000  -0.000000   0.000000  -0.000000  -0.000000
    22  H    0.000043  -0.000028   0.014762   0.000467   0.000466
    23  C    0.019624   0.002071   0.218640   0.053279   0.053414
    24  Cl  -0.020343   0.000154   0.011577  -0.017304  -0.017314
    25  H    0.407616  -0.004891   0.000031  -0.000017  -0.000017
    26  H   -0.004891   0.437535  -0.000008   0.000003   0.000003
    27  F    0.000031  -0.000008   9.034782  -0.036359  -0.036373
    28  F   -0.000017   0.000003  -0.036359   8.969916  -0.048659
    29  F   -0.000017   0.000003  -0.036373  -0.048659   8.969914
 Mulliken charges:
               1
     1  C   -0.847266
     2  N   -0.483491
     3  C   -0.035362
     4  O   -0.280037
     5  O   -0.054071
     6  C   -0.269029
     7  C   -0.151050
     8  C   -1.027568
     9  C    0.180781
    10  C   -0.881078
    11  C    1.019229
    12  C   -0.522249
    13  C   -0.633782
    14  H    0.400996
    15  H    0.268818
    16  H    0.268815
    17  H    0.258412
    18  H    0.258416
    19  H    0.260040
    20  H    0.273942
    21  H    0.260039
    22  H    0.338707
    23  C    0.616092
    24  Cl   0.444564
    25  H    0.279592
    26  H    0.241516
    27  F   -0.122039
    28  F   -0.031468
    29  F   -0.031469
 Sum of Mulliken charges =  -0.00000
 Mulliken charges with hydrogens summed into heavy atoms:
               1
     1  C   -0.847266
     2  N   -0.082495
     3  C   -0.035362
     4  O   -0.280037
     5  O   -0.054071
     6  C    0.268604
     7  C    0.365778
     8  C   -0.233548
     9  C    0.519487
    10  C   -0.881078
    11  C    1.019229
    12  C   -0.242656
    13  C   -0.392266
    23  C    0.616092
    24  Cl   0.444564
    27  F   -0.122039
    28  F   -0.031468
    29  F   -0.031469
 Electronic spatial extent (au):  <R**2>=           7981.6880
 Charge=             -0.0000 electrons
 Dipole moment (field-independent basis, Debye):
    X=              5.0526    Y=             -4.3250    Z=              0.0003  Tot=              6.6509
 Quadrupole moment (field-independent basis, Debye-Ang):
   XX=           -103.5195   YY=           -106.7619   ZZ=           -113.2981
   XY=              2.8614   XZ=             -0.0002   YZ=              0.0005
 Traceless Quadrupole moment (field-independent basis, Debye-Ang):
   XX=              4.3404   YY=              1.0979   ZZ=             -5.4383
   XY=              2.8614   XZ=             -0.0002   YZ=              0.0005
 Octapole moment (field-independent basis, Debye-Ang**2):
  XXX=            104.0425  YYY=             -5.6181  ZZZ=             -0.0005  XYY=            -13.1671
  XXY=              2.2313  XXZ=             -0.0050  XZZ=             -2.6149  YZZ=             16.0567
  YYZ=              0.0037  XYZ=              0.0013
 Hexadecapole moment (field-independent basis, Debye-Ang**3):
 XXXX=          -8172.2201 YYYY=          -1176.9708 ZZZZ=           -203.4228 XXXY=            -24.9996
 XXXZ=              0.0005 YYYX=            -78.8016 YYYZ=              0.0026 ZZZX=             -0.0022
 ZZZY=              0.0009 XXYY=          -1681.2785 XXZZ=          -1501.6474 YYZZ=           -255.1171
 XXYZ=              0.0143 YYXZ=              0.0138 ZZXY=            -25.6900
 N-N= 1.451498708930D+03 E-N=-6.181880689077D+03  KE= 1.386774033550D+03
 Calling FoFJK, ICntrl=      2127 FMM=F ISym2X=0 I1Cent= 0 IOpClX= 0 NMat=1 NMatS=1 NMatT=0.
 ***** Axes restored to original set *****
 -------------------------------------------------------------------
 Center     Atomic                   Forces (Hartrees/Bohr)
 Number     Number              X              Y              Z
 -------------------------------------------------------------------
      1        6          -0.000001362    0.000000142   -0.000000436
      2        7           0.000010668   -0.000003600   -0.000001508
      3        6           0.000000794    0.000005841    0.000001127
      4        8          -0.000001166   -0.000009199   -0.000000400
      5        8          -0.000012483    0.000009249   -0.000001599
      6        6          -0.000000065   -0.000001083    0.000000987
      7        6          -0.000003107   -0.000002110   -0.000000515
      8        6           0.000002098    0.000002025    0.000000948
      9        6          -0.000002552   -0.000004385   -0.000001954
     10        6           0.000004615   -0.000000251    0.000011505
     11        6          -0.000001605   -0.000000204    0.000000551
     12        6          -0.000000382    0.000003845   -0.000000940
     13        6           0.000003732    0.000001681   -0.000000430
     14        1          -0.000000451    0.000002264    0.000000423
     15        1           0.000000486   -0.000001161   -0.000001754
     16        1           0.000000246   -0.000000884    0.000001541
     17        1           0.000000591    0.000002438    0.000000913
     18        1           0.000001256    0.000001074   -0.000000291
     19        1          -0.000000090   -0.000000233    0.000000775
     20        1          -0.000001090    0.000001674    0.000000060
     21        1          -0.000000455   -0.000000837   -0.000001518
     22        1          -0.000000637   -0.000000463    0.000000654
     23        6           0.000007603    0.000006426   -0.000006717
     24       17          -0.000005048   -0.000011796    0.000000686
     25        1           0.000000292   -0.000000400   -0.000000072
     26        1          -0.000000004   -0.000000346    0.000000220
     27        9          -0.000016363   -0.000004253    0.000006728
     28        9           0.000001098    0.000005817    0.000009106
     29        9           0.000013378   -0.000001270   -0.000018089
 -------------------------------------------------------------------
 Cartesian Forces:  Max     0.000018089 RMS     0.000004843

 GradGradGradGradGradGradGradGradGradGradGradGradGradGradGradGradGradGrad
 Berny optimization.
 FormGI is forming the generalized inverse of G from B-inverse, IUseBI=4.
 GSVD:  received Info=                   1 from GESDD.
 Internal  Forces:  Max     0.000021703 RMS     0.000005362
 Search for a local minimum.
 Step number   1 out of a maximum of  149
 All quantities printed in internal units (Hartrees-Bohrs-Radians)
 Mixed Optimization -- En-DIIS/RFO-DIIS
 Second derivative matrix not updated -- first step.
 ITU=  0
     Eigenvalues ---    0.00419   0.00589   0.00637   0.01214   0.01576
     Eigenvalues ---    0.01684   0.01870   0.02001   0.02063   0.02148
     Eigenvalues ---    0.02171   0.02184   0.02193   0.02207   0.02217
     Eigenvalues ---    0.02249   0.02274   0.02435   0.03810   0.04968
     Eigenvalues ---    0.05389   0.05504   0.05536   0.05718   0.08124
     Eigenvalues ---    0.10723   0.10764   0.11292   0.12021   0.13617
     Eigenvalues ---    0.16000   0.16000   0.16000   0.16000   0.16000
     Eigenvalues ---    0.16000   0.16000   0.21883   0.21941   0.22000
     Eigenvalues ---    0.22371   0.23488   0.24610   0.25000   0.25000
     Eigenvalues ---    0.25000   0.25000   0.25000   0.25000   0.25000
     Eigenvalues ---    0.25000   0.25000   0.29771   0.31015   0.31376
     Eigenvalues ---    0.31751   0.34422   0.34423   0.34502   0.34502
     Eigenvalues ---    0.34504   0.34504   0.34738   0.35352   0.35662
     Eigenvalues ---    0.36104   0.40117   0.42664   0.42887   0.45525
     Eigenvalues ---    0.46119   0.46394   0.46656   0.47318   0.47995
     Eigenvalues ---    0.50612   0.56356   0.57317   0.57320   0.57707
     Eigenvalues ---    1.03170
 RFO step:  Lambda=-1.48169253D-08 EMin= 4.18540545D-03
 Linear search not attempted -- first point.
 Iteration  1 RMS(Cart)=  0.00014375 RMS(Int)=  0.00000001
 Iteration  2 RMS(Cart)=  0.00000001 RMS(Int)=  0.00000000
 Variable       Old X    -DE/DX   Delta X   Delta X   Delta X     New X
                                 (Linear)    (Quad)   (Total)
    R1        2.64671  -0.00000   0.00000  -0.00001  -0.00001   2.64670
    R2        2.63837  -0.00000   0.00000  -0.00001  -0.00001   2.63836
    R3        2.63941  -0.00001   0.00000  -0.00002  -0.00002   2.63939
    R4        2.59253  -0.00001   0.00000  -0.00002  -0.00002   2.59251
    R5        1.90698  -0.00000   0.00000  -0.00001  -0.00001   1.90697
    R6        2.27395  -0.00001   0.00000  -0.00001  -0.00001   2.27394
    R7        2.53947  -0.00001   0.00000  -0.00002  -0.00002   2.53944
    R8        2.71394  -0.00000   0.00000  -0.00001  -0.00001   2.71393
    R9        2.85984  -0.00000   0.00000  -0.00001  -0.00001   2.85983
   R10        2.06491  -0.00000   0.00000  -0.00001  -0.00001   2.06490
   R11        2.06491  -0.00000   0.00000  -0.00001  -0.00001   2.06491
   R12        2.88422   0.00000   0.00000   0.00000   0.00000   2.88422
   R13        2.06623  -0.00000   0.00000  -0.00001  -0.00001   2.06622
   R14        2.06623  -0.00000   0.00000  -0.00000  -0.00000   2.06622
   R15        2.06487  -0.00000   0.00000  -0.00000  -0.00000   2.06487
   R16        2.06103  -0.00000   0.00000  -0.00000  -0.00000   2.06102
   R17        2.06487  -0.00000   0.00000  -0.00001  -0.00001   2.06487
   R18        2.62864  -0.00000   0.00000  -0.00000  -0.00000   2.62864
   R19        2.03919  -0.00000   0.00000  -0.00000  -0.00000   2.03919
   R20        2.63332   0.00001   0.00000   0.00003   0.00003   2.63335
   R21        2.85301   0.00001   0.00000   0.00002   0.00002   2.85304
   R22        2.62332  -0.00000   0.00000  -0.00001  -0.00001   2.62331
   R23        3.28302   0.00000   0.00000   0.00000   0.00000   3.28303
   R24        2.61555  -0.00000   0.00000  -0.00001  -0.00001   2.61554
   R25        2.04613  -0.00000   0.00000  -0.00000  -0.00000   2.04613
   R26        2.05108   0.00000   0.00000   0.00000   0.00000   2.05108
   R27        2.52802  -0.00002   0.00000  -0.00003  -0.00003   2.52800
   R28        2.53127  -0.00001   0.00000  -0.00001  -0.00001   2.53126
   R29        2.53129  -0.00002   0.00000  -0.00004  -0.00004   2.53125
    A1        2.15274   0.00000   0.00000   0.00001   0.00001   2.15275
    A2        2.05178  -0.00000   0.00000  -0.00001  -0.00001   2.05178
    A3        2.07866   0.00000   0.00000   0.00000   0.00000   2.07866
    A4        2.22585   0.00000   0.00000   0.00000   0.00000   2.22585
    A5        2.04679  -0.00000   0.00000  -0.00000  -0.00000   2.04679
    A6        2.01054   0.00000   0.00000   0.00000   0.00000   2.01054
    A7        2.20701   0.00001   0.00000   0.00003   0.00003   2.20704
    A8        1.90036  -0.00002   0.00000  -0.00006  -0.00006   1.90030
    A9        2.17581   0.00001   0.00000   0.00003   0.00003   2.17584
   A10        2.01316   0.00001   0.00000   0.00004   0.00004   2.01320
   A11        1.87925  -0.00000   0.00000  -0.00001  -0.00001   1.87925
   A12        1.89920   0.00000   0.00000   0.00000   0.00000   1.89920
   A13        1.89919   0.00000   0.00000   0.00001   0.00001   1.89920
   A14        1.95128  -0.00000   0.00000  -0.00000  -0.00000   1.95128
   A15        1.95128   0.00000   0.00000  -0.00000  -0.00000   1.95128
   A16        1.88261   0.00000   0.00000   0.00000   0.00000   1.88261
   A17        1.93600  -0.00000   0.00000  -0.00000  -0.00000   1.93600
   A18        1.90244  -0.00000   0.00000  -0.00000  -0.00000   1.90243
   A19        1.90243   0.00000   0.00000   0.00001   0.00001   1.90243
   A20        1.92698   0.00000   0.00000   0.00000   0.00000   1.92698
   A21        1.92699  -0.00000   0.00000  -0.00001  -0.00001   1.92698
   A22        1.86747   0.00000   0.00000   0.00001   0.00001   1.86748
   A23        1.94250   0.00000   0.00000   0.00000   0.00000   1.94250
   A24        1.93794  -0.00000   0.00000  -0.00000  -0.00000   1.93793
   A25        1.94250  -0.00000   0.00000  -0.00000  -0.00000   1.94250
   A26        1.87908   0.00000   0.00000   0.00000   0.00000   1.87908
   A27        1.87984   0.00000   0.00000   0.00000   0.00000   1.87984
   A28        1.87908   0.00000   0.00000  -0.00000  -0.00000   1.87908
   A29        2.09281   0.00000   0.00000   0.00002   0.00002   2.09283
   A30        2.09730  -0.00000   0.00000  -0.00001  -0.00001   2.09729
   A31        2.09307  -0.00000   0.00000  -0.00001  -0.00001   2.09306
   A32        2.10433  -0.00001   0.00000  -0.00002  -0.00002   2.10431
   A33        2.07135  -0.00001   0.00000  -0.00005  -0.00005   2.07130
   A34        2.10751   0.00002   0.00000   0.00007   0.00007   2.10758
   A35        2.08571  -0.00000   0.00000  -0.00001  -0.00001   2.08570
   A36        2.12869   0.00002   0.00000   0.00009   0.00009   2.12877
   A37        2.06879  -0.00002   0.00000  -0.00008  -0.00008   2.06872
   A38        2.09650   0.00000   0.00000   0.00002   0.00002   2.09652
   A39        2.08477  -0.00000   0.00000  -0.00001  -0.00001   2.08476
   A40        2.10191  -0.00000   0.00000  -0.00001  -0.00001   2.10190
   A41        2.10836  -0.00000   0.00000  -0.00001  -0.00001   2.10835
   A42        2.09261   0.00000   0.00000   0.00001   0.00001   2.09261
   A43        2.08222   0.00000   0.00000   0.00000   0.00000   2.08222
   A44        1.95024   0.00000   0.00000   0.00001   0.00001   1.95025
   A45        1.95087   0.00001   0.00000   0.00007   0.00007   1.95094
   A46        1.95090   0.00000   0.00000   0.00001   0.00001   1.95091
   A47        1.86686  -0.00000   0.00000   0.00000   0.00000   1.86686
   A48        1.86690  -0.00001   0.00000  -0.00007  -0.00007   1.86683
   A49        1.87309  -0.00001   0.00000  -0.00003  -0.00003   1.87305
    D1       -0.00044   0.00000   0.00000   0.00005   0.00005  -0.00040
    D2        3.14146  -0.00000   0.00000  -0.00002  -0.00002   3.14145
    D3        3.14118   0.00000   0.00000   0.00006   0.00006   3.14124
    D4       -0.00010  -0.00000   0.00000   0.00000   0.00000  -0.00010
    D5       -3.14159   0.00000   0.00000   0.00003   0.00003  -3.14156
    D6        0.00003   0.00000   0.00000   0.00003   0.00003   0.00005
    D7       -0.00003   0.00000   0.00000   0.00001   0.00001  -0.00002
    D8        3.14159   0.00000   0.00000   0.00001   0.00001  -3.14158
    D9        3.14158  -0.00000   0.00000  -0.00002  -0.00002   3.14155
   D10       -0.00003  -0.00000   0.00000  -0.00001  -0.00001  -0.00004
   D11        0.00001  -0.00000   0.00000  -0.00001  -0.00001   0.00000
   D12       -3.14159   0.00000   0.00000   0.00000   0.00000  -3.14159
   D13        0.00020  -0.00000   0.00000  -0.00003  -0.00003   0.00017
   D14       -3.14141  -0.00000   0.00000  -0.00007  -0.00007  -3.14147
   D15        3.14148   0.00000   0.00000   0.00003   0.00003   3.14151
   D16       -0.00012  -0.00000   0.00000  -0.00000  -0.00000  -0.00013
   D17        3.14150   0.00000   0.00000   0.00010   0.00010  -3.14159
   D18       -0.00010   0.00000   0.00000   0.00006   0.00006  -0.00004
   D19        3.14159  -0.00000   0.00000  -0.00000  -0.00000   3.14159
   D20        1.02355   0.00000   0.00000   0.00001   0.00001   1.02355
   D21       -1.02356  -0.00000   0.00000  -0.00000  -0.00000  -1.02356
   D22        3.14154   0.00000   0.00000   0.00003   0.00003   3.14156
   D23        1.01626   0.00000   0.00000   0.00003   0.00003   1.01629
   D24       -1.01636  -0.00000   0.00000   0.00002   0.00002  -1.01634
   D25       -1.05644   0.00000   0.00000   0.00002   0.00002  -1.05642
   D26        3.10146   0.00000   0.00000   0.00003   0.00003   3.10149
   D27        1.06884  -0.00000   0.00000   0.00002   0.00002   1.06886
   D28        1.05634   0.00000   0.00000   0.00002   0.00002   1.05636
   D29       -1.06894   0.00000   0.00000   0.00003   0.00003  -1.06891
   D30       -3.10156  -0.00000   0.00000   0.00001   0.00001  -3.10155
   D31       -1.04854   0.00000   0.00000  -0.00001  -0.00001  -1.04855
   D32       -3.14159   0.00000   0.00000  -0.00001  -0.00001   3.14159
   D33        1.04854   0.00000   0.00000  -0.00000  -0.00000   1.04853
   D34        1.06231  -0.00000   0.00000  -0.00001  -0.00001   1.06230
   D35       -1.03074  -0.00000   0.00000  -0.00001  -0.00001  -1.03075
   D36       -3.12379  -0.00000   0.00000  -0.00001  -0.00001  -3.12380
   D37        3.12379  -0.00000   0.00000  -0.00001  -0.00001   3.12379
   D38        1.03074  -0.00000   0.00000  -0.00001  -0.00001   1.03074
   D39       -1.06231   0.00000   0.00000  -0.00000  -0.00000  -1.06231
   D40        0.00003   0.00000   0.00000  -0.00001  -0.00001   0.00002
   D41        3.14150   0.00000   0.00000   0.00009   0.00009  -3.14159
   D42       -3.14159   0.00000   0.00000  -0.00000  -0.00000  -3.14159
   D43       -0.00011   0.00000   0.00000   0.00009   0.00009  -0.00002
   D44       -0.00001  -0.00000   0.00000  -0.00000  -0.00000  -0.00002
   D45        3.14155   0.00000   0.00000   0.00002   0.00002   3.14158
   D46       -3.14148  -0.00000   0.00000  -0.00010  -0.00010  -3.14159
   D47        0.00009  -0.00000   0.00000  -0.00008  -0.00008   0.00001
   D48        0.00017  -0.00001   0.00000  -0.00013  -0.00013   0.00003
   D49        2.09173   0.00000   0.00000  -0.00007  -0.00007   2.09165
   D50       -2.09147   0.00000   0.00000  -0.00006  -0.00006  -2.09153
   D51       -3.14155  -0.00000   0.00000  -0.00004  -0.00004  -3.14158
   D52       -1.04999   0.00000   0.00000   0.00002   0.00002  -1.04996
   D53        1.05000   0.00000   0.00000   0.00004   0.00004   1.05004
   D54       -0.00000   0.00000   0.00000   0.00001   0.00001   0.00001
   D55       -3.14159   0.00000   0.00000   0.00001   0.00001  -3.14158
   D56       -3.14157  -0.00000   0.00000  -0.00002  -0.00002  -3.14159
   D57        0.00002  -0.00000   0.00000  -0.00002  -0.00002   0.00001
   D58        0.00001   0.00000   0.00000  -0.00000  -0.00000   0.00000
   D59       -3.14158  -0.00000   0.00000  -0.00001  -0.00001  -3.14159
   D60       -3.14159   0.00000   0.00000  -0.00000  -0.00000   3.14159
   D61        0.00001  -0.00000   0.00000  -0.00001  -0.00001  -0.00000
         Item               Value     Threshold  Converged?
 Maximum Force            0.000022     0.000450     YES
 RMS     Force            0.000005     0.000300     YES
 Maximum Displacement     0.000530     0.001800     YES
 RMS     Displacement     0.000144     0.001200     YES
 Predicted change in Energy=-7.408485D-09
 Optimization completed.
    -- Stationary point found.
                           ----------------------------
                           !   Optimized Parameters   !
                           ! (Angstroms and Degrees)  !
 --------------------------                            --------------------------
 ! Name  Definition              Value          Derivative Info.                !
 --------------------------------------------------------------------------------
 ! R1    R(1,2)                  1.4006         -DE/DX =    0.0                 !
 ! R2    R(1,9)                  1.3962         -DE/DX =    0.0                 !
 ! R3    R(1,13)                 1.3967         -DE/DX =    0.0                 !
 ! R4    R(2,3)                  1.3719         -DE/DX =    0.0                 !
 ! R5    R(2,14)                 1.0091         -DE/DX =    0.0                 !
 ! R6    R(3,4)                  1.2033         -DE/DX =    0.0                 !
 ! R7    R(3,5)                  1.3438         -DE/DX =    0.0                 !
 ! R8    R(5,6)                  1.4362         -DE/DX =    0.0                 !
 ! R9    R(6,7)                  1.5134         -DE/DX =    0.0                 !
 ! R10   R(6,15)                 1.0927         -DE/DX =    0.0                 !
 ! R11   R(6,16)                 1.0927         -DE/DX =    0.0                 !
 ! R12   R(7,8)                  1.5263         -DE/DX =    0.0                 !
 ! R13   R(7,17)                 1.0934         -DE/DX =    0.0                 !
 ! R14   R(7,18)                 1.0934         -DE/DX =    0.0                 !
 ! R15   R(8,19)                 1.0927         -DE/DX =    0.0                 !
 ! R16   R(8,20)                 1.0906         -DE/DX =    0.0                 !
 ! R17   R(8,21)                 1.0927         -DE/DX =    0.0                 !
 ! R18   R(9,10)                 1.391          -DE/DX =    0.0                 !
 ! R19   R(9,22)                 1.0791         -DE/DX =    0.0                 !
 ! R20   R(10,11)                1.3935         -DE/DX =    0.0                 !
 ! R21   R(10,23)                1.5097         -DE/DX =    0.0                 !
 ! R22   R(11,12)                1.3882         -DE/DX =    0.0                 !
 ! R23   R(11,24)                1.7373         -DE/DX =    0.0                 !
 ! R24   R(12,13)                1.3841         -DE/DX =    0.0                 !
 ! R25   R(12,25)                1.0828         -DE/DX =    0.0                 !
 ! R26   R(13,26)                1.0854         -DE/DX =    0.0                 !
 ! R27   R(23,27)                1.3378         -DE/DX =    0.0                 !
 ! R28   R(23,28)                1.3395         -DE/DX =    0.0                 !
 ! R29   R(23,29)                1.3395         -DE/DX =    0.0                 !
 ! A1    A(2,1,9)              123.343          -DE/DX =    0.0                 !
 ! A2    A(2,1,13)             117.5585         -DE/DX =    0.0                 !
 ! A3    A(9,1,13)             119.0986         -DE/DX =    0.0                 !
 ! A4    A(1,2,3)              127.532          -DE/DX =    0.0                 !
 ! A5    A(1,2,14)             117.2726         -DE/DX =    0.0                 !
 ! A6    A(3,2,14)             115.1953         -DE/DX =    0.0                 !
 ! A7    A(2,3,4)              126.4526         -DE/DX =    0.0                 !
 ! A8    A(2,3,5)              108.8824         -DE/DX =    0.0                 !
 ! A9    A(4,3,5)              124.665          -DE/DX =    0.0                 !
 ! A10   A(3,5,6)              115.3458         -DE/DX =    0.0                 !
 ! A11   A(5,6,7)              107.6733         -DE/DX =    0.0                 !
 ! A12   A(5,6,15)             108.8159         -DE/DX =    0.0                 !
 ! A13   A(5,6,16)             108.8156         -DE/DX =    0.0                 !
 ! A14   A(7,6,15)             111.8001         -DE/DX =    0.0                 !
 ! A15   A(7,6,16)             111.8            -DE/DX =    0.0                 !
 ! A16   A(15,6,16)            107.8655         -DE/DX =    0.0                 !
 ! A17   A(6,7,8)              110.9248         -DE/DX =    0.0                 !
 ! A18   A(6,7,17)             109.0015         -DE/DX =    0.0                 !
 ! A19   A(6,7,18)             109.0011         -DE/DX =    0.0                 !
 ! A20   A(8,7,17)             110.4079         -DE/DX =    0.0                 !
 ! A21   A(8,7,18)             110.4083         -DE/DX =    0.0                 !
 ! A22   A(17,7,18)            106.998          -DE/DX =    0.0                 !
 ! A23   A(7,8,19)             111.2968         -DE/DX =    0.0                 !
 ! A24   A(7,8,20)             111.0357         -DE/DX =    0.0                 !
 ! A25   A(7,8,21)             111.2971         -DE/DX =    0.0                 !
 ! A26   A(19,8,20)            107.6636         -DE/DX =    0.0                 !
 ! A27   A(19,8,21)            107.7066         -DE/DX =    0.0                 !
 ! A28   A(20,8,21)            107.6635         -DE/DX =    0.0                 !
 ! A29   A(1,9,10)             119.9094         -DE/DX =    0.0                 !
 ! A30   A(1,9,22)             120.1664         -DE/DX =    0.0                 !
 ! A31   A(10,9,22)            119.9243         -DE/DX =    0.0                 !
 ! A32   A(9,10,11)            120.569          -DE/DX =    0.0                 !
 ! A33   A(9,10,23)            118.6798         -DE/DX =    0.0                 !
 ! A34   A(11,10,23)           120.7512         -DE/DX =    0.0                 !
 ! A35   A(10,11,12)           119.5021         -DE/DX =    0.0                 !
 ! A36   A(10,11,24)           121.9648         -DE/DX =    0.0                 !
 ! A37   A(12,11,24)           118.533          -DE/DX =    0.0                 !
 ! A38   A(11,12,13)           120.1208         -DE/DX =    0.0                 !
 ! A39   A(11,12,25)           119.4485         -DE/DX =    0.0                 !
 ! A40   A(13,12,25)           120.4307         -DE/DX =    0.0                 !
 ! A41   A(1,13,12)            120.8002         -DE/DX =    0.0                 !
 ! A42   A(1,13,26)            119.8975         -DE/DX =    0.0                 !
 ! A43   A(12,13,26)           119.3024         -DE/DX =    0.0                 !
 ! A44   A(10,23,27)           111.7406         -DE/DX =    0.0                 !
 ! A45   A(10,23,28)           111.7765         -DE/DX =    0.0                 !
 ! A46   A(10,23,29)           111.7785         -DE/DX =    0.0                 !
 ! A47   A(27,23,28)           106.9632         -DE/DX =    0.0                 !
 ! A48   A(27,23,29)           106.9655         -DE/DX =    0.0                 !
 ! A49   A(28,23,29)           107.3199         -DE/DX =    0.0                 !
 ! D1    D(9,1,2,3)             -0.0255         -DE/DX =    0.0                 !
 ! D2    D(9,1,2,14)           179.9926         -DE/DX =    0.0                 !
 ! D3    D(13,1,2,3)           179.9762         -DE/DX =    0.0                 !
 ! D4    D(13,1,2,14)           -0.0058         -DE/DX =    0.0                 !
 ! D5    D(2,1,9,10)          -179.9999         -DE/DX =    0.0                 !
 ! D6    D(2,1,9,22)             0.0015         -DE/DX =    0.0                 !
 ! D7    D(13,1,9,10)           -0.0016         -DE/DX =    0.0                 !
 ! D8    D(13,1,9,22)         -180.0002         -DE/DX =    0.0                 !
 ! D9    D(2,1,13,12)          179.999          -DE/DX =    0.0                 !
 ! D10   D(2,1,13,26)           -0.0015         -DE/DX =    0.0                 !
 ! D11   D(9,1,13,12)            0.0006         -DE/DX =    0.0                 !
 ! D12   D(9,1,13,26)         -179.9999         -DE/DX =    0.0                 !
 ! D13   D(1,2,3,4)              0.0112         -DE/DX =    0.0                 !
 ! D14   D(1,2,3,5)           -179.9893         -DE/DX =    0.0                 !
 ! D15   D(14,2,3,4)           179.9935         -DE/DX =    0.0                 !
 ! D16   D(14,2,3,5)            -0.007          -DE/DX =    0.0                 !
 ! D17   D(2,3,5,6)           -180.0055         -DE/DX =    0.0                 !
 ! D18   D(4,3,5,6)             -0.0059         -DE/DX =    0.0                 !
 ! D19   D(3,5,6,7)            179.9999         -DE/DX =    0.0                 !
 ! D20   D(3,5,6,15)            58.645          -DE/DX =    0.0                 !
 ! D21   D(3,5,6,16)           -58.6454         -DE/DX =    0.0                 !
 ! D22   D(5,6,7,8)            179.9969         -DE/DX =    0.0                 !
 ! D23   D(5,6,7,17)            58.2274         -DE/DX =    0.0                 !
 ! D24   D(5,6,7,18)           -58.2332         -DE/DX =    0.0                 !
 ! D25   D(15,6,7,8)           -60.5296         -DE/DX =    0.0                 !
 ! D26   D(15,6,7,17)          177.7008         -DE/DX =    0.0                 !
 ! D27   D(15,6,7,18)           61.2402         -DE/DX =    0.0                 !
 ! D28   D(16,6,7,8)            60.5239         -DE/DX =    0.0                 !
 ! D29   D(16,6,7,17)          -61.2457         -DE/DX =    0.0                 !
 ! D30   D(16,6,7,18)         -177.7063         -DE/DX =    0.0                 !
 ! D31   D(6,7,8,19)           -60.077          -DE/DX =    0.0                 !
 ! D32   D(6,7,8,20)           180.0            -DE/DX =    0.0                 !
 ! D33   D(6,7,8,21)            60.0768         -DE/DX =    0.0                 !
 ! D34   D(17,7,8,19)           60.866          -DE/DX =    0.0                 !
[...]
 3,0.00002513,0.00001392,0.00005592,-0.00003455,0.00000053,-0.00002130,
 0.00002373,-0.00001547,-0.00341870,0.00237385,-0.00008064,0.55729482,0
 .00406125,0.00080954,0.00017957,-0.00684361,-0.00018877,0.00009855,0.0
 0816144,0.00399394,-0.00024227,-0.00277695,-0.00300648,0.00013141,-0.0
 0412082,0.00059133,0.00003249,0.00169634,0.00063742,-0.00004194,-0.000
 12407,-0.00019816,0.00000931,0.00001341,0.00018122,-0.00000615,0.01442
 413,-0.00848686,0.00016488,0.02035296,-0.20870783,0.00487260,-0.014673
 68,-0.01616234,0.00075894,-0.00093557,0.00046573,0.00018622,-0.0019606
 3,0.00244052,-0.00009942,0.00007422,-0.00016416,0.00000565,-0.00018311
 ,-0.00007126,-0.00004525,-0.00017989,-0.00006710,0.00005348,0.00003180
 ,-0.00000044,-0.00003329,0.00003241,0.00000374,0.00003134,-0.00000062,
 -0.00003257,0.00003949,-0.00010684,0.00001125,0.00000123,-0.00000241,-
 0.00003627,-0.00003784,-0.00154759,0.00121026,-0.00013297,-0.00233551,
 0.61768483,0.00003986,0.00020168,0.00730182,0.00026389,-0.00000294,-0.
 00008255,-0.00029590,-0.00019354,0.00046459,0.00008531,0.00013598,-0.0
 0046291,0.00013443,-0.00000665,-0.00008843,-0.00005284,-0.00001829,0.0
 0013724,0.00000497,0.00000666,0.00000806,-0.00000039,-0.00000499,0.000
 01843,-0.00053352,-0.00001915,0.00150171,-0.00033535,0.00496157,-0.066
 26604,0.00024024,0.00093031,-0.00076705,0.00017108,0.00025186,0.005251
 49,0.00009731,-0.00010969,-0.00104231,0.00000221,0.00000495,0.00001810
 ,-0.00001879,-0.00000642,-0.00002293,0.00003169,0.00000807,-0.00002924
 ,0.00000249,-0.00002472,-0.00001015,-0.00000540,0.00002446,-0.00001474
 ,0.00000969,0.00001216,-0.00001456,0.00000315,0.00000022,0.00000397,-0
 .00000933,-0.00001125,-0.00001020,0.00006099,-0.00018688,-0.00304213,-
 0.00040578,-0.00348522,0.52080082,0.00209237,-0.00210664,0.00004039,-0
 .00524530,0.00028961,0.00005441,0.00436866,0.00162163,-0.00012350,-0.0
 0121901,-0.00111502,0.00005748,-0.00238315,0.00075890,0.00000656,0.000
 91790,0.00026188,-0.00002181,-0.00004964,-0.00012393,0.00000525,-0.000
 00564,0.00010717,-0.00000388,-0.00131700,-0.00426626,0.00022676,-0.034
 18849,0.01245830,0.00005308,-0.16930557,0.04235118,0.00049159,-0.02630
 215,0.01161943,-0.00000891,0.00304595,0.00174705,-0.00003949,-0.000026
 80,-0.00024941,0.00000968,-0.00009094,-0.00004908,0.00000105,-0.000091
 09,-0.00004883,0.00000499,0.00001064,0.00001149,-0.00000126,0.00001063
 ,0.00001155,0.00000012,0.00000840,-0.00002213,0.00000742,-0.00006755,0
 .00001688,0.00000033,0.00000820,-0.00002261,-0.00000601,-0.00090262,0.
 00126506,-0.00002707,-0.00662627,0.00604002,-0.00016749,0.23366831,0.0
 0038712,0.00262805,-0.00011936,0.00173951,0.00012366,-0.00004776,-0.00
 138486,-0.00090102,0.00004117,0.00017233,0.00060319,-0.00002476,0.0007
 0780,-0.00013640,-0.00000171,-0.00026498,-0.00008642,0.00000828,0.0000
 1882,0.00003509,-0.00000150,0.00000096,-0.00003015,0.00000102,0.000189
 51,-0.00390903,0.00028408,-0.01148170,0.00940122,-0.00008614,0.0429507
 5,-0.05407147,0.00060870,0.03848935,-0.01080687,0.00000424,-0.00364079
 ,-0.00391022,0.00036327,-0.00009427,0.00006240,-0.00000011,0.00002982,
 0.00001357,0.00000316,0.00002919,0.00001352,-0.00000521,-0.00000480,-0
 .00000181,0.00000214,-0.00000492,-0.00000192,-0.00000185,-0.00000152,0
 .00000623,-0.00000321,0.00001902,-0.00000423,-0.00000012,-0.00000146,0
 .00000648,0.00000280,-0.00037848,0.00021215,0.00001482,0.00128973,-0.0
 0382336,0.00001482,-0.06356122,0.06684773,-0.00004976,-0.00008560,-0.0
 0051888,0.00000151,-0.00002777,-0.00052967,-0.00001375,-0.00000056,-0.
 00029952,0.00001017,-0.00000695,-0.00001174,0.00000818,-0.00000225,0.0
 0008673,-0.00000240,0.00000098,0.00003973,0.00000002,0.00000048,0.0000
 0147,0.00000001,-0.00000045,-0.00000208,0.00006509,0.00034480,0.003984
 21,0.00092062,-0.00041275,0.00269632,0.00046944,0.00061583,-0.02107467
 ,-0.00098226,0.00037226,0.00384166,0.00015554,0.00028975,0.00473516,0.
 00000410,0.00000203,0.00002377,0.00000722,-0.00000351,-0.00000337,-0.0
 0000696,0.00000363,-0.00000319,0.00000099,-0.00000053,0.00000008,-0.00
 000093,0.00000036,0.00000021,0.00000026,-0.00000022,0.00000021,0.00000
 023,-0.00000008,-0.00000021,-0.00000037,0.00000038,0.00000016,0.000032
 64,-0.00000756,0.00048072,0.00000482,-0.00004984,-0.00294498,-0.000722
 14,-0.00110258,0.01250824,-0.00308529,0.00302378,0.00003195,-0.0012320
 2,-0.00124419,0.00006467,0.00036870,0.00057300,-0.00002732,-0.00006654
 ,-0.00021527,0.00000905,-0.00040413,-0.00000175,0.00000523,0.00009971,
 0.00006228,-0.00000358,-0.00001635,-0.00002701,0.00000130,-0.00000319,
 0.00001753,-0.00000060,-0.00024067,0.00090056,-0.00004266,0.00069576,0
 .00167035,0.00000643,0.00637198,0.00601000,-0.00026388,-0.22918967,-0.
 14591501,0.00791819,-0.01630587,-0.01932190,0.00096961,0.00001619,-0.0
 0008879,0.00000352,-0.00001259,-0.00000684,-0.00000028,-0.00001257,-0.
 00000671,0.00000109,0.00000095,0.00000165,0.00000204,0.00000087,0.0000
 0154,-0.00000223,0.00000137,-0.00000193,-0.00000002,-0.00000921,0.0000
 0048,0.00000012,0.00000135,-0.00000196,0.00000010,-0.00001060,-0.00006
 034,-0.00000445,0.00045464,0.00021240,-0.00000463,0.00103480,0.0010271
 8,-0.00008857,0.24069400,0.00311619,0.00002418,0.00022030,0.00033707,0
 .00062706,-0.00002072,0.00006480,-0.00016603,0.00000215,-0.00001725,0.
 00002900,-0.00000005,0.00011604,0.00002477,-0.00000383,-0.00001232,-0.
 00002275,0.00000124,0.00000633,0.00000833,-0.00000016,0.00000167,-0.00
 000489,0.00000015,0.00112727,-0.00039956,-0.00003651,0.00218934,-0.005
 35933,0.00036661,-0.02454712,-0.01523522,0.00099553,-0.14316675,-0.179
 35904,0.00713431,0.00989508,0.01154709,-0.00042812,-0.00001438,0.00001
 748,0.00000079,0.00000216,0.00000114,0.00000071,0.00000215,0.00000128,
 -0.00000096,-0.00000013,-0.00000008,-0.00000142,-0.00000013,0.00000014
 ,0.00000131,-0.00000038,0.00000010,0.00000015,0.00000227,0.00000033,-0
 .00000002,-0.00000044,0.,-0.00000020,-0.00004733,0.00000439,-0.0000175
 5,-0.00174673,0.00069023,0.00002355,-0.00047066,0.00061012,-0.00011436
 ,0.15312927,0.18736518,0.00002877,0.00022148,0.00726840,0.00000718,0.0
 0000090,0.00018497,-0.00000861,-0.00000498,-0.00008441,0.00000176,0.00
 000269,0.00002071,0.00000084,-0.00000217,-0.00003537,-0.00000082,0.000
 00020,0.00000645,0.00000008,0.00000030,0.00000628,-0.00000002,-0.00000
 006,-0.00000010,-0.00005088,-0.00003339,-0.00097933,-0.00001286,0.0003
 7391,0.00558185,0.00084333,0.00057872,0.00295887,0.00781885,0.00717139
 ,-0.03674459,-0.00008876,-0.00002923,0.00345879,0.00000078,0.00000184,
 0.00003444,-0.00000008,-0.00000276,-0.00000130,0.00000023,0.00000276,-
 0.00000146,0.00000056,-0.00000178,-0.00000141,-0.00000061,0.00000163,-
 0.00000156,0.00000077,0.00000122,-0.00000082,0.00000005,0.,0.00000071,
 -0.00000080,-0.00000122,-0.00000069,-0.00000495,-0.00001733,-0.0004962
 9,0.00006646,-0.00000343,0.00067672,-0.00003446,-0.00013488,-0.0027194
 9,-0.00848857,-0.00796347,0.02565239,0.00756825,-0.02263979,0.00078427
 ,0.00217615,-0.00134111,-0.00002962,-0.00051286,-0.00059185,0.00001693
 ,0.00006992,0.00053554,-0.00001741,0.00023354,0.00008292,-0.00000560,-
 0.00011764,-0.00004011,0.00000440,0.00001201,0.00001263,-0.00000038,-0
 .00000098,-0.00001019,0.00000033,-0.00347046,-0.00321867,0.00023764,-0
 .00149110,-0.00016742,0.00001982,-0.00399929,0.00127672,0.00010803,-0.
 00050973,0.03063889,-0.00105761,-0.06738369,0.04477940,-0.00118970,-0.
 00117002,0.00023822,0.00001922,0.00001787,0.00000801,0.00000387,0.0000
 1743,0.00000787,-0.00000517,-0.00000486,0.00000076,0.00000416,-0.00000
 507,0.00000058,-0.00000423,0.00000054,0.00000312,-0.00000183,0.0000078
 1,-0.00000166,-0.00000003,0.00000051,0.00000315,0.00000154,0.00049443,
 -0.00103822,0.00002728,-0.00033962,-0.00011774,0.00000142,-0.00097208,
 0.00120262,-0.00002960,0.00079778,-0.00034748,-0.00005814,0.06816166,0
 .00766301,-0.01569052,0.00064324,0.00176163,0.00155268,-0.00020890,-0.
 00072426,-0.00038884,-0.00000697,0.00015787,0.00070661,-0.00001980,0.0
 0000557,0.00009441,-0.00000173,-0.00007036,-0.00000883,0.00000471,0.00
 000196,-0.00000177,0.00000071,-0.00000377,-0.00000252,0.,-0.00393176,-
 0.00117112,0.00029148,-0.00059368,0.00062446,-0.00003197,0.00123270,0.
 00194842,0.00017681,0.00013202,-0.00637952,0.00034900,0.04423267,-0.33
 454244,0.01021430,-0.00168536,0.00003567,0.00005368,0.00001274,0.00000
 275,0.00000415,0.00001181,0.00000291,-0.00000531,-0.00000475,0.0000026
 3,0.00000421,-0.00000515,0.00000266,-0.00000470,0.00000150,0.00000207,
 -0.00000263,0.00000378,-0.00000126,0.00000004,0.00000136,0.00000201,0.
 00000230,0.00066521,-0.00070955,0.00000726,-0.00015432,0.00008279,-0.0
 0002071,0.00030733,-0.00036600,0.00001079,0.00017071,0.00062301,-0.000
 18350,-0.04934459,0.35380122,-0.00031389,0.00105753,0.00492763,-0.0001
 4220,-0.00016700,-0.00353933,0.00002174,-0.00000910,-0.00086617,-0.000
 00347,-0.00002484,0.00022648,-0.00000274,-0.00000266,0.00004984,0.0000
 0550,0.00000429,0.00009380,0.00000003,0.00000058,0.00001867,0.00000009
 ,0.00000009,-0.00000392,0.00026380,0.00028183,0.00537979,0.00003548,-0
 .00003783,-0.00047997,0.00010948,0.00017574,0.00728798,0.00004681,-0.0
 0006731,0.00330651,-0.00116918,0.01020674,-0.03613078,0.00008893,0.000
 02757,0.00088271,0.00001036,-0.00000769,-0.00000859,-0.00001196,0.0000
 0665,-0.00000833,0.00000397,-0.00000522,-0.00000619,-0.00000365,0.0000
 0456,-0.00000601,0.00000280,0.00000324,-0.00000196,-0.00000023,0.00000
 012,0.00000141,-0.00000297,-0.00000362,-0.00000185,-0.00003449,0.00003
 061,-0.00025819,0.00000273,-0.00002113,-0.00054644,0.00000274,-0.00000
 134,0.00004829,-0.00007694,-0.00017650,-0.00437276,0.00118060,-0.01127
 708,0.02415330,0.00091955,0.00046334,-0.00003060,0.00179290,0.00034231
 ,-0.00003612,-0.00136792,-0.00283607,0.00012197,0.00010502,0.00189209,
 -0.00006835,0.00010831,0.00051341,-0.00002005,-0.00001068,-0.00010018,
 0.00000315,0.00002984,-0.00000076,-0.00000043,-0.00000758,0.00000465,-
 0.00000013,-0.00475379,0.00364456,-0.00005833,-0.01115527,-0.01071222,
 0.00065375,0.00167027,-0.00110131,0.00003813,-0.00056200,-0.00011169,0
 .00000520,0.00022049,0.00028965,-0.00001241,-0.00002257,0.00000153,0.0
 0000012,0.00003445,-0.00001494,0.00003418,0.00003334,-0.00001747,-0.00
 003375,-0.00000816,0.00001375,0.00001389,-0.00000852,0.00001253,-0.000
 01454,0.00001022,-0.00000721,-0.00001267,-0.00001148,0.00001461,-0.000
 00038,0.00001065,-0.00000620,0.00001295,0.00228313,0.00158189,-0.00009
 484,-0.20770717,-0.10375275,0.00559523,0.00118860,-0.00040519,0.000002
 00,0.00009774,-0.00026413,0.00000515,0.00024217,0.00008981,-0.00000688
 ,0.33791497,-0.00269573,0.00113500,-0.00000765,0.00274879,0.00032416,-
 0.00004658,-0.00291796,-0.00197932,0.00011174,0.00099008,0.00149479,-0
 .00006309,0.00127807,-0.00004469,-0.00001571,-0.00051432,-0.00022275,0
 .00001364,0.00004757,0.00006016,-0.00000297,-0.00000651,-0.00005238,0.
 00000184,-0.00063911,-0.00353585,0.00016002,-0.04408325,-0.02761585,0.
 00190233,0.00785453,-0.00687787,0.00019699,-0.00276063,-0.00128340,0.0
 0006714,0.00025094,-0.00038516,0.00001333,-0.00003265,0.00006745,-0.00
 000243,0.00006550,0.00001462,0.00002463,0.00006437,0.00001262,-0.00002
 695,-0.00001195,0.00000473,0.00001438,-0.00001226,0.00000325,-0.000014
 12,0.00000356,0.00000685,-0.00001661,0.00002787,0.00000235,-0.00000049
 ,0.00000419,0.00000822,0.00001616,-0.00002717,-0.00520232,0.00017171,-
 0.09416857,-0.15996650,0.00441731,-0.00043618,0.00061238,-0.00000673,0
 .00020113,-0.00079012,0.00001768,0.00004554,-0.00013155,0.00000331,0.1
 4225966,0.17062635,0.00008380,-0.00005057,-0.00008517,-0.00012297,-0.0
 0001334,0.00008840,0.00012420,0.00011010,-0.00002511,-0.00003538,-0.00
 007520,0.00014145,-0.00004759,-0.00000510,0.00001141,0.00001814,0.0000
 0780,-0.00004561,-0.00000217,-0.00000227,-0.00000280,0.00000028,0.0000
 0167,-0.00000441,0.00009709,0.00010116,0.00063294,0.00186030,0.0014435
 0,0.00815454,-0.00028610,0.00031950,0.00152742,0.00010129,0.00003110,-
 0.00046776,-0.00001107,0.00001273,0.00007708,0.00000132,-0.00000290,-0
 .00001179,0.00000275,0.00000137,0.00000510,-0.00000821,-0.00000142,0.0
 0000817,-0.00000060,0.00000560,0.00000189,0.00000179,-0.00000605,0.000
 00371,-0.00000252,-0.00000232,0.00000366,-0.00000085,-0.00000030,-0.00
 000029,0.00000203,0.00000216,0.00000188,-0.00003669,0.00014966,-0.0004
 7915,0.00524889,0.00454957,-0.07385020,0.00000309,-0.00000713,0.000260
 50,-0.00001173,0.00002395,-0.00022861,-0.00000528,0.00000268,-0.000023
 41,-0.00865374,-0.00515522,0.08244803,0.00055095,0.00021174,0.00095843
 ,-0.00000240,0.00022681,0.00005518,0.00059139,-0.00082106,-0.00003415,
 -0.00036590,0.00051344,0.00006290,-0.00061001,0.00035132,0.00000817,0.
 00027112,0.00005088,-0.00002139,-0.00000464,-0.00003293,-0.00000050,-0
 .00000188,0.00003231,-0.00000335,0.00104786,0.00083753,-0.00017642,-0.
 00235920,0.01083875,-0.01782215,-0.00607264,0.00204736,-0.00027372,0.0
 0067041,0.00044067,0.00079894,0.00000159,0.00052925,-0.00012612,-0.000
 00255,-0.00002354,-0.00004460,-0.00000889,-0.00001882,0.00001346,-0.00
 001468,-0.00002129,-0.00000537,0.00000043,0.00001016,0.00000374,0.0000
 0137,0.00000398,-0.00000087,0.00000430,-0.00001068,0.00000111,-0.00002
 386,0.00001001,-0.00000060,0.00000655,-0.00000768,0.00000238,0.0005562
 0,-0.00063813,-0.00064917,-0.12876980,0.04019508,-0.08465890,0.0012666
 0,-0.00347001,0.00124313,-0.00002313,0.00032526,-0.00000793,0.00008775
 ,0.00002968,-0.00012177,-0.06175745,-0.00568451,-0.04912145,0.17707837
 ,-0.00055586,-0.00078752,-0.00172324,0.00161294,-0.00019514,-0.0001997
 0,-0.00222516,-0.00074488,0.00009770,0.00077561,0.00059188,-0.00009552
 ,0.00122606,-0.00025536,-0.00001724,-0.00050995,-0.00017516,0.00002970
 ,0.00003316,0.00006059,-0.00000245,-0.00000252,-0.00005541,0.00000437,
 -0.00319232,-0.00344632,0.00148567,0.02604408,-0.01256587,0.03362137,0
 .00339569,-0.00004734,-0.00047829,-0.00020592,0.00076039,-0.00083423,0
 .00113456,-0.00058827,0.00021984,0.00002675,0.00004351,0.00002057,0.00
 004713,0.00002399,0.00000512,0.00005089,0.00002437,-0.00001290,-0.0000
 0790,-0.00000479,0.00000650,-0.00000872,-0.00000076,-0.00000842,-0.000
 00084,0.00001239,-0.00001100,0.00003440,-0.00000615,0.00000007,-0.0000
 0223,0.00001087,0.00000775,-0.00009288,0.00000220,0.00095470,0.0397123
 6,-0.10934687,0.05935933,-0.00309246,-0.00149451,0.00167720,-0.0000536
 3,-0.00011104,0.00003888,0.00001423,-0.00004045,0.00007087,-0.01754841
 ,0.01598802,-0.01683962,-0.04125075,0.09591256,-0.00018627,0.00016475,
 0.00045762,-0.00058566,0.00039693,0.00017642,0.00106018,-0.00021727,-0
 .00013648,-0.00046026,0.00011545,0.00019256,-0.00075064,0.00029311,0.0
 0003763,0.00031152,0.00008383,-0.00007113,-0.00001377,-0.00003862,-0.0
 0000294,-0.00000090,0.00003575,-0.00000847,0.00128674,0.00331218,-0.00
 059498,-0.01486382,0.00933140,-0.01020103,-0.00315060,0.00005630,0.000
 75093,0.00044746,0.00025606,0.00042432,-0.00024598,0.00021722,-0.00008
 514,-0.00007137,-0.00002368,-0.00005359,-0.00001547,-0.00001623,0.0000
 1398,-0.00003164,-0.00002380,0.00000739,0.00000125,0.00001526,0.000003
 57,0.00000429,-0.00000379,0.00000580,0.00000002,-0.00001321,0.00000717
 ,-0.00002395,0.00000717,-0.00000123,0.00000692,-0.00000421,0.00000285,
 0.00044229,-0.00033057,-0.00055824,-0.08265235,0.06087541,-0.19587395,
 0.00242989,0.00044141,-0.00041738,0.00002718,0.00016226,-0.00009899,0.
 00004832,0.00005833,-0.00006506,-0.03819994,-0.00875360,-0.00697211,0.
 14381108,-0.06821869,0.29982849,0.00053027,0.00013818,-0.00097468,0.00
 001044,0.00021184,-0.00006640,0.00056568,-0.00081035,0.00007398,-0.000
 35586,0.00050439,-0.00008463,-0.00059072,0.00034261,-0.00001572,0.0002
 6336,0.00004974,0.00000848,-0.00000425,-0.00003180,0.00000287,-0.00000
 179,0.00003152,0.00000087,0.00101855,0.00075784,0.00007937,-0.00150359
 ,0.01183238,0.01680367,-0.00597880,0.00206614,0.00030895,0.00063564,0.
 00037432,-0.00083474,0.00001028,0.00053123,0.00008547,0.00000060,-0.00
 001973,0.00004476,-0.00001367,-0.00002018,0.00000744,-0.00000885,-0.00
 001928,-0.00001145,0.00000128,0.00000415,0.00000068,0.00000029,0.00000
 945,-0.00000435,0.00000631,-0.00000773,-0.00000191,-0.00002322,0.00000
 986,0.00000049,0.00000428,-0.00001037,-0.00000028,0.00056166,-0.000581
 76,0.00066322,-0.12430074,0.04436633,0.07974438,0.00117225,-0.00355950
 ,-0.00102923,-0.00002399,0.00032033,-0.00001733,0.00008958,0.00003663,
 0.00011531,-0.05928907,-0.00185101,0.05080140,0.01788213,-0.00535832,-
 0.00862451,0.16934195,-0.00049337,-0.00066869,0.00182031,0.00165634,-0
 .00020921,0.00018191,-0.00229777,-0.00072986,0.00000940,0.00080930,0.0
 0058698,0.00004427,0.00127799,-0.00027536,0.00000455,-0.00053195,-0.00
 018230,-0.00000671,0.00003406,0.00006321,-0.00000336,-0.00000253,-0.00
 005808,-0.00000066,-0.00331500,-0.00377240,-0.00116609,0.02611062,-0.0
 1568442,-0.03396858,0.00363439,-0.00001881,0.00043367,-0.00021536,0.00
 080010,0.00081417,0.00114358,-0.00061883,-0.00021264,0.00003109,0.0000
 4322,-0.00002857,0.00005339,0.00002690,0.00000997,0.00004797,0.0000247
 0,-0.00000724,-0.00000876,0.00000018,0.00000908,-0.00000813,-0.0000063
 3,-0.00000554,-0.00000296,0.00001057,-0.00000823,0.00003605,-0.0000066
 9,-0.00000068,-0.00000053,0.00001414,0.00001050,-0.00015220,-0.0000451
 7,-0.00098870,0.04378172,-0.11854383,-0.06626247,-0.00330303,-0.001632
 39,-0.00149676,-0.00005653,-0.00012578,-0.00003540,0.00000861,-0.00004
 994,-0.00007242,-0.01424528,0.01772684,0.01539890,-0.00467481,0.016435
 08,0.00182083,-0.04931689,0.10689621,0.00022028,-0.00008784,0.00035940
 ,0.00047208,-0.00037554,0.00017785,-0.00091585,0.00028402,-0.00012555,
 0.00041803,-0.00015861,0.00018718,0.00067760,-0.00028080,0.00003826,-0
 .00028290,-0.00007686,-0.00005604,0.00001133,0.00003471,-0.00000600,0.
 00000094,-0.00003304,-0.00000584,-0.00109110,-0.00310177,-0.00023789,0
 .01277971,-0.00927695,-0.00793499,0.00308022,-0.00006035,0.00062873,-0
 .00043836,-0.00029328,0.00041933,0.00016169,-0.00019354,-0.00006300,0.
 00006777,0.00001714,-0.00005650,0.00002840,0.00002293,0.00000382,0.000
 01265,0.00001599,0.00001321,-0.00000354,0.00000408,0.00000496,-0.00000
 055,-0.00001481,0.00000526,-0.00000682,0.00000387,0.00000340,0.0000220
 1,-0.00000708,-0.00000135,0.00000008,0.00001300,0.00000544,-0.00046338
 ,0.00030989,-0.00051681,0.07777554,-0.06779141,-0.19111415,-0.00223880
 ,-0.00025225,-0.00018229,-0.00002504,-0.00016917,-0.00008343,-0.000053
 23,-0.00006041,-0.00005747,0.04075743,0.00697991,-0.01116977,0.0061099
 3,-0.00915833,-0.08676803,-0.13707612,0.08370652,0.29653226\\0.0000013
 6,-0.00000014,0.00000044,-0.00001067,0.00000360,0.00000151,-0.00000079
 ,-0.00000584,-0.00000113,0.00000117,0.00000920,0.00000040,0.00001248,-
 0.00000925,0.00000160,0.00000007,0.00000108,-0.00000099,0.00000310,0.0
 0000211,0.00000052,-0.00000210,-0.00000202,-0.00000095,0.00000255,0.00
 000439,0.00000195,-0.00000461,0.00000026,-0.00001151,0.00000160,0.0000
 0020,-0.00000055,0.00000038,-0.00000384,0.00000094,-0.00000373,-0.0000
 0168,0.00000043,0.00000045,-0.00000226,-0.00000042,-0.00000049,0.00000
 116,0.00000175,-0.00000025,0.00000088,-0.00000154,-0.00000059,-0.00000
 244,-0.00000091,-0.00000126,-0.00000107,0.00000029,0.00000009,0.000000
 23,-0.00000077,0.00000109,-0.00000167,-0.00000006,0.00000046,0.0000008
 4,0.00000152,0.00000064,0.00000046,-0.00000065,-0.00000761,-0.00000642
 ,0.00000672,0.00000505,0.00001179,-0.00000069,-0.00000029,0.00000040,0
 .00000007,0.,0.00000035,-0.00000022,0.00001636,0.00000425,-0.00000673,
 -0.00000110,-0.00000582,-0.00000911,-0.00001338,0.00000127,0.00001809\
 \\@


 NO SCIENCE HAS EVER MADE MORE RAPID PROGRESS IN A
 SHORTER TIME THAN CHEMISTRY.
   -- MARTIN HEINRICH KLOPROTH, 1791
 (FIRST PROFESSOR OF CHEMISTRY AT THE UNIVERSITY OF BERLIN)
 Job cpu time:       0 days  4 hours 13 minutes 31.9 seconds.
 File lengths (MBytes):  RWF=    559 Int=      0 D2E=      0 Chk=     14 Scr=      1
 Normal termination of Gaussian 09 at Thu Nov 14 18:06:15 2019.
pbs_rusage has been removed.
Please contact help@nci.org.au if you require this functionality.
