 Entering Gaussian System, Link 0=/apps/gaussian/g09e01/g09/g09
 AtFile(1): /home/507/hio507/Basis/GTMP2LARGE.gbs
 Initial command:
 /apps/gaussian/g09e01/g09/l1.exe "/jobfs/local/4046914.r-man2/Gau-49230.inp" -scrdir="/jobfs/local/4046914.r-man2/"
 Entering Link 1 = /apps/gaussian/g09e01/g09/l1.exe PID=     49231.
  
 Copyright (c) 1988,1990,1992,1993,1995,1998,2003,2009,2015,
            Gaussian, Inc.  All Rights Reserved.
  
 This is part of the Gaussian(R) 09 program.  It is based on
 the Gaussian(R) 03 system (copyright 2003, Gaussian, Inc.),
 the Gaussian(R) 98 system (copyright 1998, Gaussian, Inc.),
 the Gaussian(R) 94 system (copyright 1995, Gaussian, Inc.),
 the Gaussian 92(TM) system (copyright 1992, Gaussian, Inc.),
 the Gaussian 90(TM) system (copyright 1990, Gaussian, Inc.),
 the Gaussian 88(TM) system (copyright 1988, Gaussian, Inc.),
 the Gaussian 86(TM) system (copyright 1986, Carnegie Mellon
 University), and the Gaussian 82(TM) system (copyright 1983,
 Carnegie Mellon University). Gaussian is a federally registered
 trademark of Gaussian, Inc.
  
 This software contains proprietary and confidential information,
 including trade secrets, belonging to Gaussian, Inc.
  
 This software is provided under written license and may be
 used, copied, transmitted, or stored only in accord with that
 written license.
  
 The following legend is applicable only to US Government
 contracts under FAR:
  
                    RESTRICTED RIGHTS LEGEND
  
 Use, reproduction and disclosure by the US Government is
 subject to restrictions as set forth in subparagraphs (a)
 and (c) of the Commercial Computer Software - Restricted
 Rights clause in FAR 52.227-19.
  
 Gaussian, Inc.
 340 Quinnipiac St., Bldg. 40, Wallingford CT 06492
  
  
 ---------------------------------------------------------------
 Warning -- This program may not be used in any manner that
 competes with the business of Gaussian, Inc. or will provide
 assistance to any competitor of Gaussian, Inc.  The licensee
 of this program is prohibited from giving any competitor of
 Gaussian, Inc. access to this program.  By using this program,
 the user acknowledges that Gaussian, Inc. is engaged in the
 business of creating and licensing software in the field of
 computational chemistry and represents and warrants to the
 licensee that it is not a competitor of Gaussian, Inc. and that
 it will not use this program in any manner prohibited above.
 ---------------------------------------------------------------
  

 Cite this work as:
 Gaussian 09, Revision E.01,
 M. J. Frisch, G. W. Trucks, H. B. Schlegel, G. E. Scuseria, 
 M. A. Robb, J. R. Cheeseman, G. Scalmani, V. Barone, B. Mennucci, 
 G. A. Petersson, H. Nakatsuji, M. Caricato, X. Li, H. P. Hratchian, 
 A. F. Izmaylov, J. Bloino, G. Zheng, J. L. Sonnenberg, M. Hada, 
 M. Ehara, K. Toyota, R. Fukuda, J. Hasegawa, M. Ishida, T. Nakajima, 
 Y. Honda, O. Kitao, H. Nakai, T. Vreven, J. A. Montgomery, Jr., 
 J. E. Peralta, F. Ogliaro, M. Bearpark, J. J. Heyd, E. Brothers, 
 K. N. Kudin, V. N. Staroverov, T. Keith, R. Kobayashi, J. Normand, 
 K. Raghavachari, A. Rendell, J. C. Burant, S. S. Iyengar, J. Tomasi, 
 M. Cossi, N. Rega, J. M. Millam, M. Klene, J. E. Knox, J. B. Cross, 
 V. Bakken, C. Adamo, J. Jaramillo, R. Gomperts, R. E. Stratmann, 
 O. Yazyev, A. J. Austin, R. Cammi, C. Pomelli, J. W. Ochterski, 
 R. L. Martin, K. Morokuma, V. G. Zakrzewski, G. A. Voth, 
 P. Salvador, J. J. Dannenberg, S. Dapprich, A. D. Daniels, 
 O. Farkas, J. B. Foresman, J. V. Ortiz, J. Cioslowski, 
 and D. J. Fox, Gaussian, Inc., Wallingford CT, 2013.
 
 ******************************************
 Gaussian 09:  ES64L-G09RevE.01 30-Nov-2015
                 9-Dec-2019 
 ******************************************
 %chk=29CA.MP2_GTMP2LARGE.chk
 %mem=1114112000
 %nproc=4
 Will use up to    4 processors via shared memory.
 -------------------------------------------------------------
 # MP2/Gen 5D SCF=Tight INT(grid=ultrafine) maxdisk=3489660928
 -------------------------------------------------------------
 1/38=1/1;
 2/12=2,17=6,18=5,40=1/2;
 3/5=7,8=1,11=9,16=1,25=1,30=1,75=-5/1,2,3;
 4//1;
 5/5=2,32=2,38=5/2;
 8/10=1/1;
 9/16=-3/6;
 6/7=2,8=2,9=2,10=2/1;
 99/5=1,9=1/99;
 -------------------
 29CA.MP2_GTMP2LARGE
 -------------------
 Symbolic Z-matrix:
 Charge =  0 Multiplicity = 1
 C                    -6.18847   1.27085   0.00984 
 N                    -4.89858   0.72514   0.01201 
 C                    -3.70523   1.40066  -0.0292 
 O                    -3.5606    2.5944   -0.07472 
 O                    -2.69993   0.50909  -0.01067 
 C                    -1.3789    1.07117  -0.04965 
 C                    -0.39096  -0.07489  -0.02158 
 C                     1.04462   0.44189  -0.06058 
 C                    -6.44105   2.6432   -0.0364 
 C                    -7.75227   3.10755  -0.03534 
 C                    -8.82051   2.21396   0.01162 
 C                    -8.56891   0.84952   0.0576 
 C                    -7.26577   0.38313   0.0567 
 H                    -4.82199  -0.28045   0.04749 
 H                    -1.25342   1.73621   0.80825 
 H                    -1.27806   1.67173  -0.95693 
 H                    -0.58311  -0.73152  -0.87449 
 H                    -0.55852  -0.6673    0.88202 
 H                     1.23326   1.02152  -0.96744 
 H                     1.75821  -0.38267  -0.04042 
 H                     1.25796   1.08599   0.79592 
 H                    -5.62168   3.34444  -0.07299 
 C                    -7.99348   4.59705  -0.08586 
 Cl                   -10.47178   2.75387   0.01464 
 H                    -9.39959   0.15597   0.09407 
 H                    -7.08431  -0.68637   0.09295 
 F                    -6.84611   5.28372  -0.12647 
 F                    -8.6986    4.94982  -1.16872 
 F                    -8.669     5.0278    0.98764 
 
                          Input orientation:                          
 ---------------------------------------------------------------------
 Center     Atomic      Atomic             Coordinates (Angstroms)
 Number     Number       Type             X           Y           Z
 ---------------------------------------------------------------------
      1          6           0       -6.188473    1.270851    0.009839
      2          7           0       -4.898584    0.725139    0.012011
      3          6           0       -3.705227    1.400663   -0.029199
      4          8           0       -3.560600    2.594398   -0.074715
      5          8           0       -2.699925    0.509093   -0.010673
      6          6           0       -1.378905    1.071169   -0.049646
      7          6           0       -0.390961   -0.074887   -0.021581
      8          6           0        1.044622    0.441891   -0.060576
      9          6           0       -6.441050    2.643199   -0.036404
     10          6           0       -7.752275    3.107546   -0.035338
     11          6           0       -8.820508    2.213960    0.011616
     12          6           0       -8.568906    0.849525    0.057605
     13          6           0       -7.265768    0.383126    0.056702
     14          1           0       -4.821990   -0.280454    0.047491
     15          1           0       -1.253415    1.736207    0.808245
     16          1           0       -1.278064    1.671730   -0.956928
     17          1           0       -0.583110   -0.731515   -0.874485
     18          1           0       -0.558523   -0.667295    0.882022
     19          1           0        1.233264    1.021522   -0.967438
     20          1           0        1.758209   -0.382670   -0.040423
     21          1           0        1.257961    1.085993    0.795916
     22          1           0       -5.621679    3.344437   -0.072987
     23          6           0       -7.993477    4.597047   -0.085857
     24         17           0      -10.471780    2.753870    0.014640
     25          1           0       -9.399589    0.155972    0.094069
     26          1           0       -7.084315   -0.686367    0.092951
     27          9           0       -6.846106    5.283722   -0.126475
     28          9           0       -8.698599    4.949823   -1.168717
     29          9           0       -8.668996    5.027804    0.987636
 ---------------------------------------------------------------------
                    Distance matrix (angstroms):
                    1          2          3          4          5
     1  C    0.000000
     2  N    1.400578   0.000000
     3  C    2.486943   1.371909   0.000000
     4  O    2.943577   2.300403   1.203325   0.000000
     5  O    3.570807   2.209365   1.343828   2.256847   0.000000
     6  C    4.814079   3.537186   2.349630   2.660948   1.436156
     7  C    5.951734   4.578191   3.627901   4.144214   2.381694
     8  C    7.280782   5.950395   4.845750   5.083458   3.745482
     9  C    1.396164   2.461808   3.004775   2.881118   4.307097
    10  C    2.412668   3.717749   4.392275   4.223152   5.681444
    11  C    2.795902   4.195006   5.179692   5.274355   6.353629
    12  C    2.417904   3.672712   4.895576   5.305207   5.879243
    13  C    1.396716   2.392181   3.704080   4.316858   4.568077
    14  H    2.067665   1.009129   2.019703   3.141785   2.264935
    15  H    5.020836   3.865683   2.612524   2.615188   2.066114
    16  H    5.020703   3.865624   2.612523   2.615260   2.066111
    17  H    6.017606   4.640154   3.874055   4.535060   2.601189
    18  H    6.017761   4.640250   3.874084   4.535025   2.601230
    19  H    7.489954   6.216650   5.041105   5.123673   4.080192
    20  H    8.117044   6.748547   5.747133   6.095394   4.546546
    21  H    7.490091   6.216733   5.041138   5.123652   4.080228
    22  H    2.151250   2.718606   2.730012   2.193311   4.071819
    23  C    3.785602   4.957783   5.348754   4.864271   6.688700
    24  Cl   4.532780   5.930958   6.900676   6.913597   8.089585
    25  H    3.400193   4.537590   5.830112   6.329945   6.709781
    26  H    2.154098   2.603136   3.973518   4.817478   4.545628
    27  F    4.068685   4.959103   4.995270   4.246139   6.324659
    28  F    4.607013   5.803636   6.231276   5.757074   7.552830
    29  F    4.606928   5.803514   6.231300   5.757236   7.552826
                    6          7          8          9         10
     6  C    0.000000
     7  C    1.513362   0.000000
     8  C    2.503915   1.526263   0.000000
     9  C    5.300638   6.632630   7.802668   0.000000
    10  C    6.690806   8.019788   9.191939   1.391018   0.000000
    11  C    7.529089   8.734826  10.023284   2.418341   1.393493
    12  C    7.194216   8.230406   9.622892   2.784578   2.402954
    13  C    5.927889   6.890492   8.311425   2.407645   2.769047
    14  H    3.700157   4.436333   5.911903   3.343073   4.480176
    15  H    1.092703   2.170829   2.776883   5.333631   6.695325
    16  H    1.092704   2.170828   2.776836   5.333624   6.695245
    17  H    2.136193   1.093402   2.165373   6.812234   8.175541
    18  H    2.136186   1.093400   2.165377   6.812268   8.175637
    19  H    2.769158   2.175974   1.092683   7.898846   9.271474
    20  H    3.457632   2.171179   1.090648   8.739779  10.130693
    21  H    2.769162   2.175979   1.092684   7.898887   9.271570
    22  H    4.813463   6.249387   7.270798   1.079093   2.144055
    23  C    7.495711   8.923528   9.947522   2.495996   1.509749
    24  Cl   9.247485  10.470247  11.746421   4.032572   2.742862
    25  H    8.074008   9.012327  10.449268   3.867334   3.382629
    26  H    5.971681   6.722203   8.208297   3.393601   3.854400
    27  F    6.902303   8.390148   9.258037   2.672928   2.359065
    28  F    8.359079   9.776527  10.792580   3.420406   2.360945
    29  F    8.359207   9.776596  10.792762   3.420343   2.360984
                   11         12         13         14         15
    11  C    0.000000
    12  C    1.388201   0.000000
    13  C    2.402332   1.384087   0.000000
    14  H    4.712911   3.913609   2.532286   0.000000
    15  H    7.623893   7.407163   6.208384   4.168980   0.000000
    16  H    7.623684   7.406867   6.208103   4.168848   1.766522
    17  H    8.792936   8.193986   6.838673   4.361376   3.061134
    18  H    8.793158   8.194306   6.838982   4.361564   2.503027
    19  H   10.171470   9.857121   8.584286   6.276252   3.138057
    20  H   10.892862  10.400828   9.056933   6.581580   3.778857
    21  H   10.171675   9.857400   8.584545   6.276394   2.594213
    22  H    3.393765   3.863650   3.389574   3.714008   4.737584
    23  C    2.524397   3.794156   4.278669   5.819461   7.376466
    24  Cl   1.737300   2.692454   3.987569   6.413137   9.308259
    25  H    2.139497   1.082764   2.146203   4.598591   8.328705
    26  H    3.381254   2.136404   1.085382   2.298900   6.354518
    27  F    3.652502   4.760676   4.921941   5.923459   6.688554
    28  F    2.982112   4.281721   4.940584   6.622919   8.346644
    29  F    2.982162   4.281705   4.940518   6.622759   8.115271
                   16         17         18         19         20
    16  H    0.000000
    17  H    2.503067   0.000000
    18  H    3.061129   1.757852   0.000000
    19  H    2.594157   2.526063   3.079465   0.000000
    20  H    3.778821   2.509806   2.509813   1.762577   0.000000
    21  H    3.137988   3.079467   2.526073   1.764705   1.762578
    22  H    4.737752   6.530158   6.530053   7.292889   8.267717
    23  C    7.376518   9.161279   9.161257   9.934502  10.949659
    24  Cl   9.308028  10.522558  10.522803  11.873229  12.625907
    25  H    8.328342   8.913811   8.914207  10.720706  11.171601
    26  H    6.354165   6.572947   6.573352   8.557069   8.848743
    27  F    6.688739   8.715946   8.715812   9.173320  10.302895
    28  F    8.115115   9.910869  10.100415  10.682415  11.792089
    29  F    8.346882  10.100436   9.910857  10.859437  11.792232
                   21         22         23         24         25
    21  H    0.000000
    22  H    7.292806   0.000000
    23  C    9.934492   2.682279   0.000000
    24  Cl  11.873459   4.886709   3.090207   0.000000
    25  H   10.721049   4.946394   4.661830   2.811579   0.000000
    26  H    8.557393   4.291179   5.364047   4.828694   2.463743
    27  F    9.173202   2.294102   1.337772   4.423299   5.732602
    28  F   10.859192   3.639412   1.339489   3.060508   5.006697
    29  F   10.682654   3.639338   1.339502   3.060642   5.006693
                   26         27         28         29
    26  H    0.000000
    27  F    5.978867   0.000000
    28  F    5.997029   2.151624   0.000000
    29  F    5.996951   2.151666   2.157966   0.000000
 Stoichiometry    C11H11ClF3NO2
 Framework group  C1[X(C11H11ClF3NO2)]
 Deg. of freedom    81
 Full point group                 C1      NOp   1
 Largest Abelian subgroup         C1      NOp   1
 Largest concise Abelian subgroup C1      NOp   1
                         Standard orientation:                         
 ---------------------------------------------------------------------
 Center     Atomic      Atomic             Coordinates (Angstroms)
 Number     Number       Type             X           Y           Z
 ---------------------------------------------------------------------
      1          6           0        0.081672   -1.039998    0.000240
      2          7           0        1.480199   -1.115770    0.000443
      3          6           0        2.373606   -0.074637    0.000150
      4          8           0        2.104673    1.098250   -0.000149
      5          8           0        3.621759   -0.572620    0.000261
      6          6           0        4.673746    0.405064   -0.000142
      7          6           0        5.991907   -0.338386    0.000053
      8          6           0        7.167030    0.635555   -0.000432
      9          6           0       -0.621505    0.166159    0.000203
     10          6           0       -2.012500    0.158090   -0.000003
     11          6           0       -2.714224   -1.045823   -0.000136
     12          6           0       -2.014649   -2.244863   -0.000079
     13          6           0       -0.630566   -2.241469    0.000103
     14          1           0        1.893404   -2.036423    0.000570
     15          1           0        4.565565    1.039524    0.882896
     16          1           0        4.565472    1.038890   -0.883626
     17          1           0        6.034525   -0.987733   -0.878616
     18          1           0        6.034655   -0.987026    0.879236
     19          1           0        7.148450    1.279456   -0.883043
     20          1           0        8.118036    0.101605   -0.000292
     21          1           0        7.148593    1.280171    0.881662
     22          1           0       -0.088629    1.104500    0.000309
     23          6           0       -2.744721    1.478390    0.000081
     24         17           0       -4.450734   -1.098216   -0.000337
     25          1           0       -2.560774   -3.179810   -0.000183
     26          1           0       -0.097041   -3.186671    0.000132
     27          9           0       -1.898356    2.514392    0.000150
     28          9           0       -3.526963    1.612875   -1.078921
     29          9           0       -3.527059    1.612741    1.079045
 ---------------------------------------------------------------------
 Rotational constants (GHZ):      0.8918187      0.1427209      0.1260346
 General basis read from cards:  (5D, 7F)
 There are   836 symmetry adapted cartesian basis functions of A   symmetry.
 There are   742 symmetry adapted basis functions of A   symmetry.
   742 basis functions,  1098 primitive gaussians,   836 cartesian basis functions
    72 alpha electrons       72 beta electrons
       nuclear repulsion energy      1451.4999797043 Hartrees.
 NAtoms=   29 NActive=   29 NUniq=   29 SFac= 1.00D+00 NAtFMM=   60 NAOKFM=F Big=F
 Integral buffers will be    131072 words long.
 Raffenetti 1 integral format.
 Two-electron integral symmetry is turned on.
 One-electron integrals computed using PRISM.
 NBasis=   742 RedAO= T EigKep=  1.84D-06  NBF=   742
 NBsUse=   739 1.00D-06 EigRej=  9.01D-07 NBFU=   739
 ExpMin= 3.60D-02 ExpMax= 1.06D+05 ExpMxC= 3.62D+03 IAcc=3 IRadAn=         5 AccDes= 0.00D+00
 Harris functional with IExCor=  205 and IRadAn=       5 diagonalized for initial guess.
 HarFok:  IExCor=  205 AccDes= 0.00D+00 IRadAn=         5 IDoV= 1 UseB2=F ITyADJ=14
 ICtDFT=  3500011 ScaDFX=  1.000000  1.000000  1.000000  1.000000
 FoFCou: FMM=F IPFlag=           0 FMFlag=      100000 FMFlg1=           0
         NFxFlg=           0 DoJE=T BraDBF=F KetDBF=T FulRan=T
         wScrn=  0.000000 ICntrl=     500 IOpCl=  0 I1Cent=   200000004 NGrid=           0
         NMat0=    1 NMatS0=      1 NMatT0=    0 NMatD0=    1 NMtDS0=    0 NMtDT0=    0
 Petite list used in FoFCou.
 Requested convergence on RMS density matrix=1.00D-08 within 128 cycles.
 Requested convergence on MAX density matrix=1.00D-06.
 Requested convergence on             energy=1.00D-06.
 No special actions if energy rises.
 Initial convergence to 1.0D-05 achieved.  Increase integral accuracy.
 SCF Done:  E(RHF) =  -1385.31317691     A.U. after   16 cycles
            NFock= 16  Conv=0.41D-08     -V/T= 2.0007
 ExpMin= 3.60D-02 ExpMax= 1.06D+05 ExpMxC= 3.62D+03 IAcc=3 IRadAn=         5 AccDes= 0.00D+00
 HarFok:  IExCor=  205 AccDes= 0.00D+00 IRadAn=         5 IDoV=-2 UseB2=F ITyADJ=14
 ICtDFT= 12500011 ScaDFX=  1.000000  1.000000  1.000000  1.000000
 Range of M.O.s used for correlation:    23   739
 NBasis=   742 NAE=    72 NBE=    72 NFC=    22 NFV=     0
 NROrb=    717 NOA=    50 NOB=    50 NVA=   667 NVB=   667

 **** Warning!!: The largest alpha MO coefficient is  0.12705085D+03

 Fully direct method using O(OVN) memory.
 JobTyp=1 Pass  1:  I=   1 to  10 NPSUse=  4 ParTrn=T ParDer=T DoDerP=F.
 JobTyp=1 Pass  2:  I=  11 to  24 NPSUse=  4 ParTrn=T ParDer=T DoDerP=F.
 JobTyp=1 Pass  3:  I=  25 to  50 NPSUse=  4 ParTrn=T ParDer=T DoDerP=F.
 Spin components of T(2) and E(2):
     alpha-alpha T2 =       0.1298806566D+00 E2=     -0.4350393092D+00
     alpha-beta  T2 =       0.6775260019D+00 E2=     -0.2467409471D+01
     beta-beta   T2 =       0.1298806566D+00 E2=     -0.4350393092D+00
 ANorm=    0.1391864690D+01
 E2 =    -0.3337488089D+01 EUMP2 =    -0.13886506649982D+04

 **********************************************************************

            Population analysis using the SCF density.

 **********************************************************************

 Orbital symmetries:
       Occupied  (A) (A) (A) (A) (A) (A) (A) (A) (A) (A) (A) (A)
                 (A) (A) (A) (A) (A) (A) (A) (A) (A) (A) (A) (A)
                 (A) (A) (A) (A) (A) (A) (A) (A) (A) (A) (A) (A)
                 (A) (A) (A) (A) (A) (A) (A) (A) (A) (A) (A) (A)
                 (A) (A) (A) (A) (A) (A) (A) (A) (A) (A) (A) (A)
                 (A) (A) (A) (A) (A) (A) (A) (A) (A) (A) (A) (A)
       Virtual   (A) (A) (A) (A) (A) (A) (A) (A) (A) (A) (A) (A)
                 (A) (A) (A) (A) (A) (A) (A) (A) (A) (A) (A) (A)
                 (A) (A) (A) (A) (A) (A) (A) (A) (A) (A) (A) (A)
                 (A) (A) (A) (A) (A) (A) (A) (A) (A) (A) (A) (A)
                 (A) (A) (A) (A) (A) (A) (A) (A) (A) (A) (A) (A)
                 (A) (A) (A) (A) (A) (A) (A) (A) (A) (A) (A) (A)
                 (A) (A) (A) (A) (A) (A) (A) (A) (A) (A) (A) (A)
                 (A) (A) (A) (A) (A) (A) (A) (A) (A) (A) (A) (A)
                 (A) (A) (A) (A) (A) (A) (A) (A) (A) (A) (A) (A)
                 (A) (A) (A) (A) (A) (A) (A) (A) (A) (A) (A) (A)
                 (A) (A) (A) (A) (A) (A) (A) (A) (A) (A) (A) (A)
                 (A) (A) (A) (A) (A) (A) (A) (A) (A) (A) (A) (A)
                 (A) (A) (A) (A) (A) (A) (A) (A) (A) (A) (A) (A)
                 (A) (A) (A) (A) (A) (A) (A) (A) (A) (A) (A) (A)
                 (A) (A) (A) (A) (A) (A) (A) (A) (A) (A) (A) (A)
                 (A) (A) (A) (A) (A) (A) (A) (A) (A) (A) (A) (A)
                 (A) (A) (A) (A) (A) (A) (A) (A) (A) (A) (A) (A)
                 (A) (A) (A) (A) (A) (A) (A) (A) (A) (A) (A) (A)
                 (A) (A) (A) (A) (A) (A) (A) (A) (A) (A) (A) (A)
                 (A) (A) (A) (A) (A) (A) (A) (A) (A) (A) (A) (A)
                 (A) (A) (A) (A) (A) (A) (A) (A) (A) (A) (A) (A)
                 (A) (A) (A) (A) (A) (A) (A) (A) (A) (A) (A) (A)
                 (A) (A) (A) (A) (A) (A) (A) (A) (A) (A) (A) (A)
                 (A) (A) (A) (A) (A) (A) (A) (A) (A) (A) (A) (A)
                 (A) (A) (A) (A) (A) (A) (A) (A) (A) (A) (A) (A)
                 (A) (A) (A) (A) (A) (A) (A) (A) (A) (A) (A) (A)
                 (A) (A) (A) (A) (A) (A) (A) (A) (A) (A) (A) (A)
                 (A) (A) (A) (A) (A) (A) (A) (A) (A) (A) (A) (A)
                 (A) (A) (A) (A) (A) (A) (A) (A) (A) (A) (A) (A)
                 (A) (A) (A) (A) (A) (A) (A) (A) (A) (A) (A) (A)
                 (A) (A) (A) (A) (A) (A) (A) (A) (A) (A) (A) (A)
                 (A) (A) (A) (A) (A) (A) (A) (A) (A) (A) (A) (A)
                 (A) (A) (A) (A) (A) (A) (A) (A) (A) (A) (A) (A)
                 (A) (A) (A) (A) (A) (A) (A) (A) (A) (A) (A) (A)
                 (A) (A) (A) (A) (A) (A) (A) (A) (A) (A) (A) (A)
                 (A) (A) (A) (A) (A) (A) (A) (A) (A) (A) (A) (A)
                 (A) (A) (A) (A) (A) (A) (A) (A) (A) (A) (A) (A)
                 (A) (A) (A) (A) (A) (A) (A) (A) (A) (A) (A) (A)
                 (A) (A) (A) (A) (A) (A) (A) (A) (A) (A) (A) (A)
                 (A) (A) (A) (A) (A) (A) (A) (A) (A) (A) (A) (A)
                 (A) (A) (A) (A) (A) (A) (A) (A) (A) (A) (A) (A)
                 (A) (A) (A) (A) (A) (A) (A) (A) (A) (A) (A) (A)
                 (A) (A) (A) (A) (A) (A) (A) (A) (A) (A) (A) (A)
                 (A) (A) (A) (A) (A) (A) (A) (A) (A) (A) (A) (A)
                 (A) (A) (A) (A) (A) (A) (A) (A) (A) (A) (A) (A)
                 (A) (A) (A) (A) (A) (A) (A) (A) (A) (A) (A) (A)
                 (A) (A) (A) (A) (A) (A) (A) (A) (A) (A) (A) (A)
                 (A) (A) (A) (A) (A) (A) (A) (A) (A) (A) (A) (A)
                 (A) (A) (A) (A) (A) (A) (A) (A) (A) (A) (A) (A)
                 (A) (A) (A) (A) (A) (A) (A) (A) (A) (A) (A) (A)
                 (A) (A) (A) (A) (A) (A) (A) (A) (A) (A) (A) (A)
                 (A) (A) (A) (A) (A) (A) (A) (A) (A) (A) (A) (A)
                 (A) (A) (A) (A) (A) (A) (A) (A) (A) (A) (A) (A)
                 (A) (A) (A) (A) (A) (A) (A) (A) (A) (A) (A) (A)
                 (A) (A) (A) (A) (A) (A) (A) (A) (A) (A) (A) (A)
                 (A) (A) (A) (A) (A) (A) (A)
 The electronic state is 1-A.
 Alpha  occ. eigenvalues -- -104.85046 -26.33542 -26.33130 -26.33128 -20.61567
 Alpha  occ. eigenvalues --  -20.54847 -15.62212 -11.50793 -11.42297 -11.31711
 Alpha  occ. eigenvalues --  -11.31534 -11.29569 -11.28204 -11.26788 -11.26596
 Alpha  occ. eigenvalues --  -11.25892 -11.23675 -11.22786 -10.57497  -8.04276
 Alpha  occ. eigenvalues --   -8.04102  -8.04095  -1.72778  -1.63096  -1.62792
 Alpha  occ. eigenvalues --   -1.48802  -1.38038  -1.28581  -1.20855  -1.13080
 Alpha  occ. eigenvalues --   -1.08510  -1.07773  -1.02148  -0.97158  -0.95190
 Alpha  occ. eigenvalues --   -0.88827  -0.87036  -0.83639  -0.82097  -0.81890
 Alpha  occ. eigenvalues --   -0.81364  -0.79371  -0.76191  -0.71878  -0.70861
 Alpha  occ. eigenvalues --   -0.70663  -0.70636  -0.69009  -0.67414  -0.65809
 Alpha  occ. eigenvalues --   -0.65623  -0.64959  -0.64287  -0.64123  -0.62725
 Alpha  occ. eigenvalues --   -0.61569  -0.59518  -0.58771  -0.56305  -0.55829
 Alpha  occ. eigenvalues --   -0.54802  -0.54124  -0.52789  -0.51561  -0.50073
 Alpha  occ. eigenvalues --   -0.49716  -0.47684  -0.47357  -0.46104  -0.45151
 Alpha  occ. eigenvalues --   -0.37744  -0.32610
 Alpha virt. eigenvalues --    0.02890   0.03854   0.04932   0.05526   0.05654
 Alpha virt. eigenvalues --    0.06460   0.07678   0.07817   0.08426   0.08568
 Alpha virt. eigenvalues --    0.08694   0.09602   0.10091   0.10173   0.10623
 Alpha virt. eigenvalues --    0.11932   0.12015   0.13113   0.13204   0.14021
 Alpha virt. eigenvalues --    0.14093   0.14750   0.15426   0.16337   0.16443
 Alpha virt. eigenvalues --    0.16719   0.17199   0.17274   0.17921   0.18379
 Alpha virt. eigenvalues --    0.18584   0.18832   0.18963   0.19038   0.19397
 Alpha virt. eigenvalues --    0.20072   0.20207   0.20941   0.21167   0.21673
 Alpha virt. eigenvalues --    0.22326   0.22662   0.22975   0.23021   0.24125
 Alpha virt. eigenvalues --    0.24532   0.25102   0.25754   0.25763   0.26863
 Alpha virt. eigenvalues --    0.27503   0.27518   0.28319   0.29002   0.29300
 Alpha virt. eigenvalues --    0.29315   0.29747   0.30747   0.31083   0.31111
 Alpha virt. eigenvalues --    0.31773   0.31908   0.32683   0.33263   0.34601
 Alpha virt. eigenvalues --    0.35099   0.35531   0.36279   0.36313   0.37074
 Alpha virt. eigenvalues --    0.37679   0.37990   0.38459   0.38996   0.39153
 Alpha virt. eigenvalues --    0.40025   0.40767   0.40923   0.41159   0.41275
 Alpha virt. eigenvalues --    0.41379   0.41669   0.42267   0.42928   0.43386
 Alpha virt. eigenvalues --    0.44201   0.44249   0.45121   0.45623   0.45849
 Alpha virt. eigenvalues --    0.46682   0.47198   0.47217   0.48138   0.49653
 Alpha virt. eigenvalues --    0.50132   0.50166   0.50774   0.51277   0.51484
 Alpha virt. eigenvalues --    0.52950   0.54143   0.54897   0.55313   0.55612
 Alpha virt. eigenvalues --    0.56444   0.56775   0.57726   0.58783   0.59405
 Alpha virt. eigenvalues --    0.60245   0.60250   0.61575   0.61805   0.62510
 Alpha virt. eigenvalues --    0.64264   0.64287   0.66025   0.66196   0.67447
 Alpha virt. eigenvalues --    0.68088   0.68543   0.68796   0.69708   0.69989
 Alpha virt. eigenvalues --    0.70410   0.70835   0.71095   0.72682   0.72911
 Alpha virt. eigenvalues --    0.73581   0.73880   0.74278   0.75489   0.75745
 Alpha virt. eigenvalues --    0.76165   0.76526   0.78271   0.79190   0.79740
 Alpha virt. eigenvalues --    0.79802   0.80771   0.81068   0.82219   0.82701
 Alpha virt. eigenvalues --    0.83313   0.83501   0.83802   0.84780   0.85134
 Alpha virt. eigenvalues --    0.85230   0.85933   0.86003   0.86751   0.87517
 Alpha virt. eigenvalues --    0.88657   0.89192   0.89541   0.89835   0.91584
 Alpha virt. eigenvalues --    0.93208   0.94230   0.95167   0.95263   0.96145
 Alpha virt. eigenvalues --    0.96194   0.96822   0.97124   0.98830   0.99435
 Alpha virt. eigenvalues --    1.00080   1.00919   1.01328   1.02436   1.02985
 Alpha virt. eigenvalues --    1.03183   1.03714   1.04086   1.05987   1.06242
 Alpha virt. eigenvalues --    1.06622   1.07538   1.08474   1.09480   1.10094
 Alpha virt. eigenvalues --    1.11819   1.13981   1.15527   1.15874   1.16643
 Alpha virt. eigenvalues --    1.17505   1.18961   1.20064   1.21520   1.22847
 Alpha virt. eigenvalues --    1.22987   1.23052   1.24792   1.26150   1.26657
 Alpha virt. eigenvalues --    1.27608   1.29029   1.29194   1.29612   1.30290
 Alpha virt. eigenvalues --    1.31699   1.32029   1.33243   1.33565   1.34154
 Alpha virt. eigenvalues --    1.35065   1.35669   1.35894   1.37075   1.37142
 Alpha virt. eigenvalues --    1.37916   1.38625   1.39140   1.39398   1.39601
 Alpha virt. eigenvalues --    1.41055   1.41063   1.41832   1.42180   1.44240
 Alpha virt. eigenvalues --    1.45597   1.45836   1.47440   1.48273   1.48878
 Alpha virt. eigenvalues --    1.49105   1.50156   1.50415   1.52752   1.52933
 Alpha virt. eigenvalues --    1.54213   1.55562   1.56954   1.57279   1.57484
 Alpha virt. eigenvalues --    1.58626   1.59467   1.59900   1.60306   1.61678
 Alpha virt. eigenvalues --    1.62247   1.62993   1.63052   1.64491   1.64815
 Alpha virt. eigenvalues --    1.65490   1.65583   1.67097   1.67518   1.67551
 Alpha virt. eigenvalues --    1.67745   1.69415   1.70156   1.70239   1.71818
 Alpha virt. eigenvalues --    1.71837   1.72953   1.73758   1.74363   1.75218
 Alpha virt. eigenvalues --    1.76691   1.77664   1.77826   1.79058   1.80893
 Alpha virt. eigenvalues --    1.80912   1.81134   1.82459   1.83953   1.84693
 Alpha virt. eigenvalues --    1.85465   1.86539   1.87379   1.88103   1.90273
 Alpha virt. eigenvalues --    1.90690   1.92411   1.95387   1.95408   1.95771
 Alpha virt. eigenvalues --    1.97509   1.99009   1.99506   2.01174   2.03142
 Alpha virt. eigenvalues --    2.04123   2.05688   2.07142   2.12150   2.12667
 Alpha virt. eigenvalues --    2.13417   2.18508   2.21442   2.21750   2.22863
 Alpha virt. eigenvalues --    2.23689   2.26029   2.27711   2.30278   2.30934
 Alpha virt. eigenvalues --    2.32183   2.35605   2.36573   2.41196   2.41305
 Alpha virt. eigenvalues --    2.45600   2.46382   2.46903   2.51043   2.51341
 Alpha virt. eigenvalues --    2.52548   2.58933   2.60728   2.61185   2.63456
 Alpha virt. eigenvalues --    2.65482   2.65858   2.68082   2.70039   2.76627
 Alpha virt. eigenvalues --    2.77695   2.81540   2.81850   2.83008   2.86464
 Alpha virt. eigenvalues --    2.87039   2.87835   2.91451   2.92297   2.93661
 Alpha virt. eigenvalues --    2.94119   2.94458   2.97405   2.98263   3.00187
 Alpha virt. eigenvalues --    3.00879   3.03163   3.03745   3.04352   3.07159
 Alpha virt. eigenvalues --    3.08232   3.09679   3.10856   3.11324   3.12108
 Alpha virt. eigenvalues --    3.12457   3.12636   3.13617   3.14805   3.15241
 Alpha virt. eigenvalues --    3.16905   3.17090   3.18195   3.18556   3.19696
 Alpha virt. eigenvalues --    3.20106   3.20597   3.21147   3.22925   3.23443
 Alpha virt. eigenvalues --    3.25546   3.26622   3.28088   3.28392   3.29376
 Alpha virt. eigenvalues --    3.32703   3.34903   3.35942   3.37414   3.38158
 Alpha virt. eigenvalues --    3.38573   3.41568   3.42294   3.42407   3.42970
 Alpha virt. eigenvalues --    3.43172   3.45569   3.46156   3.47066   3.47965
 Alpha virt. eigenvalues --    3.48095   3.48332   3.49246   3.51258   3.51532
 Alpha virt. eigenvalues --    3.52004   3.53942   3.54807   3.56257   3.56264
 Alpha virt. eigenvalues --    3.58455   3.60115   3.61302   3.62406   3.63067
 Alpha virt. eigenvalues --    3.64653   3.65928   3.67056   3.67102   3.68137
 Alpha virt. eigenvalues --    3.68230   3.69796   3.70174   3.70701   3.72568
 Alpha virt. eigenvalues --    3.73321   3.73440   3.73937   3.75415   3.76245
 Alpha virt. eigenvalues --    3.76560   3.77945   3.78660   3.79304   3.81165
 Alpha virt. eigenvalues --    3.82500   3.83923   3.84661   3.86431   3.86766
 Alpha virt. eigenvalues --    3.87709   3.88751   3.89767   3.90845   3.91064
 Alpha virt. eigenvalues --    3.91727   3.92847   3.93440   3.94823   3.95022
 Alpha virt. eigenvalues --    3.95194   3.96876   3.98188   3.99179   4.00350
 Alpha virt. eigenvalues --    4.01337   4.02723   4.04186   4.04615   4.06511
 Alpha virt. eigenvalues --    4.07011   4.07708   4.09375   4.11295   4.11926
 Alpha virt. eigenvalues --    4.12190   4.12819   4.14014   4.17050   4.17809
 Alpha virt. eigenvalues --    4.18337   4.21886   4.23350   4.24465   4.24845
 Alpha virt. eigenvalues --    4.26605   4.26840   4.27845   4.30150   4.31335
 Alpha virt. eigenvalues --    4.31552   4.32808   4.34731   4.36923   4.37530
 Alpha virt. eigenvalues --    4.39308   4.39463   4.40169   4.41331   4.43464
 Alpha virt. eigenvalues --    4.45510   4.47080   4.47321   4.49813   4.52109
 Alpha virt. eigenvalues --    4.53409   4.54807   4.55029   4.56083   4.57529
 Alpha virt. eigenvalues --    4.60913   4.61159   4.62536   4.63620   4.66813
 Alpha virt. eigenvalues --    4.67846   4.69088   4.69855   4.70293   4.71008
 Alpha virt. eigenvalues --    4.72418   4.72996   4.74151   4.74880   4.76682
 Alpha virt. eigenvalues --    4.77386   4.78866   4.79781   4.80381   4.81190
 Alpha virt. eigenvalues --    4.82476   4.82669   4.84267   4.84347   4.85327
 Alpha virt. eigenvalues --    4.86926   4.87763   4.89786   4.90038   4.92145
 Alpha virt. eigenvalues --    4.92234   4.93147   4.93183   4.93273   4.96613
 Alpha virt. eigenvalues --    4.98250   4.99837   5.00630   5.01734   5.05849
 Alpha virt. eigenvalues --    5.05860   5.06563   5.09167   5.11051   5.16360
 Alpha virt. eigenvalues --    5.18558   5.19504   5.23010   5.31654   5.32956
 Alpha virt. eigenvalues --    5.33289   5.40473   5.41888   5.46091   5.50118
 Alpha virt. eigenvalues --    5.52920   5.55760   5.58538   5.60918   5.62579
 Alpha virt. eigenvalues --    5.64233   5.66458   5.66868   5.67351   5.69658
 Alpha virt. eigenvalues --    5.71633   5.74376   5.75321   5.78757   5.80803
 Alpha virt. eigenvalues --    5.81630   5.84305   5.85679   5.87923   5.90308
 Alpha virt. eigenvalues --    5.92698   5.94942   5.99068   6.00055   6.01443
 Alpha virt. eigenvalues --    6.03464   6.05647   6.06740   6.13841   6.14980
 Alpha virt. eigenvalues --    6.17805   6.20441   6.24525   6.26387   6.28335
 Alpha virt. eigenvalues --    6.34252   6.41774   6.47817   6.48698   6.52546
 Alpha virt. eigenvalues --    6.63456   6.66312   6.86534   6.89348   6.93954
 Alpha virt. eigenvalues --    6.96425   6.97368   6.99647   7.03650   7.06949
 Alpha virt. eigenvalues --    7.08499   7.09148   7.10932   7.11694   7.12307
 Alpha virt. eigenvalues --    7.12484   7.13567   7.14649   7.16047   7.16340
 Alpha virt. eigenvalues --    7.17750   7.19080   7.24553   7.26402   7.30023
 Alpha virt. eigenvalues --    7.36119   7.36643   7.37488   7.38119   7.44268
 Alpha virt. eigenvalues --    7.54070   7.56791   7.57038   7.63665   7.67761
 Alpha virt. eigenvalues --    7.73606   7.76648   7.77997   7.81521   7.84919
 Alpha virt. eigenvalues --    7.87667   7.91340   7.92738   7.95143   8.16153
 Alpha virt. eigenvalues --    8.29263   8.35882   8.41390   8.43281   8.45782
 Alpha virt. eigenvalues --    9.69576   9.71505   9.73363   9.81525   9.85895
 Alpha virt. eigenvalues --    9.88850  10.03615  10.12546  10.16378  10.26304
 Alpha virt. eigenvalues --   10.41221  10.52755  10.59098  10.67991  10.75238
 Alpha virt. eigenvalues --   10.80996  21.81748  21.92727  22.19801  24.99774
 Alpha virt. eigenvalues --   25.38272  25.51212  25.58609  25.60908  25.67097
 Alpha virt. eigenvalues --   25.72949  25.85152  25.88377  26.11250  26.29368
 Alpha virt. eigenvalues --   37.36599  51.79681  51.95092  68.83408  68.87266
 Alpha virt. eigenvalues --   68.93617 220.11010
          Condensed to atoms (all electrons):
               1          2          3          4          5          6
     1  C   19.625127  -0.600526   0.362850  -0.281635  -0.093872  -0.178164
     2  N   -0.600526   7.004413   0.476078   0.009972   0.098880  -0.233533
     3  C    0.362850   0.476078   6.429398   0.433453   0.274490  -0.601890
     4  O   -0.281635   0.009972   0.433453   8.140623  -0.073958  -0.159413
     5  O   -0.093872   0.098880   0.274490  -0.073958   8.094112   0.217702
     6  C   -0.178164  -0.233533  -0.601890  -0.159413   0.217702   6.645448
     7  C    0.019245  -0.045563   0.119435   0.055097  -0.211303  -0.592946
     8  C   -0.007748  -0.006333  -0.169201   0.002116   0.026357   0.360307
     9  C   -7.000677   0.370010  -1.105757   0.303249  -0.028912  -0.396277
    10  C   -7.561920   0.163930  -0.462669   0.081729  -0.001011  -0.029645
    11  C    4.393972  -0.059055   0.155700  -0.015308  -0.004701   0.006341
    12  C   -0.065949  -0.040586  -0.093667  -0.012288   0.003305   0.000405
    13  C    0.367133  -0.108115  -0.111720  -0.021946   0.015107   0.046462
    14  H    0.083406   0.396347  -0.008682   0.005495  -0.008218  -0.000885
    15  H   -0.001598   0.006790   0.036332  -0.010010  -0.048318   0.461932
    16  H   -0.001570   0.006803   0.036417  -0.010016  -0.048331   0.461877
    17  H    0.001597   0.001846   0.002177  -0.001012   0.000976  -0.023388
    18  H    0.001577   0.001851   0.002191  -0.001013   0.000975  -0.023385
    19  H    0.000135   0.000043  -0.000102   0.000373  -0.000224  -0.024209
    20  H    0.000072  -0.000756   0.003186   0.000437  -0.002517   0.012936
    21  H    0.000138   0.000043  -0.000100   0.000373  -0.000224  -0.024214
    22  H   -0.250260  -0.014298   0.025463  -0.010076   0.004161   0.007929
    23  C   -2.684314   0.024492  -0.257010   0.018458   0.000127  -0.029069
    24  Cl  -0.091700   0.006049  -0.002240   0.000055   0.000096   0.000009
    25  H    0.102325   0.000068  -0.002324   0.000002   0.000008  -0.000569
    26  H   -0.237818  -0.020183  -0.008595   0.000015   0.000940   0.002538
    27  F    0.181631  -0.000283   0.017286   0.000026   0.000026   0.000718
    28  F    0.017797  -0.000103   0.001161  -0.000009   0.000001   0.000008
    29  F    0.017700  -0.000102   0.001162  -0.000009   0.000001   0.000008
               7          8          9         10         11         12
     1  C    0.019245  -0.007748  -7.000677  -7.561920   4.393972  -0.065949
     2  N   -0.045563  -0.006333   0.370010   0.163930  -0.059055  -0.040586
     3  C    0.119435  -0.169201  -1.105757  -0.462669   0.155700  -0.093667
     4  O    0.055097   0.002116   0.303249   0.081729  -0.015308  -0.012288
     5  O   -0.211303   0.026357  -0.028912  -0.001011  -0.004701   0.003305
     6  C   -0.592946   0.360307  -0.396277  -0.029645   0.006341   0.000405
     7  C    5.802162  -0.075428   0.003323  -0.005735   0.003374  -0.002797
     8  C   -0.075428   5.161842  -0.009332  -0.000292  -0.000048   0.000154
     9  C    0.003323  -0.009332  11.748267   2.009220  -1.093682   0.074429
    10  C   -0.005735  -0.000292   2.009220  20.341491  -2.105954  -3.389660
    11  C    0.003374  -0.000048  -1.093682  -2.105954  14.021856  -3.596919
    12  C   -0.002797   0.000154   0.074429  -3.389660  -3.596919  10.264630
    13  C   -0.008609   0.002250  -0.177611  -0.655558  -2.331689   1.955511
    14  H   -0.001936  -0.004214  -0.088537  -0.031840   0.020124  -0.016521
    15  H   -0.070919  -0.008889  -0.000562   0.000286  -0.000406   0.000360
    16  H   -0.070977  -0.008899  -0.000564   0.000285  -0.000403   0.000360
    17  H    0.429068  -0.028397  -0.000413  -0.000012  -0.000058   0.000121
    18  H    0.429050  -0.028399  -0.000403  -0.000011  -0.000058   0.000121
    19  H   -0.004738   0.418851   0.000112  -0.000001   0.000008  -0.000013
    20  H   -0.033376   0.407291  -0.000272  -0.000040   0.000016  -0.000013
    21  H   -0.004731   0.418847   0.000110  -0.000002   0.000008  -0.000013
    22  H    0.004804   0.000127   0.533816   0.145284  -0.013322  -0.035692
    23  C   -0.002171  -0.000172   1.070874  -2.716161  -3.251067   1.136692
    24  Cl   0.000010  -0.000001  -0.091655   0.565758  -0.251668  -0.399859
    25  H    0.000043  -0.000013  -0.028063  -0.052224   0.068621   0.335639
    26  H   -0.000938   0.000327   0.094670   0.118495  -0.084624   0.062613
    27  F    0.000014   0.000002   0.038481  -0.322402   0.109988  -0.011637
    28  F   -0.000001   0.000000  -0.017017  -0.035872  -0.002027   0.032034
    29  F   -0.000001   0.000000  -0.017008  -0.035893  -0.002195   0.032040
              13         14         15         16         17         18
     1  C    0.367133   0.083406  -0.001598  -0.001570   0.001597   0.001577
     2  N   -0.108115   0.396347   0.006790   0.006803   0.001846   0.001851
     3  C   -0.111720  -0.008682   0.036332   0.036417   0.002177   0.002191
     4  O   -0.021946   0.005495  -0.010010  -0.010016  -0.001012  -0.001013
     5  O    0.015107  -0.008218  -0.048318  -0.048331   0.000976   0.000975
     6  C    0.046462  -0.000885   0.461932   0.461877  -0.023388  -0.023385
     7  C   -0.008609  -0.001936  -0.070919  -0.070977   0.429068   0.429050
     8  C    0.002250  -0.004214  -0.008889  -0.008899  -0.028397  -0.028399
     9  C   -0.177611  -0.088537  -0.000562  -0.000564  -0.000413  -0.000403
    10  C   -0.655558  -0.031840   0.000286   0.000285  -0.000012  -0.000011
    11  C   -2.331689   0.020124  -0.000406  -0.000403  -0.000058  -0.000058
    12  C    1.955511  -0.016521   0.000360   0.000360   0.000121   0.000121
    13  C    6.808048  -0.017349   0.000823   0.000825   0.000154   0.000157
    14  H   -0.017349   0.462911   0.000336   0.000337   0.000445   0.000445
    15  H    0.000823   0.000336   0.587965  -0.052367   0.007647  -0.010244
    16  H    0.000825   0.000337  -0.052367   0.587967  -0.010241   0.007649
    17  H    0.000154   0.000445   0.007647  -0.010241   0.628177  -0.047948
    18  H    0.000157   0.000445  -0.010244   0.007649  -0.047948   0.628171
    19  H   -0.000048   0.000037   0.000355  -0.000162  -0.007819   0.005424
    20  H   -0.000029   0.000090  -0.001909  -0.001911  -0.005748  -0.005750
    21  H   -0.000048   0.000037  -0.000163   0.000355   0.005424  -0.007818
    22  H    0.002288  -0.004437  -0.000938  -0.000936  -0.000133  -0.000133
    23  C    0.068638  -0.013508   0.000512   0.000509   0.000045   0.000045
    24  Cl   0.017809   0.000212  -0.000003  -0.000003  -0.000001  -0.000001
    25  H   -0.034132   0.001792  -0.000002  -0.000002   0.000000   0.000000
    26  H    0.415295  -0.000816  -0.000003  -0.000003  -0.000045  -0.000045
    27  F   -0.007354   0.000475   0.000003   0.000003  -0.000001  -0.000001
    28  F    0.006310   0.000086   0.000000   0.000001  -0.000000  -0.000000
    29  F    0.006318   0.000086   0.000001   0.000000  -0.000000  -0.000000
              19         20         21         22         23         24
     1  C    0.000135   0.000072   0.000138  -0.250260  -2.684314  -0.091700
     2  N    0.000043  -0.000756   0.000043  -0.014298   0.024492   0.006049
     3  C   -0.000102   0.003186  -0.000100   0.025463  -0.257010  -0.002240
     4  O    0.000373   0.000437   0.000373  -0.010076   0.018458   0.000055
     5  O   -0.000224  -0.002517  -0.000224   0.004161   0.000127   0.000096
     6  C   -0.024209   0.012936  -0.024214   0.007929  -0.029069   0.000009
     7  C   -0.004738  -0.033376  -0.004731   0.004804  -0.002171   0.000010
     8  C    0.418851   0.407291   0.418847   0.000127  -0.000172  -0.000001
     9  C    0.000112  -0.000272   0.000110   0.533816   1.070874  -0.091655
    10  C   -0.000001  -0.000040  -0.000002   0.145284  -2.716161   0.565758
    11  C    0.000008   0.000016   0.000008  -0.013322  -3.251067  -0.251668
    12  C   -0.000013  -0.000013  -0.000013  -0.035692   1.136692  -0.399859
    13  C   -0.000048  -0.000029  -0.000048   0.002288   0.068638   0.017809
    14  H    0.000037   0.000090   0.000037  -0.004437  -0.013508   0.000212
    15  H    0.000355  -0.001909  -0.000163  -0.000938   0.000512  -0.000003
    16  H   -0.000162  -0.001911   0.000355  -0.000936   0.000509  -0.000003
    17  H   -0.007819  -0.005748   0.005424  -0.000133   0.000045  -0.000001
    18  H    0.005424  -0.005750  -0.007818  -0.000133   0.000045  -0.000001
    19  H    0.621663  -0.025810  -0.042352   0.000017  -0.000007   0.000000
    20  H   -0.025810   0.590573  -0.025808   0.000052  -0.000015   0.000000
    21  H   -0.042352  -0.025808   0.621663   0.000017  -0.000007   0.000000
    22  H    0.000017   0.000052   0.000017   0.415055  -0.057930   0.007631
    23  C   -0.000007  -0.000015  -0.000007  -0.057930  11.345107  -0.419586
    24  Cl   0.000000   0.000000   0.000000   0.007631  -0.419586  17.934497
    25  H   -0.000000   0.000000  -0.000000  -0.000555  -0.036465   0.007296
    26  H    0.000000  -0.000009   0.000000   0.003154   0.030867  -0.000716
    27  F   -0.000000   0.000000  -0.000000  -0.026311   0.201944   0.001057
    28  F   -0.000000  -0.000000   0.000000   0.000057   0.150657  -0.019033
    29  F    0.000000  -0.000000  -0.000000   0.000055   0.150953  -0.019038
              25         26         27         28         29
     1  C    0.102325  -0.237818   0.181631   0.017797   0.017700
     2  N    0.000068  -0.020183  -0.000283  -0.000103  -0.000102
     3  C   -0.002324  -0.008595   0.017286   0.001161   0.001162
     4  O    0.000002   0.000015   0.000026  -0.000009  -0.000009
     5  O    0.000008   0.000940   0.000026   0.000001   0.000001
     6  C   -0.000569   0.002538   0.000718   0.000008   0.000008
     7  C    0.000043  -0.000938   0.000014  -0.000001  -0.000001
     8  C   -0.000013   0.000327   0.000002   0.000000   0.000000
     9  C   -0.028063   0.094670   0.038481  -0.017017  -0.017008
    10  C   -0.052224   0.118495  -0.322402  -0.035872  -0.035893
    11  C    0.068621  -0.084624   0.109988  -0.002027  -0.002195
    12  C    0.335639   0.062613  -0.011637   0.032034   0.032040
    13  C   -0.034132   0.415295  -0.007354   0.006310   0.006318
    14  H    0.001792  -0.000816   0.000475   0.000086   0.000086
    15  H   -0.000002  -0.000003   0.000003   0.000000   0.000001
    16  H   -0.000002  -0.000003   0.000003   0.000001   0.000000
    17  H    0.000000  -0.000045  -0.000001  -0.000000  -0.000000
    18  H    0.000000  -0.000045  -0.000001  -0.000000  -0.000000
    19  H   -0.000000   0.000000  -0.000000  -0.000000   0.000000
    20  H    0.000000  -0.000009   0.000000  -0.000000  -0.000000
    21  H   -0.000000   0.000000  -0.000000   0.000000  -0.000000
    22  H   -0.000555   0.003154  -0.026311   0.000057   0.000055
    23  C   -0.036465   0.030867   0.201944   0.150657   0.150953
    24  Cl   0.007296  -0.000716   0.001057  -0.019033  -0.019038
    25  H    0.460940  -0.016659   0.000054   0.000434   0.000434
    26  H   -0.016659   0.524142  -0.000311  -0.000130  -0.000130
    27  F    0.000054  -0.000311   9.115702   0.008756   0.008742
    28  F    0.000434  -0.000130   0.008756   9.064453   0.040480
    29  F    0.000434  -0.000130   0.008742   0.040480   9.064429
 Mulliken charges:
               1
     1  C   -0.116956
     2  N   -0.438178
     3  C    0.447181
     4  O   -0.454782
     5  O   -0.215673
     6  C    0.092969
     7  C    0.266541
     8  C   -0.451106
     9  C   -0.189819
    10  C   -0.019576
    11  C    0.033179
    12  C   -0.232800
    13  C   -0.238920
    14  H    0.224283
    15  H    0.102990
    16  H    0.102996
    17  H    0.047540
    18  H    0.047552
    19  H    0.058467
    20  H    0.089309
    21  H    0.058465
    22  H    0.265111
    23  C    1.267564
    24  Cl  -0.244976
    25  H    0.193355
    26  H    0.117969
    27  F   -0.316610
    28  F   -0.248044
    29  F   -0.248031
 Sum of Mulliken charges =  -0.00000
 Mulliken charges with hydrogens summed into heavy atoms:
               1
     1  C   -0.116956
     2  N   -0.213895
     3  C    0.447181
     4  O   -0.454782
     5  O   -0.215673
     6  C    0.298954
     7  C    0.361634
     8  C   -0.244865
     9  C    0.075292
    10  C   -0.019576
    11  C    0.033179
    12  C   -0.039444
    13  C   -0.120951
    23  C    1.267564
    24  Cl  -0.244976
    27  F   -0.316610
    28  F   -0.248044
    29  F   -0.248031
 Electronic spatial extent (au):  <R**2>=           7982.5486
 Charge=              0.0000 electrons
 Dipole moment (field-independent basis, Debye):
    X=              5.2134    Y=             -4.4344    Z=              0.0003  Tot=              6.8442
 Quadrupole moment (field-independent basis, Debye-Ang):
   XX=           -104.7448   YY=           -107.1008   ZZ=           -112.8916
   XY=              2.4012   XZ=             -0.0002   YZ=              0.0005
 Traceless Quadrupole moment (field-independent basis, Debye-Ang):
   XX=              3.5010   YY=              1.1449   ZZ=             -4.6459
   XY=              2.4012   XZ=             -0.0002   YZ=              0.0005
 Octapole moment (field-independent basis, Debye-Ang**2):
  XXX=            107.2099  YYY=             -3.6582  ZZZ=             -0.0002  XYY=            -11.8907
  XXY=              4.1106  XXZ=             -0.0044  XZZ=             -1.8297  YZZ=             16.4400
  YYZ=              0.0036  XYZ=              0.0016
 Hexadecapole moment (field-independent basis, Debye-Ang**3):
 XXXX=          -8210.7364 YYYY=          -1170.2012 ZZZZ=           -200.1870 XXXY=            -36.6186
 XXXZ=             -0.0010 YYYX=            -83.1937 YYYZ=              0.0021 ZZZX=             -0.0018
 ZZZY=              0.0011 XXYY=          -1678.1716 XXZZ=          -1495.4756 YYZZ=           -253.5960
 XXYZ=              0.0130 YYXZ=              0.0128 ZZXY=            -27.4904
 N-N= 1.451499979704D+03 E-N=-6.178761325650D+03  KE= 1.384378922343D+03
 1\1\GINC-R4298\SP\RMP2-FC\Gen\C11H11Cl1F3N1O2\ROOT\09-Dec-2019\0\\# MP
 2/Gen 5D SCF=Tight INT(grid=ultrafine) maxdisk=3489660928\\29CA.MP2_GT
 MP2LARGE\\0,1\C,0,-6.1884726944,1.2708506961,0.0098388012\N,0,-4.89858
 43131,0.7251385156,0.0120111908\C,0,-3.7052271321,1.4006634757,-0.0291
 994526\O,0,-3.5605996156,2.5943976032,-0.07471537\O,0,-2.6999251114,0.
 5090928486,-0.0106726713\C,0,-1.3789049779,1.0711693764,-0.049646284\C
 ,0,-0.390961166,-0.0748866358,-0.0215811225\C,0,1.0446217515,0.4418911
 681,-0.0605761812\C,0,-6.4410499935,2.6431988128,-0.0364035918\C,0,-7.
 7522748417,3.1075462676,-0.0353376714\C,0,-8.8205077866,2.2139602,0.01
 16162297\C,0,-8.5689061367,0.8495246288,0.0576045416\C,0,-7.2657680572
 ,0.3831264348,0.0567015602\H,0,-4.8219904553,-0.2804542175,0.047490538
 3\H,0,-1.2534154948,1.7362071636,0.8082452829\H,0,-1.2780638137,1.6717
 300232,-0.9569276035\H,0,-0.583110477,-0.7315151266,-0.8744850897\H,0,
 -0.5585229223,-0.6672951028,0.8820217353\H,0,1.2332644836,1.0215215271
 ,-0.9674378891\H,0,1.7582087215,-0.3826702318,-0.0404230569\H,0,1.2579
 608751,1.0859927514,0.7959158978\H,0,-5.6216794759,3.3444373264,-0.072
 9870546\C,0,-7.9934773873,4.597046604,-0.0858574637\Cl,0,-10.471779752
 ,2.7538704659,0.0146399129\H,0,-9.3995886316,0.1559723915,0.0940690466
 \H,0,-7.0843149257,-0.686366511,0.0929510234\F,0,-6.8461059374,5.28372
 2028,-0.1264749732\F,0,-8.6985990842,4.9498230623,-1.1687166499\F,0,-8
 .6689956484,5.0278044546,0.9876363646\\Version=ES64L-G09RevE.01\State=
 1-A\HF=-1385.3131769\MP2=-1388.650665\RMSD=4.145e-09\PG=C01 [X(C11H11C
 l1F3N1O2)]\\@


 CHARLIE BROWN -- WHICH DO YOU THINK LASTS LONGER IN LIFE, THE GOOD THINGS 
                  OR THE BAD THINGS?
 LINUS --         GOOD THINGS LAST EIGHT SECONDS ..
                  BAD THINGS LAST THREE WEEKS
 CHARLIE BROWN -- WHAT ABOUT IN BETWEEN?
 SNOOPY --        IN BETWEEN YOU SHOULD TAKE A NAP ...
 Job cpu time:       0 days  3 hours 16 minutes 27.3 seconds.
 File lengths (MBytes):  RWF=    295 Int=      0 D2E=      0 Chk=     33 Scr=      1
 Normal termination of Gaussian 09 at Mon Dec  9 11:23:41 2019.
pbs_rusage has been removed.
Please contact help@nci.org.au if you require this functionality.
