Process 0 of 1 is on r4298 - thread support 0
initial socket setup ...start
initial socket setup ...done 
now start server 0 ... 
r4298 10.9.74
Q-Chem Developer Version! Running on 10.9.74.*
                  Welcome to Q-Chem
     A Quantum Leap Into The Future Of Chemistry


 Q-Chem 5.0, Q-Chem, Inc., Pleasanton, CA (2017)

 Yihan Shao,  Zhengting Gan,  E. Epifanovsky,  A. T. B. Gilbert,  M. Wormit,  
 J. Kussmann,  A. W. Lange,  A. Behn,  Jia Deng,  Xintian Feng,  D. Ghosh,  
 M. Goldey,  P. R. Horn,  L. D. Jacobson,  I. Kaliman,  T. Kus,  A. Landau,  
 Jie Liu,  E. I. Proynov,  R. M. Richard,  R. P. Steele,  E. J. Sundstrom,  
 H. L. Woodcock III,  P. M. Zimmerman,  D. Zuev,  B. Albrecht,  E. Alguire,  
 S. A. Baeppler,  Z. Benda,  Y. A. Bernard,  E. J. Berquist,  K. B. Bravaya,  
 D. Casanova,  Chun-Min Chang,  Yunqing Chen,  A. Chien,  K. D. Closser,  
 M. P. Coons,  S. Dasgupta,  M. Diedenhofen,  Hainam Do,  R. G. Edgar,  
 Po-Tung Fang,  S. Fatehi,  Qingguo Feng,  Qinghui Ge,  A. Ghysels,  
 J. Gomes,  J. Gonthier,  A. Gunina,  M. W. D. Hanson-Heine,  
 P. H. P. Harbach,  A. W. Hauser,  J. E. Herr,  E. G. Hohenstein,  
 Z. C. Holden,  Kerwin Hui,  T.-C. Jagau,  Hyunjun Ji,  B. Kaduk,  
 K. Khistyaev,  Jaehoon Kim,  P. Klunzinger,  K. Koh,  D. Kosenkov,  
 T. Kowalczyk,  C. M. Krauter,  A. Kunitsa,  Ka Un Lao,  A. Laurent,  
 K. V. Lawler,  Joonho Lee,  D. Lefrancois,  S. Lehtola,  D. S. Levine,  
 Yi-Pei Li,  You-Sheng Lin,  Fenglai Liu,  E. Livshits,  A. Luenser,  
 P. Manohar,  E. Mansoor,  S. F. Manzer,  Shan-Ping Mao,  Yuezhi Mao,  
 N. Mardirossian,  A. V. Marenich,  L. A. Martinez-Martinez,  S. A. Maurer,  
 N. J. Mayhall,  S. C. McKenzie,  J.-M. Mewes,  A. F. Morrison,  K. Nanda,  
 T. S. Nguyen-Beck,  R. Olivares-Amaya,  J. A. Parkhill,  T. M. Perrine,  
 F. Plasser,  S. Prager,  A. Prociuk,  D. R. Rehn,  F. Rob,  M. Schneider,  
 N. Sergueev,  S. M. Sharada,  S. Sharma,  D. W. Small,  T. Stauch,  
 T. Stein,  Yu-Chuan Su,  A. J. W. Thom,  T. Tsuchimochi,  L. Vogt,  
 O. Vydrov,  M. A. Watson,  J. Wenzel,  M. de Wergifosse,  T. A. Wesolowski,  
 A. White,  J. Witte,  A. Yamada,  Jun Yang,  K. Yao,  S. Yeganeh,  
 S. R. Yost,  Zhi-Qiang You,  A. Zech,  Igor Ying Zhang,  Xing Zhang,  
 Yan Zhao,  Ying Zhu,  B. R. Brooks,  G. K. L. Chan,  C. J. Cramer,  
 M. S. Gordon,  W. J. Hehre,  A. Klamt,  M. W. Schmidt,  C. D. Sherrill,  
 D. G. Truhlar,  A. Aspuru-Guzik,  R. Baer,  A. T. Bell,  N. A. Besley,  
 Jeng-Da Chai,  A. Dreuw,  B. D. Dunietz,  T. R. Furlani,  Chao-Ping Hsu,  
 Yousung Jung,  Jing Kong,  D. S. Lambrecht,  WanZhen Liang,  C. Ochsenfeld,  
 V. A. Rassolov,  L. V. Slipchenko,  J. E. Subotnik,  T. Van Voorhis,  
 J. M. Herbert,  A. I. Krylov,  P. M. W. Gill,  M. Head-Gordon

 Contributors to earlier versions of Q-Chem not listed above: 
 R. D. Adamson,  B. Austin,  J. Baker,  G. J. O. Beran,  K. Brandhorst,  
 S. T. Brown,  E. F. C. Byrd,  A. K. Chakraborty,  C.-L. Cheng,  
 Siu Hung Chien,  D. M. Chipman,  D. L. Crittenden,  H. Dachsel,  
 R. A. DiStasio Jr.,  R. J. Doerksen,  A. D. Dutoi,  L. Fusti-Molnar,  
 W. A. Goddard III,  A. Golubeva-Zadorozhnaya,  S. R. Gwaltney,  G. Hawkins,  
 A. Heyden,  S. Hirata,  G. Kedziora,  F. J. Keil,  C. Kelley,  Jihan Kim,  
 R. A. King,  R. Z. Khaliullin,  P. P. Korambath,  W. Kurlancheek,  
 A. M. Lee,  M. S. Lee,  S. V. Levchenko,  Ching Yeh Lin,  D. Liotard,  
 R. C. Lochan,  I. Lotan,  P. E. Maslen,  N. Nair,  D. P. O'Neill,  
 D. Neuhauser,  E. Neuscamman,  C. M. Oana,  R. Olson,  B. Peters,  
 R. Peverati,  P. A. Pieniazek,  Y. M. Rhee,  J. Ritchie,  M. A. Rohrdanz,  
 E. Rosta,  N. J. Russ,  H. F. Schaefer III,  N. E. Schultz,  N. Shenvi,  
 A. C. Simmonett,  A. Sodt,  D. Stuck,  K. S. Thanthiriwatte,  V. Vanovschi,  
 Tao Wang,  A. Warshel,  C. F. Williams,  Q. Wu,  X. Xu,  W. Zhang

 Please cite Q-Chem as follows:
 Y. Shao et al., Mol. Phys. 113, 184-215 (2015)
 DOI: 10.1080/00268976.2014.952696

 Q-Chem 5.0.0 for Intel X86 EM64T Linux

 Parts of Q-Chem use Armadillo 5.200.1 (Boston Tea Smuggler).
 http://arma.sourceforge.net/

 Q-Chem begins on Mon Dec  9 10:34:38 2019  

Host: r4298
0

     Scratch files written to /jobfs/local/4046915.r-man2/29CA.CCSD-T_6-31pGd.mo//
 Parallel job on  1  processors
Core orbitals will be frozen

Checking the input file for inconsistencies... 	...done.

--------------------------------------------------------------
User input:
--------------------------------------------------------------
$molecule
  0 1
    C     -6.1884726944    1.2708506961    0.0098388012
    N     -4.8985843131    0.7251385156    0.0120111908
    C     -3.7052271321    1.4006634757   -0.0291994526
    O     -3.5605996156    2.5943976032   -0.0747153700
    O     -2.6999251114    0.5090928486   -0.0106726713
    C     -1.3789049779    1.0711693764   -0.0496462840
    C     -0.3909611660   -0.0748866358   -0.0215811225
    C      1.0446217515    0.4418911681   -0.0605761812
    C     -6.4410499935    2.6431988128   -0.0364035918
    C     -7.7522748417    3.1075462676   -0.0353376714
    C     -8.8205077866    2.2139602000    0.0116162297
    C     -8.5689061367    0.8495246288    0.0576045416
    C     -7.2657680572    0.3831264348    0.0567015602
    H     -4.8219904553   -0.2804542175    0.0474905383
    H     -1.2534154948    1.7362071636    0.8082452829
    H     -1.2780638137    1.6717300232   -0.9569276035
    H     -0.5831104770   -0.7315151266   -0.8744850897
    H     -0.5585229223   -0.6672951028    0.8820217353
    H      1.2332644836    1.0215215271   -0.9674378891
    H      1.7582087215   -0.3826702318   -0.0404230569
    H      1.2579608751    1.0859927514    0.7959158978
    H     -5.6216794759    3.3444373264   -0.0729870546
    C     -7.9934773873    4.5970466040   -0.0858574637
    Cl   -10.4717797520    2.7538704659    0.0146399129
    H     -9.3995886316    0.1559723915    0.0940690466
    H     -7.0843149257   -0.6863665110    0.0929510234
    F     -6.8461059374    5.2837220280   -0.1264749732
    F     -8.6985990842    4.9498230623   -1.1687166499
    F     -8.6689956484    5.0278044546    0.9876363646

$end

$rem

    JOBTYPE               sp
    METHOD                CCSD(T)
    BASIS                 6-31+G*
    CC_BACKEND            XM

    MEM_TOTAL             60000
$end
--------------------------------------------------------------
 ----------------------------------------------------------------
             Standard Nuclear Orientation (Angstroms)
    I     Atom           X                Y                Z
 ----------------------------------------------------------------
    1      C      -0.0816717347    -1.0399984675    -0.0002398815
    2      N      -1.4801985306    -1.1157698301    -0.0004433562
    3      C      -2.3736057486    -0.0746372223    -0.0001500892
    4      O      -2.1046731599     1.0982503074     0.0001494869
    5      O      -3.6217589648    -0.5726202685    -0.0002606112
    6      C      -4.6737462243     0.4050636283     0.0001424686
    7      C      -5.9919066453    -0.3383864899    -0.0000528348
    8      C      -7.1670303926     0.6355550740     0.0004317379
    9      C       0.6215052703     0.1661586958    -0.0002025532
   10      C       2.0124995715     0.1580896649     0.0000028441
   11      C       2.7142240715    -1.0458227331     0.0001356430
   12      C       2.0146492555    -2.2448631064     0.0000793769
   13      C       0.6305663841    -2.2414694927    -0.0001031950
   14      H      -1.8934044891    -2.0364233849    -0.0005695426
   15      H      -4.5655653526     1.0395242818    -0.8828962550
   16      H      -4.5654717513     1.0388896899     0.8836256805
   17      H      -6.0345250960    -0.9877334463     0.8786164475
   18      H      -6.0346547460    -0.9870256811    -0.8792357840
   19      H      -7.1484504679     1.2794556508     0.8830428778
   20      H      -8.1180356585     0.1016047214     0.0002919536
   21      H      -7.1485925515     1.2801713949    -0.8816617705
   22      H       0.0886288015     1.1045000545    -0.0003092496
   23      C       2.7447212446     1.4783902307    -0.0000809376
   24      Cl      4.4507338500    -1.0982163410     0.0003372235
   25      H       2.5607744596    -3.1798096418     0.0001827489
   26      H       0.0970412687    -3.1866707274    -0.0001321309
   27      F       1.8983556483     2.5143918893    -0.0001500335
   28      F       3.5269625762     1.6128747348     1.0789205784
   29      F       3.5270591682     1.6127405643    -1.0790450740
 ----------------------------------------------------------------
 Molecular Point Group                 C1    NOp =  1
 Largest Abelian Subgroup              C1    NOp =  1
 Nuclear Repulsion Energy =  1451.4999857662 hartrees
 There are       72 alpha and       72 beta electrons
 Requested basis set is 6-31+G(d)
 There are 113 shells and 368 basis functions
 Total memory of 101219MB is distributed as follows: 
   QALLOC including MEM_STATIC uses 30062MB
   MEM_STATIC is set to 62MB
   CCMAN JOB total memory use is  101157MB
 Warning: actual memory use might exceed 101219MB

 Total QAlloc Memory Limit  30062 MB
 Mega-Array Size        61 MB
 MEM_STATIC part        62 MB
 A cutoff of  1.0D-14 yielded   4811 shell pairs
 There are     54962 function pairs
 
 -------------------------------------------------------
 OpenMP Integral Computing Module                       
 Release: version 1.0, May 2013, Q-Chem Inc. Pittsburgh 
 -------------------------------------------------------
 Integral Job Info:
 Integral job number is                      11
 Integral operator is                         1
 short-range coefficients                     0
 long-range coefficients              100000000
 Omega coefficients                           0
 if combine SR and LR in K                    0
 Integral screening is                        0
 Integral computing path is                   2
 max size of driver memory is            800000
 size of driver memory is                593474
 size of scratch memory is             15166112
 max col of scratch BK array               1296
 max len of scratch array in speh3          155
 max len of scratch index in speh4           18
 max int batch size is                      520
 min int batch size is                       52
 fixed nKL is                                52
 max L of basis functions is                  2
 order of int derivative is                   0
 number of shells is                        113
 number of basis is                         368
 number of cartesian basis is               368
 number of contracted shell pairs          4811
 number of primitive shell pairs          15562
 maxK2 (contraction) of shell pair           36
 max number of K2 of shell pair               1
 max number of CS2 of shell pair            689
 max number of PS2 of shell pair           3858
 mem total for path MDJ                  138728
 -------------------------------------------------------
 Smallest overlap matrix eigenvalue = 2.87E-07
 Linear dependence detected in AO basis
 Number of orthogonalized atomic orbitals = 367
 Maximum deviation from orthogonality = 2.596E-10

 Scale SEOQF with 1.000000e-02/1.000000e-01/1.000000e-01

 Standard Electronic Orientation quadrupole field applied
 Nucleus-field energy     =     0.0000000232 hartrees
 Guess from superposition of atomic densities
 Warning:  Energy on first SCF cycle will be non-variational
 A restricted Hartree-Fock SCF calculation will be
 performed using Pulay DIIS extrapolation
 SCF converges when DIIS error is below 1.0E-08
 -------------------------------------------------------
 OpenMP Integral computing Module                
 Release: version 1.0, May 2013, Q-Chem Inc. Pittsburgh 
 -------------------------------------------------------
 ---------------------------------------
  Cycle       Energy         DIIS Error
 ---------------------------------------
    1   -1391.0852464075      3.91E-02
    2   -1384.6370997295      4.62E-03
    3   -1384.8975947481      2.79E-03
    4   -1384.9919568130      5.16E-04
    5   -1384.9971113130      1.84E-04
    6   -1384.9977141562      4.45E-05
    7   -1384.9977686573      1.92E-05
    8   -1384.9977814363      5.87E-06
    9   -1384.9977829317      2.49E-06
   10   -1384.9977831632      8.39E-07
   11   -1384.9977831967      3.39E-07
   12   -1384.9977832028      1.41E-07
   13   -1384.9977832039      5.59E-08
   14   -1384.9977832041      2.94E-08
   15   -1384.9977832042      1.26E-08
   16   -1384.9977832042      4.47E-09 Convergence criterion met
 ---------------------------------------
 SCF time:  CPU 231.21 s  wall 59.11 s
 SCF   energy in the final basis set = -1384.9977832042
 Total energy in the final basis set = -1384.9977832042


 ------------------------------------------------------------------------------

   CCMAN2: suite of methods based on coupled cluster
           and equation of motion theories.

   Components:
   * libvmm-1.3-trunk
     by Evgeny Epifanovsky, Ilya Kaliman.
   * libtensor-2.5-release
     by Evgeny Epifanovsky, Michael Wormit, Dmitry Zuev, Sam Manzer, 
        Ilya Kaliman.
   * libcc-2.5-trunk
     by Evgeny Epifanovsky, Arik Landau, Tomasz Kus, Kirill Khistyaev, 
        Dmitry Zuev, Prashant Manohar, Xintian Feng, Anna Krylov, 
        Matthew Goldey, Alec White, Thomas Jagau, Kaushik Nanda, 
        Anastasia Gunina, Alexander Kunitsa, Joonho Lee.

   CCMAN original authors:
   Anna I. Krylov, C. David Sherrill, Steven R. Gwaltney,
   Edward F. C. Byrd (2000)
   Sergey V. Levchenko, Lyudmila V. Slipchenko, Tao Wang,
   Ana-Maria C. Cristian (2003)
   Piotr A. Pieniazek, C. Melania Oana, Evgeny Epifanovsky (2007)
   Prashant Manohar (2009)

 ------------------------------------------------------------------------------


================================================================================
This program uses libxm tensor contraction code.
See https://github.com/ilyak/libxm for more info.
libxm is (c) Ilya Kaliman 2014-2016.
================================================================================

 Calculation will run on 4 cores using libxm for tensor contractions

 
 Alpha MOs, Restricted
 -- Occupied --                  
-104.84  -26.35  -26.35  -26.35  -20.63  -20.57  -15.63  -11.52
  1 A     2 A     3 A     4 A     5 A     6 A     7 A     8 A                  
-11.435 -11.325 -11.323 -11.302 -11.290 -11.276 -11.274 -11.267
  9 A    10 A    11 A    12 A    13 A    14 A    15 A    16 A                  
-11.242 -11.233 -10.572  -8.041  -8.038  -8.038  -1.734  -1.636
 17 A    18 A    19 A    20 A    21 A    22 A    23 A    24 A                  
 -1.633  -1.494  -1.386  -1.290  -1.213  -1.135  -1.089  -1.082
 25 A    26 A    27 A    28 A    29 A    30 A    31 A    32 A                  
 -1.025  -0.975  -0.955  -0.892  -0.874  -0.839  -0.824  -0.821
 33 A    34 A    35 A    36 A    37 A    38 A    39 A    40 A                  
 -0.817  -0.797  -0.765  -0.722  -0.710  -0.708  -0.708  -0.693
 41 A    42 A    43 A    44 A    45 A    46 A    47 A    48 A                  
 -0.676  -0.659  -0.658  -0.652  -0.643  -0.643  -0.630  -0.618
 49 A    50 A    51 A    52 A    53 A    54 A    55 A    56 A                  
 -0.598  -0.589  -0.565  -0.560  -0.551  -0.544  -0.530  -0.517
 57 A    58 A    59 A    60 A    61 A    62 A    63 A    64 A                  
 -0.503  -0.498  -0.478  -0.475  -0.463  -0.452  -0.379  -0.327
 65 A    66 A    67 A    68 A    69 A    70 A    71 A    72 A                  
 -- Virtual --                   
  0.051   0.072   0.077   0.079   0.083   0.087   0.088   0.097
 73 A    74 A    75 A    76 A    77 A    78 A    79 A    80 A                  
  0.103   0.107   0.113   0.116   0.124   0.130   0.130   0.134
 81 A    82 A    83 A    84 A    85 A    86 A    87 A    88 A                  
  0.138   0.145   0.148   0.150   0.154   0.158   0.172   0.176
 89 A    90 A    91 A    92 A    93 A    94 A    95 A    96 A                  
  0.180   0.186   0.197   0.197   0.204   0.212   0.212   0.217
 97 A    98 A    99 A   100 A   101 A   102 A   103 A   104 A                  
  0.227   0.230   0.237   0.243   0.255   0.256   0.267   0.273
105 A   106 A   107 A   108 A   109 A   110 A   111 A   112 A                  
  0.282   0.284   0.288   0.291   0.293   0.300   0.308   0.314
113 A   114 A   115 A   116 A   117 A   118 A   119 A   120 A                  
  0.320   0.327   0.330   0.334   0.338   0.340   0.345   0.351
121 A   122 A   123 A   124 A   125 A   126 A   127 A   128 A                  
  0.356   0.365   0.370   0.380   0.388   0.391   0.395   0.403
129 A   130 A   131 A   132 A   133 A   134 A   135 A   136 A                  
  0.413   0.416   0.419   0.422   0.427   0.428   0.432   0.441
137 A   138 A   139 A   140 A   141 A   142 A   143 A   144 A                  
  0.443   0.451   0.451   0.459   0.465   0.468   0.473   0.483
145 A   146 A   147 A   148 A   149 A   150 A   151 A   152 A                  
  0.487   0.492   0.498   0.501   0.515   0.515   0.522   0.531
153 A   154 A   155 A   156 A   157 A   158 A   159 A   160 A                  
  0.541   0.561   0.569   0.569   0.584   0.589   0.598   0.604
161 A   162 A   163 A   164 A   165 A   166 A   167 A   168 A                  
  0.621   0.639   0.664   0.685   0.699   0.748   0.755   0.792
169 A   170 A   171 A   172 A   173 A   174 A   175 A   176 A                  
  0.832   0.843   0.843   0.864   0.878   0.895   0.906   0.913
177 A   178 A   179 A   180 A   181 A   182 A   183 A   184 A                  
  0.919   0.921   0.926   0.927   0.935   0.944   0.950   0.967
185 A   186 A   187 A   188 A   189 A   190 A   191 A   192 A                  
  0.980   0.992   0.995   1.015   1.026   1.027   1.054   1.057
193 A   194 A   195 A   196 A   197 A   198 A   199 A   200 A                  
  1.073   1.085   1.091   1.094   1.125   1.154   1.172   1.174
201 A   202 A   203 A   204 A   205 A   206 A   207 A   208 A                  
  1.185   1.187   1.200   1.210   1.219   1.221   1.245   1.247
209 A   210 A   211 A   212 A   213 A   214 A   215 A   216 A                  
  1.255   1.281   1.288   1.301   1.305   1.324   1.352   1.363
217 A   218 A   219 A   220 A   221 A   222 A   223 A   224 A                  
  1.370   1.375   1.388   1.398   1.407   1.434   1.451   1.455
225 A   226 A   227 A   228 A   229 A   230 A   231 A   232 A                  
  1.466   1.476   1.478   1.513   1.513   1.533   1.568   1.573
233 A   234 A   235 A   236 A   237 A   238 A   239 A   240 A                  
  1.602   1.603   1.625   1.638   1.656   1.673   1.682   1.694
241 A   242 A   243 A   244 A   245 A   246 A   247 A   248 A                  
  1.701   1.716   1.731   1.764   1.776   1.782   1.801   1.811
249 A   250 A   251 A   252 A   253 A   254 A   255 A   256 A                  
  1.844   1.877   1.889   1.919   1.920   1.944   1.954   1.975
257 A   258 A   259 A   260 A   261 A   262 A   263 A   264 A                  
  1.978   1.979   1.999   2.009   2.020   2.038   2.046   2.082
265 A   266 A   267 A   268 A   269 A   270 A   271 A   272 A                  
  2.086   2.101   2.120   2.121   2.122   2.126   2.133   2.162
273 A   274 A   275 A   276 A   277 A   278 A   279 A   280 A                  
  2.164   2.174   2.181   2.194   2.204   2.231   2.254   2.264
281 A   282 A   283 A   284 A   285 A   286 A   287 A   288 A                  
  2.273   2.291   2.304   2.320   2.334   2.352   2.355   2.358
289 A   290 A   291 A   292 A   293 A   294 A   295 A   296 A                  
  2.379   2.390   2.396   2.407   2.422   2.443   2.447   2.460
297 A   298 A   299 A   300 A   301 A   302 A   303 A   304 A                  
  2.487   2.499   2.512   2.536   2.566   2.567   2.585   2.594
305 A   306 A   307 A   308 A   309 A   310 A   311 A   312 A                  
  2.598   2.604   2.668   2.682   2.713   2.716   2.737   2.741
313 A   314 A   315 A   316 A   317 A   318 A   319 A   320 A                  
  2.804   2.826   2.830   2.849   2.917   2.962   2.978   2.984
321 A   322 A   323 A   324 A   325 A   326 A   327 A   328 A                  
  3.022   3.059   3.087   3.091   3.109   3.112   3.126   3.154
329 A   330 A   331 A   332 A   333 A   334 A   335 A   336 A                  
  3.207   3.256   3.275   3.313   3.404   3.471   3.514   3.521
337 A   338 A   339 A   340 A   341 A   342 A   343 A   344 A                  
  3.600   3.632   3.680   3.729   3.816   4.608   4.657   4.684
345 A   346 A   347 A   348 A   349 A   350 A   351 A   352 A                  
  4.703   4.767   4.792   4.815   4.833   4.867   4.895   4.970
353 A   354 A   355 A   356 A   357 A   358 A   359 A   360 A                  
  5.006   5.044   5.116   5.207   6.002   6.610   7.428
361 A   362 A   363 A   364 A   365 A   366 A   367 A                          
 
 Beta MOs, Restricted
 -- Occupied --                  
-104.84  -26.35  -26.35  -26.35  -20.63  -20.57  -15.63  -11.52
  1 A     2 A     3 A     4 A     5 A     6 A     7 A     8 A                  
-11.435 -11.325 -11.323 -11.302 -11.290 -11.276 -11.274 -11.267
  9 A    10 A    11 A    12 A    13 A    14 A    15 A    16 A                  
-11.242 -11.233 -10.572  -8.041  -8.038  -8.038  -1.734  -1.636
 17 A    18 A    19 A    20 A    21 A    22 A    23 A    24 A                  
 -1.633  -1.494  -1.386  -1.290  -1.213  -1.135  -1.089  -1.082
 25 A    26 A    27 A    28 A    29 A    30 A    31 A    32 A                  
 -1.025  -0.975  -0.955  -0.892  -0.874  -0.839  -0.824  -0.821
 33 A    34 A    35 A    36 A    37 A    38 A    39 A    40 A                  
 -0.817  -0.797  -0.765  -0.722  -0.710  -0.708  -0.708  -0.693
 41 A    42 A    43 A    44 A    45 A    46 A    47 A    48 A                  
 -0.676  -0.659  -0.658  -0.652  -0.643  -0.643  -0.630  -0.618
 49 A    50 A    51 A    52 A    53 A    54 A    55 A    56 A                  
 -0.598  -0.589  -0.565  -0.560  -0.551  -0.544  -0.530  -0.517
 57 A    58 A    59 A    60 A    61 A    62 A    63 A    64 A                  
 -0.503  -0.498  -0.478  -0.475  -0.463  -0.452  -0.379  -0.327
 65 A    66 A    67 A    68 A    69 A    70 A    71 A    72 A                  
 -- Virtual --                   
  0.051   0.072   0.077   0.079   0.083   0.087   0.088   0.097
 73 A    74 A    75 A    76 A    77 A    78 A    79 A    80 A                  
  0.103   0.107   0.113   0.116   0.124   0.130   0.130   0.134
 81 A    82 A    83 A    84 A    85 A    86 A    87 A    88 A                  
  0.138   0.145   0.148   0.150   0.154   0.158   0.172   0.176
 89 A    90 A    91 A    92 A    93 A    94 A    95 A    96 A                  
  0.180   0.186   0.197   0.197   0.204   0.212   0.212   0.217
 97 A    98 A    99 A   100 A   101 A   102 A   103 A   104 A                  
  0.227   0.230   0.237   0.243   0.255   0.256   0.267   0.273
105 A   106 A   107 A   108 A   109 A   110 A   111 A   112 A                  
  0.282   0.284   0.288   0.291   0.293   0.300   0.308   0.314
113 A   114 A   115 A   116 A   117 A   118 A   119 A   120 A                  
  0.320   0.327   0.330   0.334   0.338   0.340   0.345   0.351
121 A   122 A   123 A   124 A   125 A   126 A   127 A   128 A                  
  0.356   0.365   0.370   0.380   0.388   0.391   0.395   0.403
129 A   130 A   131 A   132 A   133 A   134 A   135 A   136 A                  
  0.413   0.416   0.419   0.422   0.427   0.428   0.432   0.441
137 A   138 A   139 A   140 A   141 A   142 A   143 A   144 A                  
  0.443   0.451   0.451   0.459   0.465   0.468   0.473   0.483
145 A   146 A   147 A   148 A   149 A   150 A   151 A   152 A                  
  0.487   0.492   0.498   0.501   0.515   0.515   0.522   0.531
153 A   154 A   155 A   156 A   157 A   158 A   159 A   160 A                  
  0.541   0.561   0.569   0.569   0.584   0.589   0.598   0.604
161 A   162 A   163 A   164 A   165 A   166 A   167 A   168 A                  
  0.621   0.639   0.664   0.685   0.699   0.748   0.755   0.792
169 A   170 A   171 A   172 A   173 A   174 A   175 A   176 A                  
  0.832   0.843   0.843   0.864   0.878   0.895   0.906   0.913
177 A   178 A   179 A   180 A   181 A   182 A   183 A   184 A                  
  0.919   0.921   0.926   0.927   0.935   0.944   0.950   0.967
185 A   186 A   187 A   188 A   189 A   190 A   191 A   192 A                  
  0.980   0.992   0.995   1.015   1.026   1.027   1.054   1.057
193 A   194 A   195 A   196 A   197 A   198 A   199 A   200 A                  
  1.073   1.085   1.091   1.094   1.125   1.154   1.172   1.174
201 A   202 A   203 A   204 A   205 A   206 A   207 A   208 A                  
  1.185   1.187   1.200   1.210   1.219   1.221   1.245   1.247
209 A   210 A   211 A   212 A   213 A   214 A   215 A   216 A                  
  1.255   1.281   1.288   1.301   1.305   1.324   1.352   1.363
217 A   218 A   219 A   220 A   221 A   222 A   223 A   224 A                  
  1.370   1.375   1.388   1.398   1.407   1.434   1.451   1.455
225 A   226 A   227 A   228 A   229 A   230 A   231 A   232 A                  
  1.466   1.476   1.478   1.513   1.513   1.533   1.568   1.573
233 A   234 A   235 A   236 A   237 A   238 A   239 A   240 A                  
  1.602   1.603   1.625   1.638   1.656   1.673   1.682   1.694
241 A   242 A   243 A   244 A   245 A   246 A   247 A   248 A                  
  1.701   1.716   1.731   1.764   1.776   1.782   1.801   1.811
249 A   250 A   251 A   252 A   253 A   254 A   255 A   256 A                  
  1.844   1.877   1.889   1.919   1.920   1.944   1.954   1.975
257 A   258 A   259 A   260 A   261 A   262 A   263 A   264 A                  
  1.978   1.979   1.999   2.009   2.020   2.038   2.046   2.082
265 A   266 A   267 A   268 A   269 A   270 A   271 A   272 A                  
  2.086   2.101   2.120   2.121   2.122   2.126   2.133   2.162
273 A   274 A   275 A   276 A   277 A   278 A   279 A   280 A                  
  2.164   2.174   2.181   2.194   2.204   2.231   2.254   2.264
281 A   282 A   283 A   284 A   285 A   286 A   287 A   288 A                  
  2.273   2.291   2.304   2.320   2.334   2.352   2.355   2.358
289 A   290 A   291 A   292 A   293 A   294 A   295 A   296 A                  
  2.379   2.390   2.396   2.407   2.422   2.443   2.447   2.460
297 A   298 A   299 A   300 A   301 A   302 A   303 A   304 A                  
  2.487   2.499   2.512   2.536   2.566   2.567   2.585   2.594
305 A   306 A   307 A   308 A   309 A   310 A   311 A   312 A                  
  2.598   2.604   2.668   2.682   2.713   2.716   2.737   2.741
313 A   314 A   315 A   316 A   317 A   318 A   319 A   320 A                  
  2.804   2.826   2.830   2.849   2.917   2.962   2.978   2.984
321 A   322 A   323 A   324 A   325 A   326 A   327 A   328 A                  
  3.022   3.059   3.087   3.091   3.109   3.112   3.126   3.154
329 A   330 A   331 A   332 A   333 A   334 A   335 A   336 A                  
  3.207   3.256   3.275   3.313   3.404   3.471   3.514   3.521
337 A   338 A   339 A   340 A   341 A   342 A   343 A   344 A                  
  3.600   3.632   3.680   3.729   3.816   4.608   4.657   4.684
345 A   346 A   347 A   348 A   349 A   350 A   351 A   352 A                  
  4.703   4.767   4.792   4.815   4.833   4.867   4.895   4.970
353 A   354 A   355 A   356 A   357 A   358 A   359 A   360 A                  
  5.006   5.044   5.116   5.207   6.002   6.610   7.428
361 A   362 A   363 A   364 A   365 A   366 A   367 A                          

 Occupation and symmetry of molecular orbitals

 Point group: C1 (1 irreducible representation).

                           A     All 
 -------------------------------------
 All molecular orbitals:
  - Alpha                  367   367 
  - Beta                   367   367 
 -------------------------------------
 Alpha orbitals:
  - Frozen occupied        22    22  
  - Active occupied        50    50  
  - Active virtual         295   295 
  - Frozen virtual         0     0   
 -------------------------------------
 Beta orbitals:
  - Frozen occupied        22    22  
  - Active occupied        50    50  
  - Active virtual         295   295 
  - Frozen virtual         0     0   
 -------------------------------------

 Import integrals:   CPU 0.00 s  wall 0.00 s

 Import integrals:   CPU 1453.94 s  wall 549.59 s

 MP2 amplitudes:   CPU 22.44 s  wall 48.83 s

           CCSD T amplitudes will be solved using DIIS.

           Start     Size      MaxIter   EConv     TConv     
           3         7         100       1.00e-06  1.00e-04  
 ------------------------------------------------------------------------------
           Energy (a.u.)   Ediff      Tdiff       Comment
 ------------------------------------------------------------------------------
         -1387.59033697                           
     1   -1387.57829202   1.20e-02   1.48e+00     Step took 43.59.
     2   -1387.65757808   7.93e-02   2.01e-01     
     3   -1387.65639073   1.19e-03   7.45e-02     
     4   -1387.66420520   7.81e-03   2.45e-02     Switched to DIIS steps.
     5   -1387.66685830   2.65e-03   1.66e-02     
     6   -1387.66701387   1.56e-04   3.41e-03     
     7   -1387.66699746   1.64e-05   1.73e-03     
     8   -1387.66698752   9.94e-06   4.44e-04     
     9   -1387.66698809   5.68e-07   1.69e-04     
    10   -1387.66698798   1.07e-07   4.45e-05     
 ------------------------------------------------------------------------------
         -1387.66698798                           CCSD T converged.


 ------------------------------------------------------------------------------
 == (T) code is based on LIBPT ==
 == Author: Ilya Kaliman, 2016 ==

 Starting (T) calculation...
 (T) calculation completed in 84164 sec
 ------------------------------------------------------------------------------

 SCF energy                 = -1384.99778320
 MP2 energy                 = -1387.59033697
 CCSD correlation energy     =    -2.66920478
 CCSD total energy           = -1387.66698798
 CCSD(T) correlation energy =    -0.09961424
 CCSD(T) total energy       = -1387.76660223

 CCSD  T1^2 = 0.0367  T2^2 = 0.8862  Leading amplitudes:

 Amplitude    Orbitals with energies
 -0.0208       45 (A) A                  ->    106 (A) A                  
              -0.7102                          0.2297                     
 -0.0208       45 (A) B                  ->    106 (A) B                  
              -0.7102                          0.2297                     
 -0.0203       54 (A) A                  ->    106 (A) A                  
              -0.6430                          0.2297                     
 -0.0203       54 (A) B                  ->    106 (A) B                  
              -0.6430                          0.2297                     

 Amplitude    Orbitals with energies
 -0.0478       71 (A) A      71 (A) B    ->    76 (A) A      76 (A) B     
              -0.3786       -0.3786            0.0789        0.0789       
  0.0478       71 (A) A      71 (A) B    ->    76 (A) B      76 (A) A     
              -0.3786       -0.3786            0.0789        0.0789       
  0.0478       71 (A) B      71 (A) A    ->    76 (A) A      76 (A) B     
              -0.3786       -0.3786            0.0789        0.0789       
 -0.0478       71 (A) B      71 (A) A    ->    76 (A) B      76 (A) A     
              -0.3786       -0.3786            0.0789        0.0789       

 CCSD calculation:   CPU 401326.37 s  wall 116397.74 s

 Total ccman2 time:   CPU 402819.22 s  wall 117010.59 s

 
 --------------------------------------------------------------
 
                    Orbital Energies (a.u.)
 --------------------------------------------------------------
 
 Alpha MOs
 -- Occupied --
******* -26.352 -26.347 -26.347 -20.631 -20.566 -15.635 -11.520
-11.435 -11.325 -11.323 -11.302 -11.290 -11.276 -11.274 -11.267
-11.242 -11.233 -10.572  -8.041  -8.038  -8.038  -1.734  -1.636
 -1.633  -1.494  -1.386  -1.290  -1.213  -1.135  -1.089  -1.082
 -1.025  -0.975  -0.955  -0.892  -0.874  -0.839  -0.824  -0.821
 -0.817  -0.797  -0.765  -0.722  -0.710  -0.708  -0.708  -0.693
 -0.676  -0.659  -0.658  -0.652  -0.643  -0.643  -0.630  -0.618
 -0.598  -0.589  -0.565  -0.560  -0.551  -0.544  -0.530  -0.517
 -0.503  -0.498  -0.478  -0.475  -0.463  -0.452  -0.379  -0.327
 -- Virtual --
  0.051   0.072   0.077   0.079   0.083   0.087   0.088   0.097
  0.103   0.107   0.113   0.116   0.124   0.130   0.130   0.134
  0.138   0.145   0.148   0.150   0.154   0.158   0.172   0.176
  0.180   0.186   0.197   0.197   0.204   0.212   0.212   0.217
  0.227   0.230   0.237   0.243   0.255   0.256   0.267   0.273
  0.282   0.284   0.288   0.291   0.293   0.300   0.308   0.314
  0.320   0.327   0.330   0.334   0.338   0.340   0.345   0.351
  0.356   0.365   0.370   0.380   0.388   0.391   0.395   0.403
  0.413   0.416   0.419   0.422   0.427   0.428   0.432   0.441
  0.443   0.451   0.451   0.459   0.465   0.468   0.473   0.483
  0.487   0.492   0.498   0.501   0.515   0.515   0.522   0.531
  0.541   0.561   0.569   0.569   0.584   0.589   0.598   0.604
  0.621   0.639   0.664   0.685   0.699   0.748   0.755   0.792
  0.832   0.843   0.843   0.864   0.878   0.895   0.906   0.913
  0.919   0.921   0.926   0.927   0.935   0.944   0.950   0.967
  0.980   0.992   0.995   1.015   1.026   1.027   1.054   1.057
  1.073   1.085   1.091   1.094   1.125   1.154   1.172   1.174
  1.185   1.187   1.200   1.210   1.219   1.221   1.245   1.247
  1.255   1.281   1.288   1.301   1.305   1.324   1.352   1.363
  1.370   1.375   1.388   1.398   1.407   1.434   1.451   1.455
  1.466   1.476   1.478   1.513   1.513   1.533   1.568   1.573
  1.602   1.603   1.625   1.638   1.656   1.673   1.682   1.694
  1.701   1.716   1.731   1.764   1.776   1.782   1.801   1.811
  1.844   1.877   1.889   1.919   1.920   1.944   1.954   1.975
  1.978   1.979   1.999   2.009   2.020   2.038   2.046   2.082
  2.086   2.101   2.120   2.121   2.122   2.126   2.133   2.162
  2.164   2.174   2.181   2.194   2.204   2.231   2.254   2.264
  2.273   2.291   2.304   2.320   2.334   2.352   2.355   2.358
  2.379   2.390   2.396   2.407   2.422   2.443   2.447   2.460
  2.487   2.499   2.512   2.536   2.566   2.567   2.585   2.594
  2.598   2.604   2.668   2.682   2.713   2.716   2.737   2.741
  2.804   2.826   2.830   2.849   2.917   2.962   2.978   2.984
  3.022   3.059   3.087   3.091   3.109   3.112   3.126   3.154
  3.207   3.256   3.275   3.313   3.404   3.471   3.514   3.521
  3.600   3.632   3.680   3.729   3.816   4.608   4.657   4.684
  4.703   4.767   4.792   4.815   4.833   4.867   4.895   4.970
  5.006   5.044   5.116   5.207   6.002   6.610   7.428
 --------------------------------------------------------------
 
          Ground-State Mulliken Net Atomic Charges

     Atom                 Charge (a.u.)
  ----------------------------------------
      1 C                    -0.211021
      2 N                    -0.941965
      3 C                     0.798377
      4 O                    -0.590224
      5 O                    -0.470074
      6 C                     0.126120
      7 C                    -0.285320
      8 C                    -0.687447
      9 C                     0.303740
     10 C                    -0.800118
     11 C                     0.442195
     12 C                    -0.470724
     13 C                    -0.842477
     14 H                     0.499828
     15 H                     0.212309
     16 H                     0.212303
     17 H                     0.203786
     18 H                     0.203788
     19 H                     0.196646
     20 H                     0.203908
     21 H                     0.196646
     22 H                     0.350744
     23 C                     1.679520
     24 Cl                    0.320728
     25 H                     0.267293
     26 H                     0.240554
     27 F                    -0.436535
     28 F                    -0.361284
     29 F                    -0.361297
  ----------------------------------------
  Sum of atomic charges =     0.000000

 -----------------------------------------------------------------
                    Cartesian Multipole Moments
 -----------------------------------------------------------------
    Charge (ESU x 10^10)
                 0.0000
    Dipole Moment (Debye)
         X      -5.2940      Y      -4.4882      Z      -0.0003
       Tot       6.9405
    Quadrupole Moments (Debye-Ang)
        XX    -105.5956     XY      -2.6481     YY    -107.5659
        XZ      -0.0003     YZ      -0.0006     ZZ    -113.7443
    Octopole Moments (Debye-Ang^2)
       XXX    -108.9274    XXY       4.4865    XYY      13.2758
       YYY      -4.7054    XXZ       0.0044    XYZ       0.0017
       YYZ      -0.0037    XZZ       2.2812    YZZ      16.7350
       ZZZ       0.0003
    Hexadecapole Moments (Debye-Ang^3)
      XXXX   -8274.1356   XXXY      34.1171   XXYY   -1688.6081
      XYYY      82.8955   YYYY   -1172.8021   XXXZ      -0.0022
      XXYZ      -0.0138   XYYZ       0.0131   YYYZ      -0.0018
      XXZZ   -1506.6155   XYZZ      27.9346   YYZZ    -255.8050
      XZZZ      -0.0016   YZZZ      -0.0017   ZZZZ    -201.7785
 -----------------------------------------------------------------
Archival summary:
1\1\r4298\SP\ProcedureUnspecified\6-31+G*\l13211111\hio507\TueDec1019:05:482019TueDec1019:05:482019\0\\#,ProcedureUnspecified,6-31+G*,\\0,1\Cl\C,1,1.7373\C,2,1.3882,1,118.533\H,3,1.08276,2,119.449,1,0.00128826,0\C,3,1.38409,2,120.121,1,-179.999,0\H,5,1.08538,3,119.302,2,-180,0\C,2,1.39349,1,121.965,3,-179.999,0\C,7,1.39102,2,120.569,1,179.998,0\H,8,1.07909,7,119.924,2,-180,0\C,8,1.39616,7,119.909,2,0.00175507,0\N,10,1.40058,8,123.343,7,-180,0\H,11,1.00913,10,117.273,8,179.993,0\C,11,1.37191,10,127.532,8,-0.0254823,0\O,13,1.20332,11,126.453,10,0.011219,0\O,13,1.34383,11,108.882,10,-179.989,0\C,15,1.43616,13,115.346,11,179.995,0\H,16,1.0927,15,108.816,13,58.645,0\H,16,1.0927,15,108.816,13,-58.6454,0\C,7,1.50975,2,120.751,1,0.00488009,0\F,19,1.33777,7,111.741,2,-179.997,0\F,19,1.33949,7,111.776,2,-60.1599,0\F,19,1.3395,7,111.779,2,60.1607,0\C,16,1.51336,15,107.673,13,180,0\H,23,1.0934,16,109.001,15,-58.2332,0\H,23,1.0934,16,109.002,15,58.2274,0\C,23,1.52626,16,110.925,15,179.997,0\H,26,1.09065,23,111.036,16,-180,0\H,26,1.09268,23,111.297,16,-60.077,0\H,26,1.09268,23,111.297,16,60.0768,0\\HF=-1384.99778\\@

 Total job time:  117070.58s(wall), 403051.54s(cpu) 
 Tue Dec 10 19:05:48 2019

        *************************************************************
        *                                                           *
        *  Thank you very much for using Q-Chem.  Have a nice day.  *
        *                                                           *
        *************************************************************


0 sent ACK to 0 
now end server 0 ... 
