 Entering Gaussian System, Link 0=/apps/gaussian/g16c01/g16/g16
 Initial command:
 /apps/gaussian/g16c01/g16/l1.exe "/jobfs/11801257.gadi-pbs/Gau-943799.inp" -scrdir="/jobfs/11801257.gadi-pbs/"
 Entering Link 1 = /apps/gaussian/g16c01/g16/l1.exe PID=    943800.
  
 Copyright (c) 1988-2019, Gaussian, Inc.  All Rights Reserved.
  
 This is part of the Gaussian(R) 16 program.  It is based on
 the Gaussian(R) 09 system (copyright 2009, Gaussian, Inc.),
 the Gaussian(R) 03 system (copyright 2003, Gaussian, Inc.),
 the Gaussian(R) 98 system (copyright 1998, Gaussian, Inc.),
 the Gaussian(R) 94 system (copyright 1995, Gaussian, Inc.),
 the Gaussian 92(TM) system (copyright 1992, Gaussian, Inc.),
 the Gaussian 90(TM) system (copyright 1990, Gaussian, Inc.),
 the Gaussian 88(TM) system (copyright 1988, Gaussian, Inc.),
 the Gaussian 86(TM) system (copyright 1986, Carnegie Mellon
 University), and the Gaussian 82(TM) system (copyright 1983,
 Carnegie Mellon University). Gaussian is a federally registered
 trademark of Gaussian, Inc.
  
 This software contains proprietary and confidential information,
 including trade secrets, belonging to Gaussian, Inc.
  
 This software is provided under written license and may be
 used, copied, transmitted, or stored only in accord with that
 written license.
  
 The following legend is applicable only to US Government
 contracts under FAR:
  
                    RESTRICTED RIGHTS LEGEND
  
 Use, reproduction and disclosure by the US Government is
 subject to restrictions as set forth in subparagraphs (a)
 and (c) of the Commercial Computer Software - Restricted
 Rights clause in FAR 52.227-19.
  
 Gaussian, Inc.
 340 Quinnipiac St., Bldg. 40, Wallingford CT 06492
  
  
 ---------------------------------------------------------------
 Warning -- This program may not be used in any manner that
 competes with the business of Gaussian, Inc. or will provide
 assistance to any competitor of Gaussian, Inc.  The licensee
 of this program is prohibited from giving any competitor of
 Gaussian, Inc. access to this program.  By using this program,
 the user acknowledges that Gaussian, Inc. is engaged in the
 business of creating and licensing software in the field of
 computational chemistry and represents and warrants to the
 licensee that it is not a competitor of Gaussian, Inc. and that
 it will not use this program in any manner prohibited above.
 ---------------------------------------------------------------
  

 Cite this work as:
 Gaussian 16, Revision C.01,
 M. J. Frisch, G. W. Trucks, H. B. Schlegel, G. E. Scuseria, 
 M. A. Robb, J. R. Cheeseman, G. Scalmani, V. Barone, 
 G. A. Petersson, H. Nakatsuji, X. Li, M. Caricato, A. V. Marenich, 
 J. Bloino, B. G. Janesko, R. Gomperts, B. Mennucci, H. P. Hratchian, 
 J. V. Ortiz, A. F. Izmaylov, J. L. Sonnenberg, D. Williams-Young, 
 F. Ding, F. Lipparini, F. Egidi, J. Goings, B. Peng, A. Petrone, 
 T. Henderson, D. Ranasinghe, V. G. Zakrzewski, J. Gao, N. Rega, 
 G. Zheng, W. Liang, M. Hada, M. Ehara, K. Toyota, R. Fukuda, 
 J. Hasegawa, M. Ishida, T. Nakajima, Y. Honda, O. Kitao, H. Nakai, 
 T. Vreven, K. Throssell, J. A. Montgomery, Jr., J. E. Peralta, 
 F. Ogliaro, M. J. Bearpark, J. J. Heyd, E. N. Brothers, K. N. Kudin, 
 V. N. Staroverov, T. A. Keith, R. Kobayashi, J. Normand, 
 K. Raghavachari, A. P. Rendell, J. C. Burant, S. S. Iyengar, 
 J. Tomasi, M. Cossi, J. M. Millam, M. Klene, C. Adamo, R. Cammi, 
 J. W. Ochterski, R. L. Martin, K. Morokuma, O. Farkas, 
 J. B. Foresman, and D. J. Fox, Gaussian, Inc., Wallingford CT, 2019.
 
 ******************************************
 Gaussian 16:  ES64L-G16RevC.01  3-Jul-2019
                28-Sep-2020 
 ******************************************
 %NprocShared=6
 Will use up to    6 processors via shared memory.
 %Mem=1194000MB
 %chk=29CA_c2.DSDPBEP86_AUG-cc-PVTZ.chk
 ----------------------------------------------------------------------
 # DSDPBEP86/AUG-cc-PVTZ SCF=Tight INT(grid=ultrafine) MaxDisk=1400000M
 B
 ----------------------------------------------------------------------
 1/38=1,172=1/1;
 2/12=2,17=6,18=5,40=1/2;
 3/5=16,6=1,7=10,11=9,25=1,30=1,74=-77,75=-5/1,2,3;
 4//1;
 5/5=2,32=2,38=5/2;
 8/10=1/1;
 9/16=-3/6;
 6/7=2,8=2,9=2,10=2/1;
 99/5=1,9=1/99;
 -----------------------------
 29CA_c2.DSDPBEP86_AUG-cc-PVTZ
 -----------------------------
 Symbolic Z-matrix:
 Charge =  0 Multiplicity = 1
 C                    -6.18489   1.46594  -0.07676 
 N                    -4.92169   0.86143  -0.04305 
 C                    -3.7003    1.48485  -0.03069 
 O                    -3.5029    2.67233  -0.05033 
 O                    -2.73544   0.55077   0.00749 
 C                    -1.39062   1.05373   0.02503 
 C                    -0.45588  -0.13574   0.06649 
 C                     1.00163   0.31669   0.08783 
 C                    -7.29687   0.62093  -0.07625 
 C                    -8.58548   1.13278  -0.10805 
 C                    -8.77652   2.51412  -0.14108 
 C                    -7.67421   3.35551  -0.1423 
 C                    -6.38216   2.84783  -0.11065 
 H                    -4.89021  -0.14709  -0.02018 
 H                    -1.26637   1.69775   0.89904 
 H                    -1.23085   1.66442  -0.86693 
 H                    -0.64609  -0.76851  -0.80464 
 H                    -0.68208  -0.73532   0.95237 
 H                     1.24869   0.90197  -0.80121 
 H                     1.67662  -0.53942   0.11843 
 H                     1.21219   0.93626   0.96293 
 H                    -7.15873  -0.45379  -0.05056 
 C                    -9.7542    0.17994  -0.10552 
 Cl                   -10.3664   3.21329  -0.17963 
 H                    -7.82969   4.42702  -0.16828 
 H                    -5.53629   3.51834  -0.1119 
 F                    -9.34552  -1.09813  -0.07301 
 F                    -10.54555   0.36097   0.95801 
 F                    -10.51404   0.31619  -1.19829 
 
                          Input orientation:                          
 ---------------------------------------------------------------------
 Center     Atomic      Atomic             Coordinates (Angstroms)
 Number     Number       Type             X           Y           Z
 ---------------------------------------------------------------------
      1          6           0       -6.184888    1.465936   -0.076759
      2          7           0       -4.921687    0.861431   -0.043050
      3          6           0       -3.700298    1.484846   -0.030690
      4          8           0       -3.502897    2.672335   -0.050331
      5          8           0       -2.735442    0.550771    0.007487
      6          6           0       -1.390617    1.053727    0.025031
      7          6           0       -0.455883   -0.135741    0.066488
      8          6           0        1.001634    0.316694    0.087833
      9          6           0       -7.296875    0.620933   -0.076252
     10          6           0       -8.585477    1.132781   -0.108052
     11          6           0       -8.776519    2.514122   -0.141078
     12          6           0       -7.674208    3.355511   -0.142297
     13          6           0       -6.382157    2.847835   -0.110654
     14          1           0       -4.890213   -0.147093   -0.020175
     15          1           0       -1.266371    1.697753    0.899037
     16          1           0       -1.230845    1.664418   -0.866933
     17          1           0       -0.646089   -0.768515   -0.804639
     18          1           0       -0.682075   -0.735318    0.952369
     19          1           0        1.248694    0.901971   -0.801206
     20          1           0        1.676616   -0.539424    0.118428
     21          1           0        1.212192    0.936260    0.962934
     22          1           0       -7.158727   -0.453789   -0.050559
     23          6           0       -9.754195    0.179938   -0.105523
     24         17           0      -10.366402    3.213292   -0.179627
     25          1           0       -7.829689    4.427025   -0.168278
     26          1           0       -5.536292    3.518344   -0.111901
     27          9           0       -9.345525   -1.098127   -0.073007
     28          9           0      -10.545549    0.360973    0.958011
     29          9           0      -10.514044    0.316193   -1.198287
 ---------------------------------------------------------------------
                    Distance matrix (angstroms):
                    1          2          3          4          5
     1  C    0.000000
     2  N    1.400799   0.000000
     3  C    2.485089   1.371347   0.000000
     4  O    2.940948   2.300520   1.203944   0.000000
     5  O    3.569776   2.208785   1.343466   2.256848   0.000000
     6  C    4.813035   3.536957   2.350232   2.662197   1.435907
     7  C    5.950410   4.577091   3.627944   4.145266   2.381422
     8  C    7.279694   5.949757   4.846318   5.085168   3.745262
     9  C    1.396619   2.387563   3.699160   4.313141   4.562740
    10  C    2.423798   3.674399   4.898460   5.310949   5.880050
    11  C    2.796316   4.195322   5.180696   5.276775   6.353851
    12  C    2.406837   3.715731   4.393609   4.227886   5.681585
    13  C    1.396320   2.466444   3.009402   2.885235   4.311495
    14  H    2.069117   1.009274   2.019711   3.142408   2.265130
    15  H    5.019733   3.866303   2.614139   2.617853   2.066059
    16  H    5.020589   3.865991   2.613378   2.616286   2.066068
    17  H    6.016716   4.638694   3.873606   4.535392   2.601050
    18  H    6.015444   4.638403   3.873655   4.535917   2.600604
    19  H    7.490061   6.216916   5.042416   5.125975   4.080523
    20  H    8.115590   6.747301   5.747270   6.096821   4.546107
    21  H    7.488545   6.216275   5.041903   5.125692   4.079865
    22  H    2.152764   2.595035   3.964774   4.810171   4.536293
    23  C    3.794018   4.880724   6.193388   6.730068   7.029451
    24  Cl   4.533089   5.932522   6.888153   6.886005   8.084279
    25  H    3.388480   4.602783   5.072200   4.670544   6.403717
    26  H    2.152740   2.727942   2.740909   2.203229   4.082340
    27  F    4.069897   4.838502   6.208231   6.953647   6.813115
    28  F    4.615957   5.734144   7.007003   7.480515   7.870025
    29  F    4.617502   5.736402   7.011146   7.485011   7.874996
                    6          7          8          9         10
     6  C    0.000000
     7  C    1.513368   0.000000
     8  C    2.504003   1.526273   0.000000
     9  C    5.922959   6.884192   8.305705   0.000000
    10  C    7.196524   8.229818   9.623776   1.386901   0.000000
    11  C    7.530730   8.734864  10.024638   2.403688   1.394881
    12  C    6.694006   8.021013   9.195521   2.761278   2.402523
    13  C    5.305912   6.637306   7.808102   2.407692   2.792138
    14  H    3.700160   4.435191   5.911060   2.526862   3.911620
    15  H    1.092745   2.170652   2.776549   6.203039   7.409637
    16  H    1.092736   2.170810   2.777031   6.205703   7.412769
    17  H    2.136174   1.093363   2.165450   6.833305   8.193536
    18  H    2.136041   1.093362   2.165417   6.830304   8.190119
    19  H    2.769776   2.176080   1.092693   8.580867   9.861270
    20  H    3.457568   2.170993   1.090630   9.050296  10.399909
    21  H    2.769129   2.176069   1.092703   8.578085   9.857988
    22  H    5.962333   6.711406   8.197823   1.083869   2.134508
    23  C    8.410112   9.305259  10.758437   2.496750   1.507918
    24  Cl   9.234193  10.463985  11.734311   4.019080   2.739588
    25  H    7.271736   8.674501   9.744367   3.844306   3.380368
    26  H    4.824905   6.260568   7.282509   3.390562   3.871493
    27  F    8.241398   8.942672  10.444678   2.674350   2.357085
    28  F    9.228388  10.141149  11.580009   3.419235   2.360945
    29  F    9.234575  10.147438  11.587275   3.420820   2.361101
                   11         12         13         14         15
    11  C    0.000000
    12  C    1.386732   0.000000
    13  C    2.417697   1.388572   0.000000
    14  H    4.711694   4.475911   3.347189   0.000000
    15  H    7.625655   6.700217   5.339797   4.169009   0.000000
    16  H    7.627979   6.700882   5.339330   4.170077   1.766642
    17  H    8.793174   8.175619   6.816310   4.360520   3.061003
    18  H    8.790592   8.174539   6.816153   4.358930   2.502814
    19  H   10.175446   9.277510   7.905260   6.276681   3.138415
    20  H   10.893095  10.132936   8.744703   6.579998   3.778291
    21  H   10.172651   9.275904   7.904483   6.275308   2.593690
    22  H    3.381411   3.845114   3.392255   2.289354   6.344346
    23  C    2.530915   3.796309   4.299807   4.875711   8.680787
    24  Cl   1.737254   2.696207   4.001565   6.426995   9.288215
    25  H    2.134578   1.083047   2.143014   5.439210   7.187852
    26  H    3.392401   2.144323   1.079385   3.723071   4.750660
    27  F    3.657424   4.757415   4.934935   4.555992   8.604332
    28  F    2.995583   4.292148   4.965920   5.761754   9.375159
    29  F    2.994592   4.291531   4.966351   5.764552   9.582637
                   16         17         18         19         20
    16  H    0.000000
    17  H    2.502995   0.000000
    18  H    3.061004   1.757690   0.000000
    19  H    2.594949   2.526012   3.079547   0.000000
    20  H    3.779046   2.509879   2.509433   1.762517   0.000000
    21  H    3.138002   3.079574   2.526367   1.764851   1.762534
    22  H    6.347681   6.563699   6.559889   8.549052   8.837374
    23  C    8.685098   9.184004   9.179335  11.048478  11.455613
    24  Cl   9.291383  10.522828  10.519464  11.859132  12.617686
    25  H    7.187827   8.888346   8.887858   9.759285  10.729289
    26  H    4.748051   6.539964   6.541386   7.304559   8.279165
    27  F    8.608717   8.736367   8.731460  10.805930  11.037952
    28  F    9.580872  10.118398   9.924213  11.936988  12.284011
    29  F    9.386442   9.935194  10.119220  11.784007  12.291379
                   21         22         23         24         25
    21  H    0.000000
    22  H    8.545858   0.000000
    23  C   11.044241   2.672281   0.000000
    24  Cl  11.855554   4.873738   3.095404   0.000000
    25  H    9.758108   4.928123   4.663197   2.812151   0.000000
    26  H    7.305098   4.291142   5.379191   4.840207   2.467498
    27  F   10.801726   2.279860   1.342207   4.431917   5.730108
    28  F   11.771807   3.626515   1.337953   3.076042   5.017689
    29  F   11.939848   3.628816   1.337935   3.074516   5.016535
                   26         27         28         29
    26  H    0.000000
    27  F    5.985280   0.000000
    28  F    6.017172   2.152215   0.000000
    29  F    6.017643   2.152206   2.156993   0.000000
 Stoichiometry    C11H11ClF3NO2
 Framework group  C1[X(C11H11ClF3NO2)]
 Deg. of freedom    81
 Full point group                 C1      NOp   1
 Largest Abelian subgroup         C1      NOp   1
 Largest concise Abelian subgroup C1      NOp   1
                         Standard orientation:                         
 ---------------------------------------------------------------------
 Center     Atomic      Atomic             Coordinates (Angstroms)
 Number     Number       Type             X           Y           Z
 ---------------------------------------------------------------------
      1          6           0       -0.150096   -0.213062   -0.005253
      2          7           0       -1.456082    0.293532   -0.007320
      3          6           0       -2.626455   -0.421169   -0.002809
      4          8           0       -2.732429   -1.620436    0.000342
      5          8           0       -3.660204    0.436890   -0.002417
      6          6           0       -4.962906   -0.167073    0.002423
      7          6           0       -5.986140    0.947948    0.000976
      8          6           0       -7.405107    0.385799    0.006499
      9          6           0        0.894088    0.714418   -0.003745
     10          6           0        2.218303    0.302175   -0.001371
     11          6           0        2.514594   -1.060875   -0.000427
     12          6           0        1.479793   -1.984027   -0.002556
     13          6           0        0.152462   -1.576208   -0.005056
     14          1           0       -1.564709    1.296943   -0.007332
     15          1           0       -5.054638   -0.800478    0.888130
     16          1           0       -5.058409   -0.806548   -0.878498
     17          1           0       -5.827850    1.575245   -0.880435
     18          1           0       -5.823458    1.581302    0.877238
     19          1           0       -7.589619   -0.234964   -0.873607
     20          1           0       -8.143794    1.188180    0.006175
     21          1           0       -7.584768   -0.229809    0.891230
     22          1           0        0.674022    1.775712   -0.004296
     23          6           0        3.310792    1.341541    0.000777
     24         17           0        4.153554   -1.636925    0.004684
     25          1           0        1.716901   -3.040800   -0.002057
     26          1           0       -0.639699   -2.309387   -0.006450
     27          9           0        2.805420    2.584968   -0.002248
     28          9           0        4.092899    1.243689    1.081912
     29          9           0        4.099821    1.241251   -1.075068
 ---------------------------------------------------------------------
 Rotational constants (GHZ):           0.9419851           0.1306315           0.1173268
 Standard basis: Aug-CC-pVTZ (5D, 7F)
 There are  1269 symmetry adapted cartesian basis functions of A   symmetry.
 There are  1085 symmetry adapted basis functions of A   symmetry.
  1085 basis functions,  1635 primitive gaussians,  1269 cartesian basis functions
    72 alpha electrons       72 beta electrons
       nuclear repulsion energy      1436.5105732032 Hartrees.
 NAtoms=   29 NActive=   29 NUniq=   29 SFac= 1.00D+00 NAtFMM=   60 NAOKFM=F Big=F
 Integral buffers will be    131072 words long.
 Regular integral format.
 Two-electron integral symmetry is turned on.
 Nuclear repulsion after empirical dispersion term =     1436.4886962625 Hartrees.
 One-electron integrals computed using PRISM.
 NBasis=  1085 RedAO= T EigKep=  1.02D-06  NBF=  1085
 NBsUse=  1082 1.00D-06 EigRej=  8.09D-07 NBFU=  1082
 ExpMin= 2.53D-02 ExpMax= 4.56D+05 ExpMxC= 1.44D+03 IAcc=3 IRadAn=         5 AccDes= 0.00D+00
 Harris functional with IExCor= 1004 and IRadAn=       5 diagonalized for initial guess.
 HarFok:  IExCor= 1004 AccDes= 0.00D+00 IRadAn=         5 IDoV= 1 UseB2=F ITyADJ=14
 ICtDFT=  3500011 ScaDFX=  1.000000  1.000000  1.000000  1.000000
 FoFCou: FMM=F IPFlag=           0 FMFlag=      100000 FMFlg1=           0
         NFxFlg=           0 DoJE=T BraDBF=F KetDBF=T FulRan=T
         wScrn=  0.000000 ICntrl=       500 IOpCl=  0 I1Cent=   200000004 NGrid=           0
         NMat0=    1 NMatS0=      1 NMatT0=    0 NMatD0=    1 NMtDS0=    0 NMtDT0=    0
 Petite list used in FoFCou.
 Requested convergence on RMS density matrix=1.00D-08 within 128 cycles.
 Requested convergence on MAX density matrix=1.00D-06.
 Requested convergence on             energy=1.00D-06.
 No special actions if energy rises.
 SCF Done:  E(RDSDPBEP86) =  -1387.61829011     A.U. after   13 cycles
            NFock= 13  Conv=0.91D-08     -V/T= 2.0025
 DoSCS=T DFT=T ScalE2(SS,OS)=  0.220000  0.520000
 ExpMin= 2.53D-02 ExpMax= 4.56D+05 ExpMxC= 1.44D+03 IAcc=3 IRadAn=         5 AccDes= 0.00D+00
 HarFok:  IExCor=  205 AccDes= 0.00D+00 IRadAn=         5 IDoV=-2 UseB2=F ITyADJ=14
 ICtDFT= 12500011 ScaDFX=  1.000000  1.000000  1.000000  1.000000
 GSVD:  LWork=        -660 too small for GESVD, short by        2750 words or        2750 for optimal perf.
 Range of M.O.s used for correlation:    23  1082
 NBasis=  1085 NAE=    72 NBE=    72 NFC=    22 NFV=     0
 NROrb=   1060 NOA=    50 NOB=    50 NVA=  1010 NVB=  1010

 **** Warning!!: The largest alpha MO coefficient is  0.12292834D+03

 DoSCS=T DFT=T ScalE2(SS,OS)=  0.220000  0.520000
 Fully direct method using O(OVN) memory.
 JobTyp=1 Pass  1:  I=   1 to  50 NPSUse=  6 ParTrn=T ParDer=T DoDerP=F.
 Spin components of T(2) and E(2):
     alpha-alpha T2 =       0.1742954035D+00 E2=     -0.1107710759D+00
     alpha-beta  T2 =       0.9015351284D+00 E2=     -0.1484115447D+01
     beta-beta   T2 =       0.1742954035D+00 E2=     -0.1107710759D+00
 E2(DSDPBEP86) =    -0.1705657599D+01 E(DSDPBEP86) =    -0.13893239477040D+04

 **********************************************************************

            Population analysis using the SCF Density.

 **********************************************************************

 Orbital symmetries:
       Occupied  (A) (A) (A) (A) (A) (A) (A) (A) (A) (A) (A) (A)
                 (A) (A) (A) (A) (A) (A) (A) (A) (A) (A) (A) (A)
                 (A) (A) (A) (A) (A) (A) (A) (A) (A) (A) (A) (A)
                 (A) (A) (A) (A) (A) (A) (A) (A) (A) (A) (A) (A)
                 (A) (A) (A) (A) (A) (A) (A) (A) (A) (A) (A) (A)
                 (A) (A) (A) (A) (A) (A) (A) (A) (A) (A) (A) (A)
       Virtual   (A) (A) (A) (A) (A) (A) (A) (A) (A) (A) (A) (A)
                 (A) (A) (A) (A) (A) (A) (A) (A) (A) (A) (A) (A)
                 (A) (A) (A) (A) (A) (A) (A) (A) (A) (A) (A) (A)
                 (A) (A) (A) (A) (A) (A) (A) (A) (A) (A) (A) (A)
                 (A) (A) (A) (A) (A) (A) (A) (A) (A) (A) (A) (A)
                 (A) (A) (A) (A) (A) (A) (A) (A) (A) (A) (A) (A)
                 (A) (A) (A) (A) (A) (A) (A) (A) (A) (A) (A) (A)
                 (A) (A) (A) (A) (A) (A) (A) (A) (A) (A) (A) (A)
                 (A) (A) (A) (A) (A) (A) (A) (A) (A) (A) (A) (A)
                 (A) (A) (A) (A) (A) (A) (A) (A) (A) (A) (A) (A)
                 (A) (A) (A) (A) (A) (A) (A) (A) (A) (A) (A) (A)
                 (A) (A) (A) (A) (A) (A) (A) (A) (A) (A) (A) (A)
                 (A) (A) (A) (A) (A) (A) (A) (A) (A) (A) (A) (A)
                 (A) (A) (A) (A) (A) (A) (A) (A) (A) (A) (A) (A)
                 (A) (A) (A) (A) (A) (A) (A) (A) (A) (A) (A) (A)
                 (A) (A) (A) (A) (A) (A) (A) (A) (A) (A) (A) (A)
                 (A) (A) (A) (A) (A) (A) (A) (A) (A) (A) (A) (A)
                 (A) (A) (A) (A) (A) (A) (A) (A) (A) (A) (A) (A)
                 (A) (A) (A) (A) (A) (A) (A) (A) (A) (A) (A) (A)
                 (A) (A) (A) (A) (A) (A) (A) (A) (A) (A) (A) (A)
                 (A) (A) (A) (A) (A) (A) (A) (A) (A) (A) (A) (A)
                 (A) (A) (A) (A) (A) (A) (A) (A) (A) (A) (A) (A)
                 (A) (A) (A) (A) (A) (A) (A) (A) (A) (A) (A) (A)
                 (A) (A) (A) (A) (A) (A) (A) (A) (A) (A) (A) (A)
                 (A) (A) (A) (A) (A) (A) (A) (A) (A) (A) (A) (A)
                 (A) (A) (A) (A) (A) (A) (A) (A) (A) (A) (A) (A)
                 (A) (A) (A) (A) (A) (A) (A) (A) (A) (A) (A) (A)
                 (A) (A) (A) (A) (A) (A) (A) (A) (A) (A) (A) (A)
                 (A) (A) (A) (A) (A) (A) (A) (A) (A) (A) (A) (A)
                 (A) (A) (A) (A) (A) (A) (A) (A) (A) (A) (A) (A)
                 (A) (A) (A) (A) (A) (A) (A) (A) (A) (A) (A) (A)
                 (A) (A) (A) (A) (A) (A) (A) (A) (A) (A) (A) (A)
                 (A) (A) (A) (A) (A) (A) (A) (A) (A) (A) (A) (A)
                 (A) (A) (A) (A) (A) (A) (A) (A) (A) (A) (A) (A)
                 (A) (A) (A) (A) (A) (A) (A) (A) (A) (A) (A) (A)
                 (A) (A) (A) (A) (A) (A) (A) (A) (A) (A) (A) (A)
                 (A) (A) (A) (A) (A) (A) (A) (A) (A) (A) (A) (A)
                 (A) (A) (A) (A) (A) (A) (A) (A) (A) (A) (A) (A)
                 (A) (A) (A) (A) (A) (A) (A) (A) (A) (A) (A) (A)
                 (A) (A) (A) (A) (A) (A) (A) (A) (A) (A) (A) (A)
                 (A) (A) (A) (A) (A) (A) (A) (A) (A) (A) (A) (A)
                 (A) (A) (A) (A) (A) (A) (A) (A) (A) (A) (A) (A)
                 (A) (A) (A) (A) (A) (A) (A) (A) (A) (A) (A) (A)
                 (A) (A) (A) (A) (A) (A) (A) (A) (A) (A) (A) (A)
                 (A) (A) (A) (A) (A) (A) (A) (A) (A) (A) (A) (A)
                 (A) (A) (A) (A) (A) (A) (A) (A) (A) (A) (A) (A)
                 (A) (A) (A) (A) (A) (A) (A) (A) (A) (A) (A) (A)
                 (A) (A) (A) (A) (A) (A) (A) (A) (A) (A) (A) (A)
                 (A) (A) (A) (A) (A) (A) (A) (A) (A) (A) (A) (A)
                 (A) (A) (A) (A) (A) (A) (A) (A) (A) (A) (A) (A)
                 (A) (A) (A) (A) (A) (A) (A) (A) (A) (A) (A) (A)
                 (A) (A) (A) (A) (A) (A) (A) (A) (A) (A) (A) (A)
                 (A) (A) (A) (A) (A) (A) (A) (A) (A) (A) (A) (A)
                 (A) (A) (A) (A) (A) (A) (A) (A) (A) (A) (A) (A)
                 (A) (A) (A) (A) (A) (A) (A) (A) (A) (A) (A) (A)
                 (A) (A) (A) (A) (A) (A) (A) (A) (A) (A) (A) (A)
                 (A) (A) (A) (A) (A) (A) (A) (A) (A) (A) (A) (A)
                 (A) (A) (A) (A) (A) (A) (A) (A) (A) (A) (A) (A)
                 (A) (A) (A) (A) (A) (A) (A) (A) (A) (A) (A) (A)
                 (A) (A) (A) (A) (A) (A) (A) (A) (A) (A) (A) (A)
                 (A) (A) (A) (A) (A) (A) (A) (A) (A) (A) (A) (A)
                 (A) (A) (A) (A) (A) (A) (A) (A) (A) (A) (A) (A)
                 (A) (A) (A) (A) (A) (A) (A) (A) (A) (A) (A) (A)
                 (A) (A) (A) (A) (A) (A) (A) (A) (A) (A) (A) (A)
                 (A) (A) (A) (A) (A) (A) (A) (A) (A) (A) (A) (A)
                 (A) (A) (A) (A) (A) (A) (A) (A) (A) (A) (A) (A)
                 (A) (A) (A) (A) (A) (A) (A) (A) (A) (A) (A) (A)
                 (A) (A) (A) (A) (A) (A) (A) (A) (A) (A) (A) (A)
                 (A) (A) (A) (A) (A) (A) (A) (A) (A) (A) (A) (A)
                 (A) (A) (A) (A) (A) (A) (A) (A) (A) (A) (A) (A)
                 (A) (A) (A) (A) (A) (A) (A) (A) (A) (A) (A) (A)
                 (A) (A) (A) (A) (A) (A) (A) (A) (A) (A) (A) (A)
                 (A) (A) (A) (A) (A) (A) (A) (A) (A) (A) (A) (A)
                 (A) (A) (A) (A) (A) (A) (A) (A) (A) (A) (A) (A)
                 (A) (A) (A) (A) (A) (A) (A) (A) (A) (A) (A) (A)
                 (A) (A) (A) (A) (A) (A) (A) (A) (A) (A) (A) (A)
                 (A) (A) (A) (A) (A) (A) (A) (A) (A) (A) (A) (A)
                 (A) (A) (A) (A) (A) (A) (A) (A) (A) (A) (A) (A)
                 (A) (A) (A) (A) (A) (A) (A) (A) (A) (A) (A) (A)
                 (A) (A) (A) (A) (A) (A) (A) (A) (A) (A) (A) (A)
                 (A) (A) (A) (A) (A) (A) (A) (A) (A) (A) (A) (A)
                 (A) (A) (A) (A) (A) (A) (A) (A) (A) (A) (A) (A)
                 (A) (A) (A) (A) (A) (A) (A) (A) (A) (A) (A) (A)
                 (A) (A) (A) (A) (A) (A) (A) (A) (A) (A) (A) (A)
                 (A) (A)
 The electronic state is 1-A.
 Alpha  occ. eigenvalues -- -103.57877 -25.71619 -25.71037 -25.71035 -20.06468
 Alpha  occ. eigenvalues --  -19.99806 -15.14225 -11.09289 -11.00103 -10.90550
 Alpha  occ. eigenvalues --  -10.90194 -10.88465 -10.87307 -10.85788 -10.85228
 Alpha  occ. eigenvalues --  -10.84493 -10.82829 -10.81871 -10.15375  -7.73062
 Alpha  occ. eigenvalues --   -7.72575  -7.72561  -1.58004  -1.48603  -1.48281
 Alpha  occ. eigenvalues --   -1.35633  -1.25356  -1.17042  -1.09982  -1.02960
 Alpha  occ. eigenvalues --   -0.98419  -0.97637  -0.92862  -0.87780  -0.86368
 Alpha  occ. eigenvalues --   -0.80442  -0.78794  -0.76263  -0.74340  -0.74087
 Alpha  occ. eigenvalues --   -0.73818  -0.70429  -0.69719  -0.64362  -0.63927
 Alpha  occ. eigenvalues --   -0.62729  -0.62457  -0.62077  -0.60541  -0.59474
 Alpha  occ. eigenvalues --   -0.58141  -0.57912  -0.57387  -0.56075  -0.56006
 Alpha  occ. eigenvalues --   -0.55509  -0.53133  -0.53001  -0.50513  -0.50326
 Alpha  occ. eigenvalues --   -0.49307  -0.48226  -0.47546  -0.46340  -0.44769
 Alpha  occ. eigenvalues --   -0.44425  -0.41949  -0.41476  -0.40649  -0.40370
 Alpha  occ. eigenvalues --   -0.34829  -0.29768
 Alpha virt. eigenvalues --    0.01056   0.01785   0.02366   0.02613   0.02778
 Alpha virt. eigenvalues --    0.03170   0.03587   0.03686   0.04955   0.05049
 Alpha virt. eigenvalues --    0.05165   0.05378   0.05899   0.06781   0.06967
 Alpha virt. eigenvalues --    0.07022   0.07553   0.08468   0.08586   0.09251
 Alpha virt. eigenvalues --    0.09272   0.09492   0.09786   0.10160   0.10344
 Alpha virt. eigenvalues --    0.10995   0.11204   0.11419   0.11515   0.11684
 Alpha virt. eigenvalues --    0.12349   0.12451   0.13091   0.13234   0.13413
 Alpha virt. eigenvalues --    0.13720   0.14008   0.14329   0.14616   0.14981
 Alpha virt. eigenvalues --    0.15278   0.15337   0.15934   0.16120   0.16706
 Alpha virt. eigenvalues --    0.17117   0.17783   0.17875   0.18052   0.18091
 Alpha virt. eigenvalues --    0.18693   0.18819   0.19125   0.19293   0.20081
 Alpha virt. eigenvalues --    0.20193   0.20277   0.20911   0.21416   0.21679
 Alpha virt. eigenvalues --    0.21686   0.22411   0.22897   0.23310   0.23632
 Alpha virt. eigenvalues --    0.23821   0.24149   0.24518   0.24985   0.25024
 Alpha virt. eigenvalues --    0.25458   0.25622   0.25946   0.26418   0.26662
 Alpha virt. eigenvalues --    0.27100   0.27522   0.27575   0.27784   0.28320
 Alpha virt. eigenvalues --    0.28808   0.29034   0.29344   0.29489   0.30059
 Alpha virt. eigenvalues --    0.30320   0.30682   0.30766   0.31149   0.31446
 Alpha virt. eigenvalues --    0.31564   0.31728   0.31991   0.32090   0.32506
 Alpha virt. eigenvalues --    0.32537   0.32981   0.33582   0.34064   0.34335
 Alpha virt. eigenvalues --    0.34522   0.34606   0.35230   0.35260   0.35329
 Alpha virt. eigenvalues --    0.35690   0.35826   0.36291   0.36593   0.36775
 Alpha virt. eigenvalues --    0.36798   0.37934   0.38371   0.38576   0.38666
 Alpha virt. eigenvalues --    0.38967   0.39416   0.39752   0.39761   0.39780
 Alpha virt. eigenvalues --    0.40553   0.40595   0.40763   0.40937   0.41473
 Alpha virt. eigenvalues --    0.42125   0.42212   0.42352   0.42784   0.42825
 Alpha virt. eigenvalues --    0.42939   0.43896   0.43934   0.44159   0.44525
 Alpha virt. eigenvalues --    0.44647   0.45183   0.45218   0.45503   0.45959
 Alpha virt. eigenvalues --    0.46258   0.46615   0.47147   0.47393   0.47585
 Alpha virt. eigenvalues --    0.47872   0.47906   0.48145   0.48437   0.48844
 Alpha virt. eigenvalues --    0.49136   0.49948   0.50344   0.50349   0.50651
 Alpha virt. eigenvalues --    0.50951   0.51183   0.51554   0.51907   0.52370
 Alpha virt. eigenvalues --    0.52379   0.52582   0.52926   0.53273   0.53400
 Alpha virt. eigenvalues --    0.53815   0.54300   0.55109   0.55421   0.56119
 Alpha virt. eigenvalues --    0.56871   0.57169   0.57276   0.57893   0.58864
 Alpha virt. eigenvalues --    0.59496   0.59541   0.59613   0.60639   0.61582
 Alpha virt. eigenvalues --    0.61817   0.61992   0.62479   0.62704   0.63297
 Alpha virt. eigenvalues --    0.63481   0.64055   0.64366   0.64377   0.65290
 Alpha virt. eigenvalues --    0.65912   0.66298   0.66408   0.67166   0.67887
 Alpha virt. eigenvalues --    0.67924   0.68374   0.69122   0.69942   0.70258
 Alpha virt. eigenvalues --    0.70653   0.70828   0.71481   0.72084   0.72276
 Alpha virt. eigenvalues --    0.73547   0.73558   0.73881   0.74161   0.75067
 Alpha virt. eigenvalues --    0.75681   0.76049   0.76668   0.76725   0.77013
 Alpha virt. eigenvalues --    0.77260   0.77681   0.78601   0.78798   0.78834
 Alpha virt. eigenvalues --    0.79197   0.79392   0.80045   0.80482   0.81187
 Alpha virt. eigenvalues --    0.81998   0.82028   0.82503   0.82530   0.83231
 Alpha virt. eigenvalues --    0.83862   0.84035   0.84117   0.84720   0.84817
 Alpha virt. eigenvalues --    0.85265   0.85543   0.86088   0.86197   0.86940
 Alpha virt. eigenvalues --    0.87104   0.87398   0.87430   0.87961   0.88027
 Alpha virt. eigenvalues --    0.88225   0.88486   0.88899   0.89127   0.89801
 Alpha virt. eigenvalues --    0.90470   0.91197   0.91235   0.91302   0.91958
 Alpha virt. eigenvalues --    0.92428   0.92816   0.93013   0.93260   0.93336
 Alpha virt. eigenvalues --    0.93711   0.94410   0.95332   0.96111   0.96213
 Alpha virt. eigenvalues --    0.96510   0.96912   0.97522   0.97994   0.98193
 Alpha virt. eigenvalues --    0.98635   0.99427   0.99434   0.99551   1.00224
 Alpha virt. eigenvalues --    1.00865   1.00945   1.01122   1.01941   1.02103
 Alpha virt. eigenvalues --    1.02559   1.03249   1.03459   1.04094   1.04358
 Alpha virt. eigenvalues --    1.04620   1.05004   1.05186   1.05490   1.06030
 Alpha virt. eigenvalues --    1.06032   1.06314   1.07102   1.07266   1.07613
 Alpha virt. eigenvalues --    1.08347   1.08833   1.08987   1.09402   1.10215
 Alpha virt. eigenvalues --    1.10282   1.10591   1.10976   1.11041   1.11317
 Alpha virt. eigenvalues --    1.11764   1.12443   1.12574   1.13578   1.13737
 Alpha virt. eigenvalues --    1.13940   1.14530   1.14955   1.15306   1.15391
 Alpha virt. eigenvalues --    1.15736   1.16243   1.16836   1.17630   1.17749
 Alpha virt. eigenvalues --    1.18184   1.18484   1.18802   1.19129   1.19935
 Alpha virt. eigenvalues --    1.19968   1.20577   1.20798   1.21469   1.22025
 Alpha virt. eigenvalues --    1.22597   1.22811   1.23905   1.24106   1.24593
 Alpha virt. eigenvalues --    1.24850   1.25799   1.26340   1.27447   1.27486
 Alpha virt. eigenvalues --    1.28129   1.28411   1.28718   1.29221   1.30036
 Alpha virt. eigenvalues --    1.30282   1.30470   1.30758   1.31578   1.31687
 Alpha virt. eigenvalues --    1.32281   1.32538   1.33468   1.33723   1.34459
 Alpha virt. eigenvalues --    1.34799   1.35347   1.35512   1.36131   1.36769
 Alpha virt. eigenvalues --    1.37780   1.38470   1.38866   1.39614   1.39872
 Alpha virt. eigenvalues --    1.40189   1.41730   1.41922   1.42473   1.42715
 Alpha virt. eigenvalues --    1.42862   1.43250   1.43320   1.45256   1.45387
 Alpha virt. eigenvalues --    1.45746   1.46095   1.47201   1.48279   1.48458
 Alpha virt. eigenvalues --    1.49274   1.49523   1.50426   1.50900   1.51008
 Alpha virt. eigenvalues --    1.52128   1.53065   1.53559   1.53721   1.53910
 Alpha virt. eigenvalues --    1.54992   1.55053   1.55217   1.56003   1.56239
 Alpha virt. eigenvalues --    1.57056   1.57625   1.57851   1.58143   1.59119
 Alpha virt. eigenvalues --    1.59545   1.59974   1.60599   1.60977   1.61289
 Alpha virt. eigenvalues --    1.61392   1.61556   1.62012   1.62381   1.63737
 Alpha virt. eigenvalues --    1.64226   1.64468   1.65270   1.65415   1.65602
 Alpha virt. eigenvalues --    1.66605   1.66664   1.68000   1.68168   1.68493
 Alpha virt. eigenvalues --    1.68900   1.69221   1.69615   1.69788   1.71463
 Alpha virt. eigenvalues --    1.71813   1.72171   1.72560   1.73814   1.74109
 Alpha virt. eigenvalues --    1.74486   1.75117   1.75161   1.75911   1.76309
 Alpha virt. eigenvalues --    1.76912   1.76995   1.77775   1.78054   1.78753
 Alpha virt. eigenvalues --    1.79059   1.79766   1.80790   1.81794   1.81842
 Alpha virt. eigenvalues --    1.83049   1.83828   1.84092   1.84149   1.84732
 Alpha virt. eigenvalues --    1.85571   1.86355   1.86505   1.86723   1.87662
 Alpha virt. eigenvalues --    1.87973   1.88866   1.89699   1.90331   1.90976
 Alpha virt. eigenvalues --    1.91272   1.91819   1.91882   1.92776   1.93203
 Alpha virt. eigenvalues --    1.93513   1.93582   1.94642   1.95232   1.96780
 Alpha virt. eigenvalues --    1.97084   1.97258   1.98315   1.99437   1.99667
 Alpha virt. eigenvalues --    2.00151   2.01284   2.01783   2.02099   2.02468
 Alpha virt. eigenvalues --    2.02511   2.04148   2.05038   2.06624   2.07381
 Alpha virt. eigenvalues --    2.08267   2.08444   2.09719   2.10206   2.11210
 Alpha virt. eigenvalues --    2.12059   2.12395   2.12860   2.14189   2.14826
 Alpha virt. eigenvalues --    2.15181   2.16052   2.16827   2.17316   2.18538
 Alpha virt. eigenvalues --    2.18841   2.19714   2.19941   2.20287   2.21381
 Alpha virt. eigenvalues --    2.22812   2.23079   2.24894   2.26643   2.27231
 Alpha virt. eigenvalues --    2.28490   2.28798   2.29426   2.30147   2.30472
 Alpha virt. eigenvalues --    2.32047   2.32670   2.33057   2.33715   2.34208
 Alpha virt. eigenvalues --    2.34968   2.35472   2.37464   2.37741   2.38012
 Alpha virt. eigenvalues --    2.39180   2.40565   2.41665   2.42456   2.42600
 Alpha virt. eigenvalues --    2.44123   2.45568   2.46491   2.46828   2.47628
 Alpha virt. eigenvalues --    2.47766   2.48501   2.50451   2.51788   2.52076
 Alpha virt. eigenvalues --    2.53949   2.54858   2.55520   2.56913   2.57459
 Alpha virt. eigenvalues --    2.58736   2.59373   2.60801   2.61269   2.61954
 Alpha virt. eigenvalues --    2.62541   2.63534   2.64033   2.65489   2.66904
 Alpha virt. eigenvalues --    2.68626   2.68942   2.69189   2.71179   2.71861
 Alpha virt. eigenvalues --    2.73687   2.74156   2.75347   2.76242   2.76722
 Alpha virt. eigenvalues --    2.78187   2.79598   2.80709   2.80908   2.81081
 Alpha virt. eigenvalues --    2.82539   2.82784   2.84301   2.85880   2.87650
 Alpha virt. eigenvalues --    2.89063   2.89105   2.90619   2.90657   2.93348
 Alpha virt. eigenvalues --    2.94664   2.94779   2.95089   2.96052   2.97160
 Alpha virt. eigenvalues --    2.97241   2.97605   2.99429   3.00035   3.00511
 Alpha virt. eigenvalues --    3.00621   3.01263   3.01365   3.03114   3.03899
 Alpha virt. eigenvalues --    3.06069   3.06303   3.07320   3.08588   3.09033
 Alpha virt. eigenvalues --    3.09440   3.10498   3.12087   3.12151   3.13428
 Alpha virt. eigenvalues --    3.14593   3.15516   3.15570   3.16708   3.17525
 Alpha virt. eigenvalues --    3.18078   3.19068   3.19571   3.20214   3.21909
 Alpha virt. eigenvalues --    3.22167   3.23418   3.23842   3.24485   3.24529
 Alpha virt. eigenvalues --    3.27244   3.27327   3.28844   3.29437   3.29893
 Alpha virt. eigenvalues --    3.30460   3.31370   3.32460   3.33184   3.33542
 Alpha virt. eigenvalues --    3.34064   3.34198   3.34929   3.36333   3.36765
 Alpha virt. eigenvalues --    3.37028   3.37617   3.38166   3.39733   3.40087
 Alpha virt. eigenvalues --    3.41122   3.41293   3.42083   3.44289   3.44608
 Alpha virt. eigenvalues --    3.45039   3.46356   3.46782   3.47304   3.47446
 Alpha virt. eigenvalues --    3.48456   3.49762   3.50332   3.51167   3.51605
 Alpha virt. eigenvalues --    3.51884   3.53904   3.54400   3.55268   3.55955
 Alpha virt. eigenvalues --    3.56685   3.57007   3.57650   3.59858   3.60150
 Alpha virt. eigenvalues --    3.60235   3.60399   3.61106   3.62092   3.62154
 Alpha virt. eigenvalues --    3.62862   3.63518   3.63599   3.64232   3.65412
 Alpha virt. eigenvalues --    3.66831   3.67161   3.67411   3.67810   3.68200
 Alpha virt. eigenvalues --    3.68885   3.70401   3.70593   3.71644   3.72356
 Alpha virt. eigenvalues --    3.73818   3.74311   3.75122   3.75181   3.75829
 Alpha virt. eigenvalues --    3.76527   3.76597   3.77287   3.78597   3.78935
 Alpha virt. eigenvalues --    3.79369   3.80139   3.80814   3.81763   3.82645
 Alpha virt. eigenvalues --    3.82673   3.83347   3.84503   3.84884   3.85084
 Alpha virt. eigenvalues --    3.85407   3.86456   3.87353   3.88123   3.88803
 Alpha virt. eigenvalues --    3.89656   3.89770   3.91869   3.93328   3.94699
 Alpha virt. eigenvalues --    3.94842   3.95197   3.95658   3.97083   3.98938
 Alpha virt. eigenvalues --    3.98968   3.99485   4.01119   4.01663   4.02048
 Alpha virt. eigenvalues --    4.04414   4.04876   4.05109   4.05866   4.06773
 Alpha virt. eigenvalues --    4.06859   4.07411   4.08051   4.08529   4.08727
 Alpha virt. eigenvalues --    4.09780   4.10096   4.10956   4.11649   4.12731
 Alpha virt. eigenvalues --    4.12945   4.14562   4.14827   4.15011   4.16229
 Alpha virt. eigenvalues --    4.17063   4.17538   4.18585   4.19625   4.21445
 Alpha virt. eigenvalues --    4.21724   4.22238   4.23022   4.23614   4.24469
 Alpha virt. eigenvalues --    4.25488   4.26309   4.27003   4.27316   4.28799
 Alpha virt. eigenvalues --    4.29911   4.30274   4.30561   4.32370   4.34982
 Alpha virt. eigenvalues --    4.35368   4.35493   4.37067   4.37650   4.38257
 Alpha virt. eigenvalues --    4.38636   4.38844   4.40179   4.41239   4.42765
 Alpha virt. eigenvalues --    4.43232   4.45376   4.45796   4.46917   4.47919
 Alpha virt. eigenvalues --    4.48944   4.50280   4.51828   4.52162   4.52855
 Alpha virt. eigenvalues --    4.53415   4.54594   4.55299   4.55971   4.57458
 Alpha virt. eigenvalues --    4.57495   4.57687   4.59248   4.59294   4.61112
 Alpha virt. eigenvalues --    4.63535   4.64523   4.65879   4.66232   4.67559
 Alpha virt. eigenvalues --    4.68674   4.70511   4.71294   4.71751   4.71961
 Alpha virt. eigenvalues --    4.72730   4.74531   4.75904   4.76180   4.77099
 Alpha virt. eigenvalues --    4.78112   4.79286   4.79566   4.81349   4.81388
 Alpha virt. eigenvalues --    4.82985   4.83544   4.85687   4.86879   4.86914
 Alpha virt. eigenvalues --    4.88119   4.88727   4.91567   4.92322   4.92409
 Alpha virt. eigenvalues --    4.93082   4.94192   4.94674   4.96958   4.97494
 Alpha virt. eigenvalues --    4.99434   4.99906   5.00298   5.00937   5.02229
 Alpha virt. eigenvalues --    5.04769   5.05563   5.05604   5.07633   5.09240
 Alpha virt. eigenvalues --    5.09756   5.10945   5.11544   5.12128   5.13915
 Alpha virt. eigenvalues --    5.14920   5.17133   5.17293   5.18790   5.19806
 Alpha virt. eigenvalues --    5.20040   5.20823   5.23099   5.23492   5.24295
 Alpha virt. eigenvalues --    5.24889   5.27930   5.30115   5.32572   5.35919
 Alpha virt. eigenvalues --    5.36325   5.37175   5.38935   5.39366   5.44678
 Alpha virt. eigenvalues --    5.44783   5.45268   5.45432   5.46054   5.50457
 Alpha virt. eigenvalues --    5.51532   5.54201   5.55321   5.55798   5.57162
 Alpha virt. eigenvalues --    5.57729   5.58379   5.60438   5.61741   5.63144
 Alpha virt. eigenvalues --    5.64767   5.69585   5.70207   5.72480   5.73327
 Alpha virt. eigenvalues --    5.73717   5.73929   5.78461   5.80697   5.80904
 Alpha virt. eigenvalues --    5.82031   5.84903   5.87673   5.88680   5.90941
 Alpha virt. eigenvalues --    5.92350   5.95366   5.97817   5.98631   6.00946
 Alpha virt. eigenvalues --    6.02853   6.05971   6.06517   6.10203   6.10610
 Alpha virt. eigenvalues --    6.13533   6.15359   6.20211   6.23649   6.25578
 Alpha virt. eigenvalues --    6.29155   6.32220   6.33259   6.35529   6.44243
 Alpha virt. eigenvalues --    6.51826   6.56009   6.56796   6.57107   6.60794
 Alpha virt. eigenvalues --    6.64986   6.66782   6.67735   6.73299   6.74598
 Alpha virt. eigenvalues --    6.74642   6.77779   6.79967   6.81808   6.83705
 Alpha virt. eigenvalues --    6.87642   6.98303   6.98430   7.00275   7.00884
 Alpha virt. eigenvalues --    7.07744   7.10811   7.14202   7.14991   7.19464
 Alpha virt. eigenvalues --    7.20634   7.27335   7.27689   7.36097   7.41407
 Alpha virt. eigenvalues --    7.46188   7.47574   7.52445   7.63349   7.70888
 Alpha virt. eigenvalues --    7.72381   7.81502   7.90736   8.06617   8.21504
 Alpha virt. eigenvalues --    8.42530   8.44333   8.71915   8.74762   8.77055
 Alpha virt. eigenvalues --    8.80949   8.82019   8.87331   8.95643   8.97055
 Alpha virt. eigenvalues --    9.08275   9.11367   9.12963   9.13199   9.13562
 Alpha virt. eigenvalues --    9.16609   9.18645   9.19605   9.21869   9.23649
 Alpha virt. eigenvalues --    9.28377   9.28790   9.28831   9.31424   9.35018
 Alpha virt. eigenvalues --    9.37205   9.37789   9.39423   9.46220   9.47699
 Alpha virt. eigenvalues --    9.49729   9.51822   9.58865   9.70723   9.72846
 Alpha virt. eigenvalues --    9.78237   9.92552   9.99105  15.22148  15.76519
 Alpha virt. eigenvalues --   15.90920  16.04745  16.25604  16.42477  16.81022
 Alpha virt. eigenvalues --   17.39695  17.56309  18.04422  18.18601  18.65390
 Alpha virt. eigenvalues --   19.34873  19.89057  20.33032  21.03785  21.23313
          Condensed to atoms (all electrons):
               1          2          3          4          5          6
     1  C    7.995366  -0.058217  -0.829829   0.095012  -0.087220  -0.001196
     2  N   -0.058217   7.970020   0.574633  -0.163727  -0.309522  -0.061642
     3  C   -0.829829   0.574633   5.806276   0.351112   0.350389  -0.116826
     4  O    0.095012  -0.163727   0.351112   8.804819  -0.071884   0.004783
     5  O   -0.087220  -0.309522   0.350389  -0.071884   8.625207   0.221464
     6  C   -0.001196  -0.061642  -0.116826   0.004783   0.221464   5.509439
     7  C   -0.021990  -0.006586   0.050989  -0.016075  -0.105121   0.059128
     8  C    0.001026  -0.000717   0.002919  -0.004719   0.004151  -0.038871
     9  C   -0.683235  -0.468891  -0.139487   0.013840  -0.071438  -0.044156
    10  C   -0.133143   0.204438   0.051974   0.002372   0.012666   0.000444
    11  C   -0.207788   0.013720   0.000063  -0.002894   0.007999   0.000827
    12  C    0.137550   0.070975   0.012371   0.033932  -0.011878  -0.005860
    13  C   -0.194893  -0.517203  -0.102786  -0.096597  -0.018230  -0.008040
    14  H   -0.057930   0.329199  -0.084924   0.013545   0.070246   0.001355
    15  H   -0.007298   0.001729  -0.009381  -0.006438  -0.035688   0.308940
    16  H   -0.007719   0.002531  -0.008933  -0.006496  -0.036578   0.309171
    17  H   -0.002385  -0.008690   0.003159   0.005040  -0.031433   0.043693
    18  H   -0.002469  -0.008572   0.003049   0.005089  -0.031557   0.043805
    19  H    0.000440  -0.000479   0.002831  -0.000004   0.000849  -0.003766
    20  H   -0.000027  -0.000217   0.001508  -0.000318   0.000754  -0.008647
    21  H    0.000418  -0.000465   0.002861   0.000000   0.000845  -0.003839
    22  H   -0.339013  -0.243793  -0.139378  -0.001380  -0.057361  -0.012689
    23  C    0.029912   0.001935  -0.000064  -0.000388  -0.001553  -0.000247
    24  Cl  -0.048083  -0.012771  -0.003574   0.000048  -0.000163  -0.000011
    25  H   -0.022813  -0.002787  -0.007540   0.001656  -0.000257  -0.000239
    26  H   -0.294189  -0.122870  -0.088665  -0.180618  -0.011959  -0.007668
    27  F   -0.007834   0.001105   0.001460  -0.000024  -0.000202   0.000080
    28  F   -0.005320   0.005373   0.001000   0.000001   0.000029  -0.000001
    29  F   -0.005726   0.005562   0.001008   0.000000   0.000031  -0.000003
               7          8          9         10         11         12
     1  C   -0.021990   0.001026  -0.683235  -0.133143  -0.207788   0.137550
     2  N   -0.006586  -0.000717  -0.468891   0.204438   0.013720   0.070975
     3  C    0.050989   0.002919  -0.139487   0.051974   0.000063   0.012371
     4  O   -0.016075  -0.004719   0.013840   0.002372  -0.002894   0.033932
     5  O   -0.105121   0.004151  -0.071438   0.012666   0.007999  -0.011878
     6  C    0.059128  -0.038871  -0.044156   0.000444   0.000827  -0.005860
     7  C    5.521610   0.112618   0.005874   0.001436  -0.000369   0.001115
     8  C    0.112618   5.796640  -0.000351   0.000154  -0.000023  -0.000037
     9  C    0.005874  -0.000351   9.735647  -1.204123   0.135629  -0.297685
    10  C    0.001436   0.000154  -1.204123   8.127750  -0.509001   0.039490
    11  C   -0.000369  -0.000023   0.135629  -0.509001   6.504611  -0.548332
    12  C    0.001115  -0.000037  -0.297685   0.039490  -0.548332   8.166366
    13  C   -0.005189  -0.000349  -0.278522  -0.067708   0.161178  -0.342173
    14  H    0.001161  -0.000373   0.009376  -0.018177   0.003316  -0.007241
    15  H    0.010358  -0.003345  -0.001001   0.000429  -0.000172  -0.000468
    16  H    0.010577  -0.003274  -0.000810   0.000429  -0.000180  -0.000474
    17  H    0.402041  -0.039971   0.000596   0.000149  -0.000017   0.000000
    18  H    0.402157  -0.039857   0.000637   0.000145  -0.000017   0.000000
    19  H    0.036205   0.364816  -0.000017   0.000005   0.000004   0.000014
    20  H   -0.026366   0.447375  -0.000055   0.000013  -0.000003  -0.000002
    21  H    0.036277   0.364790  -0.000010   0.000006   0.000003   0.000013
    22  H   -0.000834  -0.000009   0.783426  -0.651973  -0.109433   0.038981
    23  C   -0.000047  -0.000001  -0.577410  -0.341973   0.019746   0.070479
    24  Cl   0.000003   0.000000   0.135871   0.049337  -0.219915  -0.232086
    25  H    0.000040   0.000002   0.030698   0.061263  -0.130284   0.338738
    26  H   -0.001665  -0.000121  -0.047887  -0.062104   0.093284  -0.569922
    27  F   -0.000011  -0.000000  -0.000627  -0.029212   0.006667  -0.009021
    28  F    0.000001  -0.000000  -0.071381   0.070318   0.003033  -0.001615
    29  F    0.000001  -0.000000  -0.071039   0.070969   0.003067  -0.002080
              13         14         15         16         17         18
     1  C   -0.194893  -0.057930  -0.007298  -0.007719  -0.002385  -0.002469
     2  N   -0.517203   0.329199   0.001729   0.002531  -0.008690  -0.008572
     3  C   -0.102786  -0.084924  -0.009381  -0.008933   0.003159   0.003049
     4  O   -0.096597   0.013545  -0.006438  -0.006496   0.005040   0.005089
     5  O   -0.018230   0.070246  -0.035688  -0.036578  -0.031433  -0.031557
     6  C   -0.008040   0.001355   0.308940   0.309171   0.043693   0.043805
     7  C   -0.005189   0.001161   0.010358   0.010577   0.402041   0.402157
     8  C   -0.000349  -0.000373  -0.003345  -0.003274  -0.039971  -0.039857
     9  C   -0.278522   0.009376  -0.001001  -0.000810   0.000596   0.000637
    10  C   -0.067708  -0.018177   0.000429   0.000429   0.000149   0.000145
    11  C    0.161178   0.003316  -0.000172  -0.000180  -0.000017  -0.000017
    12  C   -0.342173  -0.007241  -0.000468  -0.000474   0.000000   0.000000
    13  C    8.185219   0.016626   0.000412   0.000386  -0.000426  -0.000430
    14  H    0.016626   0.788188  -0.002220  -0.002248  -0.000924  -0.000926
    15  H    0.000412  -0.002220   0.417453   0.012049   0.019203  -0.018068
    16  H    0.000386  -0.002248   0.012049   0.416721  -0.017975   0.019122
    17  H   -0.000426  -0.000924   0.019203  -0.017975   0.407350   0.009795
    18  H   -0.000430  -0.000926  -0.018068   0.019122   0.009795   0.407399
    19  H    0.000054   0.000049  -0.007431  -0.009243   0.001014   0.000350
    20  H   -0.000031   0.000044  -0.000001   0.000024  -0.002618  -0.002554
    21  H    0.000055   0.000048  -0.009249  -0.007430   0.000368   0.001029
    22  H   -0.102922  -0.035811  -0.000281  -0.000288   0.000061   0.000057
    23  C    0.034023  -0.002295   0.000003   0.000002   0.000002   0.000002
    24  Cl   0.041698  -0.000988  -0.000004  -0.000004  -0.000001  -0.000001
    25  H   -0.177442  -0.001985  -0.000034  -0.000028   0.000008   0.000008
    26  H   -0.203112  -0.006765   0.000340   0.000236  -0.000209  -0.000211
    27  F    0.000997  -0.000551   0.000007   0.000007  -0.000001  -0.000001
    28  F    0.004048  -0.000132  -0.000001   0.000001  -0.000002   0.000002
    29  F    0.004432  -0.000128   0.000001  -0.000001   0.000002  -0.000002
              19         20         21         22         23         24
     1  C    0.000440  -0.000027   0.000418  -0.339013   0.029912  -0.048083
     2  N   -0.000479  -0.000217  -0.000465  -0.243793   0.001935  -0.012771
     3  C    0.002831   0.001508   0.002861  -0.139378  -0.000064  -0.003574
     4  O   -0.000004  -0.000318   0.000000  -0.001380  -0.000388   0.000048
     5  O    0.000849   0.000754   0.000845  -0.057361  -0.001553  -0.000163
     6  C   -0.003766  -0.008647  -0.003839  -0.012689  -0.000247  -0.000011
     7  C    0.036205  -0.026366   0.036277  -0.000834  -0.000047   0.000003
     8  C    0.364816   0.447375   0.364790  -0.000009  -0.000001   0.000000
     9  C   -0.000017  -0.000055  -0.000010   0.783426  -0.577410   0.135871
    10  C    0.000005   0.000013   0.000006  -0.651973  -0.341973   0.049337
    11  C    0.000004  -0.000003   0.000003  -0.109433   0.019746  -0.219915
    12  C    0.000014  -0.000002   0.000013   0.038981   0.070479  -0.232086
    13  C    0.000054  -0.000031   0.000055  -0.102922   0.034023   0.041698
    14  H    0.000049   0.000044   0.000048  -0.035811  -0.002295  -0.000988
    15  H   -0.007431  -0.000001  -0.009249  -0.000281   0.000003  -0.000004
    16  H   -0.009243   0.000024  -0.007430  -0.000288   0.000002  -0.000004
    17  H    0.001014  -0.002618   0.000368   0.000061   0.000002  -0.000001
    18  H    0.000350  -0.002554   0.001029   0.000057   0.000002  -0.000001
    19  H    0.314189   0.000614   0.021300   0.000004  -0.000000   0.000000
    20  H    0.000614   0.302907   0.000568  -0.000020  -0.000000  -0.000000
    21  H    0.021300   0.000568   0.314197   0.000004  -0.000000   0.000000
    22  H    0.000004  -0.000020   0.000004   1.675933  -0.092317   0.005986
    23  C   -0.000000  -0.000000  -0.000000  -0.092317   5.133323  -0.052030
    24  Cl   0.000000  -0.000000   0.000000   0.005986  -0.052030  17.792661
    25  H   -0.000001   0.000000  -0.000001   0.007633   0.007332   0.037549
    26  H    0.000029  -0.000001   0.000026  -0.007137  -0.000647  -0.010844
    27  F   -0.000000  -0.000000  -0.000000   0.004118   0.202262   0.010395
    28  F    0.000000  -0.000000  -0.000000   0.000875   0.186057  -0.013117
    29  F   -0.000000  -0.000000   0.000000   0.001008   0.185688  -0.013230
              25         26         27         28         29
     1  C   -0.022813  -0.294189  -0.007834  -0.005320  -0.005726
     2  N   -0.002787  -0.122870   0.001105   0.005373   0.005562
     3  C   -0.007540  -0.088665   0.001460   0.001000   0.001008
     4  O    0.001656  -0.180618  -0.000024   0.000001   0.000000
     5  O   -0.000257  -0.011959  -0.000202   0.000029   0.000031
     6  C   -0.000239  -0.007668   0.000080  -0.000001  -0.000003
     7  C    0.000040  -0.001665  -0.000011   0.000001   0.000001
     8  C    0.000002  -0.000121  -0.000000  -0.000000  -0.000000
     9  C    0.030698  -0.047887  -0.000627  -0.071381  -0.071039
    10  C    0.061263  -0.062104  -0.029212   0.070318   0.070969
    11  C   -0.130284   0.093284   0.006667   0.003033   0.003067
    12  C    0.338738  -0.569922  -0.009021  -0.001615  -0.002080
    13  C   -0.177442  -0.203112   0.000997   0.004048   0.004432
    14  H   -0.001985  -0.006765  -0.000551  -0.000132  -0.000128
    15  H   -0.000034   0.000340   0.000007  -0.000001   0.000001
    16  H   -0.000028   0.000236   0.000007   0.000001  -0.000001
    17  H    0.000008  -0.000209  -0.000001  -0.000002   0.000002
    18  H    0.000008  -0.000211  -0.000001   0.000002  -0.000002
    19  H   -0.000001   0.000029  -0.000000   0.000000  -0.000000
    20  H    0.000000  -0.000001  -0.000000  -0.000000  -0.000000
    21  H   -0.000001   0.000026  -0.000000  -0.000000   0.000000
    22  H    0.007633  -0.007137   0.004118   0.000875   0.001008
    23  C    0.007332  -0.000647   0.202262   0.186057   0.185688
    24  Cl   0.037549  -0.010844   0.010395  -0.013117  -0.013230
    25  H    0.702593  -0.216870  -0.000316  -0.001816  -0.001847
    26  H   -0.216870   1.919657   0.000303   0.000262   0.000299
    27  F   -0.000316   0.000303   9.324969  -0.067477  -0.067657
    28  F   -0.001816   0.000262  -0.067477   9.312638  -0.017317
    29  F   -0.001847   0.000299  -0.067657  -0.017317   9.312518
 Mulliken charges:
               1
     1  C    0.758591
     2  N   -0.194074
     3  C    0.313785
     4  O   -0.779687
     5  O   -0.412582
     6  C   -0.189428
     7  C   -0.467338
     8  C   -0.962474
     9  C   -0.893468
    10  C    0.323626
    11  C    0.775280
    12  C   -0.881150
    13  C   -0.333075
    14  H   -0.009536
    15  H    0.330157
    16  H    0.330428
    17  H    0.212169
    18  H    0.212017
    19  H    0.278173
    20  H    0.287053
    21  H    0.278185
    22  H    0.276555
    23  C    1.198202
    24  Cl  -0.466729
    25  H    0.376740
    26  H    0.819029
    27  F   -0.369436
    28  F   -0.405457
    29  F   -0.405558
 Sum of Mulliken charges =  -0.00000
 Mulliken charges with hydrogens summed into heavy atoms:
               1
     1  C    0.758591
     2  N   -0.203609
     3  C    0.313785
     4  O   -0.779687
     5  O   -0.412582
     6  C    0.471157
     7  C   -0.043152
     8  C   -0.119062
     9  C   -0.616913
    10  C    0.323626
    11  C    0.775280
    12  C   -0.504410
    13  C    0.485954
    23  C    1.198202
    24  Cl  -0.466729
    27  F   -0.369436
    28  F   -0.405457
    29  F   -0.405558
 Electronic spatial extent (au):  <R**2>=           8517.6245
 Charge=             -0.0000 electrons
 Dipole moment (field-independent basis, Debye):
    X=             -4.8984    Y=              1.0712    Z=             -0.0058  Tot=              5.0142
 Quadrupole moment (field-independent basis, Debye-Ang):
   XX=           -108.5358   YY=           -110.7319   ZZ=           -112.2244
   XY=             -9.0893   XZ=             -0.0147   YZ=              0.0074
 Traceless Quadrupole moment (field-independent basis, Debye-Ang):
   XX=              1.9616   YY=             -0.2345   ZZ=             -1.7271
   XY=             -9.0893   XZ=             -0.0147   YZ=              0.0074
 Octapole moment (field-independent basis, Debye-Ang**2):
  XXX=           -111.5942  YYY=             21.5523  ZZZ=              0.0707  XYY=             21.6164
  XXY=             14.3337  XXZ=              0.0684  XZZ=              6.2665  YZZ=              9.8781
  YYZ=             -0.0349  XYZ=             -0.0437
 Hexadecapole moment (field-independent basis, Debye-Ang**3):
 XXXX=          -8826.0198 YYYY=          -1146.6050 ZZZZ=           -199.4340 XXXY=            -21.1355
 XXXZ=              0.2347 YYYX=             36.0074 YYYZ=              0.0654 ZZZX=              0.1093
 ZZZY=             -0.0616 XXYY=          -1804.6828 XXZZ=          -1594.4590 YYZZ=           -234.7263
 XXYZ=              0.1025 YYXZ=              0.1538 ZZXY=             36.8197
 N-N= 1.436488696263D+03 E-N=-6.149066667651D+03  KE= 1.384121642758D+03
 Unable to Open any file for archive entry.
 1\1\GINC-GADI-HMEM-CLX-0024\SP\RDSDPBEP86-FC\Aug-CC-pVTZ\C11H11Cl1F3N1
 O2\HIO507\29-Sep-2020\0\\# DSDPBEP86/AUG-cc-PVTZ SCF=Tight INT(grid=ul
 trafine) MaxDisk=1400000MB\\29CA_c2.DSDPBEP86_AUG-cc-PVTZ\\0,1\C,0,-6.
 1848879218,1.4659355544,-0.0767585657\N,0,-4.921687226,0.8614308541,-0
 .0430504328\C,0,-3.7002978084,1.4848463787,-0.0306903372\O,0,-3.502896
 7508,2.6723348563,-0.0503308765\O,0,-2.7354424637,0.5507707545,0.00748
 70284\C,0,-1.3906173198,1.0537270661,0.0250312728\C,0,-0.4558830514,-0
 .1357411347,0.066488259\C,0,1.0016342771,0.3166938186,0.0878325911\C,0
 ,-7.2968746513,0.6209333609,-0.0762516791\C,0,-8.5854768157,1.13278051
 02,-0.1080520036\C,0,-8.7765189858,2.5141224497,-0.1410777365\C,0,-7.6
 742078578,3.3555109881,-0.1422968799\C,0,-6.3821573487,2.8478348179,-0
 .1106540479\H,0,-4.8902128151,-0.1470929783,-0.0201750138\H,0,-1.26637
 1376,1.6977528478,0.8990372482\H,0,-1.230845154,1.6644183685,-0.866933
 3385\H,0,-0.6460891554,-0.7685149021,-0.8046385512\H,0,-0.6820750332,-
 0.7353178308,0.9523690632\H,0,1.248693761,0.9019706547,-0.8012064623\H
 ,0,1.6766157782,-0.5394242773,0.1184284454\H,0,1.2121915384,0.93626029
 07,0.9629340837\H,0,-7.1587271784,-0.4537890306,-0.0505592744\C,0,-9.7
 541952265,0.1799379927,-0.1055229927\Cl,0,-10.3664021624,3.2132915974,
 -0.1796273428\H,0,-7.8296888327,4.427024866,-0.168277779\H,0,-5.536291
 9947,3.5183437071,-0.1119012178\F,0,-9.3455248643,-1.0981272593,-0.073
 0073211\F,0,-10.5455492421,0.3609729734,0.9580109005\F,0,-10.514044118
 8,0.3161927052,-1.1982870399\\Version=ES64L-G16RevC.01\State=1-A\HF=-1
 387.6182901\MP2=-1389.3239477\RMSD=9.138e-09\PG=C01 [X(C11H11Cl1F3N1O2
 )]\\@
 The archive entry for this job was punched.


 NOTHING MAKES A PERSON MORE PRODUCTIVE THAN THE LAST MINUTE.
 Job cpu time:       1 days  5 hours  8 minutes 45.9 seconds.
 Elapsed time:       0 days  4 hours 51 minutes 33.6 seconds.
 File lengths (MBytes):  RWF=    609 Int=      0 D2E=      0 Chk=     77 Scr=      1
 Normal termination of Gaussian 16 at Tue Sep 29 04:04:55 2020.
