 Entering Gaussian System, Link 0=/apps/gaussian/g16c01/g16/g16
 Initial command:
 /apps/gaussian/g16c01/g16/l1.exe "/jobfs/10906252.gadi-pbs/Gau-654684.inp" -scrdir="/jobfs/10906252.gadi-pbs/"
 Entering Link 1 = /apps/gaussian/g16c01/g16/l1.exe PID=    654685.
  
 Copyright (c) 1988-2019, Gaussian, Inc.  All Rights Reserved.
  
 This is part of the Gaussian(R) 16 program.  It is based on
 the Gaussian(R) 09 system (copyright 2009, Gaussian, Inc.),
 the Gaussian(R) 03 system (copyright 2003, Gaussian, Inc.),
 the Gaussian(R) 98 system (copyright 1998, Gaussian, Inc.),
 the Gaussian(R) 94 system (copyright 1995, Gaussian, Inc.),
 the Gaussian 92(TM) system (copyright 1992, Gaussian, Inc.),
 the Gaussian 90(TM) system (copyright 1990, Gaussian, Inc.),
 the Gaussian 88(TM) system (copyright 1988, Gaussian, Inc.),
 the Gaussian 86(TM) system (copyright 1986, Carnegie Mellon
 University), and the Gaussian 82(TM) system (copyright 1983,
 Carnegie Mellon University). Gaussian is a federally registered
 trademark of Gaussian, Inc.
  
 This software contains proprietary and confidential information,
 including trade secrets, belonging to Gaussian, Inc.
  
 This software is provided under written license and may be
 used, copied, transmitted, or stored only in accord with that
 written license.
  
 The following legend is applicable only to US Government
 contracts under FAR:
  
                    RESTRICTED RIGHTS LEGEND
  
 Use, reproduction and disclosure by the US Government is
 subject to restrictions as set forth in subparagraphs (a)
 and (c) of the Commercial Computer Software - Restricted
 Rights clause in FAR 52.227-19.
  
 Gaussian, Inc.
 340 Quinnipiac St., Bldg. 40, Wallingford CT 06492
  
  
 ---------------------------------------------------------------
 Warning -- This program may not be used in any manner that
 competes with the business of Gaussian, Inc. or will provide
 assistance to any competitor of Gaussian, Inc.  The licensee
 of this program is prohibited from giving any competitor of
 Gaussian, Inc. access to this program.  By using this program,
 the user acknowledges that Gaussian, Inc. is engaged in the
 business of creating and licensing software in the field of
 computational chemistry and represents and warrants to the
 licensee that it is not a competitor of Gaussian, Inc. and that
 it will not use this program in any manner prohibited above.
 ---------------------------------------------------------------
  

 Cite this work as:
 Gaussian 16, Revision C.01,
 M. J. Frisch, G. W. Trucks, H. B. Schlegel, G. E. Scuseria, 
 M. A. Robb, J. R. Cheeseman, G. Scalmani, V. Barone, 
 G. A. Petersson, H. Nakatsuji, X. Li, M. Caricato, A. V. Marenich, 
 J. Bloino, B. G. Janesko, R. Gomperts, B. Mennucci, H. P. Hratchian, 
 J. V. Ortiz, A. F. Izmaylov, J. L. Sonnenberg, D. Williams-Young, 
 F. Ding, F. Lipparini, F. Egidi, J. Goings, B. Peng, A. Petrone, 
 T. Henderson, D. Ranasinghe, V. G. Zakrzewski, J. Gao, N. Rega, 
 G. Zheng, W. Liang, M. Hada, M. Ehara, K. Toyota, R. Fukuda, 
 J. Hasegawa, M. Ishida, T. Nakajima, Y. Honda, O. Kitao, H. Nakai, 
 T. Vreven, K. Throssell, J. A. Montgomery, Jr., J. E. Peralta, 
 F. Ogliaro, M. J. Bearpark, J. J. Heyd, E. N. Brothers, K. N. Kudin, 
 V. N. Staroverov, T. A. Keith, R. Kobayashi, J. Normand, 
 K. Raghavachari, A. P. Rendell, J. C. Burant, S. S. Iyengar, 
 J. Tomasi, M. Cossi, J. M. Millam, M. Klene, C. Adamo, R. Cammi, 
 J. W. Ochterski, R. L. Martin, K. Morokuma, O. Farkas, 
 J. B. Foresman, and D. J. Fox, Gaussian, Inc., Wallingford CT, 2019.
 
 ******************************************
 Gaussian 16:  ES64L-G16RevC.01  3-Jul-2019
                 4-Sep-2020 
 ******************************************
 %chk=29CA.M062X_6-311pGd_opt_Pentadecane_GD3.chk
 ----------------------------------------------------------------------
 # M062X/6-311+G* SCF=Tight INT(grid=ultrafine) OPT=CalcAll IOP(2/17=4)
  Symmetry=None EmpiricalDispersion=GD3 SCRF=(SMD,Solvent=n-Pentadecane
 )
 ----------------------------------------------------------------------
 1/10=4,18=20,19=15,26=6,38=1/1,3;
 2/9=110,12=2,15=3,17=4,18=5,40=1/2;
 3/5=4,6=6,7=11,11=2,25=1,30=1,70=32201,71=2,72=151,74=-55,75=-5,124=31,140=1/1,2,3;
 4//1;
 5/5=2,32=2,38=5,53=151/2;
 8/6=4,10=90,11=11/1;
 11/6=1,8=1,9=11,15=111,16=1,31=1/1,2,10;
 10/6=1,31=1/2;
 6/7=2,8=2,9=2,10=2,18=1,28=1/1;
 7/10=1,25=1,30=1/1,2,3,16;
 1/10=4,18=20,19=15,26=6/3(3);
 2/9=110,15=3,17=4/2;
 7/8=1,9=1,25=1,30=1,44=-1/16;
 99//99;
 2/9=110,15=3,17=4/2;
 3/5=4,6=6,7=11,11=2,25=1,30=1,70=32205,71=2,72=151,74=-55,75=-5,124=31,140=1/1,2,3;
 4/5=5,16=3,69=1/1;
 5/5=2,32=2,38=5,53=151/2;
 8/6=4,10=90,11=11/1;
 11/6=1,8=1,9=11,15=111,16=1,31=1/1,2,10;
 10/6=1,31=1/2;
 7/10=1,25=1,30=1/1,2,3,16;
 1/10=4,18=20,19=15,26=6/3(-8);
 2/9=110,15=3,17=4/2;
 6/7=2,8=2,9=2,10=2,18=1,19=2,28=1/1;
 7/8=1,9=1,25=1,30=1,44=-1/16;
 99//99;
 ---------------------------------------
 29CA.M062X_6-311pGd_opt_Pentadecane_GD3
 ---------------------------------------
 Symbolic Z-matrix:
 Charge =  0 Multiplicity = 1
 C                    -6.18581   1.27921  -0.02053 
 N                    -4.89985   0.72633  -0.06591 
 C                    -3.70956   1.38605  -0.01517 
 O                    -3.56241   2.59042   0.05915 
 O                    -2.70004   0.50789  -0.0587 
 C                    -1.36977   1.06694  -0.01201 
 C                    -0.3881   -0.08101  -0.07128 
 C                     1.04395   0.44137  -0.03118 
 C                    -6.44205   2.64837  -0.10135 
 C                    -7.75367   3.11109  -0.05598 
 C                    -8.81416   2.21632   0.06204 
 C                    -8.56176   0.85338   0.13489 
 C                    -7.25812   0.39018   0.09465 
 H                    -4.84397  -0.28485  -0.08344 
 H                    -1.264     1.63739   0.91302 
 H                    -1.2464    1.74338  -0.8603 
 H                    -0.55824  -0.65137  -0.98847 
 H                    -0.57075  -0.753     0.77168 
 H                     1.24551   1.10292  -0.87745 
 H                     1.7595   -0.38138  -0.07226 
 H                     1.23267   1.00378   0.88672 
 H                    -5.63184   3.3527   -0.20152 
 C                    -8.00043   4.59268  -0.14105 
 Cl                   -10.4693   2.76212   0.1217 
 H                    -9.38392   0.15444   0.22547 
 H                    -7.06773  -0.67606   0.15418 
 F                    -6.86405   5.29047  -0.25503 
 F                    -8.75994   4.92123  -1.19988 
 F                    -8.63251   5.06453   0.94731 
 

 GradGradGradGradGradGradGradGradGradGradGradGradGradGradGradGradGradGrad
 Berny optimization.
 Initialization pass.
                           ----------------------------
                           !    Initial Parameters    !
                           ! (Angstroms and Degrees)  !
 --------------------------                            --------------------------
 ! Name  Definition              Value          Derivative Info.                !
 --------------------------------------------------------------------------------
 ! R1    R(1,2)                  1.4005         calculate D2E/DX2 analytically  !
 ! R2    R(1,9)                  1.3953         calculate D2E/DX2 analytically  !
 ! R3    R(1,13)                 1.3977         calculate D2E/DX2 analytically  !
 ! R4    R(2,3)                  1.3618         calculate D2E/DX2 analytically  !
 ! R5    R(2,14)                 1.0129         calculate D2E/DX2 analytically  !
 ! R6    R(3,4)                  1.2156         calculate D2E/DX2 analytically  !
 ! R7    R(3,5)                  1.3387         calculate D2E/DX2 analytically  !
 ! R8    R(5,6)                  1.4437         calculate D2E/DX2 analytically  !
 ! R9    R(6,7)                  1.5116         calculate D2E/DX2 analytically  !
 ! R10   R(6,15)                 1.0919         calculate D2E/DX2 analytically  !
 ! R11   R(6,16)                 1.092          calculate D2E/DX2 analytically  !
 ! R12   R(7,8)                  1.5249         calculate D2E/DX2 analytically  !
 ! R13   R(7,17)                 1.0934         calculate D2E/DX2 analytically  !
 ! R14   R(7,18)                 1.0934         calculate D2E/DX2 analytically  !
 ! R15   R(8,19)                 1.0929         calculate D2E/DX2 analytically  !
 ! R16   R(8,20)                 1.0912         calculate D2E/DX2 analytically  !
 ! R17   R(8,21)                 1.0929         calculate D2E/DX2 analytically  !
 ! R18   R(9,10)                 1.3916         calculate D2E/DX2 analytically  !
 ! R19   R(9,22)                 1.0782         calculate D2E/DX2 analytically  !
 ! R20   R(10,11)                1.3925         calculate D2E/DX2 analytically  !
 ! R21   R(10,23)                1.5044         calculate D2E/DX2 analytically  !
 ! R22   R(11,12)                1.388          calculate D2E/DX2 analytically  !
 ! R23   R(11,24)                1.7438         calculate D2E/DX2 analytically  !
 ! R24   R(12,13)                1.3841         calculate D2E/DX2 analytically  !
 ! R25   R(12,25)                1.0829         calculate D2E/DX2 analytically  !
 ! R26   R(13,26)                1.0847         calculate D2E/DX2 analytically  !
 ! R27   R(23,27)                1.3384         calculate D2E/DX2 analytically  !
 ! R28   R(23,28)                1.3438         calculate D2E/DX2 analytically  !
 ! R29   R(23,29)                1.3441         calculate D2E/DX2 analytically  !
 ! A1    A(2,1,9)              123.6514         calculate D2E/DX2 analytically  !
 ! A2    A(2,1,13)             117.1308         calculate D2E/DX2 analytically  !
 ! A3    A(9,1,13)             119.2122         calculate D2E/DX2 analytically  !
 ! A4    A(1,2,3)              127.5965         calculate D2E/DX2 analytically  !
 ! A5    A(1,2,14)             116.4445         calculate D2E/DX2 analytically  !
 ! A6    A(3,2,14)             115.8519         calculate D2E/DX2 analytically  !
 ! A7    A(2,3,4)              126.018          calculate D2E/DX2 analytically  !
 ! A8    A(2,3,5)              109.8841         calculate D2E/DX2 analytically  !
 ! A9    A(4,3,5)              124.0979         calculate D2E/DX2 analytically  !
 ! A10   A(3,5,6)              116.0894         calculate D2E/DX2 analytically  !
 ! A11   A(5,6,7)              107.6411         calculate D2E/DX2 analytically  !
 ! A12   A(5,6,15)             108.5994         calculate D2E/DX2 analytically  !
 ! A13   A(5,6,16)             108.5931         calculate D2E/DX2 analytically  !
 ! A14   A(7,6,15)             111.5342         calculate D2E/DX2 analytically  !
 ! A15   A(7,6,16)             111.507          calculate D2E/DX2 analytically  !
 ! A16   A(15,6,16)            108.877          calculate D2E/DX2 analytically  !
 ! A17   A(6,7,8)              110.408          calculate D2E/DX2 analytically  !
 ! A18   A(6,7,17)             109.1461         calculate D2E/DX2 analytically  !
 ! A19   A(6,7,18)             109.1485         calculate D2E/DX2 analytically  !
 ! A20   A(8,7,17)             110.2979         calculate D2E/DX2 analytically  !
 ! A21   A(8,7,18)             110.313          calculate D2E/DX2 analytically  !
 ! A22   A(17,7,18)            107.4649         calculate D2E/DX2 analytically  !
 ! A23   A(7,8,19)             111.1122         calculate D2E/DX2 analytically  !
 ! A24   A(7,8,20)             110.889          calculate D2E/DX2 analytically  !
 ! A25   A(7,8,21)             111.133          calculate D2E/DX2 analytically  !
 ! A26   A(19,8,20)            107.8378         calculate D2E/DX2 analytically  !
 ! A27   A(19,8,21)            107.8777         calculate D2E/DX2 analytically  !
 ! A28   A(20,8,21)            107.843          calculate D2E/DX2 analytically  !
 ! A29   A(1,9,10)             119.8346         calculate D2E/DX2 analytically  !
 ! A30   A(1,9,22)             120.5561         calculate D2E/DX2 analytically  !
 ! A31   A(10,9,22)            119.6091         calculate D2E/DX2 analytically  !
 ! A32   A(9,10,11)            120.4575         calculate D2E/DX2 analytically  !
 ! A33   A(9,10,23)            118.6999         calculate D2E/DX2 analytically  !
 ! A34   A(11,10,23)           120.8423         calculate D2E/DX2 analytically  !
 ! A35   A(10,11,12)           119.7949         calculate D2E/DX2 analytically  !
 ! A36   A(10,11,24)           121.6418         calculate D2E/DX2 analytically  !
 ! A37   A(12,11,24)           118.5633         calculate D2E/DX2 analytically  !
 ! A38   A(11,12,13)           119.8916         calculate D2E/DX2 analytically  !
 ! A39   A(11,12,25)           120.0066         calculate D2E/DX2 analytically  !
 ! A40   A(13,12,25)           120.1017         calculate D2E/DX2 analytically  !
 ! A41   A(1,13,12)            120.8073         calculate D2E/DX2 analytically  !
 ! A42   A(1,13,26)            119.676          calculate D2E/DX2 analytically  !
 ! A43   A(12,13,26)           119.5167         calculate D2E/DX2 analytically  !
 ! A44   A(10,23,27)           112.2721         calculate D2E/DX2 analytically  !
 ! A45   A(10,23,28)           112.2123         calculate D2E/DX2 analytically  !
 ! A46   A(10,23,29)           112.1518         calculate D2E/DX2 analytically  !
 ! A47   A(27,23,28)           106.5774         calculate D2E/DX2 analytically  !
 ! A48   A(27,23,29)           106.5711         calculate D2E/DX2 analytically  !
 ! A49   A(28,23,29)           106.6416         calculate D2E/DX2 analytically  !
 ! D1    D(9,1,2,3)              9.3631         calculate D2E/DX2 analytically  !
 ! D2    D(9,1,2,14)          -174.5831         calculate D2E/DX2 analytically  !
 ! D3    D(13,1,2,3)          -171.5097         calculate D2E/DX2 analytically  !
 ! D4    D(13,1,2,14)            4.5441         calculate D2E/DX2 analytically  !
 ! D5    D(2,1,9,10)           179.6154         calculate D2E/DX2 analytically  !
 ! D6    D(2,1,9,22)            -0.2196         calculate D2E/DX2 analytically  !
 ! D7    D(13,1,9,10)            0.5054         calculate D2E/DX2 analytically  !
 ! D8    D(13,1,9,22)         -179.3296         calculate D2E/DX2 analytically  !
 ! D9    D(2,1,13,12)         -179.4551         calculate D2E/DX2 analytically  !
 ! D10   D(2,1,13,26)            0.5973         calculate D2E/DX2 analytically  !
 ! D11   D(9,1,13,12)           -0.2875         calculate D2E/DX2 analytically  !
 ! D12   D(9,1,13,26)          179.7648         calculate D2E/DX2 analytically  !
 ! D13   D(1,2,3,4)             -1.2113         calculate D2E/DX2 analytically  !
 ! D14   D(1,2,3,5)            178.7629         calculate D2E/DX2 analytically  !
 ! D15   D(14,2,3,4)          -177.2851         calculate D2E/DX2 analytically  !
 ! D16   D(14,2,3,5)             2.6891         calculate D2E/DX2 analytically  !
 ! D17   D(2,3,5,6)           -179.9684         calculate D2E/DX2 analytically  !
 ! D18   D(4,3,5,6)              0.0064         calculate D2E/DX2 analytically  !
 ! D19   D(3,5,6,7)            179.9648         calculate D2E/DX2 analytically  !
 ! D20   D(3,5,6,15)            59.0734         calculate D2E/DX2 analytically  !
 ! D21   D(3,5,6,16)           -59.1801         calculate D2E/DX2 analytically  !
 ! D22   D(5,6,7,8)            179.7842         calculate D2E/DX2 analytically  !
 ! D23   D(5,6,7,17)            58.3865         calculate D2E/DX2 analytically  !
 ! D24   D(5,6,7,18)           -58.7978         calculate D2E/DX2 analytically  !
 ! D25   D(15,6,7,8)           -61.1844         calculate D2E/DX2 analytically  !
 ! D26   D(15,6,7,17)          177.4179         calculate D2E/DX2 analytically  !
 ! D27   D(15,6,7,18)           60.2337         calculate D2E/DX2 analytically  !
 ! D28   D(16,6,7,8)            60.7764         calculate D2E/DX2 analytically  !
 ! D29   D(16,6,7,17)          -60.6214         calculate D2E/DX2 analytically  !
 ! D30   D(16,6,7,18)         -177.8056         calculate D2E/DX2 analytically  !
 ! D31   D(6,7,8,19)           -60.1515         calculate D2E/DX2 analytically  !
 ! D32   D(6,7,8,20)           179.9264         calculate D2E/DX2 analytically  !
 ! D33   D(6,7,8,21)            59.9839         calculate D2E/DX2 analytically  !
 ! D34   D(17,7,8,19)           60.5605         calculate D2E/DX2 analytically  !
 ! D35   D(17,7,8,20)          -59.3616         calculate D2E/DX2 analytically  !
 ! D36   D(17,7,8,21)         -179.304          calculate D2E/DX2 analytically  !
 ! D37   D(18,7,8,19)          179.1236         calculate D2E/DX2 analytically  !
 ! D38   D(18,7,8,20)           59.2015         calculate D2E/DX2 analytically  !
 ! D39   D(18,7,8,21)          -60.7409         calculate D2E/DX2 analytically  !
 ! D40   D(1,9,10,11)           -0.3645         calculate D2E/DX2 analytically  !
 ! D41   D(1,9,10,23)          179.8185         calculate D2E/DX2 analytically  !
 ! D42   D(22,9,10,11)         179.4721         calculate D2E/DX2 analytically  !
 ! D43   D(22,9,10,23)          -0.345          calculate D2E/DX2 analytically  !
 ! D44   D(9,10,11,12)          -0.0032         calculate D2E/DX2 analytically  !
 ! D45   D(9,10,11,24)        -179.9984         calculate D2E/DX2 analytically  !
 ! D46   D(23,10,11,12)        179.8099         calculate D2E/DX2 analytically  !
 ! D47   D(23,10,11,24)         -0.1853         calculate D2E/DX2 analytically  !
 ! D48   D(9,10,23,27)           0.0419         calculate D2E/DX2 analytically  !
 ! D49   D(9,10,23,28)         120.0597         calculate D2E/DX2 analytically  !
 ! D50   D(9,10,23,29)        -119.9248         calculate D2E/DX2 analytically  !
 ! D51   D(11,10,23,27)       -179.7744         calculate D2E/DX2 analytically  !
 ! D52   D(11,10,23,28)        -59.7566         calculate D2E/DX2 analytically  !
 ! D53   D(11,10,23,29)         60.2589         calculate D2E/DX2 analytically  !
 ! D54   D(10,11,12,13)          0.2244         calculate D2E/DX2 analytically  !
 ! D55   D(10,11,12,25)       -179.9237         calculate D2E/DX2 analytically  !
 ! D56   D(24,11,12,13)       -179.7803         calculate D2E/DX2 analytically  !
 ! D57   D(24,11,12,25)          0.0717         calculate D2E/DX2 analytically  !
 ! D58   D(11,12,13,1)          -0.0782         calculate D2E/DX2 analytically  !
 ! D59   D(11,12,13,26)        179.8696         calculate D2E/DX2 analytically  !
 ! D60   D(25,12,13,1)        -179.9299         calculate D2E/DX2 analytically  !
 ! D61   D(25,12,13,26)          0.0178         calculate D2E/DX2 analytically  !
 --------------------------------------------------------------------------------
 Trust Radius=3.00D-01 FncErr=5.00D-06 GrdErr=5.00D-06 EigMax=2.50D+02 EigMin=1.00D-04
 Number of steps in this run=    149 maximum allowed number of steps=    174.
 GradGradGradGradGradGradGradGradGradGradGradGradGradGradGradGradGradGrad

                          Input orientation:                          
 ---------------------------------------------------------------------
 Center     Atomic      Atomic             Coordinates (Angstroms)
 Number     Number       Type             X           Y           Z
 ---------------------------------------------------------------------
      1          6           0       -6.185806    1.279209   -0.020528
      2          7           0       -4.899853    0.726329   -0.065915
      3          6           0       -3.709561    1.386046   -0.015174
      4          8           0       -3.562410    2.590419    0.059149
      5          8           0       -2.700040    0.507887   -0.058703
      6          6           0       -1.369766    1.066935   -0.012011
      7          6           0       -0.388095   -0.081008   -0.071278
      8          6           0        1.043952    0.441365   -0.031178
      9          6           0       -6.442054    2.648372   -0.101354
     10          6           0       -7.753674    3.111089   -0.055978
     11          6           0       -8.814163    2.216323    0.062040
     12          6           0       -8.561765    0.853377    0.134892
     13          6           0       -7.258118    0.390178    0.094652
     14          1           0       -4.843973   -0.284853   -0.083438
     15          1           0       -1.263998    1.637393    0.913025
     16          1           0       -1.246405    1.743380   -0.860303
     17          1           0       -0.558243   -0.651372   -0.988472
     18          1           0       -0.570750   -0.753003    0.771684
     19          1           0        1.245510    1.102916   -0.877448
     20          1           0        1.759499   -0.381384   -0.072260
     21          1           0        1.232666    1.003783    0.886716
     22          1           0       -5.631840    3.352698   -0.201518
     23          6           0       -8.000434    4.592681   -0.141054
     24         17           0      -10.469296    2.762124    0.121702
     25          1           0       -9.383923    0.154445    0.225470
     26          1           0       -7.067729   -0.676062    0.154178
     27          9           0       -6.864050    5.290468   -0.255030
     28          9           0       -8.759942    4.921234   -1.199879
     29          9           0       -8.632507    5.064532    0.947313
 ---------------------------------------------------------------------
                    Distance matrix (angstroms):
                    1          2          3          4          5
     1  C    0.000000
     2  N    1.400504   0.000000
     3  C    2.478554   1.361836   0.000000
     4  O    2.933910   2.297658   1.215604   0.000000
     5  O    3.570288   2.210643   1.338727   2.257103   0.000000
     6  C    4.820724   3.546891   2.361458   2.670909   1.443727
     7  C    5.955352   4.583425   3.631464   4.150881   2.385801
     8  C    7.278152   5.950733   4.846500   5.083813   3.744684
     9  C    1.395278   2.464526   3.011214   2.884696   4.311167
    10  C    2.411483   3.719069   4.396850   4.225050   5.684706
    11  C    2.791641   4.190260   5.172261   5.265061   6.349475
    12  C    2.418816   3.669613   4.883660   5.293071   5.875088
    13  C    1.397676   2.387508   3.687285   4.301231   4.562176
    14  H    2.061738   1.012876   2.020755   3.151179   2.285934
    15  H    5.022351   3.873990   2.627833   2.630600   2.069362
    16  H    5.031735   3.874678   2.628511   2.631871   2.069314
    17  H    6.027730   4.647445   3.876750   4.542217   2.606846
    18  H    6.023815   4.650928   3.879022   4.542709   2.610223
    19  H    7.482636   6.210144   5.037500   5.119177   4.073299
    20  H    8.117150   6.750855   5.747842   6.096852   4.547360
    21  H    7.478816   6.212269   5.038367   5.118109   4.075036
    22  H    2.153831   2.729836   2.756374   2.220711   4.087639
    23  C    3.779748   4.956605   5.358166   4.872904   6.692271
    24  Cl   4.535146   5.932820   6.899735   6.909303   8.091691
    25  H    3.399053   4.529773   5.811466   6.312817   6.699251
    26  H    2.152068   2.591298   3.944396   4.792306   4.530316
    27  F    4.074948   4.972444   5.025221   4.276657   6.344336
    28  F    4.613176   5.812348   6.277534   5.833712   7.583029
    29  F    4.609960   5.812000   6.220373   5.711038   7.547797
                    6          7          8          9         10
     6  C    0.000000
     7  C    1.511610   0.000000
     8  C    2.493539   1.524874   0.000000
     9  C    5.313853   6.640846   7.804876   0.000000
    10  C    6.703341   8.027545   9.193816   1.391586   0.000000
    11  C    7.532970   8.734651  10.017065   2.416664   1.392541
    12  C    7.196669   8.229487   9.615982   2.787650   2.405557
    13  C    5.928075   6.888161   8.303181   2.409112   2.769769
    14  H    3.728612   4.460554   5.932771   3.340358   4.472084
    15  H    1.091925   2.165402   2.765616   5.372458   6.725075
    16  H    1.091968   2.165098   2.761960   5.328207   6.697919
    17  H    2.136499   1.093394   2.162756   6.804008   8.173120
    18  H    2.136534   1.093400   2.162952   6.841328   8.198209
    19  H    2.754985   2.172614   1.092908   7.879682   9.257045
    20  H    3.448704   2.168499   1.091152   8.743326  10.134007
    21  H    2.753970   2.172877   1.092912   7.910897   9.278132
    22  H    4.840031   6.269303   7.284989   1.078218   2.140499
    23  C    7.510879   8.932858   9.952206   2.492080   1.504408
    24  Cl   9.257051  10.476223  11.745814   4.035018   2.743710
    25  H    8.069434   9.003801  10.434978   3.870540   3.388018
    26  H    5.960910   6.709876   8.190382   3.392437   3.854504
    27  F    6.934295   8.415730   9.279030   2.679994   2.362360
    28  F    8.419107   9.817535  10.842113   3.427136   2.365948
    29  F    8.345567   9.771614  10.768703   3.425728   2.365350
                   11         12         13         14         15
    11  C    0.000000
    12  C    1.388033   0.000000
    13  C    2.399405   1.384076   0.000000
    14  H    4.694620   3.894254   2.513062   0.000000
    15  H    7.619995   7.380892   6.176954   4.183801   0.000000
    16  H    7.638413   7.436196   6.235687   4.202350   1.776579
    17  H    8.802697   8.220862   6.866317   4.395555   3.058141
    18  H    8.790584   8.175713   6.818074   4.383017   2.492903
    19  H   10.164612   9.862542   8.588636   6.295884   3.128752
    20  H   10.888915  10.396925   9.052104   6.604187   3.766668
    21  H   10.153282   9.824395   8.549696   6.287076   2.575944
    22  H    3.389394   3.865778   3.392495   3.723769   4.823123
    23  C    2.520016   3.791258   4.274064   5.810069   7.431310
    24  Cl   1.743824   2.698548   3.992308   6.400813   9.307455
    25  H    2.145385   1.082892   2.142832   4.571604   8.282817
    26  H    3.380002   2.138153   1.084739   2.270374   6.293744
    27  F    3.654291   4.766765   4.928530   5.932483   6.787480
    28  F    2.985284   4.285831   4.945883   6.609433   8.452050
    29  F    2.988143   4.289389   4.946267   6.635613   8.126585
                   16         17         18         19         20
    16  H    0.000000
    17  H    2.494962   0.000000
    18  H    3.058074   1.763132   0.000000
    19  H    2.572961   2.518606   3.076178   0.000000
    20  H    3.764452   2.506844   2.506073   1.765123   0.000000
    21  H    3.121678   3.076236   2.520285   1.766994   1.765185
    22  H    4.717620   6.511010   6.589274   7.267485   8.282027
    23  C    7.365646   9.143545   9.198350   9.910005  10.954559
    24  Cl   9.330803  10.541034  10.524249  11.873834  12.627854
    25  H    8.361987   8.945146   8.876590  10.728507  11.160270
    26  H    6.385193   6.609059   6.526713   8.563817   8.835048
    27  F    6.671291   8.695206   8.785403   9.148112  10.323222
    28  F    8.165005   9.917989  10.156126  10.714130  11.834185
    29  F    8.297712  10.080306   9.943163  10.798119  11.776728
                   21         22         23         24         25
    21  H    0.000000
    22  H    7.336423   0.000000
    23  C    9.959249   2.674220   0.000000
    24  Cl  11.858032   4.884079   3.084681   0.000000
    25  H   10.671017   4.948663   4.663295   2.826445   0.000000
    26  H    8.500298   4.291760   5.358802   4.836614   2.461622
    27  F    9.232338   2.296989   1.338382   4.419530   5.741025
    28  F   10.934008   3.638964   1.343841   3.054541   5.014304
    29  F   10.668411   3.640631   1.344136   3.058841   5.019426
                   26         27         28         29
    26  H    0.000000
    27  F    5.984013   0.000000
    28  F    6.002231   2.150228   0.000000
    29  F    6.002667   2.150376   2.155738   0.000000
 Symmetry turned off by external request.
 Stoichiometry    C11H11ClF3NO2
 Rotational constants (GHZ):           0.8917727           0.1424111           0.1258590
 Standard basis: 6-311+G(d) (5D, 7F)
   437 basis functions,   720 primitive gaussians,   455 cartesian basis functions
    72 alpha electrons       72 beta electrons
       nuclear repulsion energy      1450.6484352066 Hartrees.
 NAtoms=   29 NActive=   29 NUniq=   29 SFac= 1.00D+00 NAtFMM=   60 NAOKFM=F Big=F
 Integral buffers will be    131072 words long.
 Raffenetti 2 integral format.
 Two-electron integral symmetry is turned off.
 Nuclear repulsion after empirical dispersion term =     1450.6471660847 Hartrees.
 Force inversion solution in PCM.
 ------------------------------------------------------------------------------
 Polarizable Continuum Model (PCM)
 =================================
 Model                : PCM.
 Atomic radii         : SMD-Coulomb.
 Polarization charges : Total charges.
 Charge compensation  : None.
 Solution method      : Matrix inversion.
 Cavity type          : VdW (van der Waals Surface) (Alpha=1.000).
 Cavity algorithm     : GePol (No added spheres)
                        Default sphere list used, NSphG=   29.
                        Lebedev-Laikov grids with approx.  5.0 points / Ang**2.
                        Smoothing algorithm: York/Karplus (Gamma=1.0000).
                        Polarization charges: spherical gaussians, with
                                              point-specific exponents (IZeta= 3).
                        Self-potential: point-specific (ISelfS= 7).
                        Self-field    : sphere-specific E.n sum rule (ISelfD= 2).
 1st derivatives      : Analytical E(r).r(x)/FMM algorithm (CHGder, D1EAlg=3).
                        Cavity 1st derivative terms included.
 2nd derivatives      : Analytical E(r).r(xy)/FMM algorithm (CHGder, D2EAlg=3).
                        Cavity 2nd derivative terms included.
 Solvent              : n-Pentadecane, Eps=   2.033300 Eps(inf)=   2.049192
 ------------------------------------------------------------------------------
 ------------------------------------------------------------------------------
 Atomic radii for non-electrostatic terms: SMD-CDS.
 ------------------------------------------------------------------------------
 Nuclear repulsion after PCM non-electrostatic terms =     1450.6417779987 Hartrees.
 One-electron integrals computed using PRISM.
 NBasis=   437 RedAO= T EigKep=  1.08D-06  NBF=   437
 NBsUse=   436 1.00D-06 EigRej=  2.89D-07 NBFU=   436
 ExpMin= 4.38D-02 ExpMax= 1.06D+05 ExpMxC= 3.62D+03 IAcc=3 IRadAn=         5 AccDes= 0.00D+00
 Harris functional with IExCor= 1009 and IRadAn=       5 diagonalized for initial guess.
 HarFok:  IExCor= 1009 AccDes= 0.00D+00 IRadAn=         5 IDoV= 1 UseB2=F ITyADJ=14
 ICtDFT=  3500011 ScaDFX=  1.000000  1.000000  1.000000  1.000000
 FoFCou: FMM=F IPFlag=           0 FMFlag=      100000 FMFlg1=           0
         NFxFlg=           0 DoJE=T BraDBF=F KetDBF=T FulRan=T
         wScrn=  0.000000 ICntrl=       500 IOpCl=  0 I1Cent=   200000004 NGrid=           0
         NMat0=    1 NMatS0=      1 NMatT0=    0 NMatD0=    1 NMtDS0=    0 NMtDT0=    0
 Symmetry not used in FoFCou.
 Requested convergence on RMS density matrix=1.00D-08 within 128 cycles.
 Requested convergence on MAX density matrix=1.00D-06.
 Requested convergence on             energy=1.00D-06.
 No special actions if energy rises.
 Inv3:  Mode=1 IEnd=    17554683.
 Iteration    1 A*A^-1 deviation from unit magnitude is 7.33D-15 for   2414.
 Iteration    1 A*A^-1 deviation from orthogonality  is 2.23D-15 for   2396   2274.
 Iteration    1 A^-1*A deviation from unit magnitude is 7.33D-15 for   2414.
 Iteration    1 A^-1*A deviation from orthogonality  is 2.83D-15 for   1111   1106.
 Error on total polarization charges =  0.02385
 SCF Done:  E(RM062X) =  -1390.68236298     A.U. after   16 cycles
            NFock= 16  Conv=0.76D-08     -V/T= 2.0029
 SMD-CDS (non-electrostatic) energy       (kcal/mol) =      -3.38
 (included in total energy above)
 DoSCS=F DFT=T ScalE2(SS,OS)=  1.000000  1.000000
 Range of M.O.s used for correlation:     1   436
 NBasis=   437 NAE=    72 NBE=    72 NFC=     0 NFV=     0
 NROrb=    436 NOA=    72 NOB=    72 NVA=   364 NVB=   364

 **** Warning!!: The largest alpha MO coefficient is  0.17901992D+03

 Symmetrizing basis deriv contribution to polar:
 IMax=3 JMax=2 DiffMx= 0.00D+00
 G2DrvN: will do    30 centers at a time, making    1 passes.
 Calling FoFCou, ICntrl=  3107 FMM=F I1Cent=   0 AccDes= 0.00D+00.
 NEqPCM:  Using equilibrium solvation (IEInf=0, Eps=   2.0333, EpsInf=   2.0492)
 G2PCM: DoFxE=T DoFxN=T DoGrad=T DoDP/DQ/DG/TGxP=FFFF NFrqRd=   0 IEInf=0 SqF1=F DoCFld=F IF1Alg=4.
 End of G2Drv F.D. properties file   721 does not exist.
 End of G2Drv F.D. properties file   722 does not exist.
 End of G2Drv F.D. properties file   788 does not exist.
          IDoAtm=11111111111111111111111111111
 NEqPCM:  Using equilibrium solvation (IEInf=0, Eps=   2.0333, EpsInf=   2.0492)
          Differentiating once with respect to electric field.
                with respect to dipole field.
          Differentiating once with respect to nuclear coordinates.
 CalDSu exits because no D1Ps are significant.
          There are    90 degrees of freedom in the 1st order CPHF.  IDoFFX=6 NUNeed=     3.
     87 vectors produced by pass  0 Test12= 2.91D-14 1.11D-09 XBig12= 1.21D+02 4.93D+00.
 AX will form    87 AO Fock derivatives at one time.
     87 vectors produced by pass  1 Test12= 2.91D-14 1.11D-09 XBig12= 1.34D+01 5.97D-01.
     87 vectors produced by pass  2 Test12= 2.91D-14 1.11D-09 XBig12= 3.50D-01 6.41D-02.
     87 vectors produced by pass  3 Test12= 2.91D-14 1.11D-09 XBig12= 3.26D-03 5.55D-03.
     87 vectors produced by pass  4 Test12= 2.91D-14 1.11D-09 XBig12= 2.82D-05 5.02D-04.
     87 vectors produced by pass  5 Test12= 2.91D-14 1.11D-09 XBig12= 1.58D-07 4.48D-05.
     73 vectors produced by pass  6 Test12= 2.91D-14 1.11D-09 XBig12= 6.61D-10 2.45D-06.
     28 vectors produced by pass  7 Test12= 2.91D-14 1.11D-09 XBig12= 2.44D-12 1.48D-07.
      3 vectors produced by pass  8 Test12= 2.91D-14 1.11D-09 XBig12= 7.97D-15 8.81D-09.
 InvSVY:  IOpt=1 It=  1 EMax= 3.38D-15
 Solved reduced A of dimension   626 with    90 vectors.
 Isotropic polarizability for W=    0.000000      174.79 Bohr**3.
 End of Minotr F.D. properties file   721 does not exist.
 End of Minotr F.D. properties file   722 does not exist.
 End of Minotr F.D. properties file   788 does not exist.

 **********************************************************************

            Population analysis using the SCF Density.

 **********************************************************************

 Alpha  occ. eigenvalues -- -102.68681 -25.28134 -25.27641 -25.27612 -19.67645
 Alpha  occ. eigenvalues --  -19.61425 -14.80627 -10.80883 -10.71266 -10.62683
 Alpha  occ. eigenvalues --  -10.62086 -10.59812 -10.59284 -10.57516 -10.57406
 Alpha  occ. eigenvalues --  -10.57108 -10.54064 -10.52984  -9.82952  -7.55473
 Alpha  occ. eigenvalues --   -7.54781  -7.54771  -1.47311  -1.37924  -1.37492
 Alpha  occ. eigenvalues --   -1.25519  -1.15261  -1.08230  -1.01922  -0.95489
 Alpha  occ. eigenvalues --   -0.91058  -0.90067  -0.85688  -0.82055  -0.79619
 Alpha  occ. eigenvalues --   -0.75093  -0.73266  -0.70443  -0.69582  -0.69113
 Alpha  occ. eigenvalues --   -0.68003  -0.67019  -0.64111  -0.60234  -0.59570
 Alpha  occ. eigenvalues --   -0.58106  -0.57948  -0.57809  -0.56238  -0.54544
 Alpha  occ. eigenvalues --   -0.54202  -0.53622  -0.53520  -0.52016  -0.51434
 Alpha  occ. eigenvalues --   -0.51204  -0.49701  -0.49629  -0.47403  -0.46547
 Alpha  occ. eigenvalues --   -0.45626  -0.44815  -0.43606  -0.43545  -0.40981
 Alpha  occ. eigenvalues --   -0.40792  -0.38886  -0.38385  -0.38013  -0.37234
 Alpha  occ. eigenvalues --   -0.34275  -0.29026
 Alpha virt. eigenvalues --   -0.01739  -0.00474   0.00190   0.01825   0.02178
 Alpha virt. eigenvalues --    0.02761   0.03276   0.03451   0.04433   0.04855
 Alpha virt. eigenvalues --    0.05107   0.05353   0.06579   0.06680   0.06854
 Alpha virt. eigenvalues --    0.07137   0.07301   0.08277   0.08316   0.08578
 Alpha virt. eigenvalues --    0.08608   0.08894   0.09496   0.10431   0.11416
 Alpha virt. eigenvalues --    0.11628   0.11808   0.12574   0.13082   0.13455
 Alpha virt. eigenvalues --    0.13765   0.14266   0.14410   0.15182   0.15907
 Alpha virt. eigenvalues --    0.16491   0.17397   0.17492   0.18016   0.18302
 Alpha virt. eigenvalues --    0.18835   0.19464   0.19815   0.20296   0.20423
 Alpha virt. eigenvalues --    0.20845   0.21204   0.21371   0.21543   0.22167
 Alpha virt. eigenvalues --    0.22565   0.23048   0.23227   0.23474   0.24028
 Alpha virt. eigenvalues --    0.24237   0.24635   0.25419   0.25851   0.26240
 Alpha virt. eigenvalues --    0.26279   0.27013   0.27416   0.27642   0.28090
 Alpha virt. eigenvalues --    0.28414   0.29215   0.29557   0.30037   0.30410
 Alpha virt. eigenvalues --    0.30615   0.30809   0.31212   0.31522   0.31749
 Alpha virt. eigenvalues --    0.32615   0.32930   0.33481   0.34224   0.34534
 Alpha virt. eigenvalues --    0.34621   0.36171   0.36721   0.37234   0.37800
 Alpha virt. eigenvalues --    0.38682   0.39473   0.39925   0.40625   0.41553
 Alpha virt. eigenvalues --    0.41849   0.42739   0.43464   0.43876   0.44074
 Alpha virt. eigenvalues --    0.45272   0.45822   0.46153   0.47842   0.48489
 Alpha virt. eigenvalues --    0.48773   0.49228   0.50621   0.50827   0.51338
 Alpha virt. eigenvalues --    0.52427   0.52691   0.54783   0.55832   0.56106
 Alpha virt. eigenvalues --    0.57076   0.59161   0.59461   0.60406   0.61784
 Alpha virt. eigenvalues --    0.62044   0.62918   0.63477   0.63793   0.64471
 Alpha virt. eigenvalues --    0.65140   0.65997   0.67294   0.67878   0.68184
 Alpha virt. eigenvalues --    0.68959   0.69815   0.70092   0.70315   0.71855
 Alpha virt. eigenvalues --    0.72801   0.72925   0.73239   0.74030   0.75363
 Alpha virt. eigenvalues --    0.75928   0.76645   0.77187   0.78043   0.78359
 Alpha virt. eigenvalues --    0.79544   0.80768   0.83370   0.84221   0.85101
 Alpha virt. eigenvalues --    0.87566   0.88986   0.90869   0.91925   0.92237
 Alpha virt. eigenvalues --    0.93403   0.94285   0.94788   0.95668   0.96136
 Alpha virt. eigenvalues --    0.96842   0.99398   1.00593   1.01082   1.03264
 Alpha virt. eigenvalues --    1.04005   1.04417   1.05134   1.07192   1.08026
 Alpha virt. eigenvalues --    1.09851   1.11705   1.12094   1.12438   1.13630
 Alpha virt. eigenvalues --    1.15373   1.19344   1.19705   1.21130   1.22392
 Alpha virt. eigenvalues --    1.23498   1.24303   1.25694   1.26396   1.30986
 Alpha virt. eigenvalues --    1.32171   1.33115   1.33996   1.36159   1.38666
 Alpha virt. eigenvalues --    1.39953   1.40796   1.43668   1.44810   1.46392
 Alpha virt. eigenvalues --    1.48459   1.49726   1.49872   1.50270   1.51341
 Alpha virt. eigenvalues --    1.52665   1.53666   1.53764   1.55690   1.57392
 Alpha virt. eigenvalues --    1.57960   1.58793   1.58992   1.60564   1.61308
 Alpha virt. eigenvalues --    1.63051   1.63185   1.64013   1.66537   1.68235
 Alpha virt. eigenvalues --    1.70889   1.73405   1.74216   1.77256   1.78683
 Alpha virt. eigenvalues --    1.79096   1.79393   1.79928   1.82846   1.84244
 Alpha virt. eigenvalues --    1.85492   1.86398   1.87107   1.87937   1.89785
 Alpha virt. eigenvalues --    1.90733   1.95380   1.96245   1.98154   1.98693
 Alpha virt. eigenvalues --    1.99466   2.03080   2.04362   2.07650   2.08810
 Alpha virt. eigenvalues --    2.09693   2.11498   2.17807   2.19279   2.20312
 Alpha virt. eigenvalues --    2.24978   2.27458   2.31400   2.31776   2.34337
 Alpha virt. eigenvalues --    2.35263   2.36178   2.40516   2.44411   2.48423
 Alpha virt. eigenvalues --    2.50653   2.52164   2.55032   2.55129   2.56404
 Alpha virt. eigenvalues --    2.57844   2.59903   2.61075   2.61990   2.65135
 Alpha virt. eigenvalues --    2.69438   2.70318   2.74571   2.75497   2.80111
 Alpha virt. eigenvalues --    2.81330   2.85172   2.85920   2.91441   2.92788
 Alpha virt. eigenvalues --    2.94150   2.96045   3.01231   3.01503   3.02796
 Alpha virt. eigenvalues --    3.04430   3.04849   3.06979   3.10566   3.11791
 Alpha virt. eigenvalues --    3.12469   3.18457   3.18991   3.21383   3.22724
 Alpha virt. eigenvalues --    3.24509   3.29144   3.29842   3.30106   3.34586
 Alpha virt. eigenvalues --    3.38228   3.39316   3.41501   3.43655   3.44098
 Alpha virt. eigenvalues --    3.53135   3.54050   3.67214   3.70853   3.73135
 Alpha virt. eigenvalues --    3.77608   3.80445   3.81735   3.84200   3.84572
 Alpha virt. eigenvalues --    3.86774   3.87192   3.88758   3.90901   3.96257
 Alpha virt. eigenvalues --    3.97748   4.00855   4.01428   4.03001   4.07783
 Alpha virt. eigenvalues --    4.10481   4.11556   4.18861   4.23017   4.27660
 Alpha virt. eigenvalues --    4.31826   4.56043   4.76630   4.81013   4.98357
 Alpha virt. eigenvalues --    5.02684   5.08785   5.10554   5.16903   5.37362
 Alpha virt. eigenvalues --    5.49312   5.80270   5.96871   6.45111   6.48848
 Alpha virt. eigenvalues --    6.50048   6.53627   6.56229   6.58100   6.63700
 Alpha virt. eigenvalues --    6.87252   6.91557  10.00012  23.43867  23.57117
 Alpha virt. eigenvalues --   23.65947  23.72176  23.81980  23.92387  23.93674
 Alpha virt. eigenvalues --   23.95083  24.07876  24.12281  24.19328  25.95762
 Alpha virt. eigenvalues --   26.31226  26.80949  35.66144  50.01997  50.13407
 Alpha virt. eigenvalues --   66.88878  66.92100  66.97386 216.10942
          Condensed to atoms (all electrons):
               1          2          3          4          5          6
     1  C   26.914172  -0.165006  -1.154059  -0.243221  -0.342540  -0.764750
     2  N   -0.165006   7.673190   0.156348  -0.007693  -0.243399  -0.397438
     3  C   -1.154059   0.156348   9.081867   0.557856   0.376290  -0.669094
     4  O   -0.243221  -0.007693   0.557856   8.077246  -0.196022  -0.182395
     5  O   -0.342540  -0.243399   0.376290  -0.196022   8.356676   0.388729
     6  C   -0.764750  -0.397438  -0.669094  -0.182395   0.388729   8.533819
     7  C    0.027295   0.045799   0.190017   0.032744  -0.182847  -1.031177
     8  C   -0.018697  -0.009820  -0.256645  -0.000010   0.032584   0.345477
     9  C   -3.200228   0.147245   1.022780   0.358116   0.054800  -0.064473
    10  C   -6.416465   0.121592   0.015785   0.036302   0.024926   0.001161
    11  C   -5.275852  -0.018675  -1.089296  -0.021082  -0.022950  -0.111485
    12  C    2.580662   0.134216   1.120498   0.002527   0.017557   0.080089
    13  C   -2.278383  -0.224546  -3.494255  -0.088344  -0.148798  -0.455768
    14  H   -0.025190   0.252969   0.046818  -0.000837   0.024365   0.012517
    15  H    0.010838   0.005199   0.049116  -0.001866  -0.043029   0.340061
    16  H   -0.003903   0.005279   0.023607  -0.002079  -0.043945   0.377670
    17  H   -0.000271  -0.000891   0.006899  -0.000308   0.001097  -0.060398
    18  H   -0.000788  -0.000682   0.004306  -0.000318   0.001142  -0.065044
    19  H   -0.000102  -0.000019  -0.000500  -0.000075  -0.000381  -0.050408
    20  H    0.000131   0.000047   0.007784   0.000030  -0.000616   0.088224
    21  H   -0.000061  -0.000054  -0.000747  -0.000083  -0.000419  -0.047434
    22  H   -0.036638  -0.021803   0.102325   0.004823   0.002941   0.011185
    23  C   -3.189658   0.048627  -0.013682  -0.008941   0.004152  -0.004039
    24  Cl   0.008736  -0.002705  -0.069297   0.000413  -0.000096  -0.002042
    25  H   -0.056674  -0.002752  -0.000030  -0.000006  -0.000015   0.000001
    26  H    0.192482  -0.020661   0.012722   0.000041  -0.000598   0.000471
    27  F    0.246375  -0.000796   0.007584  -0.000172  -0.000027   0.000141
    28  F   -0.005670   0.000580   0.001050  -0.000015   0.000001  -0.000004
    29  F    0.025322   0.000508   0.004262  -0.000006  -0.000001   0.000034
               7          8          9         10         11         12
     1  C    0.027295  -0.018697  -3.200228  -6.416465  -5.275852   2.580662
     2  N    0.045799  -0.009820   0.147245   0.121592  -0.018675   0.134216
     3  C    0.190017  -0.256645   1.022780   0.015785  -1.089296   1.120498
     4  O    0.032744  -0.000010   0.358116   0.036302  -0.021082   0.002527
     5  O   -0.182847   0.032584   0.054800   0.024926  -0.022950   0.017557
     6  C   -1.031177   0.345477  -0.064473   0.001161  -0.111485   0.080089
     7  C    6.504145  -0.157961  -0.035826  -0.012333   0.003936  -0.002140
     8  C   -0.157961   6.093113  -0.010597  -0.000533  -0.000740   0.000545
     9  C   -0.035826  -0.010597  18.028397   4.593891  -8.904413   1.358949
    10  C   -0.012333  -0.000533   4.593891  38.109226 -13.578975 -11.153048
    11  C    0.003936  -0.000740  -8.904413 -13.578975  43.901859  -8.496847
    12  C   -0.002140   0.000545   1.358949 -11.153048  -8.496847  25.887787
    13  C    0.049518  -0.004692  -8.067063  -2.438737   2.549318  -4.603480
    14  H   -0.003167  -0.000264   0.088911   0.022971  -0.019381   0.030777
    15  H   -0.020662  -0.016601  -0.001735  -0.000074   0.000182  -0.000071
    16  H   -0.028108  -0.011961   0.004897   0.000963   0.000194  -0.000090
    17  H    0.438506  -0.044635   0.000996   0.000073   0.000005  -0.000031
    18  H    0.446555  -0.045351   0.000283   0.000006   0.000007   0.000001
    19  H    0.017369   0.377876   0.000011  -0.000004  -0.000000   0.000000
    20  H   -0.131769   0.387769   0.000021  -0.000000   0.000000  -0.000000
    21  H    0.010384   0.382210   0.000010  -0.000000   0.000000  -0.000000
    22  H   -0.000614   0.000067   0.356425  -0.067535  -0.029387  -0.001557
    23  C   -0.001925  -0.000110   0.020385  -3.237429  -1.865044  -0.483269
    24  Cl   0.000012  -0.000006  -0.040670   0.848555  -1.642283  -0.329148
    25  H    0.000001  -0.000000  -0.018346   0.130435   0.196173   0.062080
    26  H   -0.000012   0.000006   0.022369  -0.026957  -0.100601   0.087446
    27  F    0.000020  -0.000001   0.209294  -0.356572  -0.188819  -0.007081
    28  F   -0.000000   0.000000  -0.016933   0.163448  -0.135309   0.092768
    29  F   -0.000001   0.000000   0.025691   0.137063  -0.149672   0.118141
              13         14         15         16         17         18
     1  C   -2.278383  -0.025190   0.010838  -0.003903  -0.000271  -0.000788
     2  N   -0.224546   0.252969   0.005199   0.005279  -0.000891  -0.000682
     3  C   -3.494255   0.046818   0.049116   0.023607   0.006899   0.004306
     4  O   -0.088344  -0.000837  -0.001866  -0.002079  -0.000308  -0.000318
     5  O   -0.148798   0.024365  -0.043029  -0.043945   0.001097   0.001142
     6  C   -0.455768   0.012517   0.340061   0.377670  -0.060398  -0.065044
     7  C    0.049518  -0.003167  -0.020662  -0.028108   0.438506   0.446555
     8  C   -0.004692  -0.000264  -0.016601  -0.011961  -0.044635  -0.045351
     9  C   -8.067063   0.088911  -0.001735   0.004897   0.000996   0.000283
    10  C   -2.438737   0.022971  -0.000074   0.000963   0.000073   0.000006
    11  C    2.549318  -0.019381   0.000182   0.000194   0.000005   0.000007
    12  C   -4.603480   0.030777  -0.000071  -0.000090  -0.000031   0.000001
    13  C   24.634402  -0.170489   0.001026  -0.001217  -0.000614   0.000136
    14  H   -0.170489   0.305544  -0.000031   0.000025   0.000021  -0.000012
    15  H    0.001026  -0.000031   0.440502  -0.038217   0.005252  -0.007800
    16  H   -0.001217   0.000025  -0.038217   0.440035  -0.007642   0.005333
    17  H   -0.000614   0.000021   0.005252  -0.007642   0.440882  -0.036332
    18  H    0.000136  -0.000012  -0.007800   0.005333  -0.036332   0.441568
    19  H    0.000023  -0.000000  -0.000463   0.003667  -0.008056   0.006051
    20  H    0.000003  -0.000000  -0.000191  -0.000176  -0.003286  -0.003251
    21  H   -0.000003  -0.000000   0.003612  -0.000489   0.006017  -0.007946
    22  H   -0.047716   0.000253  -0.000024  -0.000038  -0.000000  -0.000000
    23  C    0.683374   0.002957  -0.000020  -0.000048   0.000001  -0.000001
    24  Cl   0.491302  -0.000065   0.000000   0.000000  -0.000000   0.000000
    25  H    0.007861  -0.000010   0.000000   0.000000  -0.000000  -0.000000
    26  H    0.152489   0.007276  -0.000000  -0.000000  -0.000000  -0.000000
    27  F   -0.001563  -0.000006   0.000000   0.000001   0.000000   0.000000
    28  F   -0.016626   0.000002  -0.000000   0.000000   0.000000   0.000000
    29  F   -0.038564   0.000002   0.000000  -0.000000  -0.000000  -0.000000
              19         20         21         22         23         24
     1  C   -0.000102   0.000131  -0.000061  -0.036638  -3.189658   0.008736
     2  N   -0.000019   0.000047  -0.000054  -0.021803   0.048627  -0.002705
     3  C   -0.000500   0.007784  -0.000747   0.102325  -0.013682  -0.069297
     4  O   -0.000075   0.000030  -0.000083   0.004823  -0.008941   0.000413
     5  O   -0.000381  -0.000616  -0.000419   0.002941   0.004152  -0.000096
     6  C   -0.050408   0.088224  -0.047434   0.011185  -0.004039  -0.002042
     7  C    0.017369  -0.131769   0.010384  -0.000614  -0.001925   0.000012
     8  C    0.377876   0.387769   0.382210   0.000067  -0.000110  -0.000006
     9  C    0.000011   0.000021   0.000010   0.356425   0.020385  -0.040670
    10  C   -0.000004  -0.000000  -0.000000  -0.067535  -3.237429   0.848555
    11  C   -0.000000   0.000000   0.000000  -0.029387  -1.865044  -1.642283
    12  C    0.000000  -0.000000  -0.000000  -0.001557  -0.483269  -0.329148
    13  C    0.000023   0.000003  -0.000003  -0.047716   0.683374   0.491302
    14  H   -0.000000  -0.000000  -0.000000   0.000253   0.002957  -0.000065
    15  H   -0.000463  -0.000191   0.003612  -0.000024  -0.000020   0.000000
    16  H    0.003667  -0.000176  -0.000489  -0.000038  -0.000048   0.000000
    17  H   -0.008056  -0.003286   0.006017  -0.000000   0.000001  -0.000000
    18  H    0.006051  -0.003251  -0.007946  -0.000000  -0.000001   0.000000
    19  H    0.452005  -0.024461  -0.037031  -0.000000  -0.000000  -0.000000
    20  H   -0.024461   0.426248  -0.024492   0.000000   0.000000   0.000000
    21  H   -0.037031  -0.024492   0.451802  -0.000000  -0.000000  -0.000000
    22  H   -0.000000   0.000000  -0.000000   0.335890   0.044451  -0.002017
    23  C   -0.000000   0.000000  -0.000000   0.044451  13.430352  -0.414634
    24  Cl  -0.000000   0.000000  -0.000000  -0.002017  -0.414634  17.768858
    25  H    0.000000  -0.000000   0.000000   0.000040   0.018158  -0.018135
    26  H   -0.000000   0.000000  -0.000000  -0.000035   0.002820   0.000120
    27  F    0.000000  -0.000000   0.000000   0.014096   0.227744   0.011713
    28  F   -0.000000  -0.000000  -0.000000   0.000389   0.081983  -0.019731
    29  F   -0.000000   0.000000  -0.000000   0.000416   0.043062  -0.019797
              25         26         27         28         29
     1  C   -0.056674   0.192482   0.246375  -0.005670   0.025322
     2  N   -0.002752  -0.020661  -0.000796   0.000580   0.000508
     3  C   -0.000030   0.012722   0.007584   0.001050   0.004262
     4  O   -0.000006   0.000041  -0.000172  -0.000015  -0.000006
     5  O   -0.000015  -0.000598  -0.000027   0.000001  -0.000001
     6  C    0.000001   0.000471   0.000141  -0.000004   0.000034
     7  C    0.000001  -0.000012   0.000020  -0.000000  -0.000001
     8  C   -0.000000   0.000006  -0.000001   0.000000   0.000000
     9  C   -0.018346   0.022369   0.209294  -0.016933   0.025691
    10  C    0.130435  -0.026957  -0.356572   0.163448   0.137063
    11  C    0.196173  -0.100601  -0.188819  -0.135309  -0.149672
    12  C    0.062080   0.087446  -0.007081   0.092768   0.118141
    13  C    0.007861   0.152489  -0.001563  -0.016626  -0.038564
    14  H   -0.000010   0.007276  -0.000006   0.000002   0.000002
    15  H    0.000000  -0.000000   0.000000  -0.000000   0.000000
    16  H    0.000000  -0.000000   0.000001   0.000000  -0.000000
    17  H   -0.000000  -0.000000   0.000000   0.000000  -0.000000
    18  H   -0.000000  -0.000000   0.000000   0.000000  -0.000000
    19  H    0.000000  -0.000000   0.000000  -0.000000  -0.000000
    20  H   -0.000000   0.000000  -0.000000  -0.000000   0.000000
    21  H    0.000000  -0.000000   0.000000  -0.000000  -0.000000
    22  H    0.000040  -0.000035   0.014096   0.000389   0.000416
    23  C    0.018158   0.002820   0.227744   0.081983   0.043062
    24  Cl  -0.018135   0.000120   0.011713  -0.019731  -0.019797
    25  H    0.388332  -0.004317   0.000029  -0.000027  -0.000029
    26  H   -0.004317   0.409247  -0.000008   0.000002   0.000004
    27  F    0.000029  -0.000008   9.038829  -0.035532  -0.036690
    28  F   -0.000027   0.000002  -0.035532   8.980335  -0.047031
    29  F   -0.000029   0.000004  -0.036690  -0.047031   8.981927
 Mulliken charges:
               1
     1  C   -0.827854
     2  N   -0.474659
     3  C   -0.040309
     4  O   -0.316626
     5  O   -0.059579
     6  C   -0.273630
     7  C   -0.157758
     8  C   -1.041023
     9  C    0.066808
    10  C   -0.917734
    11  C    0.999135
    12  C   -0.497279
    13  C   -0.488595
    14  H    0.424046
    15  H    0.274998
    16  H    0.276241
    17  H    0.262717
    18  H    0.262136
    19  H    0.264499
    20  H    0.277985
    21  H    0.264726
    22  H    0.334063
    23  C    0.610734
    24  Cl   0.430915
    25  H    0.297231
    26  H    0.265693
    27  F   -0.128559
    28  F   -0.043680
    29  F   -0.044640
 Sum of Mulliken charges =  -0.00000
 Mulliken charges with hydrogens summed into heavy atoms:
               1
     1  C   -0.827854
     2  N   -0.050613
     3  C   -0.040309
     4  O   -0.316626
     5  O   -0.059579
     6  C    0.277608
     7  C    0.367094
     8  C   -0.233813
     9  C    0.400872
    10  C   -0.917734
    11  C    0.999135
    12  C   -0.200048
    13  C   -0.222902
    23  C    0.610734
    24  Cl   0.430915
    27  F   -0.128559
    28  F   -0.043680
    29  F   -0.044640
 APT charges:
               1
     1  C    0.666430
     2  N   -1.211072
     3  C    1.961611
     4  O   -0.902628
     5  O   -1.245854
     6  C    0.655842
     7  C    0.079420
     8  C    0.047888
     9  C   -0.184269
    10  C   -0.166918
    11  C    0.373560
    12  C   -0.075966
    13  C   -0.113615
    14  H    0.249133
    15  H   -0.035187
    16  H   -0.035973
    17  H   -0.021560
    18  H   -0.021500
    19  H   -0.008818
    20  H   -0.015111
    21  H   -0.009127
    22  H    0.157915
    23  C    1.949670
    24  Cl  -0.351683
    25  H    0.085545
    26  H    0.064061
    27  F   -0.608926
    28  F   -0.641805
    29  F   -0.641064
 Sum of APT charges =  -0.00000
 APT charges with hydrogens summed into heavy atoms:
               1
     1  C    0.666430
     2  N   -0.961939
     3  C    1.961611
     4  O   -0.902628
     5  O   -1.245854
     6  C    0.584682
     7  C    0.036360
     8  C    0.014832
     9  C   -0.026354
    10  C   -0.166918
    11  C    0.373560
    12  C    0.009578
    13  C   -0.049554
    23  C    1.949670
    24  Cl  -0.351683
    27  F   -0.608926
    28  F   -0.641805
    29  F   -0.641064
 Electronic spatial extent (au):  <R**2>=          28703.2923
 Charge=              0.0000 electrons
 Dipole moment (field-independent basis, Debye):
    X=              3.5937    Y=             -6.7343    Z=              0.0160  Tot=              7.6333
 Quadrupole moment (field-independent basis, Debye-Ang):
   XX=           -145.0832   YY=           -138.2250   ZZ=           -113.3490
   XY=             49.8749   XZ=             -1.0272   YZ=             -0.4135
 Traceless Quadrupole moment (field-independent basis, Debye-Ang):
   XX=            -12.8641   YY=             -6.0060   ZZ=             18.8701
   XY=             49.8749   XZ=             -1.0272   YZ=             -0.4135
 Octapole moment (field-independent basis, Debye-Ang**2):
  XXX=           2293.7108  YYY=           -843.4716  ZZZ=              7.0667  XYY=            846.7136
  XXY=           -633.2494  XXZ=             15.1742  XZZ=            674.1474  YZZ=           -243.2335
  YYZ=              2.3165  XYZ=              0.3778
 Hexadecapole moment (field-independent basis, Debye-Ang**3):
 XXXX=         -34271.6801 YYYY=          -5664.3012 ZZZZ=           -210.8562 XXXY=           8614.0616
 XXXZ=           -154.1262 YYYX=           6252.7407 YYYZ=             44.0122 ZZZX=            -15.6032
 ZZZY=             40.8848 XXYY=          -7551.4515 XXZZ=          -5384.7727 YYZZ=           -903.6744
 XXYZ=             23.2086 YYXZ=            -14.6579 ZZXY=           1828.5369
 N-N= 1.450641777999D+03 E-N=-6.180272944468D+03  KE= 1.386728647479D+03
  Exact polarizability:     244.802     -17.941     172.170      -3.315      -2.038     107.406
 Approx polarizability:     225.432      -7.285     195.950      -3.386      -1.963     127.922
 D2PCM: PCM CHGder 2nd derivatives, FixD1E=F FixD2E=F DoIter=F DoCFld=F I1PDM=0
 Calling FoFJK, ICntrl=    100127 FMM=F ISym2X=0 I1Cent= 0 IOpClX= 0 NMat=1 NMatS=1 NMatT=0.
 -------------------------------------------------------------------
 Center     Atomic                   Forces (Hartrees/Bohr)
 Number     Number              X              Y              Z
 -------------------------------------------------------------------
      1        6           0.000258513   -0.000972962   -0.000071215
      2        7          -0.004511151   -0.005309554   -0.000036194
      3        6           0.008514290    0.018184038    0.001215853
      4        8          -0.002623987   -0.012635012   -0.001139619
      5        8           0.000682505   -0.001693870    0.000033777
      6        6          -0.003551037   -0.001689866   -0.000192846
      7        6           0.000125639    0.000043285    0.000046800
      8        6          -0.000300929   -0.000352772   -0.000033015
      9        6          -0.000584080    0.000416980   -0.000176537
     10        6           0.000850681   -0.001545895   -0.000026531
     11        6          -0.002441775    0.000502170    0.000130865
     12        6           0.000725640   -0.000331611   -0.000141487
     13        6          -0.000086945    0.001134593   -0.000092683
     14        1           0.000707658    0.002319056   -0.000183472
     15        1          -0.000011074    0.000950839   -0.000377162
     16        1          -0.000083529    0.000889407    0.000499033
     17        1          -0.000156199   -0.000272881    0.000185642
     18        1          -0.000133330   -0.000277947   -0.000238467
     19        1           0.000477386    0.000038354    0.000101299
     20        1           0.000271232    0.000293596    0.000019561
     21        1           0.000474000    0.000031342   -0.000070242
     22        1           0.001082668   -0.000166806    0.000488291
     23        6          -0.002700295    0.005389723    0.000110415
     24       17           0.001213517   -0.000709981    0.000034138
     25        1          -0.000379531    0.000479314   -0.000028200
     26        1          -0.000122803   -0.000404578    0.000124660
     27        9           0.000154884   -0.001251290   -0.000030779
     28        9           0.001076907   -0.001459183    0.000756715
     29        9           0.001071144   -0.001598486   -0.000908601
 -------------------------------------------------------------------
 Cartesian Forces:  Max     0.018184038 RMS     0.002861128
 FormGI is forming the generalized inverse of G from B-inverse, IUseBI=4.

 GradGradGradGradGradGradGradGradGradGradGradGradGradGradGradGradGradGrad
 Berny optimization.
 Internal  Forces:  Max     0.012905732 RMS     0.001371999
 Search for a local minimum.
 Step number   1 out of a maximum of  149
 All quantities printed in internal units (Hartrees-Bohrs-Radians)
 Mixed Optimization -- RFO/linear search
 Second derivative matrix not updated -- analytic derivatives used.
 ITU=  0
     Eigenvalues ---    0.00057   0.00176   0.00271   0.00313   0.00429
     Eigenvalues ---    0.00461   0.00861   0.01293   0.01469   0.01734
     Eigenvalues ---    0.01814   0.02123   0.02315   0.02433   0.02628
     Eigenvalues ---    0.02738   0.03004   0.03613   0.03933   0.04597
     Eigenvalues ---    0.04603   0.04818   0.06226   0.06698   0.08085
     Eigenvalues ---    0.09910   0.10399   0.11580   0.11959   0.12466
     Eigenvalues ---    0.12518   0.12549   0.13332   0.13709   0.13856
     Eigenvalues ---    0.14285   0.16335   0.16627   0.17583   0.18225
     Eigenvalues ---    0.19009   0.19286   0.20228   0.22517   0.24232
     Eigenvalues ---    0.24529   0.24777   0.24995   0.25261   0.26308
     Eigenvalues ---    0.28022   0.30023   0.30778   0.31875   0.33077
     Eigenvalues ---    0.33793   0.34127   0.34252   0.34302   0.34491
     Eigenvalues ---    0.34715   0.35255   0.36264   0.36633   0.37053
     Eigenvalues ---    0.37105   0.37437   0.37830   0.38495   0.40847
     Eigenvalues ---    0.41550   0.45439   0.46565   0.47789   0.48412
     Eigenvalues ---    0.50355   0.52833   0.53481   0.55958   0.58719
     Eigenvalues ---    0.84583
 RFO step:  Lambda=-8.21152164D-04 EMin= 5.70322253D-04
 Linear search not attempted -- first point.
 Iteration  1 RMS(Cart)=  0.11110631 RMS(Int)=  0.00574624
 Iteration  2 RMS(Cart)=  0.01019596 RMS(Int)=  0.00010099
 Iteration  3 RMS(Cart)=  0.00006486 RMS(Int)=  0.00009931
 Iteration  4 RMS(Cart)=  0.00000000 RMS(Int)=  0.00009931
 Variable       Old X    -DE/DX   Delta X   Delta X   Delta X     New X
                                 (Linear)    (Quad)   (Total)
    R1        2.64657  -0.00031   0.00000  -0.00351  -0.00351   2.64306
    R2        2.63669  -0.00013   0.00000   0.00234   0.00235   2.63904
    R3        2.64122  -0.00010   0.00000   0.00051   0.00051   2.64174
    R4        2.57350   0.00492   0.00000   0.01572   0.01572   2.58922
    R5        1.91406  -0.00227   0.00000  -0.00487  -0.00487   1.90919
    R6        2.29716  -0.01291   0.00000  -0.01946  -0.01946   2.27769
    R7        2.52983  -0.00032   0.00000   0.00376   0.00376   2.53359
    R8        2.72825  -0.00280   0.00000  -0.00949  -0.00949   2.71876
    R9        2.85653   0.00087   0.00000   0.00219   0.00219   2.85872
   R10        2.06344   0.00017   0.00000   0.00098   0.00098   2.06442
   R11        2.06352   0.00015   0.00000   0.00149   0.00149   2.06501
   R12        2.88159   0.00087   0.00000   0.00058   0.00058   2.88218
   R13        2.06621   0.00001   0.00000   0.00016   0.00016   2.06637
   R14        2.06623   0.00001   0.00000   0.00032   0.00032   2.06655
   R15        2.06530   0.00003   0.00000   0.00029   0.00029   2.06559
   R16        2.06198  -0.00004   0.00000   0.00011   0.00011   2.06209
   R17        2.06530   0.00004   0.00000   0.00011   0.00011   2.06542
   R18        2.62972   0.00018   0.00000  -0.00031  -0.00031   2.62941
   R19        2.03754   0.00066   0.00000   0.00120   0.00120   2.03873
   R20        2.63152   0.00051   0.00000   0.00079   0.00079   2.63231
   R21        2.84292   0.00114   0.00000   0.00639   0.00639   2.84931
   R22        2.62300  -0.00025   0.00000   0.00039   0.00038   2.62339
   R23        3.29535  -0.00137   0.00000  -0.00637  -0.00637   3.28897
   R24        2.61552   0.00004   0.00000  -0.00100  -0.00100   2.61453
   R25        2.04637  -0.00002   0.00000   0.00020   0.00020   2.04657
   R26        2.04986   0.00038   0.00000   0.00128   0.00128   2.05114
   R27        2.52917  -0.00052   0.00000  -0.00081  -0.00081   2.52836
   R28        2.53949  -0.00156   0.00000  -0.00513  -0.00513   2.53436
   R29        2.54005  -0.00180   0.00000  -0.00503  -0.00503   2.53502
    A1        2.15812  -0.00141   0.00000   0.00103   0.00100   2.15912
    A2        2.04432   0.00154   0.00000   0.00221   0.00218   2.04650
    A3        2.08065  -0.00014   0.00000  -0.00306  -0.00308   2.07756
    A4        2.22698  -0.00066   0.00000   0.00528   0.00463   2.23161
    A5        2.03234   0.00112   0.00000   0.00631   0.00567   2.03800
    A6        2.02200  -0.00045   0.00000  -0.00779  -0.00843   2.01357
    A7        2.19943   0.00019   0.00000   0.00502   0.00502   2.20445
    A8        1.91784  -0.00285   0.00000  -0.01511  -0.01511   1.90273
    A9        2.16592   0.00266   0.00000   0.01009   0.01009   2.17601
   A10        2.02614  -0.00207   0.00000  -0.00728  -0.00728   2.01886
   A11        1.87869  -0.00035   0.00000   0.00065   0.00064   1.87934
   A12        1.89542   0.00005   0.00000   0.00462   0.00461   1.90003
   A13        1.89531   0.00000   0.00000   0.00230   0.00229   1.89760
   A14        1.94664   0.00055   0.00000   0.00226   0.00225   1.94889
   A15        1.94616   0.00059   0.00000   0.00308   0.00307   1.94924
   A16        1.90026  -0.00085   0.00000  -0.01255  -0.01255   1.88771
   A17        1.92698   0.00076   0.00000   0.00700   0.00699   1.93397
   A18        1.90496  -0.00024   0.00000  -0.00104  -0.00105   1.90391
   A19        1.90500  -0.00020   0.00000  -0.00217  -0.00218   1.90282
   A20        1.92506  -0.00012   0.00000   0.00089   0.00089   1.92595
   A21        1.92532  -0.00014   0.00000   0.00038   0.00038   1.92571
   A22        1.87562  -0.00008   0.00000  -0.00546  -0.00547   1.87015
   A23        1.93927   0.00051   0.00000   0.00440   0.00440   1.94367
   A24        1.93538   0.00032   0.00000   0.00124   0.00123   1.93661
   A25        1.93964   0.00049   0.00000   0.00428   0.00427   1.94391
   A26        1.88212  -0.00047   0.00000  -0.00380  -0.00381   1.87832
   A27        1.88282  -0.00046   0.00000  -0.00282  -0.00284   1.87999
   A28        1.88222  -0.00047   0.00000  -0.00386  -0.00386   1.87836
   A29        2.09151   0.00001   0.00000   0.00046   0.00047   2.09198
   A30        2.10410  -0.00087   0.00000  -0.00559  -0.00559   2.09851
   A31        2.08757   0.00085   0.00000   0.00513   0.00513   2.09270
   A32        2.10238   0.00019   0.00000   0.00271   0.00271   2.10509
   A33        2.07170  -0.00006   0.00000  -0.00007  -0.00007   2.07163
   A34        2.10910  -0.00013   0.00000  -0.00263  -0.00263   2.10647
   A35        2.09082  -0.00050   0.00000  -0.00402  -0.00403   2.08679
   A36        2.12305   0.00074   0.00000   0.00400   0.00400   2.12705
   A37        2.06932  -0.00024   0.00000   0.00002   0.00002   2.06934
   A38        2.09250   0.00031   0.00000   0.00234   0.00233   2.09484
   A39        2.09451  -0.00078   0.00000  -0.00605  -0.00606   2.08845
   A40        2.09617   0.00047   0.00000   0.00373   0.00373   2.09990
   A41        2.10848   0.00012   0.00000   0.00163   0.00163   2.11012
   A42        2.08874   0.00015   0.00000   0.00032   0.00032   2.08906
   A43        2.08596  -0.00026   0.00000  -0.00195  -0.00196   2.08400
   A44        1.95952  -0.00146   0.00000  -0.00491  -0.00492   1.95460
   A45        1.95847  -0.00132   0.00000  -0.00407  -0.00407   1.95440
   A46        1.95742  -0.00113   0.00000  -0.00382  -0.00383   1.95359
   A47        1.86013   0.00128   0.00000   0.00376   0.00375   1.86387
   A48        1.86002   0.00135   0.00000   0.00345   0.00344   1.86346
   A49        1.86125   0.00166   0.00000   0.00681   0.00681   1.86806
    D1        0.16342  -0.00037   0.00000  -0.19943  -0.19956  -0.03614
    D2       -3.04705  -0.00017   0.00000  -0.12974  -0.12963   3.10651
    D3       -2.99341  -0.00035   0.00000  -0.18530  -0.18541   3.10437
    D4        0.07931  -0.00015   0.00000  -0.11561  -0.11548  -0.03617
    D5        3.13488  -0.00006   0.00000   0.00682   0.00681  -3.14150
    D6       -0.00383  -0.00023   0.00000   0.00448   0.00448   0.00065
    D7        0.00882  -0.00009   0.00000  -0.00763  -0.00762   0.00120
    D8       -3.12989  -0.00027   0.00000  -0.00996  -0.00995  -3.13984
    D9       -3.13208   0.00007   0.00000  -0.00744  -0.00743  -3.13951
   D10        0.01042   0.00007   0.00000  -0.01239  -0.01239  -0.00196
   D11       -0.00502   0.00008   0.00000   0.00607   0.00606   0.00104
   D12        3.13749   0.00008   0.00000   0.00112   0.00111   3.13860
   D13       -0.02114  -0.00018   0.00000   0.01737   0.01725  -0.00389
   D14        3.12000   0.00001   0.00000   0.02027   0.02015   3.14015
   D15       -3.09421  -0.00043   0.00000  -0.05244  -0.05232   3.13666
   D16        0.04693  -0.00024   0.00000  -0.04954  -0.04942  -0.00248
   D17       -3.14104  -0.00015   0.00000  -0.02268  -0.02268   3.11947
   D18        0.00011   0.00004   0.00000  -0.01984  -0.01984  -0.01973
   D19        3.14098   0.00001   0.00000  -0.00684  -0.00683   3.13414
   D20        1.03103  -0.00048   0.00000  -0.01257  -0.01258   1.01845
   D21       -1.03289   0.00051   0.00000  -0.00145  -0.00145  -1.03434
   D22        3.13783  -0.00001   0.00000   0.00073   0.00073   3.13855
   D23        1.01904  -0.00019   0.00000  -0.00415  -0.00415   1.01489
   D24       -1.02621   0.00017   0.00000   0.00424   0.00423  -1.02198
   D25       -1.06787   0.00016   0.00000   0.00810   0.00811  -1.05976
   D26        3.09653  -0.00002   0.00000   0.00323   0.00323   3.09976
   D27        1.05128   0.00033   0.00000   0.01161   0.01161   1.06289
   D28        1.06075  -0.00013   0.00000  -0.00428  -0.00428   1.05647
   D29       -1.05804  -0.00031   0.00000  -0.00916  -0.00916  -1.06720
   D30       -3.10329   0.00004   0.00000  -0.00077  -0.00078  -3.10407
   D31       -1.04984  -0.00003   0.00000  -0.00405  -0.00406  -1.05390
   D32        3.14031   0.00001   0.00000  -0.00300  -0.00300   3.13731
   D33        1.04692   0.00006   0.00000  -0.00180  -0.00179   1.04512
   D34        1.05698   0.00009   0.00000  -0.00021  -0.00020   1.05678
   D35       -1.03606   0.00013   0.00000   0.00085   0.00085  -1.03520
   D36       -3.12945   0.00017   0.00000   0.00205   0.00206  -3.12739
   D37        3.12630  -0.00018   0.00000  -0.00615  -0.00616   3.12014
   D38        1.03326  -0.00014   0.00000  -0.00510  -0.00510   1.02816
   D39       -1.06013  -0.00009   0.00000  -0.00390  -0.00390  -1.06403
   D40       -0.00636   0.00006   0.00000   0.00342   0.00342  -0.00294
   D41        3.13842   0.00005   0.00000   0.00017   0.00016   3.13859
   D42        3.13238   0.00023   0.00000   0.00571   0.00572   3.13810
   D43       -0.00602   0.00022   0.00000   0.00246   0.00246  -0.00356
   D44       -0.00006  -0.00001   0.00000   0.00248   0.00247   0.00242
   D45       -3.14157  -0.00006   0.00000   0.00650   0.00650  -3.13506
   D46        3.13827  -0.00001   0.00000   0.00581   0.00581  -3.13910
   D47       -0.00323  -0.00005   0.00000   0.00983   0.00983   0.00660
   D48        0.00073   0.00011   0.00000   0.00026   0.00026   0.00099
   D49        2.09544  -0.00021   0.00000  -0.00124  -0.00124   2.09419
   D50       -2.09308   0.00020   0.00000   0.00197   0.00197  -2.09112
   D51       -3.13765   0.00010   0.00000  -0.00302  -0.00302  -3.14067
   D52       -1.04295  -0.00022   0.00000  -0.00452  -0.00452  -1.04747
   D53        1.05172   0.00019   0.00000  -0.00131  -0.00131   1.05041
   D54        0.00392  -0.00000   0.00000  -0.00408  -0.00408  -0.00016
   D55       -3.14026  -0.00002   0.00000   0.00042   0.00041  -3.13985
   D56       -3.13776   0.00004   0.00000  -0.00798  -0.00797   3.13745
   D57        0.00125   0.00002   0.00000  -0.00348  -0.00349  -0.00224
   D58       -0.00136  -0.00004   0.00000  -0.00021  -0.00020  -0.00157
   D59        3.13932  -0.00003   0.00000   0.00474   0.00474  -3.13913
   D60       -3.14037  -0.00001   0.00000  -0.00470  -0.00471   3.13811
   D61        0.00031  -0.00001   0.00000   0.00025   0.00024   0.00055
         Item               Value     Threshold  Converged?
 Maximum Force            0.012906     0.000450     NO 
 RMS     Force            0.001372     0.000300     NO 
 Maximum Displacement     0.343851     0.001800     NO 
 RMS     Displacement     0.115216     0.001200     NO 
 Predicted change in Energy=-4.577103D-04
 GradGradGradGradGradGradGradGradGradGradGradGradGradGradGradGradGradGrad

                          Input orientation:                          
 ---------------------------------------------------------------------
 Center     Atomic      Atomic             Coordinates (Angstroms)
 Number     Number       Type             X           Y           Z
 ---------------------------------------------------------------------
      1          6           0       -6.181783    1.286538    0.019228
      2          7           0       -4.893087    0.743124    0.032549
      3          6           0       -3.698145    1.411048   -0.025020
      4          8           0       -3.550843    2.604823   -0.102224
      5          8           0       -2.697184    0.519987    0.015142
      6          6           0       -1.369987    1.069415   -0.065818
      7          6           0       -0.391095   -0.081713    0.005920
      8          6           0        1.045737    0.422844   -0.078454
      9          6           0       -6.444385    2.657676   -0.016641
     10          6           0       -7.759818    3.111078   -0.027461
     11          6           0       -8.821171    2.209181   -0.006346
     12          6           0       -8.561036    0.845986    0.028695
     13          6           0       -7.254646    0.390608    0.042252
     14          1           0       -4.824151   -0.263145    0.090618
     15          1           0       -1.227601    1.771848    0.758650
     16          1           0       -1.275618    1.621784   -1.003955
     17          1           0       -0.598018   -0.778467   -0.811031
     18          1           0       -0.548517   -0.625725    0.941421
     19          1           0        1.227731    0.951142   -1.017903
     20          1           0        1.754155   -0.405261   -0.022583
     21          1           0        1.275244    1.110379    0.739598
     22          1           0       -5.631082    3.366242   -0.036499
     23          6           0       -8.013160    4.597023   -0.062380
     24         17           0      -10.478613    2.739798   -0.028676
     25          1           0       -9.385043    0.143365    0.043512
     26          1           0       -7.062814   -0.677427    0.067361
     27          9           0       -6.874361    5.299122   -0.079938
     28          9           0       -8.710125    4.961990   -1.148498
     29          9           0       -8.707353    5.012238    1.007781
 ---------------------------------------------------------------------
                    Distance matrix (angstroms):
                    1          2          3          4          5
     1  C    0.000000
     2  N    1.398647   0.000000
     3  C    2.487151   1.370155   0.000000
     4  O    2.945246   2.299066   1.205304   0.000000
     5  O    3.567920   2.207280   1.340719   2.255893   0.000000
     6  C    4.817443   3.539545   2.353444   2.667384   1.438707
     7  C    5.950156   4.577008   3.628481   4.148877   2.383311
     8  C    7.279599   5.948490   4.846011   5.088236   3.745351
     9  C    1.396520   2.464641   3.015955   2.895289   4.314191
    10  C    2.412741   3.718730   4.403101   4.239971   5.687340
    11  C    2.796120   4.192931   5.184858   5.286026   6.352720
    12  C    2.419715   3.669393   4.895906   5.311561   5.872923
    13  C    1.397947   2.387744   3.700611   4.317613   4.559379
    14  H    2.061499   1.010298   2.020936   3.143842   2.267814
    15  H    5.032514   3.875730   2.616850   2.613887   2.068727
    16  H    5.022923   3.864255   2.621328   2.637449   2.067212
    17  H    6.010991   4.634057   3.875897   4.546233   2.602891
    18  H    6.020040   4.644899   3.873320   4.532064   2.605267
    19  H    7.489262   6.213786   5.045948   5.138862   4.081426
    20  H    8.114373   6.745937   5.746874   6.099997   4.546639
    21  H    7.493813   6.219575   5.040798   5.121831   4.080880
    22  H    2.152103   2.725830   2.749393   2.216184   4.087981
    23  C    3.784166   4.959476   5.363878   4.886994   6.699838
    24  Cl   4.536188   5.931994   6.909438   6.929475   8.091979
    25  H    3.401222   4.531832   5.826880   6.333870   6.698516
    26  H    2.153065   2.593625   3.961220   4.809976   4.527169
    27  F    4.073123   4.969428   5.020805   4.278494   6.348069
    28  F    4.611404   5.810635   6.244305   5.767939   7.565773
    29  F    4.608317   5.807326   6.255191   5.798048   7.568870
                    6          7          8          9         10
     6  C    0.000000
     7  C    1.512770   0.000000
     8  C    2.500787   1.525183   0.000000
     9  C    5.317378   6.644327   7.816663   0.000000
    10  C    6.708189   8.030760   9.206900   1.391422   0.000000
    11  C    7.538086   8.735818  10.027565   2.418753   1.392959
    12  C    7.195141   8.222474   9.616685   2.786484   2.403278
    13  C    5.924667   6.879879   8.301324   2.408234   2.767854
    14  H    3.705596   4.437575   5.912254   3.341835   4.474088
    15  H    1.092444   2.168417   2.772836   5.347953   6.714266
    16  H    1.092757   2.168900   2.771767   5.363210   6.724314
    17  H    2.136808   1.093477   2.163734   6.827748   8.187425
    18  H    2.136082   1.093569   2.163629   6.816147   8.179566
    19  H    2.769223   2.176144   1.093062   7.923140   9.296362
    20  H    3.454968   2.169699   1.091209   8.752010  10.142996
    21  H    2.765433   2.176247   1.092972   7.909406   9.285663
    22  H    4.840785   6.272771   7.296935   1.078852   2.143994
    23  C    7.521687   8.943774   9.974349   2.494837   1.507791
    24  Cl   9.260595  10.474738  11.755058   4.035082   2.744029
    25  H    8.069117   8.996843  10.435237   3.869478   3.384334
    26  H    5.956297   6.698543   8.184159   3.392997   3.853256
    27  F    6.941812   8.425764   9.300862   2.676961   2.361001
    28  F    8.378661   9.796830  10.813218   3.424112   2.363405
    29  F    8.398537   9.803684  10.833523   3.422635   2.363040
                   11         12         13         14         15
    11  C    0.000000
    12  C    1.388236   0.000000
    13  C    2.400743   1.383549   0.000000
    14  H    4.700847   3.898502   2.517348   0.000000
    15  H    7.644526   7.427606   6.224655   4.186005   0.000000
    16  H    7.633848   7.399024   6.193475   4.164509   1.769634
    17  H    8.786000   8.170291   6.812160   4.351865   3.060127
    18  H    8.796122   8.197528   6.842047   4.374515   2.498583
    19  H   10.177737   9.845121   8.566730   6.271251   3.139802
    20  H   10.893718  10.390930   9.044121   6.580815   3.773725
    21  H   10.183388   9.865480   8.588562   6.285727   2.588849
    22  H    3.393578   3.865304   3.390658   3.720181   4.750263
    23  C    2.521470   3.791931   4.275537   5.815016   7.395912
    24  Cl   1.740451   2.695722   3.989697   6.403502   9.334776
    25  H    2.141970   1.082997   2.144696   4.579215   8.349087
    26  H    3.380792   2.137043   1.085417   2.276792   6.366046
    27  F    3.652838   4.763098   4.924740   5.930537   6.710499
    28  F    2.982415   4.283632   4.943060   6.628593   8.354783
    29  F    2.983042   4.282252   4.939846   6.614387   8.155299
                   16         17         18         19         20
    16  H    0.000000
    17  H    2.501512   0.000000
    18  H    3.060141   1.759793   0.000000
    19  H    2.591662   2.523430   3.079045   0.000000
    20  H    3.775119   2.508715   2.506034   1.762842   0.000000
    21  H    3.131838   3.079172   2.526043   1.765339   1.762793
    22  H    4.790530   6.565839   6.536405   7.337519   8.292536
    23  C    7.425166   9.189162   9.165457   9.979957  10.973827
    24  Cl   9.321816  10.517434  10.529703  11.883449  12.630600
    25  H    8.309374   8.876476   8.915265  10.696265  11.152897
    26  H    6.318681   6.524980   6.572878   8.518402   8.821628
    27  F    6.761845   8.767215   8.727158   9.242760  10.343818
    28  F    8.151673   9.943491  10.109509  10.717507  11.814239
    29  F    8.412667  10.129248   9.917543  10.922537  11.825993
                   21         22         23         24         25
    21  H    0.000000
    22  H    7.306749   0.000000
    23  C    9.953608   2.681378   0.000000
    24  Cl  11.891106   4.887848   3.086889   0.000000
[...]
 00004894,-0.00000802,0.00004281,0.00004149,0.00000437,-0.00002326,-0.0
 0001799,0.00000605,-0.00002066,0.00001848,-0.00001591,0.00002063,0.000
 01384,0.00004323,-0.00002629,0.00000101,-0.00001840,0.00001635,-0.0000
 1586,-0.00321824,0.00183186,-0.00009771,0.54203941,0.00414350,0.001106
 80,0.00017843,-0.00641166,0.00028691,0.00010473,0.00725250,0.00327398,
 -0.00028303,-0.00255246,-0.00245480,0.00017512,-0.00372103,0.00065450,
 0.00000414,0.00145983,0.00057560,-0.00004392,-0.00012229,-0.00017749,0
 .00000864,0.00000111,0.00014822,-0.00000511,0.01515559,-0.00886461,0.0
 0014736,0.02084656,-0.21005948,0.00441888,-0.01442830,-0.01717139,0.00
 064126,-0.00118387,0.00103951,0.00015864,-0.00193864,0.00271101,-0.000
 12484,-0.00011346,-0.00024938,0.00002734,-0.00015812,-0.00006826,-0.00
 003061,-0.00014930,-0.00006232,0.00004315,0.00002529,0.00000088,-0.000
 02818,0.00002344,0.00001000,0.00002609,-0.00000594,-0.00002062,0.00003
 439,-0.00008320,-0.00000008,0.00000172,-0.00000817,-0.00002550,-0.0000
 3342,-0.00142099,0.00077592,-0.00013179,-0.00307452,0.61180257,-0.0000
 2139,0.00019620,0.00726653,0.00022274,-0.00002853,-0.00013004,-0.00024
 660,-0.00015625,0.00049526,0.00007639,0.00011256,-0.00044523,0.0001103
 4,-0.00000909,-0.00010407,-0.00004313,-0.00001311,0.00013714,0.0000052
 9,0.00000559,0.00001158,-0.00000063,-0.00000316,0.00001542,-0.00044011
 ,0.00018580,0.00139904,-0.00034654,0.00439205,-0.06594014,0.00027742,0
 .00072551,-0.00096893,0.00011702,0.00020312,0.00531302,0.00008698,-0.0
 0010213,-0.00112337,0.00001139,0.00001273,0.00004633,-0.00001806,-0.00
 001083,-0.00002327,0.00002803,0.00001039,-0.00003003,0.00000277,-0.000
 02712,-0.00001023,-0.00000507,0.00002638,-0.00001640,0.00001236,0.0000
 1232,-0.00001555,0.00000236,0.00000091,0.00000454,-0.00001140,-0.00001
 336,-0.00000975,0.00003590,-0.00016498,-0.00322017,0.00033743,-0.00307
 669,0.50261620,0.00235840,-0.00254599,0.00005387,-0.00563361,0.0004428
 1,0.00006610,0.00444587,0.00176467,-0.00014076,-0.00123277,-0.00118205
 ,0.00009776,-0.00237532,0.00076609,-0.00001295,0.00086602,0.00027158,-
 0.00003128,-0.00005925,-0.00012268,0.00000444,-0.00001344,0.00009752,-
 0.00000287,-0.00168089,-0.00415534,0.00014293,-0.03387477,0.01279897,-
 0.00010583,-0.16260483,0.03930995,0.00007834,-0.02664521,0.01153430,-0
 .00018521,0.00316619,0.00198090,-0.00002792,-0.00008592,-0.00030451,0.
 00000678,-0.00009207,-0.00004846,0.00000606,-0.00008818,-0.00004723,0.
 00000422,0.00000965,0.00001154,-0.00000039,0.00000822,0.00001303,-0.00
 000070,0.00000440,-0.00001703,0.00000638,-0.00005759,0.00000919,0.0000
 0042,0.00000471,-0.00001678,-0.00000490,-0.00092374,0.00129603,-0.0000
 3548,-0.00510194,0.00621678,-0.00017229,0.22725152,0.00024673,0.002687
 92,-0.00010392,0.00180674,0.00005117,-0.00005528,-0.00135707,-0.000889
 27,0.00005424,0.00016463,0.00058632,-0.00003215,0.00068441,-0.00014340
 ,0.00000118,-0.00024103,-0.00008496,0.00001044,0.00002048,0.00003381,-
 0.00000136,0.00000315,-0.00002659,0.00000070,0.00021556,-0.00390118,0.
 00026448,-0.01141783,0.00940146,-0.00010673,0.04016949,-0.05176705,0.0
 0067273,0.03850453,-0.01050942,0.00009872,-0.00360942,-0.00413067,0.00
 031486,-0.00006035,0.00008270,-0.00000026,0.00002851,0.00001324,0.0000
 0152,0.00002684,0.00001278,-0.00000444,-0.00000416,-0.00000188,0.00000
 164,-0.00000384,-0.00000258,-0.00000137,-0.00000041,0.00000455,-0.0000
 0280,0.00001567,-0.00000197,-0.00000016,-0.00000045,0.00000465,0.00000
 240,-0.00037109,0.00020356,0.00001108,0.00139800,-0.00333917,-0.000025
 66,-0.06057475,0.06444265,-0.00000456,-0.00009496,-0.00048705,-0.00005
 100,-0.00003627,-0.00054053,0.00003537,0.00000230,-0.00030359,-0.00001
 470,-0.00001253,-0.00001309,-0.00001818,0.00000968,0.00008679,0.000008
 44,0.00000356,0.00003997,-0.00000042,-0.00000093,0.00000162,-0.0000001
 3,0.00000104,-0.00000222,0.00001367,0.00030422,0.00397248,0.00071542,-
 0.00028253,0.00261807,-0.00000347,0.00066768,-0.02059137,-0.00092484,0
 .00037084,0.00377102,0.00013402,0.00024844,0.00473712,0.00000398,0.000
 00287,0.00002696,0.00000643,-0.00000429,-0.00000336,-0.00000795,0.0000
 0316,-0.00000342,0.00000107,-0.00000031,-0.00000003,-0.00000080,0.0000
 0057,0.00000028,0.00000032,-0.00000051,0.00000043,-0.00000062,0.000000
 24,-0.00000020,-0.00000026,0.00000004,0.,0.00003069,-0.00000071,0.0005
 3537,-0.00001766,-0.00002119,-0.00297339,-0.00010355,-0.00124491,0.012
 13363,-0.00295735,0.00290918,-0.00000983,-0.00125567,-0.00121298,0.000
 06740,0.00038059,0.00057540,-0.00004885,-0.00007263,-0.00021980,0.0000
 1361,-0.00041035,0.00000238,0.00000807,0.00009782,0.00006422,-0.000004
 83,-0.00001736,-0.00002728,0.00000162,-0.00000367,0.00001704,-0.000000
 72,-0.00029533,0.00086923,-0.00002880,0.00064591,0.00169611,-0.0000152
 8,0.00642249,0.00638229,-0.00023445,-0.22803009,-0.14618808,0.00643049
 ,-0.01633791,-0.01920884,0.00076908,0.00002300,-0.00009776,0.00001016,
 -0.00001270,-0.00000709,0.00000043,-0.00001279,-0.00000703,0.00000099,
 0.00000078,0.00000197,0.00000224,0.00000060,0.00000175,-0.00000240,0.0
 0000083,-0.00000154,-0.00000007,-0.00000847,-0.00000032,0.00000014,0.0
 0000091,-0.00000141,0.00000022,0.00000302,-0.00007281,-0.00000127,0.00
 043408,0.00021841,-0.00000606,0.00124717,0.00074267,0.00012887,0.23911
 765,0.00310815,-0.00004198,0.00021001,0.00034438,0.00064964,-0.0000265
 6,0.00004836,-0.00016138,0.00000835,-0.00000500,0.00002680,0.00000047,
 0.00013571,0.00001937,-0.00000559,-0.00001957,-0.00002544,0.00000187,0
 .00000689,0.00000915,-0.00000047,0.00000193,-0.00000572,0.00000026,0.0
 0107607,-0.00031277,-0.00003491,0.00220867,-0.00511999,0.00031289,-0.0
 2377068,-0.01529960,0.00077268,-0.14377608,-0.18113797,0.00569925,0.00
 993791,0.01166112,-0.00032558,-0.00002571,0.00001903,-0.00000324,0.000
 00264,0.00000176,0.00000045,0.00000272,0.00000181,-0.00000081,-0.00000
 013,-0.00000019,-0.00000130,-0.00000014,0.00000007,0.00000125,-0.00000
 043,0.00000021,0.00000018,0.00000269,0.00000035,-0.00000004,-0.0000004
 7,0.00000014,-0.00000023,-0.00006009,0.00001704,-0.00001599,-0.0015859
 5,0.00067637,0.00001707,-0.00088344,0.00070890,-0.00014842,0.15334863,
 0.18872020,-0.00001578,0.00021654,0.00736995,0.00001484,-0.00001079,0.
 00011838,-0.00002267,-0.00001486,-0.00010695,0.00000129,0.00000797,0.0
 0001767,0.00000746,-0.00000416,-0.00003097,-0.00000361,-0.00000065,0.0
 0000973,0.00000033,0.00000062,0.00000644,-0.00000014,-0.00000022,-0.00
 000016,-0.00003448,-0.00002540,-0.00102714,-0.00004020,0.00033005,0.00
 553282,0.00074821,0.00055472,0.00298518,0.00626108,0.00565577,-0.03737
 586,-0.00014568,-0.00009548,0.00377499,0.00000012,0.00000430,0.0000485
 6,0.00000060,-0.00000267,-0.00000143,0.00000005,0.00000302,-0.00000186
 ,0.00000050,-0.00000212,-0.00000129,-0.00000071,0.00000181,-0.00000186
 ,0.00000100,0.00000143,-0.00000106,0.00000022,-0.00000005,0.00000073,-
 0.00000100,-0.00000129,-0.00000063,-0.00000535,-0.00001548,-0.00048227
 ,0.00005630,-0.00001427,0.00072400,0.00024791,-0.00013818,-0.00261565,
 -0.00702117,-0.00632174,0.02592232,0.00727445,-0.02278790,0.00068867,0
 .00095316,-0.00235083,0.00016678,-0.00031405,-0.00050175,0.00002600,0.
 00001994,0.00041415,-0.00002096,0.00017396,0.00007274,-0.00000482,-0.0
 0008347,-0.00003171,0.00000506,0.00001025,0.00000944,-0.00000021,-0.00
 000013,-0.00000687,-0.00000010,-0.00346110,-0.00317269,0.00017866,-0.0
 0141787,-0.00012622,0.00000893,-0.00382553,0.00119868,0.00005729,-0.00
 085491,0.03042715,-0.00092644,-0.06793110,0.04584531,-0.00124481,-0.00
 152897,0.00030982,-0.00005687,0.00001305,0.00000652,0.00000289,0.00001
 208,0.00000585,-0.00000416,-0.00000377,0.00000084,0.00000322,-0.000003
 46,-0.00000003,-0.00000322,0.00000079,0.00000192,-0.00000142,0.0000051
 0,-0.00000061,-0.00000004,0.00000081,0.00000192,0.00000122,0.00047168,
 -0.00104425,0.00002854,-0.00025978,-0.00011652,0.00000097,-0.00104555,
 0.00122865,-0.00002971,0.00094631,-0.00037305,-0.00003569,0.07049428,0
 .00711658,-0.01516277,0.00059705,0.00163800,0.00094896,-0.00021620,-0.
 00061677,-0.00025206,0.00000950,0.00014284,0.00056870,-0.00002692,0.00
 001240,0.00004389,-0.00000138,-0.00005017,-0.00000486,0.00000443,0.000
 00119,-0.00000099,0.00000076,-0.00000177,-0.00000192,-0.00000027,-0.00
 371003,-0.00120258,0.00024094,-0.00058982,0.00057573,-0.00002930,0.001
 07187,0.00187531,0.00016111,0.00011518,-0.00562850,0.00029845,0.044972
 81,-0.33610904,0.00885744,-0.00204544,-0.00051724,0.00000877,0.0000087
 1,0.00000198,0.00000270,0.00000788,0.00000167,-0.00000343,-0.00000283,
 0.00000217,0.00000256,-0.00000299,0.00000188,-0.00000301,0.00000093,0.
 00000108,-0.00000183,0.00000247,-0.00000045,0.00000003,0.00000092,0.00
 000108,0.00000165,0.00061485,-0.00067109,0.00000872,-0.00014600,0.0001
 0039,-0.00001971,0.00029842,-0.00032711,0.00000875,0.00009915,0.000617
 31,-0.00016142,-0.04908574,0.35536335,-0.00029260,0.00089875,0.0052136
 2,0.00008733,-0.00025567,-0.00341574,0.00004537,-0.00001365,-0.0008219
 2,0.00000308,-0.00002050,0.00021396,-0.00000715,0.00000801,0.00004806,
 0.00000523,0.00000487,0.00009332,0.00000079,0.00000086,0.00001708,-0.0
 0000023,-0.00000002,-0.00000310,0.00021371,0.00024103,0.00539474,0.000
 02154,-0.00003513,-0.00049153,0.00006531,0.00016211,0.00732285,0.00003
 085,0.00003409,0.00355879,-0.00127534,0.00885101,-0.03723042,0.0000361
 0,0.00001648,0.00061051,0.00001118,-0.00000727,-0.00000827,-0.00001225
 ,0.00000608,-0.00000867,0.00000321,-0.00000556,-0.00000516,-0.00000354
 ,0.00000485,-0.00000638,0.00000315,0.00000346,-0.00000237,-0.00000017,
 0.00000013,0.00000145,-0.00000302,-0.00000362,-0.00000170,-0.00003466,
 0.00002181,-0.00032233,0.00000224,-0.00002317,-0.00053226,-0.00000534,
 0.00000356,0.00003999,-0.00005127,-0.00015888,-0.00445827,0.00116532,-
 0.00973968,0.02494100,0.00090682,0.00035712,-0.00001879,0.00139544,0.0
 0019537,-0.00003286,-0.00103190,-0.00212654,0.00012193,0.00006930,0.00
 142436,-0.00006685,0.00010705,0.00037199,-0.00002246,-0.00001768,-0.00
 007951,0.00000286,0.00002235,-0.00000020,-0.00000181,-0.00000932,0.000
 00290,0.00000053,-0.00460046,0.00360117,-0.00008219,-0.01112028,-0.010
 65445,0.00057533,0.00233165,-0.00121421,0.00003282,-0.00072645,-0.0001
 8180,0.00000312,0.00018946,0.00023064,-0.00000956,-0.00000134,0.000003
 34,0.00000029,0.00002494,-0.00000949,0.00002906,0.00002458,-0.00001204
 ,-0.00002751,-0.00000555,0.00001102,0.00001267,-0.00000602,0.00000869,
 -0.00001286,0.00000863,-0.00000667,-0.00001193,-0.00000841,0.00001221,
 -0.00000067,0.00001004,-0.00000411,0.00001260,0.00234575,0.00188830,-0
 .00008778,-0.20120965,-0.10324089,0.00442716,0.00073421,-0.00036403,-0
 .00000538,0.00011403,-0.00028792,0.00000866,0.00021175,0.00007722,-0.0
 0000420,0.33384635,-0.00255619,0.00104744,-0.00002802,0.00244352,0.000
 13714,-0.00004436,-0.00247755,-0.00159719,0.00011626,0.00087073,0.0012
 1190,-0.00007259,0.00110476,-0.00007812,-0.00000829,-0.00042317,-0.000
 19037,0.00001403,0.00004344,0.00005150,-0.00000291,-0.00000374,-0.0000
 4077,0.00000146,-0.00075916,-0.00334228,0.00008901,-0.04434968,-0.0276
 2214,0.00156551,0.00817572,-0.00684614,0.00019973,-0.00285353,-0.00138
 778,0.00004541,0.00024586,-0.00047226,0.00001710,0.00002469,0.00008483
 ,-0.00000540,0.00005355,0.00001447,0.00001880,0.00005095,0.00001208,-0
 .00002179,-0.00000901,0.00000378,0.00001248,-0.00000868,0.00000045,-0.
 00001206,0.00000491,0.00000298,-0.00001457,0.00002024,0.00000531,-0.00
 000074,0.00000598,0.00000525,0.00001454,-0.00002302,-0.00451416,0.0002
 1913,-0.09174827,-0.15866256,0.00351113,-0.00052551,0.00058643,-0.0000
 1840,0.00022378,-0.00078746,0.00002082,0.00004563,-0.00012499,0.000005
 49,0.14165011,0.16993358,0.00007692,-0.00004416,-0.00009193,-0.0001055
 3,-0.00000381,0.00009882,0.00010605,0.00008594,-0.00003074,-0.00003263
 ,-0.00005747,0.00012678,-0.00004258,-0.00000106,0.00001686,0.00001617,
 0.00000555,-0.00004510,-0.00000201,-0.00000221,-0.00000372,0.00000027,
 0.00000130,-0.00000386,0.00007718,-0.00001583,0.00047938,0.00162587,0.
 00126554,0.00812362,-0.00028914,0.00028293,0.00158956,0.00009948,0.000
 03486,-0.00046571,-0.00001008,0.00001580,0.00009294,-0.00000100,-0.000
 00468,-0.00001696,0.00000245,0.00000241,0.00000520,-0.00000712,-0.0000
 0212,0.00000808,-0.00000066,0.00000616,0.00000208,0.00000153,-0.000006
 38,0.00000394,-0.00000303,-0.00000242,0.00000384,-0.00000079,-0.000000
 31,-0.00000043,0.00000260,0.00000261,0.00000186,-0.00001505,0.00017423
 ,-0.00030587,0.00401416,0.00360848,-0.07174175,0.00001250,-0.00000844,
 0.00026675,-0.00001008,0.00002112,-0.00023624,-0.00000373,0.00000299,-
 0.00002351,-0.00697371,-0.00403405,0.08211272,0.00057332,0.00023164,0.
 00096468,-0.00013981,0.00022992,0.00006398,0.00060654,-0.00058111,-0.0
 0003811,-0.00034879,0.00036675,0.00006442,-0.00054622,0.00029140,0.000
 00360,0.00022982,0.00005204,-0.00002170,-0.00000843,-0.00002926,-0.000
 00177,-0.00000474,0.00002605,-0.00000218,0.00120798,0.00079422,-0.0002
 4289,-0.00259488,0.01112258,-0.01789115,-0.00552774,0.00178951,-0.0002
 6676,0.00051603,0.00048702,0.00080307,0.00000753,0.00051467,-0.0001273
 9,-0.00002538,-0.00003886,-0.00003884,-0.00001015,-0.00001511,0.000013
 01,-0.00001376,-0.00001791,-0.00000383,0.00000078,0.00000902,0.0000038
 5,0.00000114,0.00000298,-0.00000070,0.00000230,-0.00000843,0.00000076,
 -0.00001835,0.00000672,-0.00000071,0.00000547,-0.00000464,0.00000270,0
 .00053341,-0.00052671,-0.00062460,-0.12427055,0.04004821,-0.08090416,0
 .00068038,-0.00350794,0.00124039,-0.00000993,0.00028461,-0.00000022,0.
 00007067,0.00003190,-0.00012035,-0.06276539,-0.00630305,-0.04956332,0.
 17435472,-0.00055715,-0.00083772,-0.00172199,0.00153821,-0.00032131,-0
 .00021150,-0.00199304,-0.00063983,0.00010839,0.00071475,0.00050039,-0.
 00010193,0.00110206,-0.00025063,-0.00000953,-0.00043643,-0.00015933,0.
 00003001,0.00003389,0.00005410,-0.00000166,0.00000144,-0.00004496,0.00
 000344,-0.00339126,-0.00345413,0.00155193,0.02615051,-0.01265319,0.033
 59336,0.00332289,0.00017605,-0.00052646,-0.00012633,0.00057444,-0.0008
 2046,0.00112782,-0.00063824,0.00023621,0.00008179,0.00006996,0.0000099
 7,0.00004142,0.00002173,0.00000168,0.00004255,0.00002209,-0.00001080,-
 0.00000642,-0.00000480,0.00000513,-0.00000638,-0.00000193,-0.00000713,
 0.00000124,0.00000868,-0.00000957,0.00002669,-0.00000227,0.00000002,-0
 .00000059,0.00000712,0.00000656,-0.00013165,0.00007327,0.00093504,0.03
 867312,-0.10694582,0.05703172,-0.00304049,-0.00171251,0.00184173,-0.00
 005245,-0.00011300,0.00003402,0.00001640,-0.00004564,0.00006869,-0.017
 26093,0.01552469,-0.01660989,-0.04082463,0.09493895,-0.00012669,0.0001
 2942,0.00046955,-0.00065912,0.00043378,0.00019685,0.00101765,-0.000088
 49,-0.00015195,-0.00043585,0.00004098,0.00019345,-0.00067869,0.0002546
 9,0.00003621,0.00026599,0.00007958,-0.00007072,-0.00001662,-0.00003480
 ,-0.00000474,-0.00000352,0.00002893,-0.00000674,0.00153147,0.00321149,
 -0.00068043,-0.01485134,0.00908821,-0.00994611,-0.00300312,-0.00004241
 ,0.00076300,0.00035649,0.00031010,0.00040124,-0.00026025,0.00025434,-0
 .00008531,-0.00009822,-0.00004347,-0.00005324,-0.00001560,-0.00001214,
 0.00001451,-0.00002832,-0.00002168,0.00000810,0.00000106,0.00001506,0.
 00000387,0.00000350,-0.00000459,0.00000608,-0.00000251,-0.00001086,0.0
 0000685,-0.00001838,0.00000382,-0.00000139,0.00000633,-0.00000082,0.00
 000314,0.00044890,-0.00027050,-0.00050761,-0.07899915,0.06025302,-0.18
 742623,0.00225399,0.00071641,-0.00054891,0.00002734,0.00014817,-0.0000
 9367,0.00003982,0.00005937,-0.00006563,-0.03924989,-0.00913534,-0.0081
 3683,0.14064979,-0.06716177,0.29439689,0.00055898,0.00016694,-0.000990
 81,-0.00012759,0.00022341,-0.00006909,0.00058442,-0.00058136,0.0000709
 0,-0.00034117,0.00036580,-0.00007287,-0.00053301,0.00028697,-0.0000231
 4,0.00022447,0.00005154,0.00000683,-0.00000794,-0.00002852,0.00000230,
 -0.00000479,0.00002572,0.00000111,0.00117156,0.00074431,0.00013461,-0.
 00191005,0.01210666,0.01700979,-0.00547184,0.00176553,0.00027264,0.000
 49112,0.00043592,-0.00082518,0.00001924,0.00051797,0.00008573,-0.00002
 375,-0.00003420,0.00005120,-0.00001418,-0.00001762,0.00000744,-0.00000
 860,-0.00001578,-0.00001006,0.00000155,0.00000287,0.00000096,0.0000001
 1,0.00000873,-0.00000448,0.00000490,-0.00000558,-0.00000243,-0.0000179
 7,0.00000678,0.00000046,0.00000285,-0.00000771,0.00000031,0.00053344,-
 0.00048073,0.00065502,-0.12058934,0.04333814,0.07646089,0.00073836,-0.
 00374370,-0.00113546,-0.00001096,0.00027931,-0.00002187,0.00007140,0.0
 0003824,0.00011573,-0.06083991,-0.00292332,0.05102529,0.01749402,-0.00
 504702,-0.00815503,0.16800468,-0.00053461,-0.00074325,0.00182437,0.001
 58076,-0.00034741,0.00018927,-0.00205964,-0.00063104,0.00002118,0.0007
 4514,0.00049745,0.00002468,0.00114794,-0.00026813,0.00001460,-0.000454
 85,-0.00016648,-0.00000453,0.00003484,0.00005645,-0.00000313,0.0000018
 2,-0.00004728,-0.00000071,-0.00351220,-0.00371466,-0.00130416,0.026295
 62,-0.01539711,-0.03382633,0.00352135,0.00020897,0.00049834,-0.0001343
 1,0.00058925,0.00081514,0.00114812,-0.00066720,-0.00020899,0.00009177,
 0.00007202,-0.00003625,0.00004672,0.00002509,0.00000612,0.00004020,0.0
 0002179,-0.00000524,-0.00000721,0.00000036,0.00000750,-0.00000583,-0.0
 0000755,-0.00000405,-0.00000119,0.00000671,-0.00000669,0.00002790,-0.0
 0000267,-0.00000080,0.00000155,0.00001038,0.00000898,-0.00018003,0.000
 02755,-0.00097121,0.04189784,-0.11506117,-0.06279287,-0.00334754,-0.00
 198239,-0.00159915,-0.00005479,-0.00012378,-0.00002231,0.00001315,-0.0
 0005428,-0.00006811,-0.01439167,0.01704440,0.01528292,-0.00443157,0.01
 585383,0.00179950,-0.04747929,0.10480018,0.00011760,-0.00007920,0.0003
 8028,0.00059342,-0.00041307,0.00019760,-0.00093431,0.00015781,-0.00012
 212,0.00041428,-0.00008577,0.00016410,0.00064816,-0.00025706,0.0000476
 4,-0.00025487,-0.00007887,-0.00005281,0.00001411,0.00003293,-0.0000069
 2,0.00000390,-0.00002869,-0.00000476,-0.00136121,-0.00306042,-0.000361
 72,0.01302017,-0.00901750,-0.00795726,0.00295160,0.00008125,0.00068506
 ,-0.00036019,-0.00033518,0.00039789,0.00020723,-0.00022839,-0.00005398
 ,0.00009337,0.00003700,-0.00006695,0.00002760,0.00002251,0.00000278,0.
 00001287,0.00001310,0.00001281,-0.00000336,0.00000504,0.00000438,-0.00
 000005,-0.00001510,0.00000614,-0.00000629,0.00000187,0.00000412,0.0000
 1797,-0.00000466,-0.00000149,0.00000185,0.00001121,0.00000452,-0.00045
 906,0.00025272,-0.00048179,0.07464515,-0.06601520,-0.18331826,-0.00215
 223,-0.00042831,-0.00014769,-0.00002558,-0.00015026,-0.00007544,-0.000
 04122,-0.00006210,-0.00005810,0.04138142,0.00754762,-0.01182975,0.0060
 3845,-0.00826521,-0.08872024,-0.13459077,0.08036192,0.29135197\\0.0000
 0005,-0.00000157,0.00000093,0.00000082,-0.00000034,0.00000054,0.000000
 18,0.00000090,-0.00000008,-0.00000073,0.00000064,-0.00000092,0.0000010
 2,0.00000172,0.00000033,0.00000070,0.00000316,-0.00000065,0.00000181,0
 .00000407,0.00000097,0.00000100,0.00000533,-0.00000090,-0.00000127,-0.
 00000188,-0.00000043,-0.00000153,-0.00000301,-0.00000046,-0.00000008,-
 0.00000534,0.00000009,0.00000046,-0.00000386,0.00000154,0.00000136,-0.
 00000269,0.00000159,0.00000193,-0.00000019,0.00000150,-0.00000001,0.00
 000360,-0.00000075,-0.00000023,0.00000250,-0.00000055,0.00000208,0.000
 00334,0.00000076,0.00000233,0.00000453,0.00000061,0.00000034,0.0000048
 8,-0.00000082,0.00000202,0.00000615,0.00000002,0.00000067,0.00000620,-
 0.00000106,-0.00000174,-0.00000113,-0.00000107,-0.00000319,-0.00000347
 ,-0.00000129,-0.00000143,-0.00000535,0.00000103,0.00000155,-0.00000475
 ,0.00000230,0.00000223,-0.00000252,0.00000224,-0.00000355,-0.00000236,
 -0.00000224,-0.00000360,-0.00000495,-0.00000148,-0.00000317,-0.0000036
 2,-0.00000174\\\@


 The chemist is a guest at the physicist's table and
 frequently dines well.
                   -- Richard Bersohn
 Job cpu time:       0 days  3 hours 31 minutes 11.5 seconds.
 Elapsed time:       0 days  3 hours 31 minutes 11.9 seconds.
 File lengths (MBytes):  RWF=    666 Int=      0 D2E=      0 Chk=     24 Scr=      1
 Normal termination of Gaussian 16 at Sat Sep  5 15:37:09 2020.
