 Entering Gaussian System, Link 0=/apps/gaussian/g09e01/g09/g09
 Initial command:
 /apps/gaussian/g09e01/g09/l1.exe "/jobfs/local/3595136.r-man2/Gau-51755.inp" -scrdir="/jobfs/local/3595136.r-man2/"
 Entering Link 1 = /apps/gaussian/g09e01/g09/l1.exe PID=     51756.
  
 Copyright (c) 1988,1990,1992,1993,1995,1998,2003,2009,2015,
            Gaussian, Inc.  All Rights Reserved.
  
 This is part of the Gaussian(R) 09 program.  It is based on
 the Gaussian(R) 03 system (copyright 2003, Gaussian, Inc.),
 the Gaussian(R) 98 system (copyright 1998, Gaussian, Inc.),
 the Gaussian(R) 94 system (copyright 1995, Gaussian, Inc.),
 the Gaussian 92(TM) system (copyright 1992, Gaussian, Inc.),
 the Gaussian 90(TM) system (copyright 1990, Gaussian, Inc.),
 the Gaussian 88(TM) system (copyright 1988, Gaussian, Inc.),
 the Gaussian 86(TM) system (copyright 1986, Carnegie Mellon
 University), and the Gaussian 82(TM) system (copyright 1983,
 Carnegie Mellon University). Gaussian is a federally registered
 trademark of Gaussian, Inc.
  
 This software contains proprietary and confidential information,
 including trade secrets, belonging to Gaussian, Inc.
  
 This software is provided under written license and may be
 used, copied, transmitted, or stored only in accord with that
 written license.
  
 The following legend is applicable only to US Government
 contracts under FAR:
  
                    RESTRICTED RIGHTS LEGEND
  
 Use, reproduction and disclosure by the US Government is
 subject to restrictions as set forth in subparagraphs (a)
 and (c) of the Commercial Computer Software - Restricted
 Rights clause in FAR 52.227-19.
  
 Gaussian, Inc.
 340 Quinnipiac St., Bldg. 40, Wallingford CT 06492
  
  
 ---------------------------------------------------------------
 Warning -- This program may not be used in any manner that
 competes with the business of Gaussian, Inc. or will provide
 assistance to any competitor of Gaussian, Inc.  The licensee
 of this program is prohibited from giving any competitor of
 Gaussian, Inc. access to this program.  By using this program,
 the user acknowledges that Gaussian, Inc. is engaged in the
 business of creating and licensing software in the field of
 computational chemistry and represents and warrants to the
 licensee that it is not a competitor of Gaussian, Inc. and that
 it will not use this program in any manner prohibited above.
 ---------------------------------------------------------------
  

 Cite this work as:
 Gaussian 09, Revision E.01,
 M. J. Frisch, G. W. Trucks, H. B. Schlegel, G. E. Scuseria, 
 M. A. Robb, J. R. Cheeseman, G. Scalmani, V. Barone, B. Mennucci, 
 G. A. Petersson, H. Nakatsuji, M. Caricato, X. Li, H. P. Hratchian, 
 A. F. Izmaylov, J. Bloino, G. Zheng, J. L. Sonnenberg, M. Hada, 
 M. Ehara, K. Toyota, R. Fukuda, J. Hasegawa, M. Ishida, T. Nakajima, 
 Y. Honda, O. Kitao, H. Nakai, T. Vreven, J. A. Montgomery, Jr., 
 J. E. Peralta, F. Ogliaro, M. Bearpark, J. J. Heyd, E. Brothers, 
 K. N. Kudin, V. N. Staroverov, T. Keith, R. Kobayashi, J. Normand, 
 K. Raghavachari, A. Rendell, J. C. Burant, S. S. Iyengar, J. Tomasi, 
 M. Cossi, N. Rega, J. M. Millam, M. Klene, J. E. Knox, J. B. Cross, 
 V. Bakken, C. Adamo, J. Jaramillo, R. Gomperts, R. E. Stratmann, 
 O. Yazyev, A. J. Austin, R. Cammi, C. Pomelli, J. W. Ochterski, 
 R. L. Martin, K. Morokuma, V. G. Zakrzewski, G. A. Voth, 
 P. Salvador, J. J. Dannenberg, S. Dapprich, A. D. Daniels, 
 O. Farkas, J. B. Foresman, J. V. Ortiz, J. Cioslowski, 
 and D. J. Fox, Gaussian, Inc., Wallingford CT, 2013.
 
 ******************************************
 Gaussian 09:  ES64L-G09RevE.01 30-Nov-2015
                14-Nov-2019 
 ******************************************
 %chk=NM2_carboxy.M062X_6-311pGd_opt_Pentadecane_GD3.chk
 %mem=196608000
 %nproc=8
 Will use up to    8 processors via shared memory.
 ----------------------------------------------------------------------
 # M062X/6-311+G* SCF=Tight INT(grid=ultrafine) OPT IOP(2/17=4) Empiric
 alDispersion=GD3 SCRF=(SMD,Solvent=n-Pentadecane) maxdisk=3221225472
 ----------------------------------------------------------------------
 1/14=-1,18=20,19=15,26=4,38=1/1,3;
 2/9=110,12=2,17=4,18=5,40=1/2;
 3/5=4,6=6,7=11,11=2,16=1,25=1,30=1,70=32201,71=1,72=151,74=-55,75=-5,124=31/1,2,3;
 4//1;
 5/5=2,32=2,38=5,53=151/2;
 6/7=2,8=2,9=2,10=2,28=1/1;
 7//1,2,3,16;
 1/14=-1,18=20,19=15,26=4/3(2);
 2/9=110,17=4/2;
 99//99;
 2/9=110,17=4/2;
 3/5=4,6=6,7=11,11=2,16=1,25=1,30=1,70=32205,71=1,72=151,74=-55,75=-5,124=31/1,2,3;
 4/5=5,16=3,69=1/1;
 5/5=2,32=2,38=5,53=151/2;
 7//1,2,3,16;
 1/14=-1,18=20,19=15,26=4/3(-5);
 2/9=110,17=4/2;
 6/7=2,8=2,9=2,10=2,19=2,28=1/1;
 99/9=1/99;
 ----------------------------------------------
 NM2_carboxy.M062X_6-311pGd_opt_Pentadecane_GD3
 ----------------------------------------------
 Symbolic Z-matrix:
 Charge = -1 Multiplicity = 1
 C                    -5.88964   1.07424   0.1589 
 N                    -4.65293   0.4827    0.07461 
 C                    -3.4128    1.11422   0.0557 
 O                    -3.26967   2.33235   0.08688 
 N                    -2.38531   0.23998  -0.01249 
 C                    -1.01518   0.70922   0.01443 
 C                    -0.07079  -0.41589  -0.38781 
 C                     1.38614   0.02997  -0.34146 
 C                    -6.11352   2.46235   0.23247 
 C                    -7.40345   2.96396   0.31997 
 C                    -8.51521   2.1081    0.34838 
 C                    -8.2852    0.73485   0.26249 
 C                    -7.00712   0.22112   0.17041 
 H                    -4.66813  -0.55528   0.02167 
 H                    -2.55318  -0.77258   0.08178 
 H                    -0.75224   1.0804    1.01417 
 H                    -0.91468   1.55636  -0.67002 
 H                    -0.33358  -0.75455  -1.39473 
 H                    -0.22774  -1.27286   0.27411 
 H                     1.56438   0.87404  -1.01419 
 H                     2.0589   -0.77803  -0.63787 
 H                     1.6718    0.34511   0.66626 
 H                    -5.26763   3.13113   0.214 
 H                    -6.84473  -0.85003   0.10994 
 C                    -9.93673   2.58041   0.42145 
 C                    -7.53886   4.46351   0.42545 
 H                    -9.12568   0.05216   0.27475 
 F                    -10.12141   3.57254   1.30827 
 F                    -10.76935   1.58896   0.79045 
 F                    -10.40743   3.03048  -0.75906 
 F                    -6.43174   5.102     0.02321 
 F                    -7.76724   4.86787   1.68812 
 F                    -8.54465   4.94465  -0.32403 
 O                    -4.94435  -2.26627  -0.03034 
 O                    -2.75061  -2.55311   0.2761 
 C                    -3.92087  -2.97713   0.15481 
 C                    -4.15982  -4.48971   0.23487 
 C                    -2.90382  -5.31945   0.45422 
 H                    -4.66843  -4.78335  -0.68872 
 H                    -4.88612  -4.65767   1.03639 
 H                    -2.18594  -5.16445  -0.35334 
 H                    -3.13898  -6.38684   0.50326 
 H                    -2.40551  -5.0363    1.38329 
 
 Add virtual bond connecting atoms O34        and H14        Dist= 3.28D+00.
 Add virtual bond connecting atoms O35        and H15        Dist= 3.41D+00.

 GradGradGradGradGradGradGradGradGradGradGradGradGradGradGradGradGradGrad
 Berny optimization.
 Initialization pass.
                           ----------------------------
                           !    Initial Parameters    !
                           ! (Angstroms and Degrees)  !
 --------------------------                            --------------------------
 ! Name  Definition              Value          Derivative Info.                !
 --------------------------------------------------------------------------------
 ! R1    R(1,2)                  1.3735         estimate D2E/DX2                !
 ! R2    R(1,9)                  1.408          estimate D2E/DX2                !
 ! R3    R(1,13)                 1.406          estimate D2E/DX2                !
 ! R4    R(2,3)                  1.3918         estimate D2E/DX2                !
 ! R5    R(2,14)                 1.0394         estimate D2E/DX2                !
 ! R6    R(3,4)                  1.2269         estimate D2E/DX2                !
 ! R7    R(3,5)                  1.3508         estimate D2E/DX2                !
 ! R8    R(5,6)                  1.4485         estimate D2E/DX2                !
 ! R9    R(5,15)                 1.0307         estimate D2E/DX2                !
 ! R10   R(6,7)                  1.523          estimate D2E/DX2                !
 ! R11   R(6,16)                 1.0984         estimate D2E/DX2                !
 ! R12   R(6,17)                 1.0937         estimate D2E/DX2                !
 ! R13   R(7,8)                  1.5243         estimate D2E/DX2                !
 ! R14   R(7,18)                 1.0944         estimate D2E/DX2                !
 ! R15   R(7,19)                 1.0942         estimate D2E/DX2                !
 ! R16   R(8,20)                 1.094          estimate D2E/DX2                !
 ! R17   R(8,21)                 1.0924         estimate D2E/DX2                !
 ! R18   R(8,22)                 1.0938         estimate D2E/DX2                !
 ! R19   R(9,10)                 1.3868         estimate D2E/DX2                !
 ! R20   R(9,23)                 1.0785         estimate D2E/DX2                !
 ! R21   R(10,11)                1.4033         estimate D2E/DX2                !
 ! R22   R(10,26)                1.5093         estimate D2E/DX2                !
 ! R23   R(11,12)                1.395          estimate D2E/DX2                !
 ! R24   R(11,25)                1.4997         estimate D2E/DX2                !
 ! R25   R(12,13)                1.3805         estimate D2E/DX2                !
 ! R26   R(12,27)                1.0829         estimate D2E/DX2                !
 ! R27   R(13,24)                1.0851         estimate D2E/DX2                !
 ! R28   R(14,34)                1.7339         estimate D2E/DX2                !
 ! R29   R(15,35)                1.802          estimate D2E/DX2                !
 ! R30   R(25,28)                1.3435         estimate D2E/DX2                !
 ! R31   R(25,29)                1.3462         estimate D2E/DX2                !
 ! R32   R(25,30)                1.3482         estimate D2E/DX2                !
 ! R33   R(26,31)                1.3398         estimate D2E/DX2                !
 ! R34   R(26,32)                1.3454         estimate D2E/DX2                !
 ! R35   R(26,33)                1.3434         estimate D2E/DX2                !
 ! R36   R(34,36)                1.2598         estimate D2E/DX2                !
 ! R37   R(35,36)                1.2506         estimate D2E/DX2                !
 ! R38   R(36,37)                1.5334         estimate D2E/DX2                !
 ! R39   R(37,38)                1.5212         estimate D2E/DX2                !
 ! R40   R(37,39)                1.0945         estimate D2E/DX2                !
 ! R41   R(37,40)                1.0946         estimate D2E/DX2                !
 ! R42   R(38,41)                1.0916         estimate D2E/DX2                !
 ! R43   R(38,42)                1.0941         estimate D2E/DX2                !
 ! R44   R(38,43)                1.0916         estimate D2E/DX2                !
 ! A1    A(2,1,9)              124.8191         estimate D2E/DX2                !
 ! A2    A(2,1,13)             117.0541         estimate D2E/DX2                !
 ! A3    A(9,1,13)             118.1268         estimate D2E/DX2                !
 ! A4    A(1,2,3)              127.4239         estimate D2E/DX2                !
 ! A5    A(1,2,14)             114.8371         estimate D2E/DX2                !
 ! A6    A(3,2,14)             117.7389         estimate D2E/DX2                !
 ! A7    A(2,3,4)              123.6485         estimate D2E/DX2                !
 ! A8    A(2,3,5)              112.6304         estimate D2E/DX2                !
 ! A9    A(4,3,5)              123.7187         estimate D2E/DX2                !
 ! A10   A(3,5,6)              120.5904         estimate D2E/DX2                !
 ! A11   A(3,5,15)             120.4841         estimate D2E/DX2                !
 ! A12   A(6,5,15)             118.0736         estimate D2E/DX2                !
 ! A13   A(5,6,7)              110.0178         estimate D2E/DX2                !
 ! A14   A(5,6,16)             110.6611         estimate D2E/DX2                !
 ! A15   A(5,6,17)             109.0385         estimate D2E/DX2                !
 ! A16   A(7,6,16)             109.9744         estimate D2E/DX2                !
 ! A17   A(7,6,17)             110.483          estimate D2E/DX2                !
 ! A18   A(16,6,17)            106.6101         estimate D2E/DX2                !
 ! A19   A(6,7,8)              111.6265         estimate D2E/DX2                !
 ! A20   A(6,7,18)             108.8268         estimate D2E/DX2                !
 ! A21   A(6,7,19)             109.261          estimate D2E/DX2                !
 ! A22   A(8,7,18)             110.3655         estimate D2E/DX2                !
 ! A23   A(8,7,19)             110.3528         estimate D2E/DX2                !
 ! A24   A(18,7,19)            106.2489         estimate D2E/DX2                !
 ! A25   A(7,8,20)             111.2665         estimate D2E/DX2                !
 ! A26   A(7,8,21)             111.3477         estimate D2E/DX2                !
 ! A27   A(7,8,22)             111.2167         estimate D2E/DX2                !
 ! A28   A(20,8,21)            107.6675         estimate D2E/DX2                !
 ! A29   A(20,8,22)            107.5595         estimate D2E/DX2                !
 ! A30   A(21,8,22)            107.593          estimate D2E/DX2                !
 ! A31   A(1,9,10)             120.5174         estimate D2E/DX2                !
 ! A32   A(1,9,23)             119.0619         estimate D2E/DX2                !
 ! A33   A(10,9,23)            120.4198         estimate D2E/DX2                !
 ! A34   A(9,10,11)            121.17           estimate D2E/DX2                !
 ! A35   A(9,10,26)            116.5651         estimate D2E/DX2                !
 ! A36   A(11,10,26)           122.2381         estimate D2E/DX2                !
 ! A37   A(10,11,12)           117.9366         estimate D2E/DX2                !
 ! A38   A(10,11,25)           124.0449         estimate D2E/DX2                !
 ! A39   A(12,11,25)           117.9887         estimate D2E/DX2                !
 ! A40   A(11,12,13)           121.5378         estimate D2E/DX2                !
 ! A41   A(11,12,27)           119.4675         estimate D2E/DX2                !
 ! A42   A(13,12,27)           118.9934         estimate D2E/DX2                !
 ! A43   A(1,13,12)            120.7023         estimate D2E/DX2                !
 ! A44   A(1,13,24)            118.6591         estimate D2E/DX2                !
 ! A45   A(12,13,24)           120.6381         estimate D2E/DX2                !
 ! A46   A(11,25,28)           113.2679         estimate D2E/DX2                !
 ! A47   A(11,25,29)           111.5704         estimate D2E/DX2                !
 ! A48   A(11,25,30)           113.1656         estimate D2E/DX2                !
 ! A49   A(28,25,29)           106.1357         estimate D2E/DX2                !
 ! A50   A(28,25,30)           106.4677         estimate D2E/DX2                !
 ! A51   A(29,25,30)           105.6599         estimate D2E/DX2                !
 ! A52   A(10,26,31)           112.2308         estimate D2E/DX2                !
 ! A53   A(10,26,32)           112.2975         estimate D2E/DX2                !
 ! A54   A(10,26,33)           112.5816         estimate D2E/DX2                !
 ! A55   A(31,26,32)           106.1887         estimate D2E/DX2                !
 ! A56   A(31,26,33)           106.2889         estimate D2E/DX2                !
 ! A57   A(32,26,33)           106.7899         estimate D2E/DX2                !
 ! A58   A(14,34,36)           115.0221         estimate D2E/DX2                !
 ! A59   A(15,35,36)           115.2833         estimate D2E/DX2                !
 ! A60   A(34,36,35)           125.6724         estimate D2E/DX2                !
 ! A61   A(34,36,37)           115.9549         estimate D2E/DX2                !
 ! A62   A(35,36,37)           118.3726         estimate D2E/DX2                !
 ! A63   A(36,37,38)           114.6386         estimate D2E/DX2                !
 ! A64   A(36,37,39)           107.0375         estimate D2E/DX2                !
 ! A65   A(36,37,40)           107.0371         estimate D2E/DX2                !
 ! A66   A(38,37,39)           111.0398         estimate D2E/DX2                !
 ! A67   A(38,37,40)           111.012          estimate D2E/DX2                !
 ! A68   A(39,37,40)           105.5687         estimate D2E/DX2                !
 ! A69   A(37,38,41)           111.0308         estimate D2E/DX2                !
 ! A70   A(37,38,42)           111.17           estimate D2E/DX2                !
 ! A71   A(37,38,43)           110.9857         estimate D2E/DX2                !
 ! A72   A(41,38,42)           108.2432         estimate D2E/DX2                !
 ! A73   A(41,38,43)           107.0137         estimate D2E/DX2                !
 ! A74   A(42,38,43)           108.2412         estimate D2E/DX2                !
 ! A75   L(2,14,34,7,-1)       188.4008         estimate D2E/DX2                !
 ! A76   L(5,15,35,1,-1)       183.0086         estimate D2E/DX2                !
 ! A77   L(2,14,34,7,-2)       179.5829         estimate D2E/DX2                !
 ! A78   L(5,15,35,1,-2)       181.2052         estimate D2E/DX2                !
 ! D1    D(9,1,2,3)              0.5104         estimate D2E/DX2                !
 ! D2    D(9,1,2,14)          -179.6128         estimate D2E/DX2                !
 ! D3    D(13,1,2,3)          -179.5576         estimate D2E/DX2                !
 ! D4    D(13,1,2,14)            0.3192         estimate D2E/DX2                !
 ! D5    D(2,1,9,10)          -179.7686         estimate D2E/DX2                !
 ! D6    D(2,1,9,23)             0.5874         estimate D2E/DX2                !
 ! D7    D(13,1,9,10)            0.3001         estimate D2E/DX2                !
 ! D8    D(13,1,9,23)         -179.3439         estimate D2E/DX2                !
 ! D9    D(2,1,13,12)          179.5415         estimate D2E/DX2                !
 ! D10   D(2,1,13,24)           -0.1866         estimate D2E/DX2                !
 ! D11   D(9,1,13,12)           -0.5219         estimate D2E/DX2                !
 ! D12   D(9,1,13,24)          179.7501         estimate D2E/DX2                !
 ! D13   D(1,2,3,4)             -1.5673         estimate D2E/DX2                !
 ! D14   D(1,2,3,5)            178.9754         estimate D2E/DX2                !
 ! D15   D(14,2,3,4)           178.559          estimate D2E/DX2                !
 ! D16   D(14,2,3,5)            -0.8983         estimate D2E/DX2                !
 ! D17   D(1,2,34,36)         -166.2738         estimate D2E/DX2                !
 ! D18   D(3,2,34,36)           13.1045         estimate D2E/DX2                !
 ! D19   D(2,3,5,6)           -177.411          estimate D2E/DX2                !
 ! D20   D(2,3,5,15)            -8.1806         estimate D2E/DX2                !
 ! D21   D(4,3,5,6)              3.1321         estimate D2E/DX2                !
 ! D22   D(4,3,5,15)           172.3626         estimate D2E/DX2                !
 ! D23   D(3,5,6,7)           -167.2605         estimate D2E/DX2                !
 ! D24   D(3,5,6,16)            71.0081         estimate D2E/DX2                !
 ! D25   D(3,5,6,17)           -45.9483         estimate D2E/DX2                !
 ! D26   D(15,5,6,7)            23.255          estimate D2E/DX2                !
 ! D27   D(15,5,6,16)          -98.4764         estimate D2E/DX2                !
 ! D28   D(15,5,6,17)          144.5672         estimate D2E/DX2                !
 ! D29   D(3,5,35,36)           16.3759         estimate D2E/DX2                !
 ! D30   D(6,5,35,36)         -174.8717         estimate D2E/DX2                !
 ! D31   D(5,6,7,8)           -178.7165         estimate D2E/DX2                !
 ! D32   D(5,6,7,18)            59.231          estimate D2E/DX2                !
 ! D33   D(5,6,7,19)           -56.3823         estimate D2E/DX2                !
 ! D34   D(16,6,7,8)           -56.5772         estimate D2E/DX2                !
 ! D35   D(16,6,7,18)         -178.6297         estimate D2E/DX2                !
 ! D36   D(16,6,7,19)           65.7571         estimate D2E/DX2                !
 ! D37   D(17,6,7,8)            60.8392         estimate D2E/DX2                !
 ! D38   D(17,6,7,18)          -61.2133         estimate D2E/DX2                !
 ! D39   D(17,6,7,19)         -176.8266         estimate D2E/DX2                !
 ! D40   D(6,7,8,20)           -59.4587         estimate D2E/DX2                !
 ! D41   D(6,7,8,21)          -179.5766         estimate D2E/DX2                !
 ! D42   D(6,7,8,22)            60.4338         estimate D2E/DX2                !
 ! D43   D(18,7,8,20)           61.7035         estimate D2E/DX2                !
 ! D44   D(18,7,8,21)          -58.4143         estimate D2E/DX2                !
 ! D45   D(18,7,8,22)         -178.4039         estimate D2E/DX2                !
 ! D46   D(19,7,8,20)          178.8358         estimate D2E/DX2                !
 ! D47   D(19,7,8,21)           58.718          estimate D2E/DX2                !
 ! D48   D(19,7,8,22)          -61.2716         estimate D2E/DX2                !
 ! D49   D(1,9,10,11)            0.5144         estimate D2E/DX2                !
 ! D50   D(1,9,10,26)          178.6723         estimate D2E/DX2                !
 ! D51   D(23,9,10,11)        -179.8464         estimate D2E/DX2                !
 ! D52   D(23,9,10,26)          -1.6886         estimate D2E/DX2                !
 ! D53   D(9,10,11,12)          -1.0877         estimate D2E/DX2                !
 ! D54   D(9,10,11,25)        -179.0602         estimate D2E/DX2                !
 ! D55   D(26,10,11,12)       -179.1397         estimate D2E/DX2                !
 ! D56   D(26,10,11,25)          2.8878         estimate D2E/DX2                !
 ! D57   D(9,10,26,31)          18.6711         estimate D2E/DX2                !
 ! D58   D(9,10,26,32)        -100.8759         estimate D2E/DX2                !
 ! D59   D(9,10,26,33)         138.5484         estimate D2E/DX2                !
 ! D60   D(11,10,26,31)       -163.1923         estimate D2E/DX2                !
 ! D61   D(11,10,26,32)         77.2606         estimate D2E/DX2                !
 ! D62   D(11,10,26,33)        -43.3151         estimate D2E/DX2                !
 ! D63   D(10,11,12,13)          0.8673         estimate D2E/DX2                !
 ! D64   D(10,11,12,27)       -179.5534         estimate D2E/DX2                !
 ! D65   D(25,11,12,13)        178.9648         estimate D2E/DX2                !
 ! D66   D(25,11,12,27)         -1.4559         estimate D2E/DX2                !
 ! D67   D(10,11,25,28)        -43.814          estimate D2E/DX2                !
 ! D68   D(10,11,25,29)       -163.503          estimate D2E/DX2                !
 ! D69   D(10,11,25,30)         77.4932         estimate D2E/DX2                !
 ! D70   D(12,11,25,28)        138.2145         estimate D2E/DX2                !
 ! D71   D(12,11,25,29)         18.5255         estimate D2E/DX2                !
 ! D72   D(12,11,25,30)       -100.4783         estimate D2E/DX2                !
 ! D73   D(11,12,13,1)          -0.0699         estimate D2E/DX2                !
 ! D74   D(11,12,13,24)        179.6527         estimate D2E/DX2                !
 ! D75   D(27,12,13,1)        -179.6512         estimate D2E/DX2                !
 ! D76   D(27,12,13,24)          0.0715         estimate D2E/DX2                !
 ! D77   D(14,34,36,35)         -5.0973         estimate D2E/DX2                !
 ! D78   D(14,34,36,37)        174.8785         estimate D2E/DX2                !
 ! D79   D(15,35,36,34)         -3.1269         estimate D2E/DX2                !
 ! D80   D(15,35,36,37)        176.8978         estimate D2E/DX2                !
 ! D81   D(34,36,37,38)        179.8059         estimate D2E/DX2                !
 ! D82   D(34,36,37,39)         56.1875         estimate D2E/DX2                !
 ! D83   D(34,36,37,40)        -56.6118         estimate D2E/DX2                !
 ! D84   D(35,36,37,38)         -0.2164         estimate D2E/DX2                !
 ! D85   D(35,36,37,39)       -123.8348         estimate D2E/DX2                !
 ! D86   D(35,36,37,40)        123.3659         estimate D2E/DX2                !
 ! D87   D(36,37,38,41)        -59.4851         estimate D2E/DX2                !
 ! D88   D(36,37,38,42)        179.9467         estimate D2E/DX2                !
 ! D89   D(36,37,38,43)         59.4114         estimate D2E/DX2                !
 ! D90   D(39,37,38,41)         61.9677         estimate D2E/DX2                !
 ! D91   D(39,37,38,42)        -58.6005         estimate D2E/DX2                !
 ! D92   D(39,37,38,43)       -179.1357         estimate D2E/DX2                !
 ! D93   D(40,37,38,41)        179.084          estimate D2E/DX2                !
 ! D94   D(40,37,38,42)         58.5158         estimate D2E/DX2                !
 ! D95   D(40,37,38,43)        -62.0194         estimate D2E/DX2                !
 --------------------------------------------------------------------------------
 Trust Radius=3.00D-01 FncErr=1.00D-07 GrdErr=1.00D-06
 Number of steps in this run=    227 maximum allowed number of steps=    258.
 GradGradGradGradGradGradGradGradGradGradGradGradGradGradGradGradGradGrad

                          Input orientation:                          
 ---------------------------------------------------------------------
 Center     Atomic      Atomic             Coordinates (Angstroms)
 Number     Number       Type             X           Y           Z
 ---------------------------------------------------------------------
      1          6           0       -5.889643    1.074241    0.158900
      2          7           0       -4.652927    0.482696    0.074609
      3          6           0       -3.412797    1.114215    0.055704
      4          8           0       -3.269672    2.332354    0.086884
      5          7           0       -2.385311    0.239983   -0.012488
      6          6           0       -1.015184    0.709222    0.014433
      7          6           0       -0.070785   -0.415891   -0.387811
      8          6           0        1.386140    0.029974   -0.341461
      9          6           0       -6.113517    2.462349    0.232475
     10          6           0       -7.403453    2.963960    0.319975
     11          6           0       -8.515206    2.108102    0.348382
     12          6           0       -8.285197    0.734848    0.262488
     13          6           0       -7.007119    0.221122    0.170406
     14          1           0       -4.668126   -0.555276    0.021674
     15          1           0       -2.553183   -0.772578    0.081776
     16          1           0       -0.752237    1.080404    1.014167
     17          1           0       -0.914679    1.556362   -0.670018
     18          1           0       -0.333580   -0.754545   -1.394732
     19          1           0       -0.227737   -1.272856    0.274115
     20          1           0        1.564379    0.874045   -1.014190
     21          1           0        2.058902   -0.778026   -0.637872
     22          1           0        1.671795    0.345111    0.666255
     23          1           0       -5.267632    3.131126    0.214001
     24          1           0       -6.844729   -0.850030    0.109938
     25          6           0       -9.936734    2.580412    0.421447
     26          6           0       -7.538860    4.463512    0.425446
     27          1           0       -9.125683    0.052157    0.274750
     28          9           0      -10.121410    3.572536    1.308268
     29          9           0      -10.769345    1.588961    0.790451
     30          9           0      -10.407426    3.030481   -0.759063
     31          9           0       -6.431736    5.101998    0.023209
     32          9           0       -7.767239    4.867867    1.688122
     33          9           0       -8.544651    4.944652   -0.324033
     34          8           0       -4.944351   -2.266266   -0.030341
     35          8           0       -2.750614   -2.553107    0.276099
     36          6           0       -3.920866   -2.977132    0.154810
     37          6           0       -4.159821   -4.489707    0.234871
     38          6           0       -2.903823   -5.319449    0.454218
     39          1           0       -4.668430   -4.783349   -0.688718
     40          1           0       -4.886123   -4.657672    1.036387
     41          1           0       -2.185942   -5.164446   -0.353339
     42          1           0       -3.138981   -6.386843    0.503260
     43          1           0       -2.405509   -5.036296    1.383295
 ---------------------------------------------------------------------
                    Distance matrix (angstroms):
                    1          2          3          4          5
     1  C    0.000000
     2  N    1.373498   0.000000
     3  C    2.479317   1.391796   0.000000
     4  O    2.907281   2.309714   1.226914   0.000000
     5  N    3.606342   2.282231   1.350800   2.273760   0.000000
     6  C    4.890241   3.645286   2.431928   2.778943   1.448502
     7  C    6.031459   4.692261   3.702293   4.243945   2.434762
     8  C    7.367352   6.070289   4.935901   5.211624   3.791592
     9  C    1.407969   2.465212   3.023673   2.850535   4.347234
    10  C    2.426645   3.712447   4.406441   4.188245   5.719469
    11  C    2.828136   4.199297   5.206539   5.256833   6.418389
    12  C    2.421693   3.645855   4.891519   5.266721   5.926985
    13  C    1.405951   2.370616   3.705391   4.293342   4.625464
    14  H    2.041142   1.039432   2.089069   3.209101   2.417612
    15  H    3.814270   2.446363   2.073549   3.186532   1.030702
    16  H    5.208114   4.056526   2.828140   2.960525   2.104105
    17  H    5.066539   3.960016   2.638704   2.592500   2.080374
    18  H    6.052112   4.727207   3.882990   4.510518   2.666324
    19  H    6.130197   4.764879   3.986279   4.720801   2.650650
    20  H    7.548422   6.324045   5.096533   5.167890   4.123772
    21  H    8.200311   6.866273   5.831048   6.212362   4.602008
    22  H    7.613435   6.353825   5.178549   5.357509   4.114833
    23  H    2.149584   2.722402   2.744704   2.155467   4.088738
    24  H    2.148814   2.565424   3.954662   4.786348   4.592333
    25  C    4.326248   5.695553   6.696659   6.680058   7.917695
    26  C    3.778640   4.929360   5.327184   4.783557   6.677503
    27  H    3.395590   4.497884   5.814895   6.287086   6.749104
    28  F    5.046819   6.401041   7.253809   7.069380   8.526285
    29  F    4.947250   6.256742   7.408376   7.569196   8.529741
    30  F    5.007983   6.348265   7.297997   7.221533   8.526347
    31  F    4.066339   4.950228   5.001746   4.204002   6.325664
    32  F    4.500610   5.615344   5.976274   5.405635   7.298941
    33  F    4.718302   5.934094   6.415011   5.900707   7.756832
    34  O    3.476834   2.766358   3.712239   4.895467   3.581939
    35  O    4.798426   3.588244   3.733137   4.916600   2.831622
    36  C    4.504412   3.537338   4.123964   5.349702   3.568718
    37  C    5.827141   4.999363   5.656332   6.881481   5.057672
    38  C    7.062691   6.071932   6.466058   7.669346   5.603031
    39  H    6.043275   5.321103   6.075528   7.293238   5.559118
    40  H    5.884883   5.234766   6.037144   7.237052   5.598323
    41  H    7.273308   6.177327   6.410466   7.587508   5.418836
    42  H    7.959428   7.047435   7.519386   8.730112   6.689457
    43  H    7.139817   6.101051   6.372277   7.531564   5.457814
                    6          7          8          9         10
     6  C    0.000000
     7  C    1.523013   0.000000
     8  C    2.520793   1.524328   0.000000
     9  C    5.395739   6.721877   7.905107   0.000000
    10  C    6.781385   8.105083   9.289926   1.386796   0.000000
    11  C    7.636670   8.844251  10.140570   2.430439   1.403316
    12  C    7.274289   8.320075   9.715779   2.775131   2.397857
    13  C    6.013806   6.987855   8.411026   2.413602   2.775358
    14  H    3.865617   4.617645   6.093318   3.352559   4.467216
    15  H    2.136752   2.551477   4.042460   4.812841   6.127281
    16  H    1.098355   2.160745   2.741130   5.591434   6.947543
    17  H    1.093719   2.163696   2.780572   5.353805   6.713092
    18  H    2.143116   1.094367   2.163860   6.812039   8.170104
    19  H    2.148521   1.094152   2.163538   6.971076   8.333283
    20  H    2.781974   2.174867   1.093979   7.938954   9.304287
    21  H    3.476696   2.174682   1.092397   8.834363  10.220376
    22  H    2.788782   2.174113   1.093802   8.079725   9.451899
    23  H    4.897832   6.320659   7.361954   1.078484   2.144972
    24  H    6.035228   6.806066   8.290077   3.394339   3.860415
    25  C    9.124750  10.342614  11.631605   3.829704   2.564160
    26  C    7.538035   8.957796   9.995000   2.464446   1.509343
    27  H    8.141234   9.091162  10.529892   3.857972   3.383300
    28  F    9.633064  10.945286  12.152986   4.295701   2.955398
    29  F    9.824449  10.948375  12.307213   4.769788   3.666224
    30  F    9.705707  10.902360  12.176438   4.443374   3.192586
    31  F    6.973922   8.430761   9.326178   2.666984   2.367174
    32  F    8.104678   9.563629  10.550297   3.261935   2.372558
    33  F    8.645594  10.027257  11.080387   3.518798   2.374915
    34  O    4.928883   5.225257   6.741264   4.878096   5.790092
    35  O    3.704454   3.491411   4.915936   6.038694   7.217261
    36  C    4.695945   4.655912   6.119909   5.865297   6.888561
    37  C    6.079984   5.805508   7.177560   7.221358   8.129302
    38  C    6.332871   5.725382   6.903131   8.420670   9.427595
    39  H    6.633926   6.348510   7.742512   7.445603   8.277597
    40  H    6.695679   6.573319   7.950709   7.269626   8.058502
    41  H    6.000493   5.198447   6.304119   8.598664   9.682291
    42  H    7.423181   6.772009   7.897203   9.339667  10.278951
    43  H    6.067765   5.471370   6.558847   8.444133   9.492849
                   11         12         13         14         15
    11  C    0.000000
    12  C    1.395030   0.000000
    13  C    2.422126   1.380534   0.000000
    14  H    4.690453   3.847806   2.468969   0.000000
    15  H    6.626848   5.929669   4.564301   2.126926   0.000000
    16  H    7.858951   7.578252   6.369760   4.358288   2.747053
    17  H    7.688275   7.474556   6.293410   4.361859   2.945140
    18  H    8.841504   8.257897   6.923706   4.564449   2.665902
    19  H    8.950896   8.303834   6.942820   4.505075   2.386414
    20  H   10.245855   9.932947   8.677567   6.477661   4.568022
    21  H   11.005190  10.492846   9.156656   6.762952   4.667896
    22  H   10.343316   9.972793   8.693952   6.435898   4.409227
    23  H    3.407547   3.853595   3.390552   3.739781   4.756535
    24  H    3.405568   2.147104   1.085077   2.198243   4.292337
    25  C    1.499719   2.481723   3.769869   6.144151   8.116326
    26  C    2.550911   3.806115   4.283185   5.795893   7.238213
    27  H    2.145929   1.082882   2.127850   4.505867   6.626853
    28  F    2.376097   3.538052   4.714394   6.959344   8.812625
    29  F    2.355011   2.679412   4.050899   6.512576   8.578136
    30  F    2.378595   3.288975   4.507604   6.812252   8.766950
    31  F    3.661967   4.750219   4.916878   5.925798   7.039691
    32  F    3.157635   4.402563   4.947069   6.464676   7.847378
    33  F    2.915309   4.258377   4.992015   6.737668   8.291507
    34  O    5.659464   4.500409   3.237655   1.733924   2.821588
    35  O    7.413678   6.437580   5.081865   2.780811   1.801950
    36  C    6.856022   5.730425   4.444551   2.538013   2.595371
    37  C    7.906539   6.656986   5.504832   3.972855   4.052379
    38  C    9.309530   8.102497   6.900400   5.098745   4.575555
    39  H    7.960236   6.666055   5.590375   4.287337   4.599371
    40  H    7.708391   6.421206   5.389914   4.231644   4.631182
    41  H    9.666538   8.507750   7.247234   5.248459   4.428622
    42  H   10.054446   8.789766   7.664104   6.047924   5.660458
    43  H    9.457371   8.314628   7.091287   5.201248   4.460387
                   16         17         18         19         20
    16  H    0.000000
    17  H    1.757670   0.000000
    18  H    3.056977   2.490618   0.000000
    19  H    2.522025   3.060678   1.750685   0.000000
    20  H    3.086022   2.594175   2.529697   3.079057   0.000000
    21  H    3.753066   3.780554   2.509455   2.511034   1.765079
    22  H    2.556879   3.153189   3.078708   2.525829   1.764995
    23  H    5.023397   4.712703   6.483157   6.693222   7.299264
    24  H    6.454661   6.447057   6.683427   6.632519   8.657320
    25  C    9.325037   9.145351  10.326713  10.446722  11.715304
    26  C    7.605935   7.316511   9.080596   9.294156   9.890692
    27  H    8.468684   8.400941   8.985488   8.996060  10.798810
    28  F    9.699413   9.630289  11.037728  11.064902  12.216110
    29  F   10.032503   9.962353  10.916603  10.935360  12.485536
    30  F   10.008487   9.606935  10.780207  11.100101  12.167146
    31  F    7.029361   6.594696   8.573048   8.898951   9.104375
    32  F    8.000583   7.967714   9.817066   9.826087  10.503914
    33  F    8.800278   8.355638  10.052309  10.401261  10.919645
    34  O    5.464889   5.591058   5.040443   4.829700   7.293359
    35  O    4.211966   4.599297   3.445077   2.829126   5.659451
    36  C    5.219416   5.501824   4.495507   4.069151   6.803384
    37  C    6.576099   6.921324   5.589916   5.080449   7.943328
    38  C    6.775027   7.245508   5.555458   4.854770   7.776916
    39  H    7.253964   7.367696   5.959919   5.741983   8.423773
    40  H    7.072130   7.569571   6.470732   5.808494   8.741495
    41  H    6.551621   6.847311   4.895198   4.401447   7.138978
    42  H    7.856039   8.331783   6.572323   5.889034   8.783208
    43  H    6.346935   7.064121   5.508512   4.487366   7.512661
                   21         22         23         24         25
    21  H    0.000000
    22  H    1.764096   0.000000
    23  H    8.347770   7.491466   0.000000
    24  H    8.935270   8.617948   4.283417   0.000000
    25  C   12.501861  11.824316   4.706042   4.628765   0.000000
    26  C   10.987329  10.092343   2.641673   5.367969   3.048915
    27  H   11.252423  10.808544   4.936425   2.458426   2.659210
    28  F   13.079558  12.243698   4.995140   5.633092   1.343453
    29  F   13.122754  12.503782   5.742771   4.670588   1.346247
    30  F   13.035672  12.455936   5.232061   5.339133   1.348227
    31  F   10.349041   9.418529   2.296927   5.966969   4.336127
    32  F   11.568898  10.516410   3.381913   6.003002   3.397591
    33  F   12.053334  11.247765   3.783808   6.054453   2.843109
    34  O    7.185367   7.146882   5.412583   2.374203   6.972682
    35  O    5.207466   5.301848   6.216892   4.437325   8.832579
    36  C    6.420439   6.525085   6.255246   3.616014   8.194392
    37  C    7.294572   7.587445   7.700960   4.524554   9.132038
    38  C    6.815117   7.284812   8.778241   5.968666  10.576895
    39  H    7.829572   8.266530   7.988295   4.565646   9.122087
    40  H    8.129463   8.256581   7.841380   4.380934   8.847411
    41  H    6.110675   6.802715   8.867650   6.366562  10.984439
    42  H    7.731688   8.275829   9.757385   6.674097  11.252902
    43  H    6.492222   6.789558   8.733028   6.233212  10.754475
                   26         27         28         29         30
    26  C    0.000000
    27  H    4.690498   0.000000
    28  F    2.871024   3.801671   0.000000
    29  F    4.339621   2.308536   2.150005   0.000000
    30  F    3.418379   3.403241   2.156266   2.147081   0.000000
    31  F    1.339844   5.729007   4.195751   5.634265   4.550742
    32  F    1.345367   5.199428   2.713724   4.535381   4.041695
    33  F    1.343439   4.963129   2.652033   4.177559   2.706148
    34  O    7.226973   4.790794   7.917413   7.033281   7.644067
    35  O    8.496031   6.886865   9.639373   9.039985   9.532827
    36  C    8.278062   6.023380   9.092600   8.255599   8.888310
    37  C    9.571539   6.729777  10.084269   8.996927   9.827192
    38  C   10.825467   8.221794  11.484353  10.474045  11.291477
    39  H    9.746034   6.646615  10.175645   8.945135   9.695203
    40  H    9.518732   6.382511   9.757995   8.584475   9.634112
    41  H   11.043451   8.704450  11.919205  10.981420  11.615259
    42  H   11.708766   8.795086  12.189815  11.041666  11.962849
    43  H   10.840439   8.501880  11.560828  10.686405  11.562580
                   31         32         33         34         35
    31  F    0.000000
    32  F    2.147166   0.000000
    33  F    2.147031   2.158480   0.000000
    34  O    7.517081   7.862421   8.065095   0.000000
    35  O    8.497956   9.068141   9.494599   2.233532   0.000000
    36  C    8.461332   8.870718   9.184952   1.259815   1.250599
    37  C    9.859372  10.133588  10.418553   2.372660   2.395409
    38  C   11.010836  11.355912  11.737819   3.704116   2.776301
    39  H   10.066587  10.411434  10.478172   2.616352   3.095621
    40  H    9.933107   9.973037  10.365336   2.619183   3.093158
    41  H   11.116134  11.660435  11.942692   4.014050   2.744838
    42  H   11.961027  12.226740  12.582069   4.530259   3.860047
    43  H   10.992968  11.266477  11.841594   4.014617   2.740658
                   36         37         38         39         40
    36  C    0.000000
    37  C    1.533425   0.000000
    38  C    2.571083   1.521222   0.000000
    39  H    2.129040   1.094497   2.169687   0.000000
    40  H    2.129111   1.094602   2.169420   1.743321   0.000000
    41  H    2.837696   2.167363   1.091571   2.533863   3.078820
    42  H    3.515521   2.171007   1.094091   2.516191   2.515306
    43  H    2.836483   2.166852   1.091640   3.078641   2.533209
                   41         42         43
    41  H    0.000000
    42  H    1.770960   0.000000
    43  H    1.755143   1.770994   0.000000
 Stoichiometry    C15H17F6N2O3(1-)
 Framework group  C1[X(C15H17F6N2O3)]
 Deg. of freedom   123
 Full point group                 C1      NOp   1
 Largest Abelian subgroup         C1      NOp   1
 Largest concise Abelian subgroup C1      NOp   1
                         Standard orientation:                         
 ---------------------------------------------------------------------
 Center     Atomic      Atomic             Coordinates (Angstroms)
 Number     Number       Type             X           Y           Z
 ---------------------------------------------------------------------
      1          6           0        0.267129    0.115673   -0.077777
      2          7           0       -1.080561   -0.149082   -0.089282
      3          6           0       -1.698500   -1.394362   -0.021999
      4          8           0       -1.085178   -2.455630    0.031532
      5          7           0       -3.046423   -1.307055   -0.033892
      6          6           0       -3.863282   -2.497267    0.085664
      7          6           0       -5.309245   -2.174853   -0.267621
      8          6           0       -6.208733   -3.397021   -0.123385
      9          6           0        1.277836   -0.861741   -0.003549
     10          6           0        2.614673   -0.493007    0.006776
     11          6           0        2.996343    0.856406   -0.045262
     12          6           0        1.989028    1.817673   -0.131230
     13          6           0        0.654262    1.465500   -0.147018
     14          1           0       -1.689904    0.690490   -0.154382
     15          1           0       -3.511664   -0.390174    0.038415
     16          1           0       -3.807778   -2.904700    1.104144
     17          1           0       -3.469182   -3.268978   -0.581696
     18          1           0       -5.345789   -1.793952   -1.292910
     19          1           0       -5.664980   -1.362741    0.373545
     20          1           0       -5.878232   -4.211952   -0.774112
     21          1           0       -7.243114   -3.162587   -0.384969
     22          1           0       -6.204499   -3.772608    0.903902
     23          1           0        0.998074   -1.902422    0.039369
     24          1           0       -0.117523    2.225725   -0.208645
     25          6           0        4.420508    1.326243   -0.058072
     26          6           0        3.622392   -1.610981    0.119702
     27          1           0        2.255886    2.866017   -0.180154
     28          9           0        5.200050    0.681415    0.825884
     29          9           0        4.512870    2.634413    0.246136
     30          9           0        5.013256    1.189678   -1.261282
     31          9           0        3.098013   -2.800708   -0.203965
     32          9           0        4.103198   -1.740498    1.369527
     33          9           0        4.681801   -1.434033   -0.687250
     34          8           0       -2.491483    2.225477   -0.242579
     35          8           0       -4.406824    1.165300    0.200317
     36          6           0       -3.727397    2.195927   -0.000139
     37          6           0       -4.434569    3.555701    0.048005
     38          6           0       -5.926186    3.484867    0.338138
     39          1           0       -4.243543    4.050582   -0.909348
     40          1           0       -3.916804    4.160027    0.799579
     41          1           0       -6.445205    2.895668   -0.420143
     42          1           0       -6.372241    4.483653    0.360420
     43          1           0       -6.114972    3.004784    1.300197
 ---------------------------------------------------------------------
 Rotational constants (GHZ):      0.3005918      0.0865918      0.0691259
 Standard basis: 6-311+G(d) (5D, 7F)
 There are   649 symmetry adapted cartesian basis functions of A   symmetry.
 There are   623 symmetry adapted basis functions of A   symmetry.
   623 basis functions,  1021 primitive gaussians,   649 cartesian basis functions
   100 alpha electrons      100 beta electrons
       nuclear repulsion energy      2471.4391154268 Hartrees.
 NAtoms=   43 NActive=   43 NUniq=   43 SFac= 1.00D+00 NAtFMM=   60 NAOKFM=F Big=F
 Integral buffers will be    131072 words long.
 Raffenetti 2 integral format.
 Two-electron integral symmetry is turned on.
 Nuclear repulsion after empirical dispersion term =     2471.4364586217 Hartrees.
 ------------------------------------------------------------------------------
 Polarizable Continuum Model (PCM)
 =================================
 Model                : PCM (using non-symmetric T matrix).
 Atomic radii         : SMD-Coulomb.
 Polarization charges : Total charges.
 Charge compensation  : None.
 Solution method      : On-the-fly selection.
 Cavity type          : VdW (van der Waals Surface) (Alpha=1.000).
 Cavity algorithm     : GePol (No added spheres)
                        Default sphere list used, NSphG=   43.
                        Lebedev-Laikov grids with approx.  5.0 points / Ang**2.
                        Smoothing algorithm: York/Karplus (Gamma=1.0000).
                        Polarization charges: spherical gaussians, with
                                              point-specific exponents (IZeta= 3).
                        Self-potential: point-specific (ISelfS= 7).
                        Self-field    : sphere-specific E.n sum rule (ISelfD= 2).
 1st derivatives      : Analytical E(r).r(x)/FMM algorithm (CHGder, D1EAlg=3).
                        Cavity 1st derivative terms included.
 Solvent              : n-Pentadecane, Eps=   2.033300 Eps(inf)=   2.049192
 ------------------------------------------------------------------------------
 ------------------------------------------------------------------------------
 Atomic radii for non-electrostatic terms: SMD-CDS.
 ------------------------------------------------------------------------------
 Nuclear repulsion after PCM non-electrostatic terms =     2471.4289651991 Hartrees.
 One-electron integrals computed using PRISM.
 NBasis=   623 RedAO= T EigKep=  1.26D-06  NBF=   623
 NBsUse=   620 1.00D-06 EigRej=  8.50D-07 NBFU=   620
 ExpMin= 4.38D-02 ExpMax= 1.14D+04 ExpMxC= 1.72D+03 IAcc=3 IRadAn=         5 AccDes= 0.00D+00
 Harris functional with IExCor= 1009 and IRadAn=       5 diagonalized for initial guess.
 HarFok:  IExCor= 1009 AccDes= 0.00D+00 IRadAn=         5 IDoV= 1 UseB2=F ITyADJ=14
 ICtDFT=  3500011 ScaDFX=  1.000000  1.000000  1.000000  1.000000
 FoFCou: FMM=F IPFlag=           0 FMFlag=      100000 FMFlg1=           0
         NFxFlg=           0 DoJE=T BraDBF=F KetDBF=T FulRan=T
         wScrn=  0.000000 ICntrl=     500 IOpCl=  0 I1Cent=   200000004 NGrid=           0
         NMat0=    1 NMatS0=      1 NMatT0=    0 NMatD0=    1 NMtDS0=    0 NMtDT0=    0
 Petite list used in FoFCou.
 Requested convergence on RMS density matrix=1.00D-08 within 128 cycles.
 Requested convergence on MAX density matrix=1.00D-06.
 Requested convergence on             energy=1.00D-06.
 No special actions if energy rises.
 Inv3:  Mode=1 IEnd=    30260928.
 Iteration    1 A*A^-1 deviation from unit magnitude is 6.55D-15 for    767.
 Iteration    1 A*A^-1 deviation from orthogonality  is 2.78D-15 for   1288    587.
 Iteration    1 A^-1*A deviation from unit magnitude is 5.55D-15 for   1572.
 Iteration    1 A^-1*A deviation from orthogonality  is 1.18D-13 for   2262   2218.
 Error on total polarization charges =  0.02434
 SCF Done:  E(RM062X) =  -1516.16605761     A.U. after   16 cycles
            NFock= 16  Conv=0.47D-08     -V/T= 2.0031
 SMD-CDS (non-electrostatic) energy       (kcal/mol) =      -4.70
 (included in total energy above)

 **********************************************************************

            Population analysis using the SCF density.

 **********************************************************************

 Orbital symmetries:
       Occupied  (A) (A) (A) (A) (A) (A) (A) (A) (A) (A) (A) (A)
                 (A) (A) (A) (A) (A) (A) (A) (A) (A) (A) (A) (A)
                 (A) (A) (A) (A) (A) (A) (A) (A) (A) (A) (A) (A)
                 (A) (A) (A) (A) (A) (A) (A) (A) (A) (A) (A) (A)
                 (A) (A) (A) (A) (A) (A) (A) (A) (A) (A) (A) (A)
                 (A) (A) (A) (A) (A) (A) (A) (A) (A) (A) (A) (A)
                 (A) (A) (A) (A) (A) (A) (A) (A) (A) (A) (A) (A)
                 (A) (A) (A) (A) (A) (A) (A) (A) (A) (A) (A) (A)
                 (A) (A) (A) (A)
       Virtual   (A) (A) (A) (A) (A) (A) (A) (A) (A) (A) (A) (A)
                 (A) (A) (A) (A) (A) (A) (A) (A) (A) (A) (A) (A)
                 (A) (A) (A) (A) (A) (A) (A) (A) (A) (A) (A) (A)
                 (A) (A) (A) (A) (A) (A) (A) (A) (A) (A) (A) (A)
                 (A) (A) (A) (A) (A) (A) (A) (A) (A) (A) (A) (A)
                 (A) (A) (A) (A) (A) (A) (A) (A) (A) (A) (A) (A)
                 (A) (A) (A) (A) (A) (A) (A) (A) (A) (A) (A) (A)
                 (A) (A) (A) (A) (A) (A) (A) (A) (A) (A) (A) (A)
                 (A) (A) (A) (A) (A) (A) (A) (A) (A) (A) (A) (A)
                 (A) (A) (A) (A) (A) (A) (A) (A) (A) (A) (A) (A)
                 (A) (A) (A) (A) (A) (A) (A) (A) (A) (A) (A) (A)
                 (A) (A) (A) (A) (A) (A) (A) (A) (A) (A) (A) (A)
                 (A) (A) (A) (A) (A) (A) (A) (A) (A) (A) (A) (A)
                 (A) (A) (A) (A) (A) (A) (A) (A) (A) (A) (A) (A)
                 (A) (A) (A) (A) (A) (A) (A) (A) (A) (A) (A) (A)
                 (A) (A) (A) (A) (A) (A) (A) (A) (A) (A) (A) (A)
                 (A) (A) (A) (A) (A) (A) (A) (A) (A) (A) (A) (A)
                 (A) (A) (A) (A) (A) (A) (A) (A) (A) (A) (A) (A)
                 (A) (A) (A) (A) (A) (A) (A) (A) (A) (A) (A) (A)
                 (A) (A) (A) (A) (A) (A) (A) (A) (A) (A) (A) (A)
                 (A) (A) (A) (A) (A) (A) (A) (A) (A) (A) (A) (A)
                 (A) (A) (A) (A) (A) (A) (A) (A) (A) (A) (A) (A)
                 (A) (A) (A) (A) (A) (A) (A) (A) (A) (A) (A) (A)
                 (A) (A) (A) (A) (A) (A) (A) (A) (A) (A) (A) (A)
                 (A) (A) (A) (A) (A) (A) (A) (A) (A) (A) (A) (A)
                 (A) (A) (A) (A) (A) (A) (A) (A) (A) (A) (A) (A)
                 (A) (A) (A) (A) (A) (A) (A) (A) (A) (A) (A) (A)
                 (A) (A) (A) (A) (A) (A) (A) (A) (A) (A) (A) (A)
                 (A) (A) (A) (A) (A) (A) (A) (A) (A) (A) (A) (A)
                 (A) (A) (A) (A) (A) (A) (A) (A) (A) (A) (A) (A)
                 (A) (A) (A) (A) (A) (A) (A) (A) (A) (A) (A) (A)
                 (A) (A) (A) (A) (A) (A) (A) (A) (A) (A) (A) (A)
                 (A) (A) (A) (A) (A) (A) (A) (A) (A) (A) (A) (A)
                 (A) (A) (A) (A) (A) (A) (A) (A) (A) (A) (A) (A)
                 (A) (A) (A) (A) (A) (A) (A) (A) (A) (A) (A) (A)
                 (A) (A) (A) (A) (A) (A) (A) (A) (A) (A) (A) (A)
                 (A) (A) (A) (A) (A) (A) (A) (A) (A) (A) (A) (A)
                 (A) (A) (A) (A) (A) (A) (A) (A) (A) (A) (A) (A)
                 (A) (A) (A) (A) (A) (A) (A) (A) (A) (A) (A) (A)
                 (A) (A) (A) (A) (A) (A) (A) (A) (A) (A) (A) (A)
                 (A) (A) (A) (A) (A) (A) (A) (A) (A) (A) (A) (A)
                 (A) (A) (A) (A) (A) (A) (A) (A) (A) (A) (A) (A)
                 (A) (A) (A) (A) (A) (A) (A) (A) (A) (A) (A) (A)
                 (A) (A) (A) (A)
 The electronic state is 1-A.
 Alpha  occ. eigenvalues --  -25.23955 -25.23790 -25.23745 -25.23725 -25.23440
 Alpha  occ. eigenvalues --  -25.23350 -19.52625 -19.50261 -19.50029 -14.71150
 Alpha  occ. eigenvalues --  -14.69058 -10.76509 -10.76470 -10.60992 -10.56395
 Alpha  occ. eigenvalues --  -10.55819 -10.54314 -10.53287 -10.51943 -10.51141
 Alpha  occ. eigenvalues --  -10.50789 -10.50307 -10.48240 -10.48178 -10.46987
 Alpha  occ. eigenvalues --  -10.46628  -1.43362  -1.42909  -1.33942  -1.33573
 Alpha  occ. eigenvalues --   -1.33451  -1.33227  -1.11485  -1.09324  -1.00095
 Alpha  occ. eigenvalues --   -0.99390  -0.96619  -0.93843  -0.85077  -0.84593
 Alpha  occ. eigenvalues --   -0.82627  -0.80253  -0.77896  -0.76258  -0.72939
 Alpha  occ. eigenvalues --   -0.69562  -0.68821  -0.66650  -0.65892  -0.65682
 Alpha  occ. eigenvalues --   -0.65446  -0.64983  -0.63932  -0.63176  -0.61472
 Alpha  occ. eigenvalues --   -0.59353  -0.56937  -0.54320  -0.54122  -0.53903
 Alpha  occ. eigenvalues --   -0.53342  -0.53238  -0.52006  -0.50779  -0.50129
 Alpha  occ. eigenvalues --   -0.50059  -0.49797  -0.48820  -0.48673  -0.47779
 Alpha  occ. eigenvalues --   -0.47466  -0.47361  -0.47227  -0.46975  -0.46571
 Alpha  occ. eigenvalues --   -0.46368  -0.45491  -0.44758  -0.43762  -0.43243
 Alpha  occ. eigenvalues --   -0.42691  -0.41576  -0.40202  -0.40095  -0.39842
 Alpha  occ. eigenvalues --   -0.38927  -0.37734  -0.37465  -0.36177  -0.35429
 Alpha  occ. eigenvalues --   -0.34746  -0.34103  -0.33454  -0.28916  -0.28588
 Alpha  occ. eigenvalues --   -0.26147  -0.25744  -0.25202  -0.25047  -0.22019
 Alpha virt. eigenvalues --    0.03471   0.05238   0.05646   0.05984   0.06507
 Alpha virt. eigenvalues --    0.07147   0.07432   0.07699   0.08000   0.08485
 Alpha virt. eigenvalues --    0.08655   0.09098   0.09575   0.09705   0.10242
 Alpha virt. eigenvalues --    0.10503   0.10986   0.11086   0.11267   0.11780
 Alpha virt. eigenvalues --    0.12434   0.12696   0.13091   0.13424   0.13794
 Alpha virt. eigenvalues --    0.14068   0.14370   0.14980   0.15268   0.15479
 Alpha virt. eigenvalues --    0.16134   0.16260   0.16440   0.16624   0.17272
 Alpha virt. eigenvalues --    0.17401   0.17966   0.18694   0.18940   0.19290
 Alpha virt. eigenvalues --    0.20056   0.20421   0.20835   0.21166   0.21754
 Alpha virt. eigenvalues --    0.21824   0.22027   0.22790   0.22946   0.23580
 Alpha virt. eigenvalues --    0.24043   0.24401   0.24711   0.25143   0.25300
 Alpha virt. eigenvalues --    0.25559   0.25814   0.26116   0.26384   0.26573
 Alpha virt. eigenvalues --    0.26618   0.27338   0.27666   0.28111   0.28478
 Alpha virt. eigenvalues --    0.28901   0.28992   0.29383   0.29785   0.29998
 Alpha virt. eigenvalues --    0.30219   0.30522   0.30692   0.30851   0.31003
 Alpha virt. eigenvalues --    0.31100   0.31495   0.32040   0.32102   0.32309
 Alpha virt. eigenvalues --    0.32490   0.33024   0.33238   0.33542   0.33849
 Alpha virt. eigenvalues --    0.34399   0.34741   0.34897   0.35057   0.35484
 Alpha virt. eigenvalues --    0.35978   0.36573   0.36640   0.37200   0.37462
 Alpha virt. eigenvalues --    0.37635   0.38000   0.38335   0.38811   0.38968
 Alpha virt. eigenvalues --    0.39211   0.39713   0.40007   0.40419   0.40712
 Alpha virt. eigenvalues --    0.41230   0.41335   0.41683   0.41932   0.42505
 Alpha virt. eigenvalues --    0.42769   0.43030   0.43189   0.43541   0.44016
 Alpha virt. eigenvalues --    0.44453   0.44917   0.45174   0.45408   0.45947
 Alpha virt. eigenvalues --    0.46261   0.47164   0.47510   0.48282   0.48328
 Alpha virt. eigenvalues --    0.48682   0.49118   0.49319   0.49589   0.49949
 Alpha virt. eigenvalues --    0.50580   0.51483   0.52010   0.52309   0.52690
 Alpha virt. eigenvalues --    0.53525   0.54155   0.55306   0.55453   0.56099
 Alpha virt. eigenvalues --    0.57034   0.57399   0.58024   0.58199   0.58525
 Alpha virt. eigenvalues --    0.59272   0.59650   0.60278   0.60642   0.61463
 Alpha virt. eigenvalues --    0.61836   0.62388   0.62559   0.63077   0.63816
 Alpha virt. eigenvalues --    0.65440   0.65658   0.66196   0.66619   0.66905
 Alpha virt. eigenvalues --    0.68139   0.69204   0.69504   0.70841   0.71614
 Alpha virt. eigenvalues --    0.72276   0.72589   0.73248   0.73567   0.74337
 Alpha virt. eigenvalues --    0.74792   0.75178   0.75581   0.76368   0.76535
 Alpha virt. eigenvalues --    0.77300   0.77527   0.78030   0.78621   0.78873
 Alpha virt. eigenvalues --    0.79736   0.79799   0.80507   0.81120   0.82052
 Alpha virt. eigenvalues --    0.82436   0.82993   0.83101   0.83801   0.84121
 Alpha virt. eigenvalues --    0.84389   0.84482   0.85478   0.85706   0.86577
 Alpha virt. eigenvalues --    0.87010   0.87408   0.88308   0.88572   0.89188
 Alpha virt. eigenvalues --    0.93618   0.94375   0.94932   0.96692   0.97410
 Alpha virt. eigenvalues --    0.99405   1.00312   1.00828   1.01795   1.02428
 Alpha virt. eigenvalues --    1.03167   1.04261   1.04358   1.06339   1.07369
 Alpha virt. eigenvalues --    1.08221   1.09226   1.10207   1.11007   1.12200
 Alpha virt. eigenvalues --    1.13142   1.14657   1.15555   1.16355   1.16604
 Alpha virt. eigenvalues --    1.19068   1.19817   1.20097   1.20907   1.21732
 Alpha virt. eigenvalues --    1.22365   1.23415   1.24757   1.26004   1.27516
 Alpha virt. eigenvalues --    1.28257   1.29342   1.30204   1.31897   1.32128
 Alpha virt. eigenvalues --    1.32825   1.34341   1.36102   1.38095   1.38591
 Alpha virt. eigenvalues --    1.40142   1.42015   1.43399   1.44704   1.45189
 Alpha virt. eigenvalues --    1.45584   1.46441   1.47874   1.48759   1.50158
 Alpha virt. eigenvalues --    1.50590   1.51150   1.51958   1.52479   1.53132
 Alpha virt. eigenvalues --    1.53500   1.54365   1.55357   1.56362   1.56575
 Alpha virt. eigenvalues --    1.56917   1.57587   1.57811   1.58788   1.58912
 Alpha virt. eigenvalues --    1.59644   1.60043   1.61766   1.61961   1.62957
 Alpha virt. eigenvalues --    1.63078   1.63268   1.63904   1.65076   1.65551
 Alpha virt. eigenvalues --    1.66118   1.66557   1.66753   1.67675   1.67911
 Alpha virt. eigenvalues --    1.68755   1.69608   1.69928   1.70894   1.72735
 Alpha virt. eigenvalues --    1.73947   1.74799   1.76113   1.78297   1.81445
 Alpha virt. eigenvalues --    1.82031   1.82832   1.83903   1.83937   1.84999
 Alpha virt. eigenvalues --    1.85752   1.86031   1.86568   1.87749   1.88120
 Alpha virt. eigenvalues --    1.88713   1.89483   1.90395   1.91970   1.93634
 Alpha virt. eigenvalues --    1.93873   1.94616   1.97248   1.97503   1.98415
 Alpha virt. eigenvalues --    2.00395   2.02924   2.03675   2.05352   2.05976
 Alpha virt. eigenvalues --    2.07657   2.09146   2.09441   2.09783   2.11776
 Alpha virt. eigenvalues --    2.15859   2.15988   2.16924   2.17593   2.20597
 Alpha virt. eigenvalues --    2.22206   2.22785   2.23278   2.25255   2.27023
 Alpha virt. eigenvalues --    2.29091   2.31484   2.34104   2.36281   2.40236
 Alpha virt. eigenvalues --    2.40940   2.44668   2.45947   2.46592   2.47735
 Alpha virt. eigenvalues --    2.48289   2.54193   2.54877   2.59372   2.59959
 Alpha virt. eigenvalues --    2.60600   2.60777   2.61867   2.64217   2.64804
 Alpha virt. eigenvalues --    2.65880   2.66537   2.68018   2.69651   2.70439
 Alpha virt. eigenvalues --    2.72503   2.73463   2.75658   2.77409   2.78856
 Alpha virt. eigenvalues --    2.83221   2.87386   2.88781   2.91498   2.92200
 Alpha virt. eigenvalues --    2.93222   2.96254   2.97067   3.00879   3.01697
 Alpha virt. eigenvalues --    3.02310   3.02979   3.03817   3.05033   3.05395
 Alpha virt. eigenvalues --    3.06838   3.07514   3.09334   3.10082   3.11678
 Alpha virt. eigenvalues --    3.11898   3.12943   3.14848   3.17429   3.18812
 Alpha virt. eigenvalues --    3.18942   3.20560   3.21939   3.23827   3.26509
 Alpha virt. eigenvalues --    3.30606   3.31233   3.31961   3.33375   3.35564
 Alpha virt. eigenvalues --    3.38400   3.39259   3.43284   3.43944   3.45660
 Alpha virt. eigenvalues --    3.46835   3.48043   3.49125   3.49505   3.50079
 Alpha virt. eigenvalues --    3.51973   3.54207   3.55077   3.60133   3.67132
 Alpha virt. eigenvalues --    3.70114   3.77501   3.78095   3.78713   3.84209
 Alpha virt. eigenvalues --    3.85015   3.85333   3.85537   3.86525   3.88748
 Alpha virt. eigenvalues --    3.88779   3.89665   3.89801   3.90607   3.90819
 Alpha virt. eigenvalues --    3.92079   3.93110   3.93360   3.93780   3.95189
 Alpha virt. eigenvalues --    3.95658   3.99856   4.04591   4.05148   4.05532
 Alpha virt. eigenvalues --    4.05813   4.07258   4.07936   4.10570   4.12397
 Alpha virt. eigenvalues --    4.13735   4.17617   4.19864   4.26056   4.27452
 Alpha virt. eigenvalues --    4.27667   4.29053   4.31340   4.32535   4.34696
 Alpha virt. eigenvalues --    4.36507   4.70409   4.74157   4.79784   4.84732
 Alpha virt. eigenvalues --    4.88143   5.00115   5.03364   5.03674   5.06251
 Alpha virt. eigenvalues --    5.07475   5.25495   5.27413   5.28319   5.31066
 Alpha virt. eigenvalues --    5.47327   5.50838   5.52305   5.83585   5.98144
 Alpha virt. eigenvalues --    6.10369   6.50623   6.52747   6.54671   6.54988
 Alpha virt. eigenvalues --    6.56015   6.57646   6.58537   6.60057   6.60490
 Alpha virt. eigenvalues --    6.60708   6.63401   6.67792   6.68329   6.68460
 Alpha virt. eigenvalues --    6.92048   6.93349   6.93680   6.95773  23.52777
 Alpha virt. eigenvalues --   23.65226  23.68572  23.69811  23.71773  23.81259
 Alpha virt. eigenvalues --   23.86705  23.87423  23.98267  24.01403  24.04398
 Alpha virt. eigenvalues --   24.05314  24.13411  24.18917  24.25907  35.71345
 Alpha virt. eigenvalues --   35.81206  50.14976  50.22738  50.23724  66.94337
 Alpha virt. eigenvalues --   66.94605  66.95575  66.96146  67.00831  67.03039
          Condensed to atoms (all electrons):
               1          2          3          4          5          6
     1  C   21.669583  -0.125326   0.009951  -0.039854  -0.002223  -0.290657
     2  N   -0.125326   8.368281   0.281086  -0.079284  -0.678229  -0.736905
     3  C    0.009951   0.281086   9.702467   0.723520   0.201181  -1.794766
     4  O   -0.039854  -0.079284   0.723520   8.131720  -0.197949  -0.149020
     5  N   -0.002223  -0.678229   0.201181  -0.197949   8.129974   0.721008
     6  C   -0.290657  -0.736905  -1.794766  -0.149020   0.721008   9.522723
     7  C   -0.026598   0.081166   0.511016   0.024610  -0.094042  -1.244168
     8  C   -0.007060  -0.024272  -0.362016  -0.002644  -0.033895   0.564153
     9  C   -3.326327   0.309326  -0.671347   0.092840  -0.366945  -0.546107
    10  C   -3.057373   0.054935   0.290737  -0.038009  -0.002246  -0.014701
    11  C    1.730416  -0.049639  -1.978766  -0.024562  -0.046058  -0.168000
    12  C   -6.206088   0.020876  -0.130285  -0.002018  -0.063245  -0.024834
    13  C   -0.059762   0.044029  -0.835877  -0.023244  -0.151954  -0.187962
    14  H   -0.060696   0.071254  -0.010896  -0.003592   0.015091   0.035729
    15  H   -0.031087   0.032025  -0.022258  -0.008109   0.103622   0.018950
    16  H    0.012623   0.003228   0.057665  -0.004326  -0.060258   0.395410
    17  H    0.000451   0.013600   0.049862   0.005080  -0.077826   0.355829
    18  H    0.004217  -0.000168   0.031318  -0.000249   0.005359  -0.078081
    19  H   -0.004085  -0.000909  -0.023876  -0.000243   0.006999  -0.056009
    20  H   -0.000368  -0.000051  -0.010242  -0.000074   0.000684  -0.052125
    21  H    0.000092   0.000001   0.005334   0.000017  -0.001721   0.075876
    22  H    0.000183   0.000057   0.009018  -0.000012   0.000522  -0.027503
    23  H    0.045540  -0.031265   0.096787   0.012403   0.009660   0.012696
    24  H    0.080674  -0.031320  -0.007722   0.000007   0.000064  -0.000279
    25  C   -2.130118   0.009417  -0.437222  -0.001075   0.003147  -0.011361
    26  C   -1.668866   0.004069   0.253403  -0.003718  -0.000438   0.017337
    27  H    0.019353  -0.002352   0.003569  -0.000014  -0.000067   0.000031
    28  F    0.014193   0.000110   0.000757  -0.000002   0.000004   0.000004
    29  F    0.036804   0.000070  -0.000128   0.000002   0.000003  -0.000003
    30  F    0.002648  -0.000046  -0.000376  -0.000003   0.000001  -0.000001
    31  F    0.052770   0.001014   0.008104  -0.001006  -0.000095   0.000109
    32  F    0.006940   0.000560  -0.002103   0.000159  -0.000006  -0.000055
    33  F    0.010001   0.000432  -0.000374   0.000017   0.000007  -0.000001
    34  O   -0.129651   0.007742  -0.004532  -0.000605  -0.050916  -0.019474
    35  O    0.015617  -0.040216  -0.049408   0.000224  -0.011530   0.070728
    36  C    0.199686   0.009758   0.019914  -0.001227   0.037392   0.016194
    37  C   -0.067758  -0.064479  -0.057219  -0.001222  -0.060205   0.077050
    38  C   -0.000186   0.002681   0.003528   0.000076   0.011055  -0.012951
    39  H    0.000126   0.000581   0.000602   0.000001  -0.000140  -0.000573
    40  H    0.000634   0.000231  -0.000496  -0.000000   0.000309   0.000183
    41  H    0.000129  -0.000016  -0.000488  -0.000000   0.000168   0.000955
    42  H    0.000002   0.000028   0.000191   0.000000  -0.000083  -0.000104
    43  H   -0.000009   0.000001  -0.000056  -0.000000   0.000174  -0.000338
               7          8          9         10         11         12
     1  C   -0.026598  -0.007060  -3.326327  -3.057373   1.730416  -6.206088
     2  N    0.081166  -0.024272   0.309326   0.054935  -0.049639   0.020876
     3  C    0.511016  -0.362016  -0.671347   0.290737  -1.978766  -0.130285
     4  O    0.024610  -0.002644   0.092840  -0.038009  -0.024562  -0.002018
     5  N   -0.094042  -0.033895  -0.366945  -0.002246  -0.046058  -0.063245
     6  C   -1.244168   0.564153  -0.546107  -0.014701  -0.168000  -0.024834
     7  C    6.699451  -0.553667   0.041211  -0.001784   0.000870   0.002405
     8  C   -0.553667   6.568822  -0.019076  -0.000154  -0.001323  -0.000430
     9  C    0.041211  -0.019076  15.927701   4.187346  -8.057374   1.384172
    10  C   -0.001784  -0.000154   4.187346  49.161643 -22.319173  -2.366566
    11  C    0.000870  -0.001323  -8.057374 -22.319173  59.386791  -6.251994
    12  C    0.002405  -0.000430   1.384172  -2.366566  -6.251994  17.173887
    13  C    0.015194  -0.004615  -4.657136 -11.756075  -2.730140   2.119859
    14  H   -0.007552   0.000420   0.016528   0.012451   0.010842   0.016504
    15  H   -0.039342   0.010832  -0.009847  -0.001729  -0.001345  -0.003183
    16  H   -0.060767  -0.028167   0.005159   0.000440   0.000584  -0.000061
    17  H    0.001873  -0.004998  -0.010278   0.000556  -0.000307   0.000025
    18  H    0.441605  -0.074534   0.000980   0.000007   0.000078  -0.000044
    19  H    0.462893  -0.056757  -0.000974   0.000009  -0.000054   0.000024
    20  H    0.003164   0.402713  -0.000098  -0.000004  -0.000003   0.000001
    21  H   -0.131616   0.402696   0.000035  -0.000000   0.000001  -0.000000
    22  H    0.042828   0.320507   0.000091   0.000001   0.000002  -0.000001
    23  H   -0.000624   0.000121   0.354472  -0.082263  -0.078892  -0.022213
    24  H    0.000012   0.000004   0.005002   0.039134  -0.003077  -0.085204
    25  C   -0.000124  -0.000044  -2.941552  -1.395437  -4.241885  -1.810770
    26  C    0.000394   0.000064   4.239259  -5.348132  -7.901235   1.604856
    27  H   -0.000000   0.000000  -0.010940  -0.007909   0.031033   0.385471
    28  F   -0.000000   0.000000   0.075727  -0.393751   0.077125   0.138648
    29  F    0.000000  -0.000000   0.002863  -0.084559  -0.170215   0.149329
    30  F    0.000000  -0.000000   0.013552  -0.045575   0.232634  -0.089012
    31  F    0.000012  -0.000001   0.057763  -0.291362   0.031317   0.007351
    32  F    0.000000  -0.000000  -0.107185   0.292726  -0.072827   0.002426
    33  F   -0.000001  -0.000000  -0.050861  -0.002848  -0.100874   0.037687
    34  O   -0.000624  -0.000275   0.019346  -0.006817  -0.006107   0.001747
    35  O   -0.018443   0.007029  -0.000691  -0.000890   0.001178  -0.005099
    36  C    0.005843  -0.010355  -0.096457  -0.032880  -0.029775  -0.132688
    37  C   -0.037544   0.008133  -0.000514   0.001279   0.006890   0.014936
    38  C    0.010005  -0.003279  -0.002771   0.000252  -0.001836   0.000758
    39  H    0.000593   0.000029   0.000046  -0.000045   0.000011  -0.000422
    40  H   -0.000300  -0.000029   0.000021   0.000020  -0.000021  -0.000279
    41  H   -0.000631  -0.000069  -0.000002   0.000001   0.000002  -0.000013
    42  H   -0.000024  -0.000008   0.000005  -0.000001   0.000001   0.000001
    43  H    0.000515   0.000182   0.000016  -0.000004   0.000007  -0.000037
              13         14         15         16         17         18
     1  C   -0.059762  -0.060696  -0.031087   0.012623   0.000451   0.004217
     2  N    0.044029   0.071254   0.032025   0.003228   0.013600  -0.000168
     3  C   -0.835877  -0.010896  -0.022258   0.057665   0.049862   0.031318
     4  O   -0.023244  -0.003592  -0.008109  -0.004326   0.005080  -0.000249
     5  N   -0.151954   0.015091   0.103622  -0.060258  -0.077826   0.005359
     6  C   -0.187962   0.035729   0.018950   0.395410   0.355829  -0.078081
     7  C    0.015194  -0.007552  -0.039342  -0.060767   0.001873   0.441605
     8  C   -0.004615   0.000420   0.010832  -0.028167  -0.004998  -0.074534
     9  C   -4.657136   0.016528  -0.009847   0.005159  -0.010278   0.000980
    10  C  -11.756075   0.012451  -0.001729   0.000440   0.000556   0.000007
    11  C   -2.730140   0.010842  -0.001345   0.000584  -0.000307   0.000078
    12  C    2.119859   0.016504  -0.003183  -0.000061   0.000025  -0.000044
    13  C   24.088827  -0.046427   0.000734   0.000098   0.001127  -0.000238
    14  H   -0.046427   0.316328   0.029372   0.000006  -0.000170   0.000079
    15  H    0.000734   0.029372   0.338927   0.000742   0.002887   0.000008
    16  H    0.000098   0.000006   0.000742   0.472607  -0.048431   0.006482
    17  H    0.001127  -0.000170   0.002887  -0.048431   0.472603  -0.009459
    18  H   -0.000238   0.000079   0.000008   0.006482  -0.009459   0.446003
    19  H    0.000307   0.000052   0.007113  -0.008586   0.005337  -0.036660
    20  H    0.000017  -0.000000   0.000047  -0.000838   0.003194  -0.008509
    21  H   -0.000004   0.000000  -0.000072  -0.000117  -0.000247  -0.003996
    22  H   -0.000002   0.000000  -0.000064   0.003544  -0.000542   0.006583
    23  H   -0.043336  -0.000283   0.000031  -0.000032  -0.000026   0.000000
    24  H    0.279037   0.013015  -0.000108   0.000000  -0.000000   0.000000
    25  C    0.057099  -0.000703  -0.000209   0.000016  -0.000020   0.000002
    26  C   -0.265614  -0.000714  -0.000218  -0.000079   0.000023  -0.000006
    27  H   -0.085713  -0.000044   0.000001  -0.000000   0.000000  -0.000000
    28  F    0.047710   0.000002  -0.000000   0.000000   0.000000   0.000000
    29  F    0.138069  -0.000004  -0.000000   0.000000  -0.000000   0.000000
    30  F   -0.033308   0.000001  -0.000000   0.000000  -0.000000   0.000000
    31  F   -0.001009   0.000004   0.000000   0.000000  -0.000001   0.000000
    32  F    0.007365  -0.000000  -0.000000   0.000000  -0.000000   0.000000
    33  F    0.016887   0.000001  -0.000000  -0.000000   0.000000  -0.000000
    34  O    0.195610   0.084043   0.010263  -0.000015   0.000011  -0.000067
    35  O   -0.019281   0.011321   0.076076   0.000748  -0.001223  -0.000578
    36  C   -0.018245  -0.013502  -0.005550   0.000662  -0.000918   0.000926
    37  C    0.031986   0.048521   0.046742   0.000258  -0.000636   0.001133
    38  C    0.001977  -0.003499  -0.005669  -0.000020   0.000107   0.000012
    39  H   -0.000363  -0.000242   0.000003   0.000000   0.000000  -0.000002
    40  H    0.000887  -0.000374  -0.000113  -0.000000   0.000000   0.000001
    41  H    0.000028  -0.000021  -0.000343  -0.000000  -0.000000   0.000005
    42  H   -0.000028  -0.000001   0.000053   0.000000  -0.000000   0.000000
    43  H   -0.000022  -0.000014  -0.000303   0.000001  -0.000000  -0.000005
              19         20         21         22         23         24
     1  C   -0.004085  -0.000368   0.000092   0.000183   0.045540   0.080674
     2  N   -0.000909  -0.000051   0.000001   0.000057  -0.031265  -0.031320
     3  C   -0.023876  -0.010242   0.005334   0.009018   0.096787  -0.007722
     4  O   -0.000243  -0.000074   0.000017  -0.000012   0.012403   0.000007
     5  N    0.006999   0.000684  -0.001721   0.000522   0.009660   0.000064
     6  C   -0.056009  -0.052125   0.075876  -0.027503   0.012696  -0.000279
     7  C    0.462893   0.003164  -0.131616   0.042828  -0.000624   0.000012
     8  C   -0.056757   0.402713   0.402696   0.320507   0.000121   0.000004
     9  C   -0.000974  -0.000098   0.000035   0.000091   0.354472   0.005002
    10  C    0.000009  -0.000004  -0.000000   0.000001  -0.082263   0.039134
    11  C   -0.000054  -0.000003   0.000001   0.000002  -0.078892  -0.003077
    12  C    0.000024   0.000001  -0.000000  -0.000001  -0.022213  -0.085204
    13  C    0.000307   0.000017  -0.000004  -0.000002  -0.043336   0.279037
    14  H    0.000052  -0.000000   0.000000   0.000000  -0.000283   0.013015
    15  H    0.007113   0.000047  -0.000072  -0.000064   0.000031  -0.000108
    16  H   -0.008586  -0.000838  -0.000117   0.003544  -0.000032   0.000000
    17  H    0.005337   0.003194  -0.000247  -0.000542  -0.000026  -0.000000
    18  H   -0.036660  -0.008509  -0.003996   0.006583   0.000000   0.000000
    19  H    0.434436   0.006517  -0.003658  -0.007904  -0.000000  -0.000001
    20  H    0.006517   0.464569  -0.026029  -0.037844  -0.000000  -0.000000
    21  H   -0.003658  -0.026029   0.446420  -0.026869   0.000000   0.000000
    22  H   -0.007904  -0.037844  -0.026869   0.460263   0.000000   0.000000
    23  H   -0.000000  -0.000000   0.000000   0.000000   0.337294  -0.000036
    24  H   -0.000001  -0.000000   0.000000   0.000000  -0.000036   0.347843
    25  C   -0.000001  -0.000000   0.000000   0.000000  -0.007251   0.007548
    26  C    0.000002   0.000000  -0.000000  -0.000000   0.043888   0.003448
    27  H    0.000000   0.000000  -0.000000   0.000000   0.000061  -0.002790
    28  F   -0.000000  -0.000000   0.000000   0.000000   0.000021   0.000020
    29  F   -0.000000  -0.000000   0.000000   0.000000   0.000001  -0.000032
    30  F   -0.000000  -0.000000   0.000000   0.000000  -0.000001   0.000039
    31  F   -0.000000   0.000000  -0.000000   0.000000   0.011455  -0.000006
    32  F    0.000000   0.000000   0.000000   0.000000  -0.000903  -0.000001
    33  F    0.000000  -0.000000  -0.000000  -0.000000   0.000700  -0.000001
    34  O    0.000003  -0.000002   0.000001   0.000001   0.000037   0.003975
    35  O   -0.005206  -0.000100   0.000061   0.000116  -0.000000   0.001025
    36  C    0.003759  -0.000022  -0.000088   0.000212   0.000385   0.009664
    37  C   -0.001325  -0.000041   0.000110   0.000001   0.000049  -0.003852
    38  C    0.002116   0.000022  -0.000056   0.000008   0.000001   0.000307
    39  H    0.000002   0.000000  -0.000000   0.000000  -0.000000   0.000052
    40  H    0.000004   0.000000  -0.000000   0.000000   0.000000  -0.000133
    41  H   -0.000035  -0.000000   0.000001   0.000000   0.000000  -0.000001
    42  H   -0.000002  -0.000000   0.000000  -0.000000  -0.000000  -0.000001
    43  H   -0.000058  -0.000000   0.000000  -0.000000  -0.000000   0.000001
              25         26         27         28         29         30
     1  C   -2.130118  -1.668866   0.019353   0.014193   0.036804   0.002648
     2  N    0.009417   0.004069  -0.002352   0.000110   0.000070  -0.000046
     3  C   -0.437222   0.253403   0.003569   0.000757  -0.000128  -0.000376
     4  O   -0.001075  -0.003718  -0.000014  -0.000002   0.000002  -0.000003
     5  N    0.003147  -0.000438  -0.000067   0.000004   0.000003   0.000001
     6  C   -0.011361   0.017337   0.000031   0.000004  -0.000003  -0.000001
     7  C   -0.000124   0.000394  -0.000000  -0.000000   0.000000   0.000000
     8  C   -0.000044   0.000064   0.000000   0.000000  -0.000000  -0.000000
     9  C   -2.941552   4.239259  -0.010940   0.075727   0.002863   0.013552
    10  C   -1.395437  -5.348132  -0.007909  -0.393751  -0.084559  -0.045575
    11  C   -4.241885  -7.901235   0.031033   0.077125  -0.170215   0.232634
    12  C   -1.810770   1.604856   0.385471   0.138648   0.149329  -0.089012
    13  C    0.057099  -0.265614  -0.085713   0.047710   0.138069  -0.033308
    14  H   -0.000703  -0.000714  -0.000044   0.000002  -0.000004   0.000001
    15  H   -0.000209  -0.000218   0.000001  -0.000000  -0.000000  -0.000000
    16  H    0.000016  -0.000079  -0.000000   0.000000   0.000000   0.000000
    17  H   -0.000020   0.000023   0.000000   0.000000  -0.000000  -0.000000
    18  H    0.000002  -0.000006  -0.000000   0.000000   0.000000   0.000000
    19  H   -0.000001   0.000002   0.000000  -0.000000  -0.000000  -0.000000
    20  H   -0.000000   0.000000   0.000000  -0.000000  -0.000000  -0.000000
    21  H    0.000000  -0.000000  -0.000000   0.000000   0.000000   0.000000
    22  H    0.000000  -0.000000   0.000000   0.000000   0.000000   0.000000
    23  H   -0.007251   0.043888   0.000061   0.000021   0.000001  -0.000001
    24  H    0.007548   0.003448  -0.002790   0.000020  -0.000032   0.000039
    25  C   23.605717  -6.102863  -0.019208  -0.062512   0.049467   0.075125
    26  C   -6.102863  19.619817   0.004934   0.255147   0.014282  -0.001559
    27  H   -0.019208   0.004934   0.392435   0.000622   0.007606  -0.000864
    28  F   -0.062512   0.255147   0.000622   9.000228  -0.025903  -0.041980
    29  F    0.049467   0.014282   0.007606  -0.025903   9.050343  -0.042246
    30  F    0.075125  -0.001559  -0.000864  -0.041980  -0.042246   8.986527
    31  F   -0.014033   0.299334   0.000012   0.001527   0.000079   0.000188
    32  F   -0.006064   0.052151   0.000001   0.003863   0.000138  -0.000965
[...]
 00000500,-0.00000278,-0.00002012,-0.00002269,-0.00002280,-0.00004063,-
 0.00001676,-0.00001945,-0.00001465,-0.00000852,-0.00001699,0.00000896,
 -0.00000627,-0.00000639,0.00000498,0.00000658,0.00000843,0.00001603,0.
 00001427,0.00000142,0.00001265,-0.00000065,0.00001133,0.00000677,0.000
 00474,0.00000159,0.00000219,0.00000469,0.00000861,0.00000730,-0.000000
 91,0.00000682,0.00132523,-0.00010384,0.00110972,0.00100214,-0.00039536
 ,-0.00037034,-0.00054773,0.00291925,0.00137141,-0.10276637,-0.06274053
 ,-0.23635840,-0.00088900,-0.00022992,-0.00221724,0.11348468,0.06654129
 ,0.25580346,-0.00000223,0.00001245,0.00001294,0.00009022,0.00006781,0.
 00001621,-0.00026199,0.00004691,0.00003224,0.00006255,-0.00004610,-0.0
 0002179,0.00007181,-0.00025915,0.00001063,0.00000650,-0.00000551,0.000
 02489,-0.00000090,0.00001723,-0.00001412,0.00000552,-0.00000500,0.0000
 0718,0.00000194,-0.00000956,-0.00000637,-0.00000960,0.00000265,-0.0000
 0221,0.00000349,0.00000905,-0.00000120,0.00000654,0.00000531,-0.000009
 75,0.00000066,-0.00001080,-0.00000421,-0.00003458,-0.00017715,-0.00006
 163,0.00001593,0.00033981,-0.00007493,0.00000040,-0.00000780,-0.000007
 94,-0.00000535,-0.00001145,-0.00000132,-0.00000191,0.00000947,-0.00001
 419,0.00001231,0.00000770,0.00002750,-0.00000513,-0.00000662,0.0000023
 1,0.00000803,0.00000133,-0.00000163,-0.00000472,-0.00000301,-0.0000060
 3,-0.00000558,0.00000108,0.00000454,0.00002802,-0.00000972,0.00001064,
 0.00001631,-0.00000677,0.00001311,-0.00000117,-0.00002297,0.00001289,0
 .00000051,0.00000075,0.00000380,-0.00000360,0.00000205,-0.00000155,-0.
 00000266,0.00000237,-0.00000245,-0.00000695,0.00000408,-0.00000762,0.0
 0000587,0.00000785,-0.00000345,-0.00000032,0.00000507,-0.00000317,-0.0
 0000478,0.00000717,-0.00000453,0.00086578,0.00189290,-0.00153580,0.000
 28921,-0.00278698,-0.00096628,-0.00758783,-0.00086184,0.00558279,-0.15
 905124,-0.02662282,0.12992884,-0.01773601,-0.00408160,0.02009820,0.010
 18505,0.00312406,-0.01092377,0.17511140,-0.00017066,0.00008466,0.00000
 969,0.00016665,-0.00003221,0.00007922,-0.00033649,0.00018866,0.0000598
 7,0.00005992,-0.00018807,-0.00003974,0.00008204,-0.00052198,0.00010920
 ,0.00011303,0.00001461,0.00002487,-0.00001845,0.00002376,-0.00002375,0
 .00000794,-0.00000796,0.00001044,0.00003217,-0.00004452,-0.00001247,-0
 .00002341,0.00000468,0.00000081,0.00004405,-0.00001304,-0.00000730,-0.
 00001848,0.00000464,-0.00000887,0.00007215,0.00001558,-0.00001106,-0.0
 0000528,0.00013900,-0.00016478,0.00009549,0.00079395,-0.00029019,-0.00
 001526,-0.00000797,-0.00001305,-0.00002528,-0.00002284,0.00000403,0.00
 000797,-0.00000249,-0.00000227,0.00003838,-0.00000862,0.00001232,-0.00
 000816,-0.00000564,0.00000069,-0.00001139,0.00000272,0.00000224,-0.000
 00388,-0.00000317,-0.00000394,-0.00001004,0.00000609,0.00000395,-0.000
 04263,-0.00000831,0.00003294,-0.00004116,0.00000199,0.00001800,-0.0000
 1199,0.00001053,0.00001678,0.00000787,-0.00000285,0.00000646,0.0000086
 0,-0.00000697,-0.00000707,0.00001363,0.00000944,-0.00000601,0.00001051
 ,-0.00000291,-0.00000103,0.00000567,-0.00000132,-0.00000366,0.00000275
 ,-0.00000473,-0.00001070,0.00000374,-0.00000407,-0.00000093,0.00194434
 ,0.00010640,-0.00355720,-0.00188843,-0.00599339,-0.00388952,-0.0216514
 5,-0.00228964,0.02880154,-0.02726717,-0.05237314,0.03530530,0.01332798
 ,0.00228106,-0.01529237,0.00688992,0.00110340,-0.00746370,0.02677491,0
 .05755586,0.00018524,-0.00008106,-0.00001744,-0.00015287,0.00009915,0.
 00001433,0.00018099,-0.00008956,-0.00001777,-0.00003404,0.00008825,0.0
 0000713,-0.00006083,0.00017027,0.00002890,-0.00002620,-0.00000344,-0.0
 0001116,0.00000299,-0.00001147,-0.00000174,-0.00000533,0.00000642,0.00
 000051,-0.00004152,0.00004079,0.00000465,0.00002889,-0.00000508,0.0000
 0041,-0.00004305,0.00000451,0.00000670,0.00002877,-0.00000630,0.000005
 04,-0.00006783,-0.00000616,0.00000482,0.00000380,-0.00014451,-0.000007
 65,-0.00003006,-0.00022287,-0.00001791,0.00000251,0.00000474,0.0000076
 4,0.00000548,0.00000806,-0.00000282,-0.00000363,-0.00000571,0.00001135
 ,-0.00001172,0.00000113,-0.00001256,0.00000440,0.00000464,-0.00000328,
 -0.00000002,-0.00000207,-0.00000085,0.00000373,0.00000186,0.00000461,0
 .00000903,-0.00000607,-0.00000248,0.00003336,0.00003159,-0.00001977,0.
 00005127,0.00002253,-0.00000947,0.00001626,0.00000901,-0.00000404,-0.0
 0001244,0.00000881,-0.00000315,-0.00000809,-0.00000314,-0.00000084,-0.
 00002316,-0.00002175,0.00000626,-0.00001198,-0.00000171,-0.00000048,-0
 .00001066,-0.00000651,0.00000304,-0.00000338,-0.00000175,0.00000176,-0
 .00000517,-0.00000004,-0.00000157,-0.00171178,0.00107727,0.00102278,-0
 .00051900,0.00049153,-0.00039278,0.00128751,-0.00268917,-0.00082498,0.
 12876450,0.03232660,-0.19074309,-0.00506451,-0.00148849,0.00546054,0.0
 1836626,0.00537378,-0.02150035,-0.14042757,-0.03461264,0.20497265,0.00
 000524,0.00001019,0.00000724,0.00003297,0.00009318,-0.00001648,-0.0000
 8608,-0.00001373,0.00001833,0.00002308,0.00002260,-0.00000756,0.000023
 49,-0.00000319,-0.00003842,-0.00000516,0.00000056,0.00000060,-0.000002
 61,-0.00000602,0.00003700,0.00000110,-0.00000161,-0.00000979,0.0000005
 4,0.00000176,-0.00000235,-0.00000671,0.00000913,0.00000103,-0.00000375
 ,0.00000989,-0.00000336,0.00000365,0.00000129,-0.00000320,-0.00000045,
 -0.00001645,-0.00001420,-0.00001342,-0.00013483,0.00000726,-0.00000714
 ,-0.00001549,0.00003456,0.00000249,-0.00000252,-0.00000227,0.00000022,
 0.00000586,0.00000095,0.00000380,0.00000383,-0.00000962,0.00000413,0.0
 0000413,-0.00001039,0.00000099,0.00000572,-0.00000082,-0.00000063,-0.0
 0000228,0.00000448,-0.00000308,-0.00000292,-0.00000204,-0.00000193,0.0
 0000016,0.00000308,0.00000834,-0.00001494,0.00001360,0.00002117,-0.000
 02363,0.00001436,0.00000168,-0.00003502,0.00000808,0.00000397,-0.00000
 437,0.00000437,-0.00000575,0.00000853,0.00000191,-0.00000135,0.0000076
 9,-0.00000350,-0.00000991,0.00000833,-0.00001198,0.00000596,0.00001141
 ,-0.00000346,-0.00000131,0.00000915,0.00000125,-0.00000644,0.00001091,
 -0.00000536,0.00062288,0.00046277,-0.00024474,0.00235406,-0.00037611,-
 0.00032861,-0.00147730,-0.00186215,0.00018586,-0.01903644,-0.00366896,
 0.02163762,-0.16146733,-0.02572958,0.13161193,0.00072547,-0.00084732,-
 0.00026124,-0.00386891,0.00360658,-0.00166811,0.17645519,0.00010516,-0
 .00004584,-0.00000843,-0.00010304,0.00005648,0.00000528,0.00015257,-0.
 00010686,-0.00000941,-0.00002743,0.00009353,0.00000711,-0.00004092,0.0
 0018090,0.00000126,-0.00001182,-0.00000236,-0.00001899,-0.00000303,-0.
 00002435,0.00001496,-0.00001307,0.00001584,-0.00000182,-0.00002168,0.0
 0002738,0.00000371,0.00001298,0.00000107,-0.00000418,-0.00002708,0.000
 01068,0.00000579,0.00001357,-0.00000520,-0.00000396,-0.00003668,-0.000
 00941,0.00000393,0.00001046,-0.00009901,0.00000009,-0.00004554,-0.0002
 5482,0.00003248,0.00000051,0.00000705,0.00001179,0.00000183,0.00001357
 ,-0.00000171,-0.00000297,-0.00001286,0.00002478,-0.00001708,-0.0000050
 6,-0.00003846,0.00000984,0.00001039,-0.00000374,-0.00000118,-0.0000058
 2,-0.00000063,0.00000725,0.00000469,0.00000685,0.00000525,-0.00000388,
 -0.00000104,0.00001807,-0.00000166,-0.00000270,0.00004344,-0.00000990,
 -0.00000107,0.00001236,-0.00002274,-0.00000324,-0.00000297,0.00000066,
 -0.00000023,-0.00000932,0.00000715,0.00000390,-0.00001288,-0.00000439,
 0.00000211,-0.00001333,0.00000566,-0.00000658,-0.00000237,0.00000506,0
 .00000099,-0.00000334,0.00000745,0.00000601,-0.00000693,0.00000778,-0.
 00000299,-0.00074683,0.00021250,0.00012859,-0.00110301,-0.00004844,0.0
 0082005,0.00157134,0.00042970,-0.00076166,0.01216282,0.00266117,-0.015
 09190,-0.02715893,-0.05315777,0.03087995,-0.00085977,0.00071926,0.0001
 6827,0.00326520,-0.00194784,0.00062154,0.02651173,0.05424961,0.0000395
 8,-0.00002393,-0.00000546,-0.00008884,-0.00003876,0.00000917,0.0001466
 7,-0.00003908,-0.00001308,-0.00003880,0.00002480,0.00000589,-0.0000655
 0,0.00007152,0.00002244,0.00004717,0.00000789,-0.00002833,-0.00001279,
 -0.00002643,0.00004300,-0.00000431,0.00000498,-0.00001362,-0.00000858,
 0.00001230,0.00000162,0.00000871,-0.00000427,-0.00000236,-0.00001082,0
 .00000040,0.00000600,0.00000431,-0.00000336,-0.00000008,-0.00001485,0.
 00000173,0.00000576,0.00002050,0.00004127,-0.00000684,-0.00000361,-0.0
 0007012,-0.00001748,-0.00000663,0.00000438,0.00000530,-0.00000937,0.00
 001140,0.00000294,0.00000551,-0.00001196,0.00001362,0.00000416,-0.0000
 2207,-0.00004770,0.00000595,0.00001476,-0.00000522,-0.00002017,-0.0000
 0385,0.00000899,0.00000327,-0.00000014,0.00000605,0.00000414,-0.000001
 67,-0.00000174,0.00000302,0.00000039,-0.00000368,0.00000883,0.00000901
 ,-0.00000775,0.00000733,0.00001164,-0.00000506,-0.00000226,0.00000122,
 -0.00000164,-0.00000119,-0.00000183,0.00000032,-0.00000558,-0.00000643
 ,0.00000265,-0.00000132,-0.00000209,0.00000255,-0.00000571,-0.00000525
 ,0.00000225,-0.00000112,-0.00000260,0.00000193,-0.00000043,-0.00000289
 ,0.00000096,-0.00051391,-0.00040411,-0.00017814,-0.00126400,0.00097923
 ,0.00019736,0.00185886,0.00101804,0.00029479,-0.00456651,-0.00167770,0
 .00519627,0.13220322,0.02909352,-0.20006326,0.00039886,-0.00061167,0.0
 0073900,-0.00130990,0.00097097,0.00120993,-0.14368150,-0.03467510,0.21
 337367,0.00011649,-0.00001749,-0.00000631,0.00005941,0.00034081,0.0000
 2505,-0.00020396,-0.00000495,0.00000285,0.00006406,0.00005201,0.000000
 57,0.00005645,-0.00002784,-0.00000504,-0.00004809,-0.00001475,0.000006
 80,0.00001179,0.00002157,-0.00001295,0.00000624,-0.00000880,0.00000172
 ,-0.00002285,0.00002035,0.00000146,0.00000513,0.00001135,-0.00000029,-
 0.00002481,0.00001510,0.00000426,0.00002102,0.00000263,-0.00000018,-0.
 00004220,-0.00003839,-0.00000051,-0.00009049,-0.00050400,-0.00003401,-
 0.00001006,-0.00000133,-0.00000762,0.00001074,0.00000257,-0.00000064,0
 .00000860,-0.00000371,0.00000081,-0.00000289,0.00000587,-0.00000732,-0
 .00000272,0.00000870,0.00001736,-0.00000422,-0.00000648,0.00000341,0.0
 0000946,0.00000283,-0.00000236,-0.00000121,0.00000073,-0.00000294,-0.0
 0000027,-0.00000123,-0.00000047,0.00004167,-0.00000712,-0.00000531,0.0
 0004402,-0.00000834,-0.00000284,0.00000303,-0.00003209,-0.00000431,-0.
 00000212,0.00000032,-0.00000031,-0.00001039,0.00000838,0.00000497,-0.0
 0001373,-0.00000455,0.00000246,-0.00001378,0.00000548,-0.00000677,0.00
 000218,0.00000912,-0.00000020,-0.00000201,0.00001051,0.00000792,-0.000
 00570,0.00000993,-0.00000263,-0.00037455,0.00340065,-0.00027994,0.0021
 1873,-0.00056513,0.00025231,-0.00684867,-0.00172544,-0.00084507,0.0077
 7300,0.03054655,-0.00108669,-0.06171228,-0.05832535,0.00298844,0.00112
 537,-0.00096413,-0.00014748,0.00108555,-0.00084513,0.00056125,-0.00473
 913,-0.02025003,-0.00159077,0.06579826,-0.00033507,0.00009975,0.000018
 08,0.00013112,-0.00048068,-0.00002780,-0.00002521,0.00025303,0.0000116
 5,-0.00003007,-0.00026675,-0.00000812,-0.00001493,-0.00031394,0.000014
 26,0.00010253,0.00002614,0.00001784,-0.00001070,0.00002309,-0.00002801
 ,0.00001127,-0.00001006,0.00000868,0.00005958,-0.00007815,-0.00000790,
 -0.00002605,-0.00003090,0.00000443,0.00009421,-0.00004852,-0.00001590,
 -0.00005915,0.00001365,0.00000460,0.00011700,0.00007522,0.00000448,0.0
 0005105,0.00080183,0.00002992,0.00012063,0.00051777,-0.00004362,-0.000
 01731,-0.00001026,-0.00001757,-0.00001609,-0.00002438,0.00000565,0.000
 00624,0.00000692,-0.00001437,0.00003462,-0.00000038,0.00002886,-0.0000
 1130,-0.00001341,0.00000532,-0.00000827,0.00000804,0.00000149,-0.00000
 521,-0.00000387,-0.00000827,-0.00000876,0.00000899,0.00000135,-0.00008
 095,0.00002950,0.00000391,-0.00017314,0.00005651,0.00000496,-0.0000392
 2,0.00012657,0.00001348,0.00000258,0.00000304,0.00000020,0.00004040,-0
 .00003645,-0.00001977,0.00004915,0.00000872,-0.00000672,0.00005427,-0.
 00002602,0.00002834,-0.00000016,-0.00003258,-0.00000035,0.00001229,-0.
 00003975,-0.00002807,0.00002901,-0.00004040,0.00001280,0.00155325,-0.0
 0322264,0.00040667,0.00037941,-0.00111914,0.00019350,0.00197632,0.0027
 6511,0.00008491,-0.00597254,-0.01599944,0.00032340,-0.05771678,-0.2979
 8032,0.01098503,0.00004367,0.00050883,0.00054853,0.00016267,0.00040081
 ,-0.00059396,-0.00096426,-0.00339743,0.00036288,0.06211084,0.32474858,
 0.00003443,-0.00000759,-0.00000203,0.00000058,0.00007576,0.00000497,-0
 .00002341,-0.00002054,-0.00000244,0.00001002,0.00002694,-0.00000009,0.
 00000704,0.00001916,0.00002048,-0.00000771,-0.00000322,-0.00000452,0.0
 0000075,0.00000602,-0.00000763,-0.00000133,-0.00000024,0.00000339,-0.0
 0000656,0.00000735,0.00000173,0.00000111,0.00000351,0.00000028,-0.0000
 0816,0.00000601,-0.00000003,0.00000540,0.00000009,0.,-0.00001233,-0.00
 000983,-0.00000734,-0.00001538,-0.00012142,-0.00000731,-0.00000862,-0.
 00003515,-0.00002161,0.00000155,0.00000502,0.00000332,0.00000179,0.000
 00163,0.00000057,-0.00000146,-0.00000857,0.00001293,-0.00000315,-0.000
 00381,-0.00001401,0.00000067,0.00000103,0.00000006,-0.00000091,-0.0000
 0101,-0.00000107,0.00000311,0.00000315,0.00000174,0.00000023,-0.000000
 87,0.00000047,0.00001059,-0.00000403,0.00000396,0.00001694,-0.00000715
 ,0.00000643,0.00000265,-0.00001441,0.00000281,-0.00000018,-0.00000052,
 0.00000204,-0.00000364,0.00000316,0.00000027,-0.00000380,0.00000063,-0
 .00000125,-0.00000651,0.00000347,-0.00000613,0.00000128,0.00000425,-0.
 00000105,-0.00000087,0.00000384,0.00000098,-0.00000357,0.00000485,-0.0
 0000252,-0.00016474,0.00067015,-0.00001031,0.00019484,0.00003438,0.000
 58465,-0.00111390,-0.00037153,0.00058100,0.00159231,0.00493851,-0.0014
 5221,0.00293125,0.01090722,-0.05082992,0.00036529,0.00013693,-0.000040
 49,-0.00010977,-0.00042721,0.00011476,0.00384608,0.02482133,-0.0001019
 6,-0.00234732,-0.01262882,0.04792806,0.00003438,-0.00000366,-0.0000105
 9,-0.00001267,0.00008614,0.00002496,-0.00000715,-0.00002937,-0.0000163
 6,0.00000522,0.00003506,0.00000940,-0.00001045,0.00003047,0.00002689,0
 .00000775,-0.00000056,-0.00002065,-0.00000397,-0.00001794,0.00002605,-
 0.00000313,0.00000236,-0.00000636,-0.00000420,0.00001000,0.00000543,0.
 00000056,0.00000380,-0.00000077,-0.00001492,0.00000911,0.00000323,0.00
 000566,-0.00000108,0.00000347,-0.00001119,-0.00001616,0.00001123,-0.00
 000936,-0.00013820,-0.00002161,-0.00000509,-0.00004273,-0.00002178,0.0
 0000320,0.00000406,0.00000445,-0.00000335,0.00000632,0.00000181,-0.000
 00019,0.00000163,0.00000055,0.00000806,-0.00000383,-0.00001504,0.00000
 225,0.00000676,-0.00000338,-0.00000631,-0.00000189,0.00000560,0.000001
 91,-0.00000178,0.00000218,0.00000092,-0.00000032,-0.00000347,0.0000092
 2,-0.00001220,-0.00001743,0.00002112,-0.00001074,-0.00001969,0.0000070
 0,-0.00002013,-0.00001901,0.00000113,-0.00000243,-0.00000427,-0.000006
 29,0.00000898,0.00000938,-0.00000588,-0.00000006,0.00000501,-0.0000047
 9,0.00000269,0.00000403,-0.00000068,0.00000499,0.00000336,-0.00000227,
 0.00000836,0.00001313,-0.00000211,0.00000520,0.00000273,0.00036901,0.0
 0039479,0.00033170,0.00104696,0.00031299,0.00062180,-0.00085672,-0.001
 57484,-0.00024484,-0.01340102,-0.00737059,-0.02529746,-0.10120467,-0.0
 3223515,-0.10328379,-0.00415872,0.00377545,-0.00027000,0.00072184,-0.0
 0092154,0.00040671,0.01044444,0.00661687,0.01845834,-0.00418507,-0.001
 62695,-0.00518460,0.11122960,0.00010528,-0.00004368,-0.00000556,-0.000
 09064,0.00006322,0.00000072,0.00012389,-0.00010574,-0.00000793,-0.0000
 1964,0.00009257,0.00000106,-0.00002316,0.00017568,-0.00001373,-0.00003
 170,-0.00000410,-0.00000495,0.00000269,-0.00002424,0.00002734,-0.00000
 702,0.00001168,-0.00000755,-0.00001982,0.00002680,0.00000349,0.0000121
 6,0.00000256,-0.00000076,-0.00002978,0.00001262,0.00000432,0.00001608,
 -0.00000609,-0.00000086,-0.00003612,-0.00001228,-0.00000579,0.00001039
 ,-0.00011034,0.00000121,-0.00004977,-0.00025218,0.00003427,0.00000252,
 0.00000022,0.00000616,0.00000411,0.00001323,-0.00000388,-0.00000115,-0
 .00000147,-0.00000034,-0.00002186,0.00000149,-0.00001445,0.00000836,0.
 00000710,-0.00000343,0.00000329,-0.00000408,-0.00000117,0.00000068,0.0
 0000041,0.00000387,0.00000480,-0.00000379,0.00000027,0.00001821,-0.000
 00411,0.00000417,0.00004974,-0.00001365,-0.00000253,0.00001449,-0.0000
 3054,-0.00000346,-0.00000199,-0.00000012,0.00000054,-0.00001119,0.0000
 0944,0.00000535,-0.00001444,-0.00000374,0.00000225,-0.00001526,0.00000
 682,-0.00000723,-0.00000174,0.00000736,0.00000049,-0.00000382,0.000009
 80,0.00000717,-0.00000847,0.00001022,-0.00000358,-0.00061575,0.0002559
 0,-0.00033579,-0.00035243,-0.00023836,-0.00050660,0.00107840,0.0003767
 2,0.00107041,0.00818881,0.00522084,0.01724909,-0.03316298,-0.06636212,
 -0.06316481,0.00331370,-0.00198291,0.00072084,-0.00083499,0.00074584,-
 0.00038904,0.00292000,0.00043807,0.00499298,-0.01323000,-0.00730661,-0
 .02801847,0.03270615,0.06902155,-0.00003282,0.00002469,-0.00000130,0.0
 0008522,0.00005970,0.00001796,-0.00014728,0.00003391,-0.00000777,0.000
 03949,-0.00001779,0.00000501,0.00005358,-0.00007900,0.00002781,-0.0000
 3142,-0.00001071,0.00000792,0.00000711,0.00003595,-0.00006078,0.000003
 19,-0.00000937,0.00001519,0.00001011,-0.00000973,0.00000366,-0.0000103
 6,0.00000311,0.00000067,0.00000299,0.00000350,-0.00000369,-0.00000318,
 0.00000273,0.00000128,0.00001314,-0.00000697,0.00000570,-0.00002437,-0
 .00007618,-0.00002301,0.00001416,0.00008564,-0.00003903,0.00000575,0.0
 0000891,0.00000397,0.00000621,-0.00001177,-0.00000019,-0.00000236,-0.0
 0000609,0.00001484,-0.00000221,0.00000805,0.00001423,-0.00000562,-0.00
 001405,0.00000606,0.00000794,0.00000381,-0.00001145,0.00000343,0.00000
 936,0.00000202,-0.00000384,0.00000169,-0.00000232,-0.00000227,-0.00000
 462,-0.00000748,-0.00000371,-0.00001046,-0.00001198,-0.00000160,-0.000
 01615,-0.00001336,0.00000274,-0.00000237,-0.00000124,-0.00000084,0.000
 00590,0.00000639,0.00000339,0.00000560,0.00000174,0.00000197,0.0000011
 4,0.00000524,0.00000356,0.00000562,0.00000183,-0.00000007,0.00000639,0
 .00000841,0.00000121,0.00000319,0.00000365,0.00074154,0.00050019,0.000
 04224,0.00182186,-0.00040485,0.00100620,-0.00236602,-0.00153975,-0.000
 29184,-0.00136503,-0.00012105,-0.00305187,-0.10385972,-0.06109204,-0.2
 4694248,-0.00058813,0.00048673,0.00150651,-0.00026550,0.00038015,0.000
 70836,-0.01111060,-0.00693290,-0.02064902,0.00251865,0.00032400,0.0032
 3900,0.11447969,0.06836588,0.26446288\\0.00000092,0.00000001,0.,-0.000
 00025,0.00000033,-0.00000016,-0.00000039,0.00000038,-0.00000044,-0.000
 00080,-0.00000016,0.,-0.00000076,-0.00000050,-0.00000001,0.00000007,0.
 00000068,-0.00000155,-0.00000005,0.00000053,-0.00000048,-0.00000013,0.
 00000096,-0.00000121,-0.00000065,0.00000012,0.00000041,-0.00000029,-0.
 00000081,0.00000070,-0.00000043,-0.00000041,0.00000058,0.,-0.00000071,
 0.00000056,-0.00000008,-0.00000044,0.00000054,0.,-0.00000034,0.0000002
 7,0.00000030,0.00000124,0.,-0.00000009,0.00000051,-0.00000073,-0.00000
 051,0.00000058,-0.00000057,0.00000009,0.00000091,-0.00000069,0.0000002
 1,0.00000054,-0.00000088,-0.00000033,0.00000088,-0.00000118,-0.0000000
 4,0.00000109,-0.00000126,0.00000005,0.00000087,-0.00000133,-0.00000017
 ,-0.00000030,0.00000020,0.00000019,-0.00000042,0.00000054,0.00000005,-
 0.00000072,0.00000186,-0.00000062,-0.00000025,0.00000079,0.00000010,-0
 .00000072,0.00000094,-0.00000064,-0.00000134,0.00000102,-0.00000022,-0
 .00000071,0.00000126,-0.00000088,-0.00000111,0.00000114,-0.00000099,-0
 .00000036,0.00000060,-0.00000046,-0.00000050,0.00000039,-0.00000036,-0
 .00000074,0.00000078,-0.00000152,0.00000220,-0.00000040,0.00000136,0.0
 0000214,-0.00000079,0.00000172,-0.00000472,0.00000126,-0.00000059,0.00
 000130,-0.00000128,0.00000180,-0.00000017,0.00000046,0.00000097,-0.000
 00071,0.00000004,0.00000167,0.00000006,0.00000027,0.,0.00000035,-0.000
 00122,0.00000121,0.00000021,-0.00000049,0.00000054,0.00000025,0.000000
 09\\\@


 COMMON SENSE IS NOT SO COMMON.   -- VOLTAIRE
 Job cpu time:       0 days 15 hours 23 minutes 40.6 seconds.
 File lengths (MBytes):  RWF=   1719 Int=      0 D2E=      0 Chk=     39 Scr=      1
 Normal termination of Gaussian 09 at Fri Nov 15 00:04:49 2019.
pbs_rusage has been removed.
Please contact help@nci.org.au if you require this functionality.
