 Entering Gaussian System, Link 0=/apps/gaussian/g09e01/g09/g09
 Initial command:
 /apps/gaussian/g09e01/g09/l1.exe "/jobfs/local/3595130.r-man2/Gau-34258.inp" -scrdir="/jobfs/local/3595130.r-man2/"
 Entering Link 1 = /apps/gaussian/g09e01/g09/l1.exe PID=     34259.
  
 Copyright (c) 1988,1990,1992,1993,1995,1998,2003,2009,2015,
            Gaussian, Inc.  All Rights Reserved.
  
 This is part of the Gaussian(R) 09 program.  It is based on
 the Gaussian(R) 03 system (copyright 2003, Gaussian, Inc.),
 the Gaussian(R) 98 system (copyright 1998, Gaussian, Inc.),
 the Gaussian(R) 94 system (copyright 1995, Gaussian, Inc.),
 the Gaussian 92(TM) system (copyright 1992, Gaussian, Inc.),
 the Gaussian 90(TM) system (copyright 1990, Gaussian, Inc.),
 the Gaussian 88(TM) system (copyright 1988, Gaussian, Inc.),
 the Gaussian 86(TM) system (copyright 1986, Carnegie Mellon
 University), and the Gaussian 82(TM) system (copyright 1983,
 Carnegie Mellon University). Gaussian is a federally registered
 trademark of Gaussian, Inc.
  
 This software contains proprietary and confidential information,
 including trade secrets, belonging to Gaussian, Inc.
  
 This software is provided under written license and may be
 used, copied, transmitted, or stored only in accord with that
 written license.
  
 The following legend is applicable only to US Government
 contracts under FAR:
  
                    RESTRICTED RIGHTS LEGEND
  
 Use, reproduction and disclosure by the US Government is
 subject to restrictions as set forth in subparagraphs (a)
 and (c) of the Commercial Computer Software - Restricted
 Rights clause in FAR 52.227-19.
  
 Gaussian, Inc.
 340 Quinnipiac St., Bldg. 40, Wallingford CT 06492
  
  
 ---------------------------------------------------------------
 Warning -- This program may not be used in any manner that
 competes with the business of Gaussian, Inc. or will provide
 assistance to any competitor of Gaussian, Inc.  The licensee
 of this program is prohibited from giving any competitor of
 Gaussian, Inc. access to this program.  By using this program,
 the user acknowledges that Gaussian, Inc. is engaged in the
 business of creating and licensing software in the field of
 computational chemistry and represents and warrants to the
 licensee that it is not a competitor of Gaussian, Inc. and that
 it will not use this program in any manner prohibited above.
 ---------------------------------------------------------------
  

 Cite this work as:
 Gaussian 09, Revision E.01,
 M. J. Frisch, G. W. Trucks, H. B. Schlegel, G. E. Scuseria, 
 M. A. Robb, J. R. Cheeseman, G. Scalmani, V. Barone, B. Mennucci, 
 G. A. Petersson, H. Nakatsuji, M. Caricato, X. Li, H. P. Hratchian, 
 A. F. Izmaylov, J. Bloino, G. Zheng, J. L. Sonnenberg, M. Hada, 
 M. Ehara, K. Toyota, R. Fukuda, J. Hasegawa, M. Ishida, T. Nakajima, 
 Y. Honda, O. Kitao, H. Nakai, T. Vreven, J. A. Montgomery, Jr., 
 J. E. Peralta, F. Ogliaro, M. Bearpark, J. J. Heyd, E. Brothers, 
 K. N. Kudin, V. N. Staroverov, T. Keith, R. Kobayashi, J. Normand, 
 K. Raghavachari, A. Rendell, J. C. Burant, S. S. Iyengar, J. Tomasi, 
 M. Cossi, N. Rega, J. M. Millam, M. Klene, J. E. Knox, J. B. Cross, 
 V. Bakken, C. Adamo, J. Jaramillo, R. Gomperts, R. E. Stratmann, 
 O. Yazyev, A. J. Austin, R. Cammi, C. Pomelli, J. W. Ochterski, 
 R. L. Martin, K. Morokuma, V. G. Zakrzewski, G. A. Voth, 
 P. Salvador, J. J. Dannenberg, S. Dapprich, A. D. Daniels, 
 O. Farkas, J. B. Foresman, J. V. Ortiz, J. Cioslowski, 
 and D. J. Fox, Gaussian, Inc., Wallingford CT, 2013.
 
 ******************************************
 Gaussian 09:  ES64L-G09RevE.01 30-Nov-2015
                14-Nov-2019 
 ******************************************
 %chk=NM2_c2_carboxy.M062X_6-311pGd_opt_GD3.chk
 %mem=196608000
 %nproc=8
 Will use up to    8 processors via shared memory.
 ----------------------------------------------------------------------
 # M062X/6-311+G* SCF=Tight INT(grid=ultrafine) OPT IOP(2/17=4) Empiric
 alDispersion=GD3 maxdisk=3221225472
 ----------------------------------------------------------------------
 1/14=-1,18=20,19=15,26=4,38=1/1,3;
 2/9=110,12=2,17=4,18=5,40=1/2;
 3/5=4,6=6,7=11,11=2,16=1,25=1,30=1,71=1,74=-55,75=-5,124=31/1,2,3;
 4//1;
 5/5=2,32=2,38=5/2;
 6/7=2,8=2,9=2,10=2,28=1/1;
 7//1,2,3,16;
 1/14=-1,18=20,19=15,26=4/3(2);
 2/9=110,17=4/2;
 99//99;
 2/9=110,17=4/2;
 3/5=4,6=6,7=11,11=2,16=1,25=1,30=1,71=1,74=-55,75=-5,124=31/1,2,3;
 4/5=5,16=3,69=1/1;
 5/5=2,32=2,38=5/2;
 7//1,2,3,16;
 1/14=-1,18=20,19=15,26=4/3(-5);
 2/9=110,17=4/2;
 6/7=2,8=2,9=2,10=2,19=2,28=1/1;
 99/9=1/99;
 -------------------------------------
 NM2_c2_carboxy.M062X_6-311pGd_opt_GD3
 -------------------------------------
 Symbolic Z-matrix:
 Charge = -1 Multiplicity = 1
 C                    -5.77987   1.30759   0.23552 
 N                    -4.58234   0.64375   0.17825 
 C                    -3.31263   1.21003   0.09351 
 O                    -3.10208   2.41778   0.05753 
 N                    -2.33381   0.2795    0.05906 
 C                    -0.95173   0.68106  -0.0745 
 C                    -0.04573  -0.53439   0.07448 
 C                     1.42447  -0.16308  -0.08923 
 C                    -6.9425    0.50505   0.2953 
 C                    -8.2013    1.06777   0.36033 
 C                    -8.35738   2.46747   0.37789 
 C                    -7.20938   3.24957   0.30882 
 C                    -5.93738   2.70151   0.23918 
 H                    -4.64712  -0.39612   0.19279 
 H                    -2.55399  -0.72848   0.0363 
 H                    -0.71367   1.43398   0.68488 
 H                    -0.784     1.16139  -1.04791 
 H                    -0.33566  -1.29219  -0.65897 
 H                    -0.21956  -0.98834   1.05453 
 H                     1.6155    0.2647   -1.07767 
 H                     2.07203  -1.0353    0.02519 
 H                     1.73044   0.57874   0.65436 
 H                    -6.81881  -0.57325   0.2839 
 H                    -5.06523   3.33483   0.19037 
 C                    -9.68462   3.16272   0.41893 
 C                    -9.37298   0.12195   0.45309 
 H                    -7.3082    4.32811   0.31612 
 F                    -10.54531   2.61524   1.2925 
 F                    -10.31103   3.18232  -0.77481 
 F                    -9.55583   4.45551   0.7809 
 F                    -9.05147  -1.1196    0.06991 
 F                    -10.40338   0.50407  -0.3207 
 F                    -9.84588   0.01976   1.7083 
 O                    -4.97635  -2.06843   0.21368 
 O                    -2.79452  -2.50169  -0.01834 
 C                    -3.99215  -2.84375   0.09423 
 C                    -4.32084  -4.34315   0.08857 
 C                    -3.10533  -5.25009  -0.04174 
 H                    -5.03063  -4.51166  -0.72731 
 H                    -4.87635  -4.55306   1.00777 
 H                    -2.56264  -5.03879  -0.96458 
 H                    -3.39392  -6.30568  -0.04174 
 H                    -2.40735  -5.08148   0.78006 
 
 Add virtual bond connecting atoms O34        and H14        Dist= 3.22D+00.
 Add virtual bond connecting atoms O35        and H15        Dist= 3.38D+00.

 GradGradGradGradGradGradGradGradGradGradGradGradGradGradGradGradGradGrad
 Berny optimization.
 Initialization pass.
                           ----------------------------
                           !    Initial Parameters    !
                           ! (Angstroms and Degrees)  !
 --------------------------                            --------------------------
 ! Name  Definition              Value          Derivative Info.                !
 --------------------------------------------------------------------------------
 ! R1    R(1,2)                  1.3704         estimate D2E/DX2                !
 ! R2    R(1,9)                  1.414          estimate D2E/DX2                !
 ! R3    R(1,13)                 1.4028         estimate D2E/DX2                !
 ! R4    R(2,3)                  1.3928         estimate D2E/DX2                !
 ! R5    R(2,14)                 1.042          estimate D2E/DX2                !
 ! R6    R(3,4)                  1.2265         estimate D2E/DX2                !
 ! R7    R(3,5)                  1.351          estimate D2E/DX2                !
 ! R8    R(5,6)                  1.4454         estimate D2E/DX2                !
 ! R9    R(5,15)                 1.032          estimate D2E/DX2                !
 ! R10   R(6,7)                  1.5233         estimate D2E/DX2                !
 ! R11   R(6,16)                 1.0955         estimate D2E/DX2                !
 ! R12   R(6,17)                 1.0984         estimate D2E/DX2                !
 ! R13   R(7,8)                  1.5252         estimate D2E/DX2                !
 ! R14   R(7,18)                 1.0937         estimate D2E/DX2                !
 ! R15   R(7,19)                 1.094          estimate D2E/DX2                !
 ! R16   R(8,20)                 1.0938         estimate D2E/DX2                !
 ! R17   R(8,21)                 1.0923         estimate D2E/DX2                !
 ! R18   R(8,22)                 1.094          estimate D2E/DX2                !
 ! R19   R(9,10)                 1.3804         estimate D2E/DX2                !
 ! R20   R(9,23)                 1.0854         estimate D2E/DX2                !
 ! R21   R(10,11)                1.4085         estimate D2E/DX2                !
 ! R22   R(10,26)                1.5086         estimate D2E/DX2                !
 ! R23   R(11,12)                1.3908         estimate D2E/DX2                !
 ! R24   R(11,25)                1.4989         estimate D2E/DX2                !
 ! R25   R(12,13)                1.3868         estimate D2E/DX2                !
 ! R26   R(12,27)                1.0831         estimate D2E/DX2                !
 ! R27   R(13,24)                1.0789         estimate D2E/DX2                !
 ! R28   R(14,34)                1.7045         estimate D2E/DX2                !
 ! R29   R(15,35)                1.7903         estimate D2E/DX2                !
 ! R30   R(25,28)                1.343          estimate D2E/DX2                !
 ! R31   R(25,29)                1.3483         estimate D2E/DX2                !
 ! R32   R(25,30)                1.3487         estimate D2E/DX2                !
 ! R33   R(26,31)                1.3385         estimate D2E/DX2                !
 ! R34   R(26,32)                1.3441         estimate D2E/DX2                !
 ! R35   R(26,33)                1.3452         estimate D2E/DX2                !
 ! R36   R(34,36)                1.2586         estimate D2E/DX2                !
 ! R37   R(35,36)                1.2506         estimate D2E/DX2                !
 ! R38   R(36,37)                1.535          estimate D2E/DX2                !
 ! R39   R(37,38)                1.5222         estimate D2E/DX2                !
 ! R40   R(37,39)                1.0945         estimate D2E/DX2                !
 ! R41   R(37,40)                1.0943         estimate D2E/DX2                !
 ! R42   R(38,41)                1.0912         estimate D2E/DX2                !
 ! R43   R(38,42)                1.0943         estimate D2E/DX2                !
 ! R44   R(38,43)                1.0913         estimate D2E/DX2                !
 ! A1    A(2,1,9)              116.445          estimate D2E/DX2                !
 ! A2    A(2,1,13)             125.4202         estimate D2E/DX2                !
 ! A3    A(9,1,13)             118.1348         estimate D2E/DX2                !
 ! A4    A(1,2,3)              127.0267         estimate D2E/DX2                !
 ! A5    A(1,2,14)             115.3729         estimate D2E/DX2                !
 ! A6    A(3,2,14)             117.5984         estimate D2E/DX2                !
 ! A7    A(2,3,4)              123.9617         estimate D2E/DX2                !
 ! A8    A(2,3,5)              112.4566         estimate D2E/DX2                !
 ! A9    A(4,3,5)              123.5815         estimate D2E/DX2                !
 ! A10   A(3,5,6)              120.2502         estimate D2E/DX2                !
 ! A11   A(3,5,15)             121.2474         estimate D2E/DX2                !
 ! A12   A(6,5,15)             118.2495         estimate D2E/DX2                !
 ! A13   A(5,6,7)              109.7552         estimate D2E/DX2                !
 ! A14   A(5,6,16)             109.5519         estimate D2E/DX2                !
 ! A15   A(5,6,17)             110.4508         estimate D2E/DX2                !
 ! A16   A(7,6,16)             110.5697         estimate D2E/DX2                !
 ! A17   A(7,6,17)             110.1692         estimate D2E/DX2                !
 ! A18   A(16,6,17)            106.2937         estimate D2E/DX2                !
 ! A19   A(6,7,8)              111.628          estimate D2E/DX2                !
 ! A20   A(6,7,18)             109.2435         estimate D2E/DX2                !
 ! A21   A(6,7,19)             108.9169         estimate D2E/DX2                !
 ! A22   A(8,7,18)             110.6238         estimate D2E/DX2                !
 ! A23   A(8,7,19)             110.5094         estimate D2E/DX2                !
 ! A24   A(18,7,19)            105.7322         estimate D2E/DX2                !
 ! A25   A(7,8,20)             111.1343         estimate D2E/DX2                !
 ! A26   A(7,8,21)             111.4578         estimate D2E/DX2                !
 ! A27   A(7,8,22)             111.206          estimate D2E/DX2                !
 ! A28   A(20,8,21)            107.6621         estimate D2E/DX2                !
 ! A29   A(20,8,22)            107.4675         estimate D2E/DX2                !
 ! A30   A(21,8,22)            107.7243         estimate D2E/DX2                !
 ! A31   A(1,9,10)             121.3611         estimate D2E/DX2                !
 ! A32   A(1,9,23)             118.0154         estimate D2E/DX2                !
 ! A33   A(10,9,23)            120.6229         estimate D2E/DX2                !
 ! A34   A(9,10,11)            120.4481         estimate D2E/DX2                !
 ! A35   A(9,10,26)            117.1009         estimate D2E/DX2                !
 ! A36   A(11,10,26)           122.4247         estimate D2E/DX2                !
 ! A37   A(10,11,12)           117.8229         estimate D2E/DX2                !
 ! A38   A(10,11,25)           124.016          estimate D2E/DX2                !
 ! A39   A(12,11,25)           118.1264         estimate D2E/DX2                !
 ! A40   A(11,12,13)           122.5035         estimate D2E/DX2                !
 ! A41   A(11,12,27)           118.9684         estimate D2E/DX2                !
 ! A42   A(13,12,27)           118.5268         estimate D2E/DX2                !
 ! A43   A(1,13,12)            119.7236         estimate D2E/DX2                !
 ! A44   A(1,13,24)            119.4974         estimate D2E/DX2                !
 ! A45   A(12,13,24)           120.7787         estimate D2E/DX2                !
 ! A46   A(11,25,28)           113.3413         estimate D2E/DX2                !
 ! A47   A(11,25,29)           113.1979         estimate D2E/DX2                !
 ! A48   A(11,25,30)           111.5569         estimate D2E/DX2                !
 ! A49   A(28,25,29)           106.5036         estimate D2E/DX2                !
 ! A50   A(28,25,30)           106.1046         estimate D2E/DX2                !
 ! A51   A(29,25,30)           105.549          estimate D2E/DX2                !
 ! A52   A(10,26,31)           112.1707         estimate D2E/DX2                !
 ! A53   A(10,26,32)           112.4433         estimate D2E/DX2                !
 ! A54   A(10,26,33)           112.211          estimate D2E/DX2                !
 ! A55   A(31,26,32)           106.4418         estimate D2E/DX2                !
 ! A56   A(31,26,33)           106.3249         estimate D2E/DX2                !
 ! A57   A(32,26,33)           106.8148         estimate D2E/DX2                !
 ! A58   A(14,34,36)           116.8835         estimate D2E/DX2                !
 ! A59   A(15,35,36)           113.3797         estimate D2E/DX2                !
 ! A60   A(34,36,35)           126.0801         estimate D2E/DX2                !
 ! A61   A(34,36,37)           115.7623         estimate D2E/DX2                !
 ! A62   A(35,36,37)           118.1576         estimate D2E/DX2                !
 ! A63   A(36,37,38)           114.288          estimate D2E/DX2                !
 ! A64   A(36,37,39)           106.9786         estimate D2E/DX2                !
 ! A65   A(36,37,40)           107.0351         estimate D2E/DX2                !
 ! A66   A(38,37,39)           111.2429         estimate D2E/DX2                !
 ! A67   A(38,37,40)           111.283          estimate D2E/DX2                !
 ! A68   A(39,37,40)           105.5106         estimate D2E/DX2                !
 ! A69   A(37,38,41)           110.7414         estimate D2E/DX2                !
 ! A70   A(37,38,42)           111.3549         estimate D2E/DX2                !
 ! A71   A(37,38,43)           110.7446         estimate D2E/DX2                !
 ! A72   A(41,38,42)           108.5383         estimate D2E/DX2                !
 ! A73   A(41,38,43)           106.789          estimate D2E/DX2                !
 ! A74   A(42,38,43)           108.5236         estimate D2E/DX2                !
 ! A75   L(2,14,34,7,-1)       187.567          estimate D2E/DX2                !
 ! A76   L(5,15,35,7,-1)       175.4091         estimate D2E/DX2                !
 ! A77   L(2,14,34,7,-2)       180.2852         estimate D2E/DX2                !
 ! A78   L(5,15,35,7,-2)       180.5436         estimate D2E/DX2                !
 ! D1    D(9,1,2,3)            178.9526         estimate D2E/DX2                !
 ! D2    D(9,1,2,14)            -0.5072         estimate D2E/DX2                !
 ! D3    D(13,1,2,3)            -1.0422         estimate D2E/DX2                !
 ! D4    D(13,1,2,14)          179.4979         estimate D2E/DX2                !
 ! D5    D(2,1,9,10)           179.7845         estimate D2E/DX2                !
 ! D6    D(2,1,9,23)            -0.5011         estimate D2E/DX2                !
 ! D7    D(13,1,9,10)           -0.2202         estimate D2E/DX2                !
 ! D8    D(13,1,9,23)          179.4942         estimate D2E/DX2                !
 ! D9    D(2,1,13,12)         -179.604          estimate D2E/DX2                !
 ! D10   D(2,1,13,24)            0.2311         estimate D2E/DX2                !
 ! D11   D(9,1,13,12)            0.4012         estimate D2E/DX2                !
 ! D12   D(9,1,13,24)         -179.7637         estimate D2E/DX2                !
 ! D13   D(1,2,3,4)             -0.0487         estimate D2E/DX2                !
 ! D14   D(1,2,3,5)            179.7695         estimate D2E/DX2                !
 ! D15   D(14,2,3,4)           179.4006         estimate D2E/DX2                !
 ! D16   D(14,2,3,5)            -0.7812         estimate D2E/DX2                !
 ! D17   D(1,2,34,36)          176.1398         estimate D2E/DX2                !
 ! D18   D(3,2,34,36)           -3.0426         estimate D2E/DX2                !
 ! D19   D(2,3,5,6)            177.8849         estimate D2E/DX2                !
 ! D20   D(2,3,5,15)             3.7625         estimate D2E/DX2                !
 ! D21   D(4,3,5,6)             -2.2962         estimate D2E/DX2                !
 ! D22   D(4,3,5,15)          -176.4186         estimate D2E/DX2                !
 ! D23   D(3,5,6,7)            173.4882         estimate D2E/DX2                !
 ! D24   D(3,5,6,16)            51.9072         estimate D2E/DX2                !
 ! D25   D(3,5,6,17)           -64.8487         estimate D2E/DX2                !
 ! D26   D(15,5,6,7)           -12.2156         estimate D2E/DX2                !
 ! D27   D(15,5,6,16)         -133.7967         estimate D2E/DX2                !
 ! D28   D(15,5,6,17)          109.4475         estimate D2E/DX2                !
 ! D29   D(3,5,35,36)           -5.7464         estimate D2E/DX2                !
 ! D30   D(6,5,35,36)         -179.8274         estimate D2E/DX2                !
 ! D31   D(5,6,7,8)            178.7813         estimate D2E/DX2                !
 ! D32   D(5,6,7,18)            56.1153         estimate D2E/DX2                !
 ! D33   D(5,6,7,19)           -58.9226         estimate D2E/DX2                !
 ! D34   D(16,6,7,8)           -60.2496         estimate D2E/DX2                !
 ! D35   D(16,6,7,18)          177.0845         estimate D2E/DX2                !
 ! D36   D(16,6,7,19)           62.0465         estimate D2E/DX2                !
 ! D37   D(17,6,7,8)            56.9497         estimate D2E/DX2                !
 ! D38   D(17,6,7,18)          -65.7163         estimate D2E/DX2                !
 ! D39   D(17,6,7,19)          179.2458         estimate D2E/DX2                !
 ! D40   D(6,7,8,20)           -60.3112         estimate D2E/DX2                !
 ! D41   D(6,7,8,21)           179.593          estimate D2E/DX2                !
 ! D42   D(6,7,8,22)            59.3695         estimate D2E/DX2                !
 ! D43   D(18,7,8,20)           61.562          estimate D2E/DX2                !
 ! D44   D(18,7,8,21)          -58.5338         estimate D2E/DX2                !
 ! D45   D(18,7,8,22)         -178.7573         estimate D2E/DX2                !
 ! D46   D(19,7,8,20)          178.3117         estimate D2E/DX2                !
 ! D47   D(19,7,8,21)           58.2159         estimate D2E/DX2                !
 ! D48   D(19,7,8,22)          -62.0076         estimate D2E/DX2                !
 ! D49   D(1,9,10,11)           -0.4341         estimate D2E/DX2                !
 ! D50   D(1,9,10,26)         -178.6133         estimate D2E/DX2                !
 ! D51   D(23,9,10,11)         179.8589         estimate D2E/DX2                !
 ! D52   D(23,9,10,26)           1.6797         estimate D2E/DX2                !
 ! D53   D(9,10,11,12)           0.885          estimate D2E/DX2                !
 ! D54   D(9,10,11,25)         178.6984         estimate D2E/DX2                !
 ! D55   D(26,10,11,12)        178.9647         estimate D2E/DX2                !
 ! D56   D(26,10,11,25)         -3.2219         estimate D2E/DX2                !
 ! D57   D(9,10,26,31)         -18.329          estimate D2E/DX2                !
 ! D58   D(9,10,26,32)        -138.2631         estimate D2E/DX2                !
 ! D59   D(9,10,26,33)         101.2907         estimate D2E/DX2                !
 ! D60   D(11,10,26,31)        163.5307         estimate D2E/DX2                !
 ! D61   D(11,10,26,32)         43.5965         estimate D2E/DX2                !
 ! D62   D(11,10,26,33)        -76.8496         estimate D2E/DX2                !
 ! D63   D(10,11,12,13)         -0.7127         estimate D2E/DX2                !
 ! D64   D(10,11,12,27)        179.7064         estimate D2E/DX2                !
 ! D65   D(25,11,12,13)       -178.6577         estimate D2E/DX2                !
 ! D66   D(25,11,12,27)          1.7615         estimate D2E/DX2                !
 ! D67   D(10,11,25,28)         43.9802         estimate D2E/DX2                !
 ! D68   D(10,11,25,29)        -77.4556         estimate D2E/DX2                !
 ! D69   D(10,11,25,30)        163.6707         estimate D2E/DX2                !
 ! D70   D(12,11,25,28)       -138.2125         estimate D2E/DX2                !
 ! D71   D(12,11,25,29)        100.3517         estimate D2E/DX2                !
 ! D72   D(12,11,25,30)        -18.522          estimate D2E/DX2                !
 ! D73   D(11,12,13,1)           0.0709         estimate D2E/DX2                !
 ! D74   D(11,12,13,24)       -179.7621         estimate D2E/DX2                !
 ! D75   D(27,12,13,1)         179.6535         estimate D2E/DX2                !
 ! D76   D(27,12,13,24)         -0.1795         estimate D2E/DX2                !
 ! D77   D(14,34,36,35)          1.1316         estimate D2E/DX2                !
 ! D78   D(14,34,36,37)       -178.8388         estimate D2E/DX2                !
 ! D79   D(15,35,36,34)          1.1714         estimate D2E/DX2                !
 ! D80   D(15,35,36,37)       -178.8588         estimate D2E/DX2                !
 ! D81   D(34,36,37,38)       -179.347          estimate D2E/DX2                !
 ! D82   D(34,36,37,39)         57.0522         estimate D2E/DX2                !
 ! D83   D(34,36,37,40)        -55.6526         estimate D2E/DX2                !
 ! D84   D(35,36,37,38)          0.6801         estimate D2E/DX2                !
 ! D85   D(35,36,37,39)       -122.9206         estimate D2E/DX2                !
 ! D86   D(35,36,37,40)        124.3745         estimate D2E/DX2                !
 ! D87   D(36,37,38,41)        -59.0657         estimate D2E/DX2                !
 ! D88   D(36,37,38,42)       -179.9362         estimate D2E/DX2                !
 ! D89   D(36,37,38,43)         59.2098         estimate D2E/DX2                !
 ! D90   D(39,37,38,41)         62.2095         estimate D2E/DX2                !
 ! D91   D(39,37,38,42)        -58.661          estimate D2E/DX2                !
 ! D92   D(39,37,38,43)       -179.515          estimate D2E/DX2                !
 ! D93   D(40,37,38,41)        179.554          estimate D2E/DX2                !
 ! D94   D(40,37,38,42)         58.6835         estimate D2E/DX2                !
 ! D95   D(40,37,38,43)        -62.1705         estimate D2E/DX2                !
 --------------------------------------------------------------------------------
 Trust Radius=3.00D-01 FncErr=1.00D-07 GrdErr=1.00D-06
 Number of steps in this run=    227 maximum allowed number of steps=    258.
 GradGradGradGradGradGradGradGradGradGradGradGradGradGradGradGradGradGrad

                          Input orientation:                          
 ---------------------------------------------------------------------
 Center     Atomic      Atomic             Coordinates (Angstroms)
 Number     Number       Type             X           Y           Z
 ---------------------------------------------------------------------
      1          6           0       -5.779866    1.307587    0.235519
      2          7           0       -4.582336    0.643748    0.178245
      3          6           0       -3.312634    1.210035    0.093506
      4          8           0       -3.102076    2.417782    0.057530
      5          7           0       -2.333812    0.279500    0.059059
      6          6           0       -0.951731    0.681059   -0.074496
      7          6           0       -0.045725   -0.534394    0.074480
      8          6           0        1.424467   -0.163082   -0.089232
      9          6           0       -6.942497    0.505050    0.295297
     10          6           0       -8.201295    1.067774    0.360329
     11          6           0       -8.357376    2.467468    0.377893
     12          6           0       -7.209377    3.249572    0.308817
     13          6           0       -5.937378    2.701514    0.239183
     14          1           0       -4.647122   -0.396121    0.192789
     15          1           0       -2.553989   -0.728478    0.036298
     16          1           0       -0.713673    1.433980    0.684877
     17          1           0       -0.783998    1.161394   -1.047908
     18          1           0       -0.335664   -1.292187   -0.658974
     19          1           0       -0.219564   -0.988336    1.054534
     20          1           0        1.615499    0.264704   -1.077668
     21          1           0        2.072033   -1.035299    0.025195
     22          1           0        1.730436    0.578742    0.654358
     23          1           0       -6.818815   -0.573251    0.283903
     24          1           0       -5.065234    3.334827    0.190371
     25          6           0       -9.684617    3.162722    0.418934
     26          6           0       -9.372978    0.121954    0.453086
     27          1           0       -7.308202    4.328112    0.316117
     28          9           0      -10.545314    2.615236    1.292495
     29          9           0      -10.311034    3.182316   -0.774807
     30          9           0       -9.555833    4.455506    0.780896
     31          9           0       -9.051470   -1.119600    0.069914
     32          9           0      -10.403378    0.504069   -0.320701
     33          9           0       -9.845882    0.019760    1.708297
     34          8           0       -4.976348   -2.068428    0.213676
     35          8           0       -2.794517   -2.501692   -0.018335
     36          6           0       -3.992148   -2.843753    0.094232
     37          6           0       -4.320839   -4.343150    0.088568
     38          6           0       -3.105326   -5.250092   -0.041741
     39          1           0       -5.030630   -4.511662   -0.727308
     40          1           0       -4.876349   -4.553059    1.007775
     41          1           0       -2.562638   -5.038785   -0.964575
     42          1           0       -3.393916   -6.305678   -0.041738
     43          1           0       -2.407354   -5.081484    0.780063
 ---------------------------------------------------------------------
                    Distance matrix (angstroms):
                    1          2          3          4          5
     1  C    0.000000
     2  N    1.370417   0.000000
     3  C    2.473241   1.392840   0.000000
     4  O    2.904268   2.313641   1.226492   0.000000
     5  N    3.600471   2.280952   1.350990   2.272109   0.000000
     6  C    4.878477   3.639583   2.425264   2.767241   1.445419
     7  C    6.024882   4.688243   3.703524   4.249342   2.428581
     8  C    7.360078   6.066646   4.935480   5.212675   3.787153
     9  C    1.413983   2.367128   3.703191   4.296965   4.620244
    10  C    2.436474   3.648262   4.898003   5.283583   5.927857
    11  C    2.830044   4.197230   5.206864   5.265290   6.416555
    12  C    2.412504   3.702527   4.403485   4.198207   5.714441
    13  C    1.402803   2.464600   3.022418   2.855248   4.345605
    14  H    2.046352   1.041987   2.090562   3.213022   2.413659
    15  H    3.819887   2.453028   2.082462   3.193712   1.031996
    16  H    5.087653   3.980916   2.674784   2.658176   2.085503
    17  H    5.160161   4.024771   2.774742   2.859019   2.098818
    18  H    6.099040   4.741625   3.961022   4.682978   2.641660
    19  H    6.071163   4.739765   3.914524   4.572148   2.658652
    20  H    7.583106   6.335152   5.152843   5.308477   4.109674
    21  H    8.196687   6.864638   5.834452   6.220628   4.597969
    22  H    7.557201   6.331035   5.113281   5.204944   4.118500
    23  H    2.149258   2.548350   3.938231   4.776157   4.570885
    24  H    2.149986   2.734089   2.756036   2.170855   4.100358
    25  C    4.326920   5.695299   6.672410   6.634410   7.904227
    26  C    3.789922   4.826806   6.167737   6.689656   7.051945
    27  H    3.386130   4.585182   5.073118   4.626849   6.418870
    28  F    5.053378   6.378512   7.464839   7.547577   8.625879
    29  F    5.006680   6.338029   7.322668   7.297012   8.529815
    30  F    4.946186   6.295106   7.069875   6.806362   8.373629
    31  F    4.077016   4.805652   6.193706   6.921598   6.861817
    32  F    4.725662   5.844056   7.137829   7.557405   8.081618
    33  F    4.512212   5.516823   6.834298   7.345370   7.695365
    34  O    3.470389   2.740876   3.678410   4.864500   3.538314
    35  O    4.846377   3.623360   3.749383   4.929663   2.820154
    36  C    4.522115   3.538085   4.110344   5.336414   3.536386
    37  C    5.837910   4.994555   5.643967   6.869974   5.031704
    38  C    7.087538   6.080075   6.464867   7.668517   5.584065
    39  H    5.945760   5.253499   6.030179   7.235502   5.553957
    40  H    5.979958   5.270803   6.041054   7.255593   5.542398
    41  H    7.215763   6.138111   6.381989   7.545600   5.420733
    42  H    7.983197   7.053741   7.517368   8.728904   6.670723
    43  H    7.245039   6.153943   6.393285   7.565955   5.409751
                    6          7          8          9         10
     6  C    0.000000
     7  C    1.523275   0.000000
     8  C    2.521727   1.525168   0.000000
     9  C    6.004748   6.978156   8.402401   0.000000
    10  C    7.272881   8.316368   9.714546   1.380385   0.000000
    11  C    7.631481   8.842329  10.140140   2.420701   1.408479
    12  C    6.775126   8.105012   9.292357   2.757501   2.397248
    13  C    5.388628   6.723824   7.906360   2.416168   2.794477
    14  H    3.858455   4.604994   6.082601   2.468068   3.847493
    15  H    2.136890   2.516051   4.020390   4.565925   5.934946
    16  H    1.095541   2.166387   2.778757   6.309749   7.503594
    17  H    1.098357   2.163446   2.747838   6.337357   7.550377
    18  H    2.148221   1.093742   2.167382   6.913098   8.275056
    19  H    2.144215   1.093979   2.166121   6.928526   8.271490
    20  H    2.787539   2.173860   1.093847   8.670760   9.954004
    21  H    3.478357   2.176748   1.092336   9.149173  10.491735
    22  H    2.781316   2.174875   1.094004   8.680675   9.948110
    23  H    6.010359   6.776438   8.261910   1.085431   2.147104
    24  H    4.902403   6.338752   7.377653   3.397465   3.873408
    25  C    9.092053  10.329354  11.607366   3.820698   2.567583
    26  C    8.456260   9.357979  10.814812   2.465542   1.508648
    27  H    7.338822   8.743336   9.828257   3.840570   3.380735
    28  F    9.881626  11.029284  12.365430   4.292736   2.959391
    29  F    9.713047  10.950425  12.222262   4.433951   3.195437
    30  F    9.434444  10.762913  11.943846   4.761454   3.672653
    31  F    8.298735   9.024740  10.520718   2.671714   2.364687
    32  F    9.456510  10.417080  11.848907   3.515275   2.372917
    33  F    9.095141   9.950855  11.414259   3.265229   2.370658
    34  O    4.882649   5.165625   6.685247   3.239628   4.500839
    35  O    3.678168   3.381528   4.824308   5.132699   6.489817
    36  C    4.657993   4.572503   6.046435   4.467601   5.752196
    37  C    6.051459   5.725681   7.107259   5.515511   6.664075
    38  C    6.310118   5.622497   6.811677   6.925253   8.126869
    39  H    6.635354   6.427348   7.809325   5.465195   6.508931
    40  H    6.630982   6.352608   7.757293   5.510086   6.562638
    41  H    6.008650   5.263461   6.358908   7.176667   8.416644
    42  H    7.401339   6.673200   7.807083   7.687134   8.811376
    43  H    6.004665   5.172153   6.295173   7.211925   8.459273
                   11         12         13         14         15
    11  C    0.000000
    12  C    1.390813   0.000000
    13  C    2.435243   1.386794   0.000000
    14  H    4.690458   4.457543   3.355928   0.000000
    15  H    6.634008   6.129583   4.822171   2.125125   0.000000
    16  H    7.719361   6.755144   5.393735   4.366170   2.912669
    17  H    7.816316   6.891058   5.530452   4.346137   2.807132
    18  H    8.919527   8.295308   6.937978   4.485210   2.392099
    19  H    8.867041   8.208133   6.853700   4.549351   2.560053
    20  H   10.316446   9.418610   8.044755   6.424264   4.428539
    21  H   11.007559  10.226687   8.840827   6.751569   4.636199
    22  H   10.266825   9.336648   7.967052   6.468126   4.521849
    23  H    3.409103   3.842803   3.391610   2.180809   4.274827
    24  H    3.409644   2.149104   1.078936   3.754304   4.779178
    25  C    1.498876   2.479210   3.779791   6.171941   8.132263
    26  C    2.557056   3.805782   4.301538   4.761289   6.884443
    27  H    2.136955   1.083083   2.128591   5.423554   6.946218
    28  F    2.376006   3.535319   4.727577   6.713143   8.753270
    29  F    2.378341   3.286190   4.515331   6.769147   8.724904
    30  F    2.356057   2.680111   4.057482   6.926731   8.743795
    31  F    3.666562   4.747636   4.932255   4.465065   6.509329
    32  F    2.920461   4.258606   5.008732   5.848804   7.953586
    33  F    3.158623   4.397884   4.962510   5.431098   7.518454
    34  O    5.659742   5.768587   4.865859   1.704535   2.773942
    35  O    7.469602   7.257759   6.084180   2.812499   1.790287
    36  C    6.880752   6.893853   5.878343   2.535667   2.558524
    37  C    7.922239   8.126598   7.229328   3.961864   4.023723
    38  C    9.344563   9.445126   8.445560   5.098350   4.555772
    39  H    7.810056   8.127561   7.333908   4.234541   4.585775
    40  H    7.861431   8.173898   7.371929   4.242273   4.578705
    41  H    9.577320   9.587001   8.529370   5.219090   4.424994
    42  H   10.088613  10.294825   9.363633   6.045526   5.640631
    43  H    9.620352   9.627460   8.563216   5.226287   4.418523
                   16         17         18         19         20
    16  H    0.000000
    17  H    1.755503   0.000000
    18  H    3.062811   2.524348   0.000000
    19  H    2.499681   3.059443   1.744109   0.000000
    20  H    3.146238   2.561742   2.531057   3.079586   0.000000
    21  H    3.780565   3.759511   2.516164   2.512600   1.764862
    22  H    2.589601   3.091856   3.081232   2.533451   1.764014
    23  H    6.439139   6.418857   6.590685   6.657048   8.584503
    24  H    4.774290   4.958440   6.670794   6.551111   7.460950
    25  C    9.139864   9.240019  10.412061  10.354830  11.761417
    26  C    8.761204   8.780888   9.214636   9.240101  11.095503
    27  H    7.211089   7.379289   9.008599   8.891495   9.903856
    28  F    9.920974  10.142703  11.104645  10.939080  12.610632
    29  F    9.863909   9.742850  10.933554  11.071523  12.281953
    30  F    9.344658   9.546769  10.959960  10.810931  12.075419
    31  F    8.741728   8.648905   8.747934   8.887591  10.817461
    32  F    9.786026   9.669198  10.232294  10.384057  12.045070
    33  F    9.297561   9.540322   9.887842   9.701014  11.797663
    34  O    5.537083   5.440510   4.785396   4.949812   7.110803
    35  O    4.507098   4.303535   2.814121   3.173591   5.312568
    36  C    5.421831   5.257177   4.042840   4.312441   6.517788
    37  C    6.836846   6.640846   5.074329   5.385938   7.604771
    38  C    7.136161   6.892611   4.870012   5.262319   7.332960
    39  H    7.482048   7.093676   5.693188   6.223756   8.191914
    40  H    7.299093   7.323123   5.833451   5.864732   8.348892
    41  H    6.930805   6.450793   4.369188   5.096365   6.752527
    42  H    8.222771   7.973782   5.904995   6.289073   8.326902
    43  H    6.732673   6.704498   4.552087   4.649260   6.943791
                   21         22         23         24         25
    21  H    0.000000
    22  H    1.765690   0.000000
    23  H    8.906604   8.634467   0.000000
    24  H    8.370536   7.347954   4.284492   0.000000
    25  C   12.489885  11.706230   4.710473   4.628235   0.000000
    26  C   11.511324  11.114629   2.652486   5.380356   3.056887
    27  H   10.809238   9.791281   4.925840   2.456284   2.648783
    28  F   13.195829  12.459879   5.007046   5.635935   1.343000
    29  F   13.106053  12.402344   5.236483   5.336033   1.348258
    30  F   12.881277  11.934203   5.746884   4.665846   1.348663
    31  F   11.123912  10.930483   2.308471   5.978839   4.342922
    32  F   12.574784  12.173158   3.791472   6.063841   2.851686
    33  F   12.082329  11.637629   3.397602   6.012351   3.400981
    34  O    7.126188   7.223757   2.373851   5.404037   7.040942
    35  O    5.082865   5.515142   4.472718   6.266154   8.930301
    36  C    6.328473   6.691426   3.630591   6.271810   8.281749
    37  C    7.198244   7.820683   4.526608   7.714650   9.231326
    38  C    6.676377   7.605554   5.980709   8.808857  10.689936
    39  H    7.943499   8.575152   4.441985   7.900046   9.048184
    40  H    7.849848   8.373165   4.487319   7.932375   9.110403
    41  H    6.203847   7.253140   6.294024   8.815570  10.949950
    42  H    7.593284   8.610387   6.685558   9.787059  11.376982
    43  H    6.083285   7.012508   6.327030   8.845697  11.002540
                   26         27         28         29         30
    26  C    0.000000
    27  H    4.687625   0.000000
    28  F    2.880180   3.790270   0.000000
    29  F    3.428336   3.394107   2.156434   0.000000
    30  F    4.349778   2.298716   2.151139   2.147453   0.000000
    31  F    1.338523   5.725135   4.204198   4.561418   5.642844
    32  F    1.344055   4.960742   2.660747   2.718041   4.188759
    33  F    1.345228   5.190364   2.720035   4.047707   4.540930
    34  O    4.917870   6.809094   7.356218   7.550251   7.990941
    35  O    7.098021   8.193378   9.379557   9.454006   9.734310
    36  C    6.154471   7.904498   8.612803   8.774796   9.203547
    37  C    6.752343   9.174252   9.413430   9.657147  10.261620
    38  C    8.269655  10.465860  10.908574  11.115985  11.682654
    39  H    6.459080   9.187910   9.234935   9.331786  10.156882
    40  H    6.510230   9.234040   9.143450   9.620261  10.153979
    41  H    8.661624  10.578248  11.287229  11.298680  11.920278
    42  H    8.792524  11.336983  11.511098  11.764605  12.427752
    43  H    8.700723  10.619513  11.212871  11.540197  11.918680
                   31         32         33         34         35
    31  F    0.000000
    32  F    2.148613   0.000000
    33  F    2.147914   2.159210   0.000000
    34  O    4.186593   6.029590   5.505160   0.000000
    35  O    6.408388   8.186623   7.685098   2.236500   0.000000
    36  C    5.345094   7.244581   6.713502   1.258588   1.250599
    37  C    5.724552   7.788474   7.223892   2.370592   2.394171
    38  C    7.240860   9.297836   8.733217   3.699858   2.766017
    39  H    5.320602   7.361340   7.046461   2.618738   3.089146
    40  H    5.486334   7.608380   6.789526   2.610360   3.097584
    41  H    7.650825   9.623670   9.261683   4.004659   2.717716
    42  H    7.675662   9.776658   9.203350   4.530299   3.850991
    43  H    7.768211   9.815624   9.067304   3.999878   2.728123
                   36         37         38         39         40
    36  C    0.000000
    37  C    1.535013   0.000000
    38  C    2.568153   1.522168   0.000000
    39  H    2.129623   1.094464   2.173033   0.000000
    40  H    2.130281   1.094346   2.173444   1.742420   0.000000
    41  H    2.825375   2.164322   1.091230   2.534786   3.078856
    42  H    3.515863   2.174323   1.094324   2.523357   2.524036
    43  H    2.826549   2.164423   1.091309   3.078707   2.535156
                   41         42         43
    41  H    0.000000
    42  H    1.774166   0.000000
    43  H    1.752056   1.774066   0.000000
 Stoichiometry    C15H17F6N2O3(1-)
 Framework group  C1[X(C15H17F6N2O3)]
 Deg. of freedom   123
 Full point group                 C1      NOp   1
 Largest Abelian subgroup         C1      NOp   1
 Largest concise Abelian subgroup C1      NOp   1
                         Standard orientation:                         
 ---------------------------------------------------------------------
 Center     Atomic      Atomic             Coordinates (Angstroms)
 Number     Number       Type             X           Y           Z
 ---------------------------------------------------------------------
      1          6           0        0.289666   -0.879975    0.001467
      2          7           0       -1.075588   -0.761432    0.009815
      3          6           0       -2.007513   -1.796290   -0.014448
      4          8           0       -1.709938   -2.985651   -0.048377
      5          7           0       -3.280660   -1.344863    0.007515
      6          6           0       -4.384523   -2.275642   -0.058613
      7          6           0       -5.698139   -1.531757    0.144887
      8          6           0       -6.896164   -2.471168    0.053331
      9          6           0        1.026569    0.326790    0.007935
     10          6           0        2.406950    0.325638    0.004952
     11          6           0        3.119694   -0.889191    0.004507
     12          6           0        2.387364   -2.071471   -0.011842
     13          6           0        1.000683   -2.089150   -0.012891
     14          1           0       -1.438879    0.214993    0.028530
     15          1           0       -3.491075   -0.334897   -0.019141
     16          1           0       -4.257895   -3.049520    0.706429
     17          1           0       -4.390052   -2.796338   -1.025687
     18          1           0       -5.778148   -0.731964   -0.596868
     19          1           0       -5.675974   -1.032594    1.118095
     20          1           0       -6.945068   -2.953549   -0.927188
     21          1           0       -7.836092   -1.936192    0.206742
     22          1           0       -6.836776   -3.262750    0.806136
     23          1           0        0.474452    1.261305    0.010587
     24          1           0        0.460434   -3.023040   -0.021933
     25          6           0        4.615246   -0.983906   -0.026862
     26          6           0        3.095437    1.667430    0.044927
     27          1           0        2.916705   -3.016372   -0.017324
     28          9           0        5.220620   -0.121450    0.805809
     29          9           0        5.135776   -0.763858   -1.250965
     30          9           0        5.041623   -2.212080    0.331863
     31          9           0        2.278126    2.665376   -0.312497
     32          9           0        4.152660    1.726548   -0.782882
     33          9           0        3.547075    1.970795    1.275224
     34          8           0       -1.817976    1.876758    0.044708
     35          8           0       -3.995856    1.381904   -0.073158
     36          6           0       -3.037065    2.183023   -0.019057
     37          6           0       -3.347605    3.686251   -0.030612
     38          6           0       -4.831775    4.018514   -0.092542
     39          1           0       -2.808941    4.117356   -0.880225
     40          1           0       -2.881004    4.116870    0.860704
     41          1           0       -5.286291    3.591782   -0.988142
     42          1           0       -4.998035    5.100112   -0.099594
     43          1           0       -5.359328    3.592212    0.762391
 ---------------------------------------------------------------------
 Rotational constants (GHZ):      0.3035581      0.0908199      0.0718339
 Standard basis: 6-311+G(d) (5D, 7F)
 There are   649 symmetry adapted cartesian basis functions of A   symmetry.
 There are   623 symmetry adapted basis functions of A   symmetry.
   623 basis functions,  1021 primitive gaussians,   649 cartesian basis functions
   100 alpha electrons      100 beta electrons
       nuclear repulsion energy      2485.6255944141 Hartrees.
 NAtoms=   43 NActive=   43 NUniq=   43 SFac= 1.00D+00 NAtFMM=   60 NAOKFM=F Big=F
 Integral buffers will be    131072 words long.
 Raffenetti 2 integral format.
 Two-electron integral symmetry is turned on.
 Nuclear repulsion after empirical dispersion term =     2485.6228832514 Hartrees.
 One-electron integrals computed using PRISM.
 NBasis=   623 RedAO= T EigKep=  1.12D-06  NBF=   623
 NBsUse=   620 1.00D-06 EigRej=  7.97D-07 NBFU=   620
 ExpMin= 4.38D-02 ExpMax= 1.14D+04 ExpMxC= 1.72D+03 IAcc=3 IRadAn=         5 AccDes= 0.00D+00
 Harris functional with IExCor= 1009 and IRadAn=       5 diagonalized for initial guess.
 HarFok:  IExCor= 1009 AccDes= 0.00D+00 IRadAn=         5 IDoV= 1 UseB2=F ITyADJ=14
 ICtDFT=  3500011 ScaDFX=  1.000000  1.000000  1.000000  1.000000
 FoFCou: FMM=F IPFlag=           0 FMFlag=      100000 FMFlg1=           0
         NFxFlg=           0 DoJE=T BraDBF=F KetDBF=T FulRan=T
         wScrn=  0.000000 ICntrl=     500 IOpCl=  0 I1Cent=   200000004 NGrid=           0
         NMat0=    1 NMatS0=      1 NMatT0=    0 NMatD0=    1 NMtDS0=    0 NMtDT0=    0
 Petite list used in FoFCou.
 Requested convergence on RMS density matrix=1.00D-08 within 128 cycles.
 Requested convergence on MAX density matrix=1.00D-06.
 Requested convergence on             energy=1.00D-06.
 No special actions if energy rises.
 SCF Done:  E(RM062X) =  -1516.12801675     A.U. after   16 cycles
            NFock= 16  Conv=0.26D-08     -V/T= 2.0031

 **********************************************************************

            Population analysis using the SCF density.

 **********************************************************************

 Orbital symmetries:
       Occupied  (A) (A) (A) (A) (A) (A) (A) (A) (A) (A) (A) (A)
                 (A) (A) (A) (A) (A) (A) (A) (A) (A) (A) (A) (A)
                 (A) (A) (A) (A) (A) (A) (A) (A) (A) (A) (A) (A)
                 (A) (A) (A) (A) (A) (A) (A) (A) (A) (A) (A) (A)
                 (A) (A) (A) (A) (A) (A) (A) (A) (A) (A) (A) (A)
                 (A) (A) (A) (A) (A) (A) (A) (A) (A) (A) (A) (A)
                 (A) (A) (A) (A) (A) (A) (A) (A) (A) (A) (A) (A)
                 (A) (A) (A) (A) (A) (A) (A) (A) (A) (A) (A) (A)
                 (A) (A) (A) (A)
       Virtual   (A) (A) (A) (A) (A) (A) (A) (A) (A) (A) (A) (A)
                 (A) (A) (A) (A) (A) (A) (A) (A) (A) (A) (A) (A)
                 (A) (A) (A) (A) (A) (A) (A) (A) (A) (A) (A) (A)
                 (A) (A) (A) (A) (A) (A) (A) (A) (A) (A) (A) (A)
                 (A) (A) (A) (A) (A) (A) (A) (A) (A) (A) (A) (A)
                 (A) (A) (A) (A) (A) (A) (A) (A) (A) (A) (A) (A)
                 (A) (A) (A) (A) (A) (A) (A) (A) (A) (A) (A) (A)
                 (A) (A) (A) (A) (A) (A) (A) (A) (A) (A) (A) (A)
                 (A) (A) (A) (A) (A) (A) (A) (A) (A) (A) (A) (A)
                 (A) (A) (A) (A) (A) (A) (A) (A) (A) (A) (A) (A)
                 (A) (A) (A) (A) (A) (A) (A) (A) (A) (A) (A) (A)
                 (A) (A) (A) (A) (A) (A) (A) (A) (A) (A) (A) (A)
                 (A) (A) (A) (A) (A) (A) (A) (A) (A) (A) (A) (A)
                 (A) (A) (A) (A) (A) (A) (A) (A) (A) (A) (A) (A)
                 (A) (A) (A) (A) (A) (A) (A) (A) (A) (A) (A) (A)
                 (A) (A) (A) (A) (A) (A) (A) (A) (A) (A) (A) (A)
                 (A) (A) (A) (A) (A) (A) (A) (A) (A) (A) (A) (A)
                 (A) (A) (A) (A) (A) (A) (A) (A) (A) (A) (A) (A)
                 (A) (A) (A) (A) (A) (A) (A) (A) (A) (A) (A) (A)
                 (A) (A) (A) (A) (A) (A) (A) (A) (A) (A) (A) (A)
                 (A) (A) (A) (A) (A) (A) (A) (A) (A) (A) (A) (A)
                 (A) (A) (A) (A) (A) (A) (A) (A) (A) (A) (A) (A)
                 (A) (A) (A) (A) (A) (A) (A) (A) (A) (A) (A) (A)
                 (A) (A) (A) (A) (A) (A) (A) (A) (A) (A) (A) (A)
                 (A) (A) (A) (A) (A) (A) (A) (A) (A) (A) (A) (A)
                 (A) (A) (A) (A) (A) (A) (A) (A) (A) (A) (A) (A)
                 (A) (A) (A) (A) (A) (A) (A) (A) (A) (A) (A) (A)
                 (A) (A) (A) (A) (A) (A) (A) (A) (A) (A) (A) (A)
                 (A) (A) (A) (A) (A) (A) (A) (A) (A) (A) (A) (A)
                 (A) (A) (A) (A) (A) (A) (A) (A) (A) (A) (A) (A)
                 (A) (A) (A) (A) (A) (A) (A) (A) (A) (A) (A) (A)
                 (A) (A) (A) (A) (A) (A) (A) (A) (A) (A) (A) (A)
                 (A) (A) (A) (A) (A) (A) (A) (A) (A) (A) (A) (A)
                 (A) (A) (A) (A) (A) (A) (A) (A) (A) (A) (A) (A)
                 (A) (A) (A) (A) (A) (A) (A) (A) (A) (A) (A) (A)
                 (A) (A) (A) (A) (A) (A) (A) (A) (A) (A) (A) (A)
                 (A) (A) (A) (A) (A) (A) (A) (A) (A) (A) (A) (A)
                 (A) (A) (A) (A) (A) (A) (A) (A) (A) (A) (A) (A)
                 (A) (A) (A) (A) (A) (A) (A) (A) (A) (A) (A) (A)
                 (A) (A) (A) (A) (A) (A) (A) (A) (A) (A) (A) (A)
                 (A) (A) (A) (A) (A) (A) (A) (A) (A) (A) (A) (A)
                 (A) (A) (A) (A) (A) (A) (A) (A) (A) (A) (A) (A)
                 (A) (A) (A) (A) (A) (A) (A) (A) (A) (A) (A) (A)
                 (A) (A) (A) (A)
 The electronic state is 1-A.
 Alpha  occ. eigenvalues --  -25.19087 -25.18764 -25.18598 -25.18586 -25.18375
 Alpha  occ. eigenvalues --  -25.18272 -19.47380 -19.44811 -19.44557 -14.65819
 Alpha  occ. eigenvalues --  -14.63842 -10.71563 -10.71326 -10.55711 -10.51000
 Alpha  occ. eigenvalues --  -10.50713 -10.49233 -10.48223 -10.47118 -10.46551
 Alpha  occ. eigenvalues --  -10.46007 -10.45036 -10.44462 -10.43869 -10.41905
 Alpha  occ. eigenvalues --  -10.41843  -1.38290  -1.37839  -1.28917  -1.28488
 Alpha  occ. eigenvalues --   -1.28369  -1.28173  -1.06223  -1.03886  -0.94885
 Alpha  occ. eigenvalues --   -0.94026  -0.91526  -0.88771  -0.80038  -0.79755
 Alpha  occ. eigenvalues --   -0.78073  -0.75219  -0.72991  -0.71085  -0.68341
 Alpha  occ. eigenvalues --   -0.64610  -0.63626  -0.61630  -0.60625  -0.60588
 Alpha  occ. eigenvalues --   -0.60414  -0.59919  -0.59395  -0.58664  -0.56984
 Alpha  occ. eigenvalues --   -0.53372  -0.51947  -0.49328  -0.49040  -0.48911
 Alpha  occ. eigenvalues --   -0.48261  -0.48209  -0.46768  -0.45683  -0.45551
 Alpha  occ. eigenvalues --   -0.44910  -0.44727  -0.44015  -0.43736  -0.42708
 Alpha  occ. eigenvalues --   -0.42526  -0.42382  -0.42074  -0.41859  -0.41583
 Alpha  occ. eigenvalues --   -0.41178  -0.40293  -0.40012  -0.38907  -0.38021
 Alpha  occ. eigenvalues --   -0.37910  -0.37092  -0.35353  -0.35071  -0.34601
 Alpha  occ. eigenvalues --   -0.34047  -0.33202  -0.32697  -0.31227  -0.30909
 Alpha  occ. eigenvalues --   -0.30422  -0.29043  -0.28346  -0.23651  -0.23592
 Alpha  occ. eigenvalues --   -0.20858  -0.20351  -0.19798  -0.19612  -0.16788
 Alpha virt. eigenvalues --    0.08764   0.09134   0.09948   0.10121   0.10319
 Alpha virt. eigenvalues --    0.11441   0.11517   0.11784   0.11980   0.12407
 Alpha virt. eigenvalues --    0.12916   0.13153   0.13695   0.14047   0.14449
 Alpha virt. eigenvalues --    0.14799   0.15107   0.15303   0.15481   0.15990
 Alpha virt. eigenvalues --    0.16801   0.17083   0.17449   0.17754   0.17985
 Alpha virt. eigenvalues --    0.18405   0.18696   0.19573   0.19653   0.20323
 Alpha virt. eigenvalues --    0.20531   0.20629   0.21337   0.21595   0.21632
 Alpha virt. eigenvalues --    0.22049   0.22716   0.23021   0.23735   0.24169
 Alpha virt. eigenvalues --    0.24461   0.24773   0.25142   0.25938   0.26193
 Alpha virt. eigenvalues --    0.26616   0.26932   0.27445   0.27975   0.28101
 Alpha virt. eigenvalues --    0.28327   0.28629   0.29299   0.29632   0.30078
 Alpha virt. eigenvalues --    0.30206   0.30535   0.30746   0.31169   0.31368
 Alpha virt. eigenvalues --    0.31485   0.31867   0.32027   0.32706   0.33164
 Alpha virt. eigenvalues --    0.33401   0.33811   0.34064   0.34370   0.34757
 Alpha virt. eigenvalues --    0.35001   0.35069   0.35427   0.35736   0.35943
 Alpha virt. eigenvalues --    0.36079   0.36199   0.36617   0.36925   0.37257
 Alpha virt. eigenvalues --    0.37295   0.37582   0.38065   0.38148   0.38516
 Alpha virt. eigenvalues --    0.38824   0.39238   0.40020   0.40098   0.40777
 Alpha virt. eigenvalues --    0.40876   0.41198   0.41712   0.42095   0.42428
 Alpha virt. eigenvalues --    0.42524   0.42957   0.43339   0.43494   0.43873
 Alpha virt. eigenvalues --    0.44321   0.44466   0.44754   0.45314   0.45772
 Alpha virt. eigenvalues --    0.46128   0.46456   0.46778   0.46945   0.47509
 Alpha virt. eigenvalues --    0.47737   0.48004   0.48485   0.48522   0.49005
 Alpha virt. eigenvalues --    0.49631   0.49751   0.49876   0.50566   0.51160
 Alpha virt. eigenvalues --    0.51315   0.51929   0.52513   0.53073   0.53329
 Alpha virt. eigenvalues --    0.53826   0.54057   0.54256   0.54559   0.54838
 Alpha virt. eigenvalues --    0.55023   0.56175   0.56697   0.57574   0.58188
 Alpha virt. eigenvalues --    0.59084   0.59412   0.59692   0.60594   0.60958
 Alpha virt. eigenvalues --    0.62003   0.62631   0.63117   0.63420   0.63870
 Alpha virt. eigenvalues --    0.64441   0.65048   0.65289   0.66007   0.66642
 Alpha virt. eigenvalues --    0.67188   0.67356   0.68017   0.68977   0.69597
 Alpha virt. eigenvalues --    0.69811   0.70434   0.71155   0.71767   0.72485
 Alpha virt. eigenvalues --    0.72800   0.73802   0.74855   0.76065   0.76480
 Alpha virt. eigenvalues --    0.76959   0.77136   0.77515   0.78319   0.78733
 Alpha virt. eigenvalues --    0.79043   0.79893   0.80393   0.80650   0.80964
 Alpha virt. eigenvalues --    0.82242   0.82592   0.83072   0.83293   0.83852
 Alpha virt. eigenvalues --    0.84151   0.84755   0.85650   0.86141   0.86953
 Alpha virt. eigenvalues --    0.87134   0.87796   0.88107   0.88572   0.88774
 Alpha virt. eigenvalues --    0.89161   0.89612   0.90210   0.90550   0.91639
 Alpha virt. eigenvalues --    0.91852   0.92320   0.93429   0.93621   0.94665
 Alpha virt. eigenvalues --    0.97621   0.99214   0.99453   1.02075   1.03161
 Alpha virt. eigenvalues --    1.04164   1.04543   1.06556   1.07212   1.07960
 Alpha virt. eigenvalues --    1.09091   1.09292   1.10399   1.10759   1.11346
 Alpha virt. eigenvalues --    1.13162   1.15471   1.15955   1.17255   1.17585
 Alpha virt. eigenvalues --    1.19056   1.19455   1.20563   1.21580   1.22795
 Alpha virt. eigenvalues --    1.24850   1.25352   1.25535   1.26529   1.27835
 Alpha virt. eigenvalues --    1.28178   1.29093   1.29757   1.30041   1.32088
 Alpha virt. eigenvalues --    1.33088   1.34570   1.34831   1.37447   1.37633
 Alpha virt. eigenvalues --    1.38170   1.39967   1.41599   1.42202   1.45106
 Alpha virt. eigenvalues --    1.46024   1.46617   1.48626   1.50166   1.50241
 Alpha virt. eigenvalues --    1.51103   1.51748   1.53484   1.54001   1.55360
 Alpha virt. eigenvalues --    1.55588   1.56229   1.56586   1.58025   1.58723
 Alpha virt. eigenvalues --    1.59347   1.59591   1.60045   1.60252   1.60960
 Alpha virt. eigenvalues --    1.61966   1.62220   1.62934   1.63597   1.64101
 Alpha virt. eigenvalues --    1.64934   1.65226   1.66160   1.67453   1.68057
 Alpha virt. eigenvalues --    1.68729   1.68842   1.69386   1.69833   1.70154
 Alpha virt. eigenvalues --    1.71107   1.72239   1.72771   1.72817   1.73208
 Alpha virt. eigenvalues --    1.73643   1.74792   1.75132   1.76206   1.76904
 Alpha virt. eigenvalues --    1.79406   1.79709   1.82369   1.83371   1.86781
 Alpha virt. eigenvalues --    1.87075   1.87801   1.87804   1.89020   1.89878
 Alpha virt. eigenvalues --    1.90377   1.91892   1.92083   1.93055   1.93681
 Alpha virt. eigenvalues --    1.94423   1.95199   1.95300   1.97630   1.98518
 Alpha virt. eigenvalues --    1.99063   1.99607   2.01443   2.01845   2.04891
 Alpha virt. eigenvalues --    2.05598   2.07802   2.08929   2.10335   2.11288
 Alpha virt. eigenvalues --    2.11741   2.13532   2.14948   2.15397   2.16886
 Alpha virt. eigenvalues --    2.21143   2.21454   2.22396   2.23755   2.26943
 Alpha virt. eigenvalues --    2.27524   2.27900   2.28320   2.29508   2.32829
 Alpha virt. eigenvalues --    2.34528   2.37470   2.39296   2.39542   2.45132
 Alpha virt. eigenvalues --    2.46024   2.49296   2.50705   2.51804   2.53356
 Alpha virt. eigenvalues --    2.53586   2.59495   2.59732   2.63243   2.64341
 Alpha virt. eigenvalues --    2.64736   2.65078   2.66891   2.68656   2.70026
 Alpha virt. eigenvalues --    2.70847   2.71376   2.71931   2.74654   2.75700
 Alpha virt. eigenvalues --    2.76998   2.78760   2.80423   2.82144   2.84052
 Alpha virt. eigenvalues --    2.87633   2.92177   2.93805   2.96055   2.96911
 Alpha virt. eigenvalues --    2.98520   3.02132   3.03406   3.04164   3.06154
 Alpha virt. eigenvalues --    3.07914   3.08523   3.09244   3.09970   3.10710
 Alpha virt. eigenvalues --    3.12676   3.13217   3.14886   3.15497   3.16383
 Alpha virt. eigenvalues --    3.17211   3.18038   3.19455   3.22995   3.23755
 Alpha virt. eigenvalues --    3.24065   3.26040   3.26807   3.28719   3.31351
 Alpha virt. eigenvalues --    3.35603   3.36064   3.36183   3.37621   3.39735
 Alpha virt. eigenvalues --    3.42919   3.44325   3.47815   3.50121   3.50854
 Alpha virt. eigenvalues --    3.51902   3.53388   3.54681   3.55197   3.55847
 Alpha virt. eigenvalues --    3.56977   3.59727   3.59845   3.66460   3.72750
 Alpha virt. eigenvalues --    3.76052   3.81668   3.83631   3.84965   3.90014
 Alpha virt. eigenvalues --    3.90129   3.90385   3.90839   3.92083   3.93687
 Alpha virt. eigenvalues --    3.93942   3.94656   3.94842   3.95608   3.95896
 Alpha virt. eigenvalues --    3.97026   3.97391   3.98190   3.98931   4.00502
 Alpha virt. eigenvalues --    4.01613   4.06271   4.09087   4.10229   4.10603
 Alpha virt. eigenvalues --    4.11015   4.11631   4.12723   4.15784   4.17938
 Alpha virt. eigenvalues --    4.18129   4.22880   4.24437   4.31002   4.32585
 Alpha virt. eigenvalues --    4.33222   4.35966   4.36241   4.37835   4.39814
 Alpha virt. eigenvalues --    4.41743   4.76257   4.80358   4.84843   4.89775
 Alpha virt. eigenvalues --    4.93314   5.05654   5.08325   5.08837   5.11413
 Alpha virt. eigenvalues --    5.13033   5.30321   5.32508   5.33512   5.36269
 Alpha virt. eigenvalues --    5.53331   5.56109   5.58247   5.90557   6.03281
 Alpha virt. eigenvalues --    6.16632   6.55521   6.57882   6.59712   6.60217
 Alpha virt. eigenvalues --    6.61117   6.62805   6.63541   6.64819   6.65363
 Alpha virt. eigenvalues --    6.66074   6.68713   6.72375   6.73121   6.73273
 Alpha virt. eigenvalues --    6.96916   6.98336   6.98810   7.01348  23.57951
 Alpha virt. eigenvalues --   23.69648  23.73622  23.74833  23.76780  23.85680
 Alpha virt. eigenvalues --   23.91515  23.92247  24.03021  24.06847  24.10038
 Alpha virt. eigenvalues --   24.10704  24.18305  24.24429  24.30676  35.77032
 Alpha virt. eigenvalues --   35.86695  50.21257  50.28301  50.29450  66.99137
 Alpha virt. eigenvalues --   66.99661  67.00255  67.01213  67.05969  67.08057
          Condensed to atoms (all electrons):
               1          2          3          4          5          6
     1  C   35.795279  -0.067817  -0.570464  -0.331227  -0.313109  -0.754686
     2  N   -0.067817   8.318893   0.267912  -0.076597  -0.613245  -0.695179
     3  C   -0.570464   0.267912  10.038858   0.685462   0.248434  -1.727056
     4  O   -0.331227  -0.076597   0.685462   8.111715  -0.190642  -0.146922
     5  N   -0.313109  -0.613245   0.248434  -0.190642   8.068243   0.672418
     6  C   -0.754686  -0.695179  -1.727056  -0.146922   0.672418   9.686298
     7  C   -0.004590   0.075085   0.472103   0.029221  -0.067212  -1.360625
     8  C   -0.007870  -0.025846  -0.352617  -0.000768  -0.048442   0.558939
     9  C   -5.059971   0.259536  -0.552306  -0.153269  -0.437838  -0.293278
    10  C  -11.526575   0.135720  -1.849299  -0.076753  -0.133533  -0.177312
    11  C    0.276021   0.011627  -0.367235   0.038711   0.050210  -0.025422
    12  C   -2.991890   0.042695   0.696003   0.189619   0.110846   0.064154
    13  C   -1.978542  -0.157488  -0.824800   0.323579   0.120375  -0.167612
    14  H   -0.206179   0.067761  -0.016985  -0.005181   0.016108   0.041261
    15  H    0.004704   0.013401  -0.062938  -0.008105   0.108328   0.053814
    16  H    0.004736   0.009710   0.055845   0.001881  -0.072092   0.341301
    17  H    0.021019   0.006934   0.066647  -0.003776  -0.061890   0.385409
    18  H   -0.003818  -0.001465  -0.014638  -0.000210   0.008659  -0.070642
    19  H    0.003525  -0.000632   0.016967  -0.000249   0.005215  -0.058221
    20  H    0.000084   0.000009   0.001065  -0.000007   0.000127  -0.023534
    21  H    0.000194  -0.000008   0.007190   0.000015  -0.002287   0.091357
    22  H   -0.000421  -0.000034  -0.006273  -0.000050   0.000583  -0.059811
    23  H    0.023625  -0.028123  -0.001333   0.000139   0.000506   0.000208
    24  H    0.102635  -0.033835   0.133324   0.005581   0.009418   0.017774
    25  C   -0.122071   0.031883  -0.003280   0.002131   0.009743   0.002079
    26  C   -5.815172  -0.025819  -0.297168  -0.006233  -0.014246  -0.012392
    27  H   -0.024804  -0.001911  -0.001582   0.000054  -0.000012  -0.000079
    28  F   -0.015390   0.000030  -0.001194   0.000003   0.000003  -0.000007
    29  F   -0.004192  -0.000068  -0.000462  -0.000001   0.000001  -0.000001
    30  F    0.018564   0.000065  -0.000086   0.000000   0.000008   0.000004
    31  F    0.226208   0.002223  -0.000000  -0.000003   0.000019   0.000014
    32  F    0.032297   0.000835  -0.001242   0.000002   0.000014  -0.000011
    33  F    0.027283   0.000656  -0.000269  -0.000002  -0.000002   0.000004
    34  O   -0.180016   0.042122   0.001930  -0.000755  -0.063199  -0.011150
    35  O    0.022088  -0.052203  -0.067237   0.000550   0.014282   0.072113
    36  C    0.303977   0.006894   0.021524  -0.001422   0.033788   0.013384
    37  C   -0.149301  -0.057804  -0.084188  -0.001274  -0.077538   0.104235
    38  C   -0.000713   0.002198   0.009852   0.000094   0.014090  -0.019776
    39  H    0.000485   0.000242  -0.000321  -0.000000   0.000266   0.000071
    40  H    0.001258   0.000549   0.000566   0.000001  -0.000088  -0.000642
    41  H   -0.000033   0.000009  -0.000263  -0.000000   0.000184  -0.000040
    42  H    0.000128   0.000029   0.000237   0.000000  -0.000092  -0.000111
    43  H    0.000006  -0.000010  -0.000557  -0.000000   0.000162   0.000763
               7          8          9         10         11         12
     1  C   -0.004590  -0.007870  -5.059971 -11.526575   0.276021  -2.991890
     2  N    0.075085  -0.025846   0.259536   0.135720   0.011627   0.042695
     3  C    0.472103  -0.352617  -0.552306  -1.849299  -0.367235   0.696003
     4  O    0.029221  -0.000768  -0.153269  -0.076753   0.038711   0.189619
     5  N   -0.067212  -0.048442  -0.437838  -0.133533   0.050210   0.110846
     6  C   -1.360625   0.558939  -0.293278  -0.177312  -0.025422   0.064154
     7  C    6.896476  -0.604070   0.033705   0.004773  -0.000882  -0.006590
     8  C   -0.604070   6.630493  -0.010820  -0.001450  -0.000520   0.000204
     9  C    0.033705  -0.010820  17.172966   4.202578  -2.163851  -4.541570
    10  C    0.004773  -0.001450   4.202578  35.616558  -7.846512 -11.754720
    11  C   -0.000882  -0.000520  -2.163851  -7.846512  34.424234   2.309676
    12  C   -0.006590   0.000204  -4.541570 -11.754720   2.309676  27.319521
    13  C   -0.008956  -0.006489  -1.988114   4.604703 -14.049652  -2.979506
    14  H   -0.009637   0.000167   0.114516   0.031997  -0.013092  -0.012142
    15  H   -0.053904   0.012807   0.006623  -0.002081  -0.004813  -0.004345
    16  H    0.010407  -0.013818   0.004028   0.000235  -0.000163  -0.001713
    17  H   -0.060914  -0.028869   0.000496   0.000805  -0.000215  -0.000598
    18  H    0.470253  -0.056389   0.000845  -0.000058   0.000007  -0.000026
    19  H    0.428611  -0.067872  -0.000165   0.000063  -0.000009  -0.000012
    20  H    0.043590   0.325161   0.000021   0.000001   0.000000  -0.000004
    21  H   -0.168627   0.423241  -0.000017   0.000000   0.000000   0.000001
    22  H    0.014965   0.395596   0.000025  -0.000002   0.000000   0.000001
    23  H    0.000006   0.000012   0.304088  -0.056992   0.006310  -0.015907
    24  H   -0.000659   0.000142  -0.049344  -0.083819   0.020486  -0.039485
    25  C   -0.000107   0.000006  -2.223464  -0.803066  -1.839445  -0.853160
    26  C    0.000050  -0.000055   1.568110  -3.819790  -3.897104  -1.676576
    27  H    0.000005  -0.000000   0.003010   0.097735  -0.064749   0.290003
    28  F    0.000000  -0.000000   0.067096  -0.215060  -0.039065   0.087634
    29  F   -0.000000   0.000000   0.029936  -0.000216   0.110231  -0.074277
    30  F   -0.000000   0.000000   0.014840   0.072615  -0.257927   0.055931
    31  F    0.000000  -0.000000   0.142799  -0.473650   0.090891   0.034940
    32  F   -0.000000  -0.000000   0.008049   0.030995  -0.121206   0.032587
    33  F    0.000000   0.000000  -0.047573   0.147372   0.004868   0.024921
    34  O   -0.003860  -0.000167   0.218743  -0.004498   0.012413   0.012065
    35  O   -0.014496   0.012724  -0.015080  -0.001605   0.001153   0.000098
    36  C    0.001033  -0.015669  -0.225218  -0.078515  -0.025488  -0.005920
    37  C   -0.054326   0.012842   0.187764   0.032982  -0.016593  -0.019036
    38  C    0.016019  -0.005717  -0.003835   0.002646   0.000884   0.000413
    39  H   -0.000131  -0.000017   0.000064  -0.000090   0.000008   0.000000
    40  H    0.000545   0.000012  -0.001349  -0.000467  -0.000019   0.000026
    41  H    0.000335   0.000229   0.000110  -0.000001  -0.000002  -0.000002
    42  H   -0.000046  -0.000010  -0.000189  -0.000014   0.000000   0.000001
    43  H   -0.000317   0.000074   0.000162   0.000008  -0.000002  -0.000003
              13         14         15         16         17         18
     1  C   -1.978542  -0.206179   0.004704   0.004736   0.021019  -0.003818
     2  N   -0.157488   0.067761   0.013401   0.009710   0.006934  -0.001465
     3  C   -0.824800  -0.016985  -0.062938   0.055845   0.066647  -0.014638
     4  O    0.323579  -0.005181  -0.008105   0.001881  -0.003776  -0.000210
     5  N    0.120375   0.016108   0.108328  -0.072092  -0.061890   0.008659
     6  C   -0.167612   0.041261   0.053814   0.341301   0.385409  -0.070642
     7  C   -0.008956  -0.009637  -0.053904   0.010407  -0.060914   0.470253
     8  C   -0.006489   0.000167   0.012807  -0.013818  -0.028869  -0.056389
     9  C   -1.988114   0.114516   0.006623   0.004028   0.000496   0.000845
    10  C    4.604703   0.031997  -0.002081   0.000235   0.000805  -0.000058
    11  C  -14.049652  -0.013092  -0.004813  -0.000163  -0.000215   0.000007
    12  C   -2.979506  -0.012142  -0.004345  -0.001713  -0.000598  -0.000026
    13  C   23.886838   0.010534  -0.040209  -0.008767  -0.001569  -0.000905
    14  H    0.010534   0.322117   0.029560  -0.000094  -0.000133   0.000049
    15  H   -0.040209   0.029560   0.338714   0.001555   0.002231   0.005491
    16  H   -0.008767  -0.000094   0.001555   0.492270  -0.054627   0.005840
    17  H   -0.001569  -0.000133   0.002231  -0.054627   0.485084  -0.008613
    18  H   -0.000905   0.000049   0.005491   0.005840  -0.008613   0.432072
    19  H   -0.000191   0.000063   0.002338  -0.009736   0.006465  -0.034853
    20  H   -0.000047   0.000001  -0.000046  -0.000875   0.003199  -0.007495
    21  H    0.000041   0.000000  -0.000075  -0.000195  -0.000093  -0.003770
    22  H   -0.000016  -0.000000   0.000025   0.003818  -0.000784   0.006548
    23  H   -0.009613   0.013408  -0.000122  -0.000001   0.000000  -0.000001
    24  H    0.239935  -0.000598   0.000070  -0.000034  -0.000046   0.000000
    25  C   -3.686662   0.000416  -0.000219  -0.000002  -0.000004   0.000000
    26  C    2.797464   0.013746  -0.000114   0.000003   0.000033  -0.000006
    27  H   -0.001938   0.000004  -0.000000  -0.000000   0.000000  -0.000000
    28  F    0.064468  -0.000002  -0.000000  -0.000000   0.000000  -0.000000
    29  F    0.005062   0.000001  -0.000000   0.000000  -0.000000   0.000000
    30  F    0.227915   0.000002  -0.000000   0.000000  -0.000000   0.000000
    31  F   -0.008198  -0.000250  -0.000002   0.000000  -0.000000   0.000000
    32  F   -0.007252  -0.000007  -0.000000  -0.000000   0.000000  -0.000000
    33  F   -0.001936   0.000028   0.000000   0.000000  -0.000000   0.000000
    34  O   -0.003288   0.084770   0.015139  -0.000016  -0.000042  -0.000160
    35  O   -0.010339   0.010347   0.072623  -0.000945   0.000245  -0.007299
    36  C   -0.042038  -0.024407  -0.007903  -0.001000   0.000777   0.003275
    37  C   -0.073312   0.059052   0.062425  -0.000616   0.000038  -0.001705
    38  C    0.001433  -0.004658  -0.008311   0.000101   0.000034   0.002402
    39  H    0.000061  -0.000361  -0.000107   0.000000   0.000000   0.000006
    40  H    0.000196  -0.000389  -0.000036   0.000000   0.000000   0.000002
    41  H   -0.000019  -0.000014  -0.000358  -0.000000   0.000000  -0.000052
    42  H    0.000018  -0.000002   0.000063  -0.000000  -0.000000  -0.000002
    43  H   -0.000030  -0.000015  -0.000371  -0.000000   0.000000  -0.000056
              19         20         21         22         23         24
     1  C    0.003525   0.000084   0.000194  -0.000421   0.023625   0.102635
     2  N   -0.000632   0.000009  -0.000008  -0.000034  -0.028123  -0.033835
     3  C    0.016967   0.001065   0.007190  -0.006273  -0.001333   0.133324
     4  O   -0.000249  -0.000007   0.000015  -0.000050   0.000139   0.005581
     5  N    0.005215   0.000127  -0.002287   0.000583   0.000506   0.009418
     6  C   -0.058221  -0.023534   0.091357  -0.059811   0.000208   0.017774
     7  C    0.428611   0.043590  -0.168627   0.014965   0.000006  -0.000659
     8  C   -0.067872   0.325161   0.423241   0.395596   0.000012   0.000142
     9  C   -0.000165   0.000021  -0.000017   0.000025   0.304088  -0.049344
    10  C    0.000063   0.000001   0.000000  -0.000002  -0.056992  -0.083819
    11  C   -0.000009   0.000000   0.000000   0.000000   0.006310   0.020486
    12  C   -0.000012  -0.000004   0.000001   0.000001  -0.015907  -0.039485
    13  C   -0.000191  -0.000047   0.000041  -0.000016  -0.009613   0.239935
    14  H    0.000063   0.000001   0.000000  -0.000000   0.013408  -0.000598
    15  H    0.002338  -0.000046  -0.000075   0.000025  -0.000122   0.000070
    16  H   -0.009736  -0.000875  -0.000195   0.003818  -0.000001  -0.000034
    17  H    0.006465   0.003199  -0.000093  -0.000784   0.000000  -0.000046
    18  H   -0.034853  -0.007495  -0.003770   0.006548  -0.000001   0.000000
    19  H    0.444410   0.006848  -0.004318  -0.008623  -0.000000   0.000000
    20  H    0.006848   0.473956  -0.027947  -0.040914   0.000000  -0.000000
    21  H   -0.004318  -0.027947   0.458388  -0.027657   0.000000   0.000000
    22  H   -0.008623  -0.040914  -0.027657   0.478890  -0.000000  -0.000000
    23  H   -0.000000   0.000000   0.000000  -0.000000   0.309197  -0.000038
    24  H    0.000000  -0.000000   0.000000  -0.000000  -0.000038   0.373569
    25  C   -0.000000  -0.000000   0.000000  -0.000000   0.007146   0.009957
    26  C    0.000004   0.000000   0.000000  -0.000000   0.028179  -0.007084
    27  H   -0.000000   0.000000  -0.000000   0.000000   0.000038  -0.003461
    28  F    0.000000  -0.000000   0.000000  -0.000000  -0.000001   0.000006
    29  F   -0.000000  -0.000000  -0.000000   0.000000   0.000026   0.000030
    30  F   -0.000000  -0.000000   0.000000  -0.000000   0.000006  -0.000022
    31  F   -0.000000  -0.000000  -0.000000   0.000000   0.010318  -0.000007
    32  F    0.000000   0.000000   0.000000  -0.000000   0.000505  -0.000004
    33  F   -0.000000  -0.000000  -0.000000   0.000000  -0.000839  -0.000003
    34  O   -0.000133   0.000001  -0.000000  -0.000002   0.010257   0.000033
    35  O   -0.003123   0.000082   0.000045  -0.000117   0.001063   0.000000
    36  C    0.001585   0.000288  -0.000198  -0.000062   0.004950   0.000467
    37  C    0.000848  -0.000006   0.000155  -0.000064   0.000797   0.000067
    38  C    0.000682   0.000031  -0.000091   0.000033   0.000120  -0.000001
    39  H    0.000001   0.000000  -0.000000   0.000000  -0.000103   0.000000
    40  H   -0.000001   0.000000  -0.000000   0.000000  -0.000028   0.000000
    41  H   -0.000021  -0.000000   0.000001  -0.000000   0.000000   0.000000
    42  H    0.000000  -0.000000  -0.000000  -0.000000  -0.000001  -0.000000
    43  H   -0.000004  -0.000000   0.000001  -0.000000  -0.000000   0.000000
              25         26         27         28         29         30
     1  C   -0.122071  -5.815172  -0.024804  -0.015390  -0.004192   0.018564
     2  N    0.031883  -0.025819  -0.001911   0.000030  -0.000068   0.000065
     3  C   -0.003280  -0.297168  -0.001582  -0.001194  -0.000462  -0.000086
     4  O    0.002131  -0.006233   0.000054   0.000003  -0.000001   0.000000
     5  N    0.009743  -0.014246  -0.000012   0.000003   0.000001   0.000008
     6  C    0.002079  -0.012392  -0.000079  -0.000007  -0.000001   0.000004
     7  C   -0.000107   0.000050   0.000005   0.000000  -0.000000  -0.000000
     8  C    0.000006  -0.000055  -0.000000  -0.000000   0.000000   0.000000
     9  C   -2.223464   1.568110   0.003010   0.067096   0.029936   0.014840
    10  C   -0.803066  -3.819790   0.097735  -0.215060  -0.000216   0.072615
    11  C   -1.839445  -3.897104  -0.064749  -0.039065   0.110231  -0.257927
    12  C   -0.853160  -1.676576   0.290003   0.087634  -0.074277   0.055931
    13  C   -3.686662   2.797464  -0.001938   0.064468   0.005062   0.227915
    14  H    0.000416   0.013746   0.000004  -0.000002   0.000001   0.000002
    15  H   -0.000219  -0.000114  -0.000000  -0.000000  -0.000000  -0.000000
    16  H   -0.000002   0.000003  -0.000000  -0.000000   0.000000   0.000000
    17  H   -0.000004   0.000033   0.000000   0.000000  -0.000000  -0.000000
    18  H    0.000000  -0.000006  -0.000000  -0.000000   0.000000   0.000000
    19  H   -0.000000   0.000004  -0.000000   0.000000  -0.000000  -0.000000
    20  H   -0.000000   0.000000   0.000000  -0.000000  -0.000000  -0.000000
    21  H    0.000000   0.000000  -0.000000   0.000000  -0.000000   0.000000
    22  H   -0.000000  -0.000000   0.000000  -0.000000   0.000000  -0.000000
    23  H    0.007146   0.028179   0.000038  -0.000001   0.000026   0.000006
    24  H    0.009957  -0.007084  -0.003461   0.000006   0.000030  -0.000022
    25  C   21.424588  -7.138092   0.002306  -0.093141   0.094398  -0.018098
    26  C   -7.138092  22.803201   0.019846   0.288592  -0.008991   0.026976
    27  H    0.002306   0.019846   0.418444   0.000877  -0.000644   0.009238
    28  F   -0.093141   0.288592   0.000877   9.006477  -0.043875  -0.029026
    29  F    0.094398  -0.008991  -0.000644  -0.043875   8.989260  -0.040266
    30  F   -0.018098   0.026976   0.009238  -0.029026  -0.040266   9.053596
    31  F    0.013426   0.127641   0.000021   0.001374   0.000175   0.000117
    32  F    0.255021  -0.086726   0.000040  -0.003191  -0.001362   0.001267
    33  F   -0.023798   0.042634   0.000001   0.001203  -0.001229   0.000095
    34  O   -0.000227  -0.011773  -0.000005  -0.000001  -0.000003   0.000000
    35  O    0.000066  -0.000552   0.000000   0.000000  -0.000000   0.000000
    36  C   -0.004210  -0.017640  -0.000015   0.000006  -0.000009   0.000001
    37  C   -0.000928   0.011806  -0.000002   0.000000   0.000001  -0.000000
    38  C    0.000043  -0.001965  -0.000000   0.000000   0.000000  -0.000000
    39  H    0.000000   0.000074  -0.000000  -0.000000  -0.000000   0.000000
    40  H   -0.000004   0.000063  -0.000000  -0.000000  -0.000000   0.000000
    41  H   -0.000000   0.000009   0.000000  -0.000000  -0.000000   0.000000
    42  H   -0.000000  -0.000008  -0.000000  -0.000000  -0.000000  -0.000000
    43  H    0.000000   0.000009   0.000000   0.000000  -0.000000   0.000000
              31         32         33         34         35         36
     1  C    0.226208   0.032297   0.027283  -0.180016   0.022088   0.303977
     2  N    0.002223   0.000835   0.000656   0.042122  -0.052203   0.006894
     3  C   -0.000000  -0.001242  -0.000269   0.001930  -0.067237   0.021524
     4  O   -0.000003   0.000002  -0.000002  -0.000755   0.000550  -0.001422
     5  N    0.000019   0.000014  -0.000002  -0.063199   0.014282   0.033788
     6  C    0.000014  -0.000011   0.000004  -0.011150   0.072113   0.013384
     7  C    0.000000  -0.000000   0.000000  -0.003860  -0.014496   0.001033
     8  C   -0.000000  -0.000000   0.000000  -0.000167   0.012724  -0.015669
     9  C    0.142799   0.008049  -0.047573   0.218743  -0.015080  -0.225218
    10  C   -0.473650   0.030995   0.147372  -0.004498  -0.001605  -0.078515
    11  C    0.090891  -0.121206   0.004868   0.012413   0.001153  -0.025488
    12  C    0.034940   0.032587   0.024921   0.012065   0.000098  -0.005920
    13  C   -0.008198  -0.007252  -0.001936  -0.003288  -0.010339  -0.042038
    14  H   -0.000250  -0.000007   0.000028   0.084770   0.010347  -0.024407
    15  H   -0.000002  -0.000000   0.000000   0.015139   0.072623  -0.007903
    16  H    0.000000  -0.000000   0.000000  -0.000016  -0.000945  -0.001000
    17  H   -0.000000   0.000000  -0.000000  -0.000042   0.000245   0.000777
[...]
 00018,-0.00000146,0.00002654,0.00001159,-0.00000749,0.00002669,0.00000
 033,0.00001630,0.00001063,0.00000638,0.00000400,-0.00000452,0.00017013
 ,0.00004195,0.00000319,0.00004999,0.00000033,0.00000960,0.00004548,0.0
 0002598,0.00156517,-0.00097727,0.00092031,0.00070702,-0.00032460,-0.00
 050402,-0.00035434,0.00276650,0.00031551,-0.12787484,-0.03297070,-0.19
 546519,0.00374423,0.00125142,0.00410861,0.13984693,0.03492312,0.210747
 36,0.00004136,-0.00000089,-0.00000030,0.00008171,0.00011566,0.00002893
 ,-0.00026454,0.00004807,0.00003110,0.00006646,-0.00004039,-0.00001500,
 0.00005867,-0.00028091,-0.00001223,0.00000485,-0.00000517,-0.00000311,
 0.00000311,0.00001795,0.00004250,0.00000266,-0.00000712,-0.00001196,-0
 .00001474,-0.00001418,0.00000291,0.00000944,-0.00001033,-0.00000493,-0
 .00000525,0.00001002,0.00000114,-0.00000235,0.00000014,-0.00000005,-0.
 00000628,-0.00000068,-0.00000617,-0.00005769,-0.00023378,-0.00007603,0
 .00001105,0.00037101,-0.00003283,-0.00000295,-0.00001253,-0.00000163,-
 0.00000121,0.00000007,0.00000014,0.00000927,0.00001048,-0.00002528,-0.
 00000033,0.00000586,0.00000405,-0.00000022,0.00000227,0.00000047,0.000
 00491,0.00000168,0.00000532,-0.00000672,-0.00000980,-0.00000375,0.0000
 3069,0.00000309,-0.00000331,-0.00000286,0.00000146,0.00000309,0.000019
 61,0.00000325,0.00000889,0.00000998,0.00007938,0.00002294,-0.00000134,
 0.00000026,0.00000100,-0.00000558,-0.00000211,-0.00000066,-0.00000770,
 0.00000042,-0.00000784,-0.00000368,0.00000086,-0.00000174,0.00000066,-
 0.00005163,-0.00000870,-0.00000324,-0.00001448,-0.00000171,-0.00000334
 ,-0.00001535,-0.00000861,0.00045377,0.00191359,-0.00140547,-0.00043418
 ,-0.00288175,-0.00157486,-0.00700955,-0.00205879,0.00895750,-0.1107953
 0,-0.02494154,0.11325045,-0.01312634,-0.00536572,0.02238087,0.01096375
 ,0.00504671,-0.01815290,0.12222453,-0.00017878,0.00010792,0.00000232,0
 .00022729,0.00003210,0.00005619,-0.00041774,0.00020190,0.00005068,0.00
 008009,-0.00019195,-0.00002314,0.00009801,-0.00059322,0.00005342,0.000
 10877,0.00001298,-0.00000911,-0.00001741,0.00001669,0.00000312,0.00001
 089,-0.00001349,-0.00000142,0.00005949,0.00000326,-0.00002208,-0.00000
 376,0.00001405,-0.00000518,0.00004712,-0.00001197,-0.00000420,-0.00003
 581,0.00000989,-0.00000055,0.00003787,-0.00005427,-0.00000448,-0.00004
 002,0.00004347,-0.00013624,0.00007080,0.00088841,-0.00017622,-0.000023
 12,-0.00001999,-0.00000585,-0.00001546,-0.00001247,0.00001303,0.000032
 80,-0.00000084,-0.00003093,0.00001944,0.00001072,0.00002235,-0.0000060
 7,-0.00000569,0.00000501,-0.00001254,0.00000613,-0.00000122,-0.0000104
 8,-0.00000749,-0.00000200,-0.00003564,-0.00001381,0.00003537,-0.000010
 29,0.00000809,0.00000247,-0.00004823,0.00000496,0.00001640,-0.00001019
 ,-0.00011263,0.00005810,0.00000086,-0.00000072,0.00000147,0.00002056,0
 .00000730,-0.00001245,0.00001399,-0.00000199,0.00000220,0.00000631,-0.
 00000265,-0.00000227,-0.00000415,0.00005730,-0.00000996,-0.00000898,0.
 00002203,-0.00001764,0.00001145,0.00002795,-0.00003411,0.00121963,-0.0
 0001449,-0.00413626,-0.00299543,-0.00547548,-0.00377561,-0.01535222,-0
 .00343584,0.03224860,-0.02475630,-0.05670687,0.04818435,0.01101812,0.0
 0362245,-0.01924743,0.00332049,0.00063147,-0.00546433,0.02557971,0.062
 16486,0.00019945,-0.00010056,-0.00001444,-0.00018481,0.00010446,0.0000
 2121,0.00023879,-0.00012127,-0.00002172,-0.00004422,0.00010303,0.00000
 577,-0.00007263,0.00021177,0.00003403,-0.00001813,-0.00000256,0.000002
 11,-0.00000160,-0.00001712,-0.00001598,-0.00000595,0.00000818,0.000003
 65,-0.00006330,-0.00001378,0.00001479,0.00001071,-0.00002857,-0.000001
 77,-0.00005638,0.00001709,0.00000550,0.00003688,-0.00001046,0.00000050
 ,-0.00004324,0.00005120,0.00000397,0.00000427,-0.00011574,-0.00000559,
 -0.00004312,-0.00024844,-0.00004835,0.00000525,0.00001204,0.00000488,-
 0.00000049,0.00000300,-0.00000457,-0.00001365,-0.00000128,0.00002072,-
 0.00000456,-0.00000577,-0.00001013,0.00000253,0.00000071,-0.00000421,-
 0.00000087,-0.00000358,-0.00000178,0.00000781,0.00000857,0.00000519,0.
 00003193,0.00003690,-0.00002660,0.00000936,-0.00000804,-0.00000325,0.0
 0007025,0.00000799,-0.00002004,0.00002823,0.00022853,-0.00003941,-0.00
 000133,0.00000015,-0.00000080,-0.00003015,-0.00001387,0.00001730,-0.00
 002004,-0.00000043,-0.00000217,-0.00000988,-0.00000363,0.00000163,-0.0
 0000014,-0.00012850,-0.00000344,0.00000709,-0.00004408,0.00002183,-0.0
 0002250,-0.00004873,0.00002808,-0.00146139,0.00056659,0.00131024,-0.00
 086409,0.00062621,-0.00018982,0.00097819,-0.00273242,-0.00002599,0.111
 70294,0.04536105,-0.23496275,-0.00015284,-0.00033596,-0.00022434,0.012
 38478,0.00582813,-0.02218252,-0.12293327,-0.04788628,0.25405837,0.0000
 2982,-0.00000083,0.00000555,0.00000405,0.00009696,-0.00001989,-0.00003
 988,-0.00002969,0.00001769,0.00001472,0.00003663,-0.00000932,0.0000041
 3,0.00002144,-0.00003029,0.00000737,-0.00000314,0.00001866,-0.00001074
 ,-0.00000717,-0.00002352,-0.00000175,-0.00000255,0.00000688,-0.0000145
 2,-0.00001538,-0.00001174,0.00000691,-0.00000417,-0.00000238,-0.000006
 11,0.00001307,0.00000266,-0.00000313,0.00000295,-0.00000105,-0.0000034
 9,0.00000831,-0.00000372,-0.00001519,-0.00014666,0.00001763,-0.0000091
 0,-0.00003768,0.00002974,-0.00000254,0.00000618,-0.00000149,0.00000296
 ,0.00000788,-0.00000476,0.00001058,-0.00001111,0.00002640,0.00000148,-
 0.00000202,-0.00001031,0.00000266,0.00000362,-0.00000405,-0.00000779,-
 0.00000122,-0.00000258,0.00000234,0.00000587,0.00000221,0.00001163,-0.
 00002304,0.00001601,0.,0.00000041,0.00000261,0.00003075,-0.00002206,0.
 00001883,0.00003857,-0.00005818,0.00003194,-0.00000024,0.00000175,0.00
 000046,-0.00000609,0.00000532,-0.00000363,-0.00001355,0.00000571,-0.00
 001507,-0.00000643,0.00001252,-0.00000123,-0.00001126,0.00003344,-0.00
 000510,-0.00002539,0.00001286,-0.00001946,-0.00000484,0.00001143,-0.00
 001009,0.00048807,0.00033731,-0.00036007,0.00120169,0.00002649,-0.0006
 9100,-0.00118228,-0.00148398,0.00032678,-0.01434746,-0.00495427,0.0245
 5007,-0.11121524,-0.02648620,0.11248052,0.00052781,-0.00095773,-0.0003
 4524,-0.00379718,0.00387383,-0.00027716,0.12254249,0.00014238,-0.00006
 839,-0.00001026,-0.00013932,0.00006980,0.00001479,0.00019411,-0.000144
 76,-0.00000597,-0.00002998,0.00011730,0.00000121,-0.00004070,0.0002301
 5,0.00001965,-0.00002275,-0.00000399,0.00001119,-0.00001000,-0.0000409
 3,-0.00004967,-0.00001313,0.00002038,0.00001457,-0.00004763,-0.0000135
 3,0.00001083,0.00001163,-0.00001702,-0.00000385,-0.00004037,0.00002034
 ,0.00000516,0.00002235,-0.00000517,0.00000110,-0.00002716,0.00004020,-
 0.00000261,0.00001038,-0.00011343,-0.00001044,-0.00006080,-0.00030923,
 -0.00002118,0.00000275,0.00001885,0.00000637,0.00000044,0.00000337,-0.
 00000963,-0.00002999,-0.00001090,0.00003623,-0.00000602,-0.00000381,-0
 .00000631,0.00000290,0.00000286,-0.00000685,0.00000477,-0.00000794,0.0
 0000002,0.00001582,0.00001072,0.00000532,0.00002174,-0.00000310,-0.000
 00759,0.00000674,-0.00000526,-0.00000121,0.00006887,-0.00002308,0.0000
 0038,0.00004844,0.00005399,-0.00000571,-0.00000047,0.00000166,-0.00000
 024,-0.00002361,-0.00000175,0.00000799,-0.00002396,0.00000665,-0.00001
 299,-0.00001158,0.00001280,0.00000133,-0.00000958,-0.00002795,-0.00000
 178,-0.00001779,-0.00000914,-0.00000358,-0.00001640,-0.00001391,0.0000
 1250,-0.00085335,0.00024185,0.00033974,-0.00096341,-0.00033505,0.00065
 500,0.00179951,0.00053068,-0.00120514,0.00990532,0.00414916,-0.0187248
 9,-0.02758837,-0.05781769,0.04766053,-0.00079444,0.00087566,0.00039253
 ,0.00349154,-0.00253329,-0.00039861,0.02624944,0.06027712,0.00004381,-
 0.00003506,-0.00000527,-0.00012239,-0.00007495,0.00002202,0.00020475,-
 0.00004831,-0.00002053,-0.00005638,0.00002044,0.00000873,-0.00008318,0
 .00009215,0.00002778,0.00006592,0.00000676,0.00000924,-0.00002446,-0.0
 0002883,-0.00006932,-0.00000371,0.00000644,0.00002000,-0.00001183,0.00
 000565,0.00000696,-0.00000404,-0.00000716,0.00000026,-0.00001418,-0.00
 000205,0.00000241,0.00001581,-0.00000598,-0.00000003,-0.00001078,0.000
 01641,0.00000144,0.00002926,0.00010662,-0.00001893,-0.00000829,-0.0000
 7272,-0.00003153,-0.00001129,0.00001521,0.00000094,-0.00000979,-0.0000
 0261,0.00000194,0.00000589,-0.00003104,0.00004128,0.00000764,-0.000005
 93,-0.00000595,-0.00000025,-0.00000383,-0.00000310,-0.00002010,-0.0000
 0231,-0.00001020,0.00000946,0.00001741,0.00000787,-0.00000041,0.000009
 91,-0.00000706,0.00000523,-0.00000351,-0.00000215,0.00000741,0.0000137
 7,-0.00001142,-0.00000442,0.00007104,-0.00001656,0.00000022,-0.0000007
 0,-0.00000080,-0.00000652,-0.00000645,0.00000634,-0.00000086,-0.000002
 93,0.00000353,-0.00000010,-0.00000781,0.00000051,0.00000358,-0.0000384
 3,-0.00000146,0.00000857,-0.00001446,0.00000939,-0.00000340,-0.0000152
 4,0.00001010,-0.00082234,-0.00051061,0.00002811,-0.00195853,0.00046273
 ,0.00089761,0.00259465,0.00154540,-0.00024940,0.00063112,-0.00056164,-
 0.00138686,0.11268764,0.04532979,-0.24442827,0.00029026,-0.00043612,0.
 00070661,0.00015651,-0.00015347,0.00160061,-0.12391527,-0.05130891,0.2
 6231647,0.00006954,0.00000341,-0.00000363,0.00011948,0.00030830,-0.000
 01295,-0.00026917,0.00005964,0.00001664,0.00007750,0.00000232,-0.00000
 493,0.00007769,-0.00010844,0.00000072,-0.00005103,-0.00000930,-0.00000
 412,0.00001766,0.00002736,0.00000847,0.00001080,-0.00001235,-0.0000025
 3,-0.00002749,-0.00002795,0.00000010,0.00001147,-0.00000457,-0.0000022
 0,-0.00001119,0.00001364,0.00000275,-0.00000003,0.00000573,-0.00000015
 ,-0.00001409,0.00000588,0.00000037,-0.00010841,-0.00044299,0.00001247,
 0.00000689,0.00010369,0.00000483,0.00000792,-0.00000759,-0.00000339,0.
 00001102,-0.00000273,0.00000345,0.00000016,0.00001667,-0.00003049,0.00
 000112,0.00001428,0.00002155,-0.00000449,-0.00000345,0.00000688,0.0000
 1121,0.00000406,0.00000029,-0.00000804,-0.00000884,-0.00000512,0.00003
 330,-0.00000791,0.00000003,-0.00000284,0.00000172,0.00000017,0.0000212
 3,-0.00000150,0.00000016,0.00002308,0.00003644,0.00000128,-0.00000206,
 0.00000121,0.00000018,-0.00000715,-0.00000182,0.00000279,-0.00000728,0
 .00000094,-0.00000448,-0.00000394,0.00000282,0.00000022,-0.00000624,-0
 .00002010,-0.00000344,-0.00000786,-0.00000656,-0.00000209,-0.00000754,
 -0.00000880,0.00000483,0.00003882,0.00315127,0.00008471,0.00228755,-0.
 00089266,-0.00018270,-0.00721925,-0.00112627,0.00070288,0.00923082,0.0
 2926486,-0.00026032,-0.06759377,-0.06927609,-0.00016687,0.00100850,-0.
 00092616,-0.00050778,0.00102900,-0.00099702,0.00027520,-0.00518320,-0.
 01441779,-0.00216054,0.07222216,-0.00042622,0.00014455,0.00002069,0.00
 016398,-0.00058948,-0.00000584,-0.00002601,0.00030931,-0.00000876,-0.0
 0005348,-0.00031610,0.00001127,-0.00002806,-0.00036428,-0.00000150,0.0
 0012111,0.00003254,-0.00002499,-0.00000239,0.00002651,0.00002038,0.000
 01590,-0.00001306,-0.00000769,0.00015618,0.00008573,-0.00000665,-0.000
 05302,0.00005260,0.00000806,0.00011660,-0.00008788,-0.00001944,-0.0000
 4276,-0.00000162,0.00000216,0.00007819,-0.00010390,-0.00000070,0.00009
 152,0.00094296,-0.00000788,0.00015484,0.00057428,0.00000727,-0.0000212
 3,-0.00002884,-0.00001021,-0.00001900,-0.00001912,0.00002337,0.0000367
 9,0.00000895,-0.00004552,0.00001988,0.00001276,0.00002891,-0.00000861,
 -0.00000971,0.00001285,-0.00001305,0.00001435,-0.00000078,-0.00001535,
 -0.00001652,-0.00000752,-0.00009844,0.00005604,0.00000384,-0.00001104,
 0.00000877,0.00000027,-0.00024734,0.00010228,-0.00000326,-0.00022563,-
 0.00004841,0.00002790,0.00000298,-0.00000807,0.00000007,0.00008155,-0.
 00000148,-0.00002669,0.00008546,-0.00002792,0.00004723,0.00004495,-0.0
 0005953,-0.00000727,0.00005515,0.00001076,-0.00000551,0.00009166,0.000
 00455,0.00002804,0.00006860,0.00002573,-0.00005210,0.00144593,-0.00354
 457,-0.00023287,0.00033994,-0.00103425,-0.00008048,0.00245628,0.002545
 79,-0.00014877,-0.00744866,-0.01751355,0.00028638,-0.06912128,-0.28976
 617,0.00030564,0.00018504,0.00041903,0.00066746,0.00008364,0.00045472,
 -0.00066840,-0.00139990,-0.00526429,0.00015069,0.07453041,0.31696663,-
 0.00001504,0.00000211,0.00000632,-0.00000645,-0.00004016,-0.00000086,0
 .00002181,0.00000277,-0.00000680,-0.00000777,-0.00000806,0.00000040,-0
 .00000377,0.00000116,0.00003098,0.00000370,0.00000254,0.00000306,-0.00
 000314,-0.00000972,-0.00003158,0.00000111,0.00000203,0.00001010,0.0000
 0594,0.00000430,-0.00000830,-0.00000247,0.00000117,-0.00000231,0.00000
 375,-0.00000275,-0.00000088,-0.00000094,-0.00000087,-0.00000053,0.0000
 0327,-0.00000226,-0.00000007,0.00001129,0.00005999,-0.00000648,-0.0000
 0024,0.00000058,-0.00002982,-0.00000207,0.00000237,-0.00000003,0.00000
 029,-0.00000510,0.00000134,-0.00000425,-0.00000281,-0.00000314,0.00000
 568,0.00000978,0.00001516,-0.00000327,-0.00000331,0.00000137,0.0000000
 8,0.00000009,-0.00000264,0.00000193,0.00000167,0.00000033,-0.00000457,
 0.00000210,0.00000366,0.00000002,-0.00000002,0.00000013,-0.00000755,0.
 00000269,0.00000706,-0.00000768,-0.00000096,0.00002171,0.00000029,-0.0
 0000025,0.00000052,0.00000379,0.00000079,-0.00000338,0.00000114,-0.000
 00075,-0.00000185,0.00000133,-0.00000234,-0.00000133,0.00000230,-0.000
 00270,-0.00000586,-0.00000023,0.00000050,-0.00000415,0.00000492,0.0000
 0271,-0.00001167,0.00002676,-0.00036730,0.00005201,-0.00015960,0.00006
 245,0.00064581,0.00079423,0.00016965,0.00055976,-0.00111026,-0.0030220
 6,-0.00127575,-0.00016298,0.00030994,-0.05027581,0.00012285,0.00040297
 ,0.00002290,-0.00029951,-0.00020106,-0.00005694,0.00632033,0.02778334,
 0.00191597,-0.00038555,-0.00006241,0.04723528,0.00001589,0.00000797,-0
 .00000900,0.00003385,0.00010687,0.00001804,-0.00008789,-0.00001742,-0.
 00000983,0.00002744,0.00003002,0.00000530,0.00002981,0.00000439,0.0000
 3508,-0.00000624,-0.00000265,-0.00000155,-0.00000742,0.00000154,-0.000
 02547,0.00000050,-0.00000381,0.00000610,-0.00001209,-0.00001676,0.0000
 1254,0.00000960,-0.00000035,0.00000554,-0.00000547,0.00001402,0.000001
 18,-0.00000559,0.00000567,0.00000308,-0.00000074,0.00000195,0.00000162
 ,-0.00002159,-0.00015945,-0.00001497,-0.00001608,-0.00003006,-0.000037
 42,0.00000234,0.00000818,0.00000032,0.00000188,0.00000077,0.00000021,0
 .00000482,0.00000044,0.00001842,0.00000708,-0.00000271,-0.00000559,-0.
 00000157,0.00000031,0.00000069,-0.00000338,-0.00000193,-0.00000235,0.0
 0000238,0.00000669,0.00000160,0.00000998,-0.00002550,-0.00001766,-0.00
 000139,0.00000137,-0.00000234,0.00002931,-0.00002722,-0.00001352,0.000
 04346,-0.00008614,-0.00005664,-0.00000030,0.00000181,-0.00000125,-0.00
 001050,0.00000369,0.00000702,-0.00000759,0.00000644,0.00000064,-0.0000
 0624,0.00001725,0.00000491,-0.00001466,0.00006065,0.00002293,-0.000015
 28,0.00001612,0.00000057,-0.00001496,0.00000882,0.00003292,0.00065429,
 0.00040694,0.00025351,0.00162587,-0.00005662,0.00051020,-0.00161092,-0
 .00171754,-0.00011421,-0.01826916,-0.00362514,-0.02161989,-0.15478093,
 -0.02752338,-0.13031895,-0.00357683,0.00378837,0.00139019,0.00052712,-
 0.00087785,0.00033206,0.01097939,0.00318947,0.01248532,-0.00578186,-0.
 00116512,-0.00514948,0.17025369,0.00014374,-0.00007041,-0.00000230,-0.
 00014723,0.00006833,0.00000358,0.00020630,-0.00014725,-0.00000668,-0.0
 0003342,0.00011903,-0.00000461,-0.00005298,0.00023219,-0.00001547,-0.0
 0001258,-0.00000846,0.00001190,-0.00000620,-0.00002533,0.00002557,-0.0
 0001827,0.00002027,-0.00000720,-0.00004840,-0.00001218,-0.00000518,0.0
 0001104,-0.00001681,-0.00000194,-0.00004068,0.00001970,0.00000563,0.00
 002279,-0.00000516,-0.00000323,-0.00002716,0.00004104,0.00000329,0.000
 01268,-0.00010784,0.00000580,-0.00005604,-0.00030616,0.00000011,0.0000
 0333,0.00001280,0.00000549,-0.00000149,0.00001466,-0.00001385,-0.00001
 609,-0.00000996,0.00003971,-0.00001811,-0.00002145,-0.00004568,0.00001
 286,0.00000912,-0.00001044,0.00000240,-0.00000847,0.00000226,0.0000106
 4,0.00000940,0.00000485,0.00002196,-0.00000139,0.00000393,0.00000703,-
 0.00000552,0.00000041,0.00006746,-0.00002246,0.00000094,0.00004539,0.0
 0006049,0.00000315,-0.00000044,0.00000163,0.00000023,-0.00002329,-0.00
 000184,0.00000803,-0.00002339,0.00000643,-0.00001271,-0.00001135,0.000
 01199,0.00000129,-0.00000812,-0.00003350,-0.00000569,-0.00001689,-0.00
 001016,-0.00000422,-0.00001512,-0.00001408,0.00000799,-0.00089720,0.00
 022366,-0.00015880,-0.00114513,-0.00024709,-0.00046909,0.00206178,0.00
 054564,0.00085667,0.01303517,0.00319696,0.01679992,-0.02896139,-0.0539
 9091,-0.03424491,0.00347668,-0.00250815,-0.00041245,-0.00083998,0.0008
 6047,-0.00023749,0.00487354,0.00009009,0.00551065,-0.01924375,-0.00398
 008,-0.02509279,0.02764988,0.05601078,-0.00004302,0.00003303,-0.000000
 59,0.00011840,0.00006171,0.00000149,-0.00019304,0.00004917,0.00000259,
 0.00005387,-0.00002255,0.00000237,0.00008846,-0.00008444,0.00002340,-0
 .00007467,-0.00000305,-0.00001264,0.00002210,0.00001074,0.00000437,0.0
 0000526,-0.00000010,-0.00000375,0.00001140,-0.00000361,0.00000420,0.00
 000347,0.00000600,0.00000214,0.00001348,0.00000156,-0.00000197,-0.0000
 1336,0.00000507,0.00000219,0.00001022,-0.00001645,-0.00000052,-0.00002
 747,-0.00008735,-0.00000907,-0.00000068,0.00005960,-0.00002666,0.00001
 089,-0.00000821,0.00000093,0.00001203,-0.00001178,0.00000462,-0.000015
 03,0.00002706,-0.00005474,-0.00000348,0.00003051,0.00004125,-0.0000061
 6,-0.00001003,0.00001161,0.00002644,0.00000142,-0.00000146,-0.00000625
 ,-0.00001103,-0.00000512,-0.00000046,-0.00000609,-0.00000290,-0.000005
 07,0.00000325,-0.00000103,-0.00001043,-0.00001082,-0.00000762,-0.00000
 015,-0.00005803,-0.00001726,-0.00000035,0.00000048,-0.00000041,0.00000
 397,0.00000407,-0.00000019,0.00000465,0.00000200,0.00000564,0.00000078
 ,0.00000743,0.00000284,-0.00000239,0.00003439,0.00000913,-0.00000032,0
 .00001092,0.00000141,0.00000030,0.00001038,0.00000588,0.00064749,0.000
 46702,-0.00017568,0.00175441,-0.00046317,0.00040629,-0.00222417,-0.001
 21074,0.00026161,0.00304104,0.00145291,0.00347808,-0.13058283,-0.03220
 604,-0.20468270,0.00095071,-0.00072736,0.00137067,-0.00030594,0.000608
 41,0.00070623,-0.01810654,-0.00518235,-0.02137728,0.00259230,-0.000217
 26,0.00119628,0.14225013,0.03745335,0.21883636\\0.,0.00000019,-0.00000
 043,0.00000024,-0.00000007,-0.00000015,0.00000050,-0.00000045,-0.00000
 029,0.00000052,-0.00000036,-0.00000059,-0.00000007,-0.00000056,0.00000
 001,0.00000022,-0.00000033,0.,-0.00000020,-0.00000073,0.00000013,-0.00
 000008,-0.00000104,0.00000024,0.00000021,0.00000053,-0.00000024,0.0000
 0024,0.00000070,-0.00000045,0.00000056,0.00000065,-0.00000079,0.000000
 57,0.00000059,-0.00000090,0.00000055,0.00000010,-0.00000068,-0.0000002
 0,-0.00000004,0.00000005,-0.00000033,-0.00000035,0.00000023,0.00000025
 ,-0.00000067,-0.00000027,0.00000039,-0.00000081,-0.00000015,0.00000006
 ,-0.00000087,0.00000037,-0.00000025,-0.00000061,0.00000044,0.00000012,
 -0.00000139,0.00000009,-0.00000013,-0.00000121,0.00000048,0.00000010,-
 0.00000103,0.00000008,-0.00000010,0.00000045,0.,0.00000063,0.00000016,
 -0.00000083,0.00000058,0.00000113,-0.00000096,0.00000002,0.00000094,-0
 .00000032,0.00000080,0.00000054,-0.00000115,0.00000045,0.00000125,-0.0
 0000091,0.00000065,0.00000085,-0.00000096,0.00000079,0.00000088,-0.000
 00130,-0.00000016,0.00000075,0.00000004,0.00000017,0.00000085,-0.00000
 033,-0.00000008,0.00000137,-0.00000022,-0.00000030,0.00000034,0.000000
 44,-0.00000035,-0.00000025,0.00000066,-0.00000041,-0.00000023,0.000000
 62,-0.00000067,0.,0.00000081,-0.00000092,-0.00000022,0.00000135,-0.000
 00075,-0.00000013,0.00000105,-0.00000080,0.00000027,0.00000100,-0.0000
 0086,-0.00000065,0.00000119,-0.00000105,-0.00000023,0.00000145,-0.0000
 0086,-0.00000029,0.00000118\\\@


 EVERYBODY NEEDS BEAUTY AS WELL AS BREAD, PLACES TO PLAY IN AND PRAY IN,
 WHERE NATURE MAY HEAL AND CHEER AND GIVE STRENGTH TO BODY AND SOUL ALIKE.

                                    -- JOHN MUIR
 Job cpu time:       0 days 15 hours 44 minutes 13.1 seconds.
 File lengths (MBytes):  RWF=   1549 Int=      0 D2E=      0 Chk=     28 Scr=      1
 Normal termination of Gaussian 09 at Fri Nov 15 00:06:05 2019.
pbs_rusage has been removed.
Please contact help@nci.org.au if you require this functionality.
