 Entering Gaussian System, Link 0=/apps/gaussian/g16c01/g16/g16
 Initial command:
 /apps/gaussian/g16c01/g16/l1.exe "/jobfs/13164587.gadi-pbs/Gau-274049.inp" -scrdir="/jobfs/13164587.gadi-pbs/"
 Entering Link 1 = /apps/gaussian/g16c01/g16/l1.exe PID=    274050.
  
 Copyright (c) 1988-2019, Gaussian, Inc.  All Rights Reserved.
  
 This is part of the Gaussian(R) 16 program.  It is based on
 the Gaussian(R) 09 system (copyright 2009, Gaussian, Inc.),
 the Gaussian(R) 03 system (copyright 2003, Gaussian, Inc.),
 the Gaussian(R) 98 system (copyright 1998, Gaussian, Inc.),
 the Gaussian(R) 94 system (copyright 1995, Gaussian, Inc.),
 the Gaussian 92(TM) system (copyright 1992, Gaussian, Inc.),
 the Gaussian 90(TM) system (copyright 1990, Gaussian, Inc.),
 the Gaussian 88(TM) system (copyright 1988, Gaussian, Inc.),
 the Gaussian 86(TM) system (copyright 1986, Carnegie Mellon
 University), and the Gaussian 82(TM) system (copyright 1983,
 Carnegie Mellon University). Gaussian is a federally registered
 trademark of Gaussian, Inc.
  
 This software contains proprietary and confidential information,
 including trade secrets, belonging to Gaussian, Inc.
  
 This software is provided under written license and may be
 used, copied, transmitted, or stored only in accord with that
 written license.
  
 The following legend is applicable only to US Government
 contracts under FAR:
  
                    RESTRICTED RIGHTS LEGEND
  
 Use, reproduction and disclosure by the US Government is
 subject to restrictions as set forth in subparagraphs (a)
 and (c) of the Commercial Computer Software - Restricted
 Rights clause in FAR 52.227-19.
  
 Gaussian, Inc.
 340 Quinnipiac St., Bldg. 40, Wallingford CT 06492
  
  
 ---------------------------------------------------------------
 Warning -- This program may not be used in any manner that
 competes with the business of Gaussian, Inc. or will provide
 assistance to any competitor of Gaussian, Inc.  The licensee
 of this program is prohibited from giving any competitor of
 Gaussian, Inc. access to this program.  By using this program,
 the user acknowledges that Gaussian, Inc. is engaged in the
 business of creating and licensing software in the field of
 computational chemistry and represents and warrants to the
 licensee that it is not a competitor of Gaussian, Inc. and that
 it will not use this program in any manner prohibited above.
 ---------------------------------------------------------------
  

 Cite this work as:
 Gaussian 16, Revision C.01,
 M. J. Frisch, G. W. Trucks, H. B. Schlegel, G. E. Scuseria, 
 M. A. Robb, J. R. Cheeseman, G. Scalmani, V. Barone, 
 G. A. Petersson, H. Nakatsuji, X. Li, M. Caricato, A. V. Marenich, 
 J. Bloino, B. G. Janesko, R. Gomperts, B. Mennucci, H. P. Hratchian, 
 J. V. Ortiz, A. F. Izmaylov, J. L. Sonnenberg, D. Williams-Young, 
 F. Ding, F. Lipparini, F. Egidi, J. Goings, B. Peng, A. Petrone, 
 T. Henderson, D. Ranasinghe, V. G. Zakrzewski, J. Gao, N. Rega, 
 G. Zheng, W. Liang, M. Hada, M. Ehara, K. Toyota, R. Fukuda, 
 J. Hasegawa, M. Ishida, T. Nakajima, Y. Honda, O. Kitao, H. Nakai, 
 T. Vreven, K. Throssell, J. A. Montgomery, Jr., J. E. Peralta, 
 F. Ogliaro, M. J. Bearpark, J. J. Heyd, E. N. Brothers, K. N. Kudin, 
 V. N. Staroverov, T. A. Keith, R. Kobayashi, J. Normand, 
 K. Raghavachari, A. P. Rendell, J. C. Burant, S. S. Iyengar, 
 J. Tomasi, M. Cossi, J. M. Millam, M. Klene, C. Adamo, R. Cammi, 
 J. W. Ochterski, R. L. Martin, K. Morokuma, O. Farkas, 
 J. B. Foresman, and D. J. Fox, Gaussian, Inc., Wallingford CT, 2019.
 
 ******************************************
 Gaussian 16:  ES64L-G16RevC.01  3-Jul-2019
                 3-Nov-2020 
 ******************************************
 %NprocShared=32
 Will use up to   32 processors via shared memory.
 %Mem=1194000MB
 %chk=NM2_c2_carboxy.DSDPBEP86_AUG-cc-PVTZ.chk
 ----------------------------------------------------------------------
 # DSDPBEP86/AUG-cc-PVTZ SCF=Tight INT(grid=ultrafine) Pop=NBO MaxDisk=
 1400000MB
 ----------------------------------------------------------------------
 1/38=1,172=1/1;
 2/12=2,17=6,18=5,40=1/2;
 3/5=16,6=1,7=10,11=9,25=1,30=1,74=-77,75=-5/1,2,3;
 4//1;
 5/5=2,32=2,38=5/2;
 8/10=1/1;
 9/16=-3/6;
 6/7=2,8=2,9=2,10=2,40=1/1,7;
 99/5=1,9=1/99;
 ------------------------------------
 NM2_c2_carboxy.DSDPBEP86_AUG-cc-PVTZ
 ------------------------------------
 Symbolic Z-matrix:
 Charge = -1 Multiplicity = 1
 C                    -5.77987   1.30759   0.23552 
 N                    -4.58234   0.64375   0.17825 
 C                    -3.31263   1.21003   0.09351 
 O                    -3.10208   2.41778   0.05753 
 N                    -2.33381   0.2795    0.05906 
 C                    -0.95173   0.68106  -0.0745 
 C                    -0.04573  -0.53439   0.07448 
 C                     1.42447  -0.16308  -0.08923 
 C                    -6.9425    0.50505   0.2953 
 C                    -8.2013    1.06777   0.36033 
 C                    -8.35738   2.46747   0.37789 
 C                    -7.20938   3.24957   0.30882 
 C                    -5.93738   2.70151   0.23918 
 H                    -4.64712  -0.39612   0.19279 
 H                    -2.55399  -0.72848   0.0363 
 H                    -0.71367   1.43398   0.68488 
 H                    -0.784     1.16139  -1.04791 
 H                    -0.33566  -1.29219  -0.65897 
 H                    -0.21956  -0.98834   1.05453 
 H                     1.6155    0.2647   -1.07767 
 H                     2.07203  -1.0353    0.02519 
 H                     1.73044   0.57874   0.65436 
 H                    -6.81881  -0.57325   0.2839 
 H                    -5.06523   3.33483   0.19037 
 C                    -9.68462   3.16272   0.41893 
 C                    -9.37298   0.12195   0.45309 
 H                    -7.3082    4.32811   0.31612 
 F                    -10.54531   2.61524   1.2925 
 F                    -10.31103   3.18232  -0.77481 
 F                    -9.55583   4.45551   0.7809 
 F                    -9.05147  -1.1196    0.06991 
 F                    -10.40338   0.50407  -0.3207 
 F                    -9.84588   0.01976   1.7083 
 O                    -4.97635  -2.06843   0.21368 
 O                    -2.79452  -2.50169  -0.01834 
 C                    -3.99215  -2.84375   0.09423 
 C                    -4.32084  -4.34315   0.08857 
 C                    -3.10533  -5.25009  -0.04174 
 H                    -5.03063  -4.51166  -0.72731 
 H                    -4.87635  -4.55306   1.00777 
 H                    -2.56264  -5.03879  -0.96458 
 H                    -3.39392  -6.30568  -0.04174 
 H                    -2.40735  -5.08148   0.78006 
 
                          Input orientation:                          
 ---------------------------------------------------------------------
 Center     Atomic      Atomic             Coordinates (Angstroms)
 Number     Number       Type             X           Y           Z
 ---------------------------------------------------------------------
      1          6           0       -5.779866    1.307587    0.235519
      2          7           0       -4.582336    0.643748    0.178245
      3          6           0       -3.312634    1.210035    0.093506
      4          8           0       -3.102076    2.417782    0.057530
      5          7           0       -2.333812    0.279500    0.059059
      6          6           0       -0.951731    0.681059   -0.074496
      7          6           0       -0.045725   -0.534394    0.074480
      8          6           0        1.424467   -0.163082   -0.089232
      9          6           0       -6.942497    0.505050    0.295297
     10          6           0       -8.201295    1.067774    0.360329
     11          6           0       -8.357376    2.467468    0.377893
     12          6           0       -7.209377    3.249572    0.308817
     13          6           0       -5.937378    2.701514    0.239183
     14          1           0       -4.647122   -0.396121    0.192789
     15          1           0       -2.553989   -0.728478    0.036298
     16          1           0       -0.713673    1.433980    0.684877
     17          1           0       -0.783998    1.161394   -1.047908
     18          1           0       -0.335664   -1.292187   -0.658974
     19          1           0       -0.219564   -0.988336    1.054534
     20          1           0        1.615499    0.264704   -1.077668
     21          1           0        2.072033   -1.035299    0.025195
     22          1           0        1.730436    0.578742    0.654358
     23          1           0       -6.818815   -0.573251    0.283903
     24          1           0       -5.065234    3.334827    0.190371
     25          6           0       -9.684617    3.162722    0.418934
     26          6           0       -9.372978    0.121954    0.453086
     27          1           0       -7.308202    4.328112    0.316117
     28          9           0      -10.545314    2.615236    1.292495
     29          9           0      -10.311034    3.182316   -0.774807
     30          9           0       -9.555833    4.455506    0.780896
     31          9           0       -9.051470   -1.119600    0.069914
     32          9           0      -10.403378    0.504069   -0.320701
     33          9           0       -9.845882    0.019760    1.708297
     34          8           0       -4.976348   -2.068428    0.213676
     35          8           0       -2.794517   -2.501692   -0.018335
     36          6           0       -3.992148   -2.843753    0.094232
     37          6           0       -4.320839   -4.343150    0.088568
     38          6           0       -3.105326   -5.250092   -0.041741
     39          1           0       -5.030630   -4.511662   -0.727308
     40          1           0       -4.876349   -4.553059    1.007775
     41          1           0       -2.562638   -5.038785   -0.964575
     42          1           0       -3.393916   -6.305678   -0.041738
     43          1           0       -2.407354   -5.081484    0.780063
 ---------------------------------------------------------------------
                    Distance matrix (angstroms):
                    1          2          3          4          5
     1  C    0.000000
     2  N    1.370417   0.000000
     3  C    2.473241   1.392840   0.000000
     4  O    2.904268   2.313641   1.226492   0.000000
     5  N    3.600471   2.280952   1.350990   2.272109   0.000000
     6  C    4.878477   3.639583   2.425264   2.767241   1.445419
     7  C    6.024882   4.688243   3.703524   4.249342   2.428581
     8  C    7.360078   6.066646   4.935480   5.212675   3.787153
     9  C    1.413983   2.367128   3.703191   4.296965   4.620244
    10  C    2.436474   3.648262   4.898003   5.283583   5.927857
    11  C    2.830044   4.197230   5.206864   5.265290   6.416555
    12  C    2.412504   3.702527   4.403485   4.198207   5.714441
    13  C    1.402803   2.464600   3.022418   2.855248   4.345605
    14  H    2.046352   1.041987   2.090562   3.213022   2.413659
    15  H    3.819887   2.453028   2.082462   3.193712   1.031996
    16  H    5.087653   3.980916   2.674784   2.658176   2.085503
    17  H    5.160161   4.024771   2.774742   2.859019   2.098818
    18  H    6.099040   4.741625   3.961022   4.682978   2.641660
    19  H    6.071163   4.739765   3.914524   4.572148   2.658652
    20  H    7.583106   6.335152   5.152843   5.308477   4.109674
    21  H    8.196687   6.864638   5.834452   6.220628   4.597969
    22  H    7.557201   6.331035   5.113281   5.204944   4.118500
    23  H    2.149258   2.548350   3.938231   4.776157   4.570885
    24  H    2.149986   2.734089   2.756036   2.170855   4.100358
    25  C    4.326920   5.695299   6.672410   6.634410   7.904227
    26  C    3.789922   4.826806   6.167737   6.689656   7.051945
    27  H    3.386130   4.585182   5.073118   4.626849   6.418870
    28  F    5.053378   6.378512   7.464839   7.547577   8.625879
    29  F    5.006680   6.338029   7.322668   7.297012   8.529815
    30  F    4.946186   6.295106   7.069875   6.806362   8.373629
    31  F    4.077016   4.805652   6.193706   6.921598   6.861817
    32  F    4.725662   5.844056   7.137829   7.557405   8.081618
    33  F    4.512212   5.516823   6.834298   7.345370   7.695365
    34  O    3.470389   2.740876   3.678410   4.864500   3.538314
    35  O    4.846377   3.623360   3.749383   4.929663   2.820154
    36  C    4.522115   3.538085   4.110344   5.336414   3.536386
    37  C    5.837910   4.994555   5.643967   6.869974   5.031704
    38  C    7.087538   6.080075   6.464867   7.668517   5.584065
    39  H    5.945760   5.253499   6.030179   7.235502   5.553957
    40  H    5.979958   5.270803   6.041054   7.255593   5.542398
    41  H    7.215763   6.138111   6.381989   7.545600   5.420733
    42  H    7.983197   7.053741   7.517368   8.728904   6.670723
    43  H    7.245039   6.153943   6.393285   7.565955   5.409751
                    6          7          8          9         10
     6  C    0.000000
     7  C    1.523275   0.000000
     8  C    2.521727   1.525168   0.000000
     9  C    6.004748   6.978156   8.402401   0.000000
    10  C    7.272881   8.316368   9.714546   1.380385   0.000000
    11  C    7.631481   8.842329  10.140140   2.420701   1.408479
    12  C    6.775126   8.105012   9.292357   2.757501   2.397248
    13  C    5.388628   6.723824   7.906360   2.416168   2.794477
    14  H    3.858455   4.604994   6.082601   2.468068   3.847493
    15  H    2.136890   2.516051   4.020390   4.565925   5.934946
    16  H    1.095541   2.166387   2.778757   6.309749   7.503594
    17  H    1.098357   2.163446   2.747838   6.337357   7.550377
    18  H    2.148221   1.093742   2.167382   6.913098   8.275056
    19  H    2.144215   1.093979   2.166121   6.928526   8.271490
    20  H    2.787539   2.173860   1.093847   8.670760   9.954004
    21  H    3.478357   2.176748   1.092336   9.149173  10.491735
    22  H    2.781316   2.174875   1.094004   8.680675   9.948110
    23  H    6.010359   6.776438   8.261910   1.085431   2.147104
    24  H    4.902403   6.338752   7.377653   3.397465   3.873408
    25  C    9.092053  10.329354  11.607366   3.820698   2.567583
    26  C    8.456260   9.357979  10.814812   2.465542   1.508648
    27  H    7.338822   8.743336   9.828257   3.840570   3.380735
    28  F    9.881626  11.029284  12.365430   4.292736   2.959391
    29  F    9.713047  10.950425  12.222262   4.433951   3.195437
    30  F    9.434444  10.762913  11.943846   4.761454   3.672653
    31  F    8.298735   9.024740  10.520718   2.671714   2.364687
    32  F    9.456510  10.417080  11.848907   3.515275   2.372917
    33  F    9.095141   9.950855  11.414259   3.265229   2.370658
    34  O    4.882649   5.165625   6.685247   3.239628   4.500839
    35  O    3.678168   3.381528   4.824308   5.132699   6.489817
    36  C    4.657993   4.572503   6.046435   4.467601   5.752196
    37  C    6.051459   5.725681   7.107259   5.515511   6.664075
    38  C    6.310118   5.622497   6.811677   6.925253   8.126869
    39  H    6.635354   6.427348   7.809325   5.465195   6.508931
    40  H    6.630982   6.352608   7.757293   5.510086   6.562638
    41  H    6.008650   5.263461   6.358908   7.176667   8.416644
    42  H    7.401339   6.673200   7.807083   7.687134   8.811376
    43  H    6.004665   5.172153   6.295173   7.211925   8.459273
                   11         12         13         14         15
    11  C    0.000000
    12  C    1.390813   0.000000
    13  C    2.435243   1.386794   0.000000
    14  H    4.690458   4.457543   3.355928   0.000000
    15  H    6.634008   6.129583   4.822171   2.125125   0.000000
    16  H    7.719361   6.755144   5.393735   4.366170   2.912669
    17  H    7.816316   6.891058   5.530452   4.346137   2.807132
    18  H    8.919527   8.295308   6.937978   4.485210   2.392099
    19  H    8.867041   8.208133   6.853700   4.549351   2.560053
    20  H   10.316446   9.418610   8.044755   6.424264   4.428539
    21  H   11.007559  10.226687   8.840827   6.751569   4.636199
    22  H   10.266825   9.336648   7.967052   6.468126   4.521849
    23  H    3.409103   3.842803   3.391610   2.180809   4.274827
    24  H    3.409644   2.149104   1.078936   3.754304   4.779178
    25  C    1.498876   2.479210   3.779791   6.171941   8.132263
    26  C    2.557056   3.805782   4.301538   4.761289   6.884443
    27  H    2.136955   1.083083   2.128591   5.423554   6.946218
    28  F    2.376006   3.535319   4.727577   6.713143   8.753270
    29  F    2.378341   3.286190   4.515331   6.769147   8.724904
    30  F    2.356057   2.680111   4.057482   6.926731   8.743795
    31  F    3.666562   4.747636   4.932255   4.465065   6.509329
    32  F    2.920461   4.258606   5.008732   5.848804   7.953586
    33  F    3.158623   4.397884   4.962510   5.431098   7.518454
    34  O    5.659742   5.768587   4.865859   1.704535   2.773942
    35  O    7.469602   7.257759   6.084180   2.812499   1.790287
    36  C    6.880752   6.893853   5.878343   2.535667   2.558524
    37  C    7.922239   8.126598   7.229328   3.961864   4.023723
    38  C    9.344563   9.445126   8.445560   5.098350   4.555772
    39  H    7.810056   8.127561   7.333908   4.234541   4.585775
    40  H    7.861431   8.173898   7.371929   4.242273   4.578705
    41  H    9.577320   9.587001   8.529370   5.219090   4.424994
    42  H   10.088613  10.294825   9.363633   6.045526   5.640631
    43  H    9.620352   9.627460   8.563216   5.226287   4.418523
                   16         17         18         19         20
    16  H    0.000000
    17  H    1.755503   0.000000
    18  H    3.062811   2.524348   0.000000
    19  H    2.499681   3.059443   1.744109   0.000000
    20  H    3.146238   2.561742   2.531057   3.079586   0.000000
    21  H    3.780565   3.759511   2.516164   2.512600   1.764862
    22  H    2.589601   3.091856   3.081232   2.533451   1.764014
    23  H    6.439139   6.418857   6.590685   6.657048   8.584503
    24  H    4.774290   4.958440   6.670794   6.551111   7.460950
    25  C    9.139864   9.240019  10.412061  10.354830  11.761417
    26  C    8.761204   8.780888   9.214636   9.240101  11.095503
    27  H    7.211089   7.379289   9.008599   8.891495   9.903856
    28  F    9.920974  10.142703  11.104645  10.939080  12.610632
    29  F    9.863909   9.742850  10.933554  11.071523  12.281953
    30  F    9.344658   9.546769  10.959960  10.810931  12.075419
    31  F    8.741728   8.648905   8.747934   8.887591  10.817461
    32  F    9.786026   9.669198  10.232294  10.384057  12.045070
    33  F    9.297561   9.540322   9.887842   9.701014  11.797663
    34  O    5.537083   5.440510   4.785396   4.949812   7.110803
    35  O    4.507098   4.303535   2.814121   3.173591   5.312568
    36  C    5.421831   5.257177   4.042840   4.312441   6.517788
    37  C    6.836846   6.640846   5.074329   5.385938   7.604771
    38  C    7.136161   6.892611   4.870012   5.262319   7.332960
    39  H    7.482048   7.093676   5.693188   6.223756   8.191914
    40  H    7.299093   7.323123   5.833451   5.864732   8.348892
    41  H    6.930805   6.450793   4.369188   5.096365   6.752527
    42  H    8.222771   7.973782   5.904995   6.289073   8.326902
    43  H    6.732673   6.704498   4.552087   4.649260   6.943791
                   21         22         23         24         25
    21  H    0.000000
    22  H    1.765690   0.000000
    23  H    8.906604   8.634467   0.000000
    24  H    8.370536   7.347954   4.284492   0.000000
    25  C   12.489885  11.706230   4.710473   4.628235   0.000000
    26  C   11.511324  11.114629   2.652486   5.380356   3.056887
    27  H   10.809238   9.791281   4.925840   2.456284   2.648783
    28  F   13.195829  12.459879   5.007046   5.635935   1.343000
    29  F   13.106053  12.402344   5.236483   5.336033   1.348258
    30  F   12.881277  11.934203   5.746884   4.665846   1.348663
    31  F   11.123912  10.930483   2.308471   5.978839   4.342922
    32  F   12.574784  12.173158   3.791472   6.063841   2.851686
    33  F   12.082329  11.637629   3.397602   6.012351   3.400981
    34  O    7.126188   7.223757   2.373851   5.404037   7.040942
    35  O    5.082865   5.515142   4.472718   6.266154   8.930301
    36  C    6.328473   6.691426   3.630591   6.271810   8.281749
    37  C    7.198244   7.820683   4.526608   7.714650   9.231326
    38  C    6.676377   7.605554   5.980709   8.808857  10.689936
    39  H    7.943499   8.575152   4.441985   7.900046   9.048184
    40  H    7.849848   8.373165   4.487319   7.932375   9.110403
    41  H    6.203847   7.253140   6.294024   8.815570  10.949950
    42  H    7.593284   8.610387   6.685558   9.787059  11.376982
    43  H    6.083285   7.012508   6.327030   8.845697  11.002540
                   26         27         28         29         30
    26  C    0.000000
    27  H    4.687625   0.000000
    28  F    2.880180   3.790270   0.000000
    29  F    3.428336   3.394107   2.156434   0.000000
    30  F    4.349778   2.298716   2.151139   2.147453   0.000000
    31  F    1.338523   5.725135   4.204198   4.561418   5.642844
    32  F    1.344055   4.960742   2.660747   2.718041   4.188759
    33  F    1.345228   5.190364   2.720035   4.047707   4.540930
    34  O    4.917870   6.809094   7.356218   7.550251   7.990941
    35  O    7.098021   8.193378   9.379557   9.454006   9.734310
    36  C    6.154471   7.904498   8.612803   8.774796   9.203547
    37  C    6.752343   9.174252   9.413430   9.657147  10.261620
    38  C    8.269655  10.465860  10.908574  11.115985  11.682654
    39  H    6.459080   9.187910   9.234935   9.331786  10.156882
    40  H    6.510230   9.234040   9.143450   9.620261  10.153979
    41  H    8.661624  10.578248  11.287229  11.298680  11.920278
    42  H    8.792524  11.336983  11.511098  11.764605  12.427752
    43  H    8.700723  10.619513  11.212871  11.540197  11.918680
                   31         32         33         34         35
    31  F    0.000000
    32  F    2.148613   0.000000
    33  F    2.147914   2.159210   0.000000
    34  O    4.186593   6.029590   5.505160   0.000000
    35  O    6.408388   8.186623   7.685098   2.236500   0.000000
    36  C    5.345094   7.244581   6.713502   1.258588   1.250599
    37  C    5.724552   7.788474   7.223892   2.370592   2.394171
    38  C    7.240860   9.297836   8.733217   3.699858   2.766017
    39  H    5.320602   7.361340   7.046461   2.618738   3.089146
    40  H    5.486334   7.608380   6.789526   2.610360   3.097584
    41  H    7.650825   9.623670   9.261683   4.004659   2.717716
    42  H    7.675662   9.776658   9.203350   4.530299   3.850991
    43  H    7.768211   9.815624   9.067304   3.999878   2.728123
                   36         37         38         39         40
    36  C    0.000000
    37  C    1.535013   0.000000
    38  C    2.568153   1.522168   0.000000
    39  H    2.129623   1.094464   2.173033   0.000000
    40  H    2.130281   1.094346   2.173444   1.742420   0.000000
    41  H    2.825375   2.164322   1.091230   2.534786   3.078856
    42  H    3.515863   2.174323   1.094324   2.523357   2.524036
    43  H    2.826549   2.164423   1.091309   3.078707   2.535156
                   41         42         43
    41  H    0.000000
    42  H    1.774166   0.000000
    43  H    1.752056   1.774066   0.000000
 Stoichiometry    C15H17F6N2O3(1-)
 Framework group  C1[X(C15H17F6N2O3)]
 Deg. of freedom   123
 Full point group                 C1      NOp   1
 Largest Abelian subgroup         C1      NOp   1
 Largest concise Abelian subgroup C1      NOp   1
                         Standard orientation:                         
 ---------------------------------------------------------------------
 Center     Atomic      Atomic             Coordinates (Angstroms)
 Number     Number       Type             X           Y           Z
 ---------------------------------------------------------------------
      1          6           0        0.289666   -0.879975    0.001467
      2          7           0       -1.075588   -0.761432    0.009815
      3          6           0       -2.007513   -1.796290   -0.014448
      4          8           0       -1.709938   -2.985651   -0.048377
      5          7           0       -3.280660   -1.344863    0.007515
      6          6           0       -4.384523   -2.275642   -0.058613
      7          6           0       -5.698139   -1.531757    0.144887
      8          6           0       -6.896164   -2.471168    0.053331
      9          6           0        1.026569    0.326790    0.007935
     10          6           0        2.406950    0.325638    0.004952
     11          6           0        3.119694   -0.889191    0.004507
     12          6           0        2.387364   -2.071471   -0.011842
     13          6           0        1.000683   -2.089150   -0.012891
     14          1           0       -1.438879    0.214993    0.028530
     15          1           0       -3.491075   -0.334897   -0.019141
     16          1           0       -4.257895   -3.049520    0.706429
     17          1           0       -4.390052   -2.796338   -1.025687
     18          1           0       -5.778148   -0.731964   -0.596868
     19          1           0       -5.675974   -1.032594    1.118095
     20          1           0       -6.945068   -2.953549   -0.927188
     21          1           0       -7.836092   -1.936192    0.206742
     22          1           0       -6.836776   -3.262750    0.806136
     23          1           0        0.474452    1.261305    0.010587
     24          1           0        0.460434   -3.023040   -0.021933
     25          6           0        4.615246   -0.983906   -0.026862
     26          6           0        3.095437    1.667430    0.044927
     27          1           0        2.916705   -3.016372   -0.017324
     28          9           0        5.220620   -0.121450    0.805809
     29          9           0        5.135776   -0.763858   -1.250965
     30          9           0        5.041623   -2.212080    0.331863
     31          9           0        2.278126    2.665376   -0.312497
     32          9           0        4.152660    1.726548   -0.782882
     33          9           0        3.547075    1.970795    1.275224
     34          8           0       -1.817976    1.876758    0.044708
     35          8           0       -3.995856    1.381904   -0.073158
     36          6           0       -3.037065    2.183023   -0.019057
     37          6           0       -3.347605    3.686251   -0.030612
     38          6           0       -4.831775    4.018514   -0.092542
     39          1           0       -2.808941    4.117356   -0.880225
     40          1           0       -2.881004    4.116870    0.860704
     41          1           0       -5.286291    3.591782   -0.988142
     42          1           0       -4.998035    5.100112   -0.099594
     43          1           0       -5.359328    3.592212    0.762391
 ---------------------------------------------------------------------
 Rotational constants (GHZ):           0.3035581           0.0908199           0.0718339
 Standard basis: Aug-CC-pVTZ (5D, 7F)
 There are  1855 symmetry adapted cartesian basis functions of A   symmetry.
 There are  1587 symmetry adapted basis functions of A   symmetry.
  1587 basis functions,  2331 primitive gaussians,  1855 cartesian basis functions
   100 alpha electrons      100 beta electrons
       nuclear repulsion energy      2485.6256053584 Hartrees.
 NAtoms=   43 NActive=   43 NUniq=   43 SFac= 1.00D+00 NAtFMM=   60 NAOKFM=F Big=F
 Integral buffers will be    131072 words long.
 Regular integral format.
 Two-electron integral symmetry is turned on.
 Nuclear repulsion after empirical dispersion term =     2485.5949120964 Hartrees.
 One-electron integrals computed using PRISM.
 NBasis=  1587 RedAO= T EigKep=  1.10D-06  NBF=  1587
 NBsUse=  1582 1.00D-06 EigRej=  7.48D-07 NBFU=  1582
 ExpMin= 2.53D-02 ExpMax= 1.95D+04 ExpMxC= 6.65D+02 IAcc=3 IRadAn=         5 AccDes= 0.00D+00
 Harris functional with IExCor= 1004 and IRadAn=       5 diagonalized for initial guess.
 HarFok:  IExCor= 1004 AccDes= 0.00D+00 IRadAn=         5 IDoV= 1 UseB2=F ITyADJ=14
 ICtDFT=  3500011 ScaDFX=  1.000000  1.000000  1.000000  1.000000
 FoFCou: FMM=F IPFlag=           0 FMFlag=      100000 FMFlg1=           0
         NFxFlg=           0 DoJE=T BraDBF=F KetDBF=T FulRan=T
         wScrn=  0.000000 ICntrl=       500 IOpCl=  0 I1Cent=   200000004 NGrid=           0
         NMat0=    1 NMatS0=      1 NMatT0=    0 NMatD0=    1 NMtDS0=    0 NMtDT0=    0
 Petite list used in FoFCou.
 Requested convergence on RMS density matrix=1.00D-08 within 128 cycles.
 Requested convergence on MAX density matrix=1.00D-06.
 Requested convergence on             energy=1.00D-06.
 No special actions if energy rises.
 SCF Done:  E(RDSDPBEP86) =  -1511.90093229     A.U. after   14 cycles
            NFock= 14  Conv=0.19D-08     -V/T= 2.0031
 DoSCS=T DFT=T ScalE2(SS,OS)=  0.220000  0.520000
 ExpMin= 2.53D-02 ExpMax= 1.95D+04 ExpMxC= 6.65D+02 IAcc=3 IRadAn=         5 AccDes= 0.00D+00
 HarFok:  IExCor=  205 AccDes= 0.00D+00 IRadAn=         5 IDoV=-2 UseB2=F ITyADJ=14
 ICtDFT= 12500011 ScaDFX=  1.000000  1.000000  1.000000  1.000000
 GSVD:  LWork=        -884 too small for GESVD, short by        3770 words or        3770 for optimal perf.
 Range of M.O.s used for correlation:    27  1582
 NBasis=  1587 NAE=   100 NBE=   100 NFC=    26 NFV=     0
 NROrb=   1556 NOA=    74 NOB=    74 NVA=  1482 NVB=  1482

 **** Warning!!: The largest alpha MO coefficient is  0.11112727D+03

 DoSCS=T DFT=T ScalE2(SS,OS)=  0.220000  0.520000
 Disk-based method using OVN memory for 25 occupieds at a time.
 Estimated scratch disk usage=180802308814 words.
 Actual    scratch disk usage=132589672142 words.
 JobTyp=1 Pass  1:  I=   1 to  25 NPSUse= 32 ParTrn=T ParDer=T DoDerP=F.
 (rs|ai) integrals will be sorted in core.
 JobTyp=1 Pass  2:  I=  26 to  50 NPSUse= 32 ParTrn=T ParDer=T DoDerP=F.
 (rs|ai) integrals will be sorted in core.
 JobTyp=1 Pass  3:  I=  51 to  74 NPSUse= 32 ParTrn=T ParDer=T DoDerP=F.
 (rs|ai) integrals will be sorted in core.
 Spin components of T(2) and E(2):
     alpha-alpha T2 =       0.2465331995D+00 E2=     -0.1666657932D+00
     alpha-beta  T2 =       0.1281095402D+01 E2=     -0.2230089627D+01
     beta-beta   T2 =       0.2465331995D+00 E2=     -0.1666657932D+00
 E2(DSDPBEP86) =    -0.2563421214D+01 E(DSDPBEP86) =    -0.15144643535087D+04

 **********************************************************************

            Population analysis using the SCF Density.

 **********************************************************************

 Orbital symmetries:
       Occupied  (A) (A) (A) (A) (A) (A) (A) (A) (A) (A) (A) (A)
                 (A) (A) (A) (A) (A) (A) (A) (A) (A) (A) (A) (A)
                 (A) (A) (A) (A) (A) (A) (A) (A) (A) (A) (A) (A)
                 (A) (A) (A) (A) (A) (A) (A) (A) (A) (A) (A) (A)
                 (A) (A) (A) (A) (A) (A) (A) (A) (A) (A) (A) (A)
                 (A) (A) (A) (A) (A) (A) (A) (A) (A) (A) (A) (A)
                 (A) (A) (A) (A) (A) (A) (A) (A) (A) (A) (A) (A)
                 (A) (A) (A) (A) (A) (A) (A) (A) (A) (A) (A) (A)
                 (A) (A) (A) (A)
       Virtual   (A) (A) (A) (A) (A) (A) (A) (A) (A) (A) (A) (A)
                 (A) (A) (A) (A) (A) (A) (A) (A) (A) (A) (A) (A)
                 (A) (A) (A) (A) (A) (A) (A) (A) (A) (A) (A) (A)
                 (A) (A) (A) (A) (A) (A) (A) (A) (A) (A) (A) (A)
                 (A) (A) (A) (A) (A) (A) (A) (A) (A) (A) (A) (A)
                 (A) (A) (A) (A) (A) (A) (A) (A) (A) (A) (A) (A)
                 (A) (A) (A) (A) (A) (A) (A) (A) (A) (A) (A) (A)
                 (A) (A) (A) (A) (A) (A) (A) (A) (A) (A) (A) (A)
                 (A) (A) (A) (A) (A) (A) (A) (A) (A) (A) (A) (A)
                 (A) (A) (A) (A) (A) (A) (A) (A) (A) (A) (A) (A)
                 (A) (A) (A) (A) (A) (A) (A) (A) (A) (A) (A) (A)
                 (A) (A) (A) (A) (A) (A) (A) (A) (A) (A) (A) (A)
                 (A) (A) (A) (A) (A) (A) (A) (A) (A) (A) (A) (A)
                 (A) (A) (A) (A) (A) (A) (A) (A) (A) (A) (A) (A)
                 (A) (A) (A) (A) (A) (A) (A) (A) (A) (A) (A) (A)
                 (A) (A) (A) (A) (A) (A) (A) (A) (A) (A) (A) (A)
                 (A) (A) (A) (A) (A) (A) (A) (A) (A) (A) (A) (A)
                 (A) (A) (A) (A) (A) (A) (A) (A) (A) (A) (A) (A)
                 (A) (A) (A) (A) (A) (A) (A) (A) (A) (A) (A) (A)
                 (A) (A) (A) (A) (A) (A) (A) (A) (A) (A) (A) (A)
                 (A) (A) (A) (A) (A) (A) (A) (A) (A) (A) (A) (A)
                 (A) (A) (A) (A) (A) (A) (A) (A) (A) (A) (A) (A)
                 (A) (A) (A) (A) (A) (A) (A) (A) (A) (A) (A) (A)
                 (A) (A) (A) (A) (A) (A) (A) (A) (A) (A) (A) (A)
                 (A) (A) (A) (A) (A) (A) (A) (A) (A) (A) (A) (A)
                 (A) (A) (A) (A) (A) (A) (A) (A) (A) (A) (A) (A)
                 (A) (A) (A) (A) (A) (A) (A) (A) (A) (A) (A) (A)
                 (A) (A) (A) (A) (A) (A) (A) (A) (A) (A) (A) (A)
                 (A) (A) (A) (A) (A) (A) (A) (A) (A) (A) (A) (A)
                 (A) (A) (A) (A) (A) (A) (A) (A) (A) (A) (A) (A)
                 (A) (A) (A) (A) (A) (A) (A) (A) (A) (A) (A) (A)
                 (A) (A) (A) (A) (A) (A) (A) (A) (A) (A) (A) (A)
                 (A) (A) (A) (A) (A) (A) (A) (A) (A) (A) (A) (A)
                 (A) (A) (A) (A) (A) (A) (A) (A) (A) (A) (A) (A)
                 (A) (A) (A) (A) (A) (A) (A) (A) (A) (A) (A) (A)
                 (A) (A) (A) (A) (A) (A) (A) (A) (A) (A) (A) (A)
                 (A) (A) (A) (A) (A) (A) (A) (A) (A) (A) (A) (A)
                 (A) (A) (A) (A) (A) (A) (A) (A) (A) (A) (A) (A)
                 (A) (A) (A) (A) (A) (A) (A) (A) (A) (A) (A) (A)
                 (A) (A) (A) (A) (A) (A) (A) (A) (A) (A) (A) (A)
                 (A) (A) (A) (A) (A) (A) (A) (A) (A) (A) (A) (A)
                 (A) (A) (A) (A) (A) (A) (A) (A) (A) (A) (A) (A)
                 (A) (A) (A) (A) (A) (A) (A) (A) (A) (A) (A) (A)
                 (A) (A) (A) (A) (A) (A) (A) (A) (A) (A) (A) (A)
                 (A) (A) (A) (A) (A) (A) (A) (A) (A) (A) (A) (A)
                 (A) (A) (A) (A) (A) (A) (A) (A) (A) (A) (A) (A)
                 (A) (A) (A) (A) (A) (A) (A) (A) (A) (A) (A) (A)
                 (A) (A) (A) (A) (A) (A) (A) (A) (A) (A) (A) (A)
                 (A) (A) (A) (A) (A) (A) (A) (A) (A) (A) (A) (A)
                 (A) (A) (A) (A) (A) (A) (A) (A) (A) (A) (A) (A)
                 (A) (A) (A) (A) (A) (A) (A) (A) (A) (A) (A) (A)
                 (A) (A) (A) (A) (A) (A) (A) (A) (A) (A) (A) (A)
                 (A) (A) (A) (A) (A) (A) (A) (A) (A) (A) (A) (A)
                 (A) (A) (A) (A) (A) (A) (A) (A) (A) (A) (A) (A)
                 (A) (A) (A) (A) (A) (A) (A) (A) (A) (A) (A) (A)
                 (A) (A) (A) (A) (A) (A) (A) (A) (A) (A) (A) (A)
                 (A) (A) (A) (A) (A) (A) (A) (A) (A) (A) (A) (A)
                 (A) (A) (A) (A) (A) (A) (A) (A) (A) (A) (A) (A)
                 (A) (A) (A) (A) (A) (A) (A) (A) (A) (A) (A) (A)
                 (A) (A) (A) (A) (A) (A) (A) (A) (A) (A) (A) (A)
                 (A) (A) (A) (A) (A) (A) (A) (A) (A) (A) (A) (A)
                 (A) (A) (A) (A) (A) (A) (A) (A) (A) (A) (A) (A)
                 (A) (A) (A) (A) (A) (A) (A) (A) (A) (A) (A) (A)
                 (A) (A) (A) (A) (A) (A) (A) (A) (A) (A) (A) (A)
                 (A) (A) (A) (A) (A) (A) (A) (A) (A) (A) (A) (A)
                 (A) (A) (A) (A) (A) (A) (A) (A) (A) (A) (A) (A)
                 (A) (A) (A) (A) (A) (A) (A) (A) (A) (A) (A) (A)
                 (A) (A) (A) (A) (A) (A) (A) (A) (A) (A) (A) (A)
                 (A) (A) (A) (A) (A) (A) (A) (A) (A) (A) (A) (A)
                 (A) (A) (A) (A) (A) (A) (A) (A) (A) (A) (A) (A)
                 (A) (A) (A) (A) (A) (A) (A) (A) (A) (A) (A) (A)
                 (A) (A) (A) (A) (A) (A) (A) (A) (A) (A) (A) (A)
                 (A) (A) (A) (A) (A) (A) (A) (A) (A) (A) (A) (A)
                 (A) (A) (A) (A) (A) (A) (A) (A) (A) (A) (A) (A)
                 (A) (A) (A) (A) (A) (A) (A) (A) (A) (A) (A) (A)
                 (A) (A) (A) (A) (A) (A) (A) (A) (A) (A) (A) (A)
                 (A) (A) (A) (A) (A) (A) (A) (A) (A) (A) (A) (A)
                 (A) (A) (A) (A) (A) (A) (A) (A) (A) (A) (A) (A)
                 (A) (A) (A) (A) (A) (A) (A) (A) (A) (A) (A) (A)
                 (A) (A) (A) (A) (A) (A) (A) (A) (A) (A) (A) (A)
                 (A) (A) (A) (A) (A) (A) (A) (A) (A) (A) (A) (A)
                 (A) (A) (A) (A) (A) (A) (A) (A) (A) (A) (A) (A)
                 (A) (A) (A) (A) (A) (A) (A) (A) (A) (A) (A) (A)
                 (A) (A) (A) (A) (A) (A) (A) (A) (A) (A) (A) (A)
                 (A) (A) (A) (A) (A) (A) (A) (A) (A) (A) (A) (A)
                 (A) (A) (A) (A) (A) (A) (A) (A) (A) (A) (A) (A)
                 (A) (A) (A) (A) (A) (A) (A) (A) (A) (A) (A) (A)
                 (A) (A) (A) (A) (A) (A) (A) (A) (A) (A) (A) (A)
                 (A) (A) (A) (A) (A) (A) (A) (A) (A) (A) (A) (A)
                 (A) (A) (A) (A) (A) (A) (A) (A) (A) (A) (A) (A)
                 (A) (A) (A) (A) (A) (A) (A) (A) (A) (A) (A) (A)
                 (A) (A) (A) (A) (A) (A) (A) (A) (A) (A) (A) (A)
                 (A) (A) (A) (A) (A) (A) (A) (A) (A) (A) (A) (A)
                 (A) (A) (A) (A) (A) (A) (A) (A) (A) (A) (A) (A)
                 (A) (A) (A) (A) (A) (A) (A) (A) (A) (A) (A) (A)
                 (A) (A) (A) (A) (A) (A) (A) (A) (A) (A) (A) (A)
                 (A) (A) (A) (A) (A) (A) (A) (A) (A) (A) (A) (A)
                 (A) (A) (A) (A) (A) (A) (A) (A) (A) (A) (A) (A)
                 (A) (A) (A) (A) (A) (A) (A) (A) (A) (A) (A) (A)
                 (A) (A) (A) (A) (A) (A) (A) (A) (A) (A) (A) (A)
                 (A) (A) (A) (A) (A) (A) (A) (A) (A) (A) (A) (A)
                 (A) (A) (A) (A) (A) (A) (A) (A) (A) (A) (A) (A)
                 (A) (A) (A) (A) (A) (A) (A) (A) (A) (A) (A) (A)
                 (A) (A) (A) (A) (A) (A) (A) (A) (A) (A) (A) (A)
                 (A) (A) (A) (A) (A) (A) (A) (A) (A) (A) (A) (A)
                 (A) (A) (A) (A) (A) (A) (A) (A) (A) (A) (A) (A)
                 (A) (A) (A) (A) (A) (A) (A) (A) (A) (A) (A) (A)
                 (A) (A) (A) (A) (A) (A) (A) (A) (A) (A) (A) (A)
                 (A) (A) (A) (A) (A) (A) (A) (A) (A) (A) (A) (A)
                 (A) (A) (A) (A) (A) (A) (A) (A) (A) (A) (A) (A)
                 (A) (A) (A) (A) (A) (A) (A) (A) (A) (A) (A) (A)
                 (A) (A) (A) (A) (A) (A) (A) (A) (A) (A) (A) (A)
                 (A) (A) (A) (A) (A) (A) (A) (A) (A) (A) (A) (A)
                 (A) (A) (A) (A) (A) (A) (A) (A) (A) (A) (A) (A)
                 (A) (A) (A) (A) (A) (A) (A) (A) (A) (A) (A) (A)
                 (A) (A) (A) (A) (A) (A) (A) (A) (A) (A) (A) (A)
                 (A) (A) (A) (A) (A) (A) (A) (A) (A) (A) (A) (A)
                 (A) (A) (A) (A) (A) (A) (A) (A) (A) (A) (A) (A)
                 (A) (A) (A) (A) (A) (A) (A) (A) (A) (A) (A) (A)
                 (A) (A) (A) (A) (A) (A) (A) (A) (A) (A) (A) (A)
                 (A) (A) (A) (A) (A) (A) (A) (A) (A) (A) (A) (A)
                 (A) (A) (A) (A) (A) (A) (A) (A) (A) (A) (A) (A)
                 (A) (A) (A) (A) (A) (A) (A) (A) (A) (A) (A) (A)
                 (A) (A) (A) (A) (A) (A)
 The electronic state is 1-A.
 Alpha  occ. eigenvalues --  -25.62209 -25.61879 -25.61748 -25.61739 -25.61523
 Alpha  occ. eigenvalues --  -25.61472 -19.84810 -19.82324 -19.82052 -14.98589
 Alpha  occ. eigenvalues --  -14.96546 -10.99700 -10.99498 -10.83760 -10.79079
 Alpha  occ. eigenvalues --  -10.78542 -10.76907 -10.75617 -10.74842 -10.73997
 Alpha  occ. eigenvalues --  -10.73448 -10.72443 -10.72089 -10.71365 -10.69767
 Alpha  occ. eigenvalues --  -10.69683  -1.48643  -1.48189  -1.39263  -1.38874
 Alpha  occ. eigenvalues --   -1.38737  -1.38565  -1.15118  -1.12849  -1.03268
 Alpha  occ. eigenvalues --   -1.02622  -0.99527  -0.96535  -0.86989  -0.86621
 Alpha  occ. eigenvalues --   -0.84865  -0.82374  -0.78944  -0.76674  -0.74072
 Alpha  occ. eigenvalues --   -0.69688  -0.68669  -0.67467  -0.65004  -0.64781
 Alpha  occ. eigenvalues --   -0.64664  -0.64095  -0.64021  -0.63352  -0.61597
 Alpha  occ. eigenvalues --   -0.57802  -0.55894  -0.53592  -0.53268  -0.53084
 Alpha  occ. eigenvalues --   -0.52617  -0.52567  -0.51053  -0.49692  -0.48960
 Alpha  occ. eigenvalues --   -0.48896  -0.48741  -0.48019  -0.47639  -0.46732
 Alpha  occ. eigenvalues --   -0.46597  -0.46481  -0.46431  -0.45053  -0.44845
 Alpha  occ. eigenvalues --   -0.44291  -0.43709  -0.43537  -0.42295  -0.41498
 Alpha  occ. eigenvalues --   -0.40534  -0.40012  -0.38390  -0.37435  -0.37162
 Alpha  occ. eigenvalues --   -0.37119  -0.36046  -0.35712  -0.34163  -0.33467
 Alpha  occ. eigenvalues --   -0.32930  -0.31761  -0.29986  -0.26415  -0.23917
 Alpha  occ. eigenvalues --   -0.22999  -0.22631  -0.22398  -0.22209  -0.17560
 Alpha virt. eigenvalues --    0.08029   0.08917   0.09493   0.09993   0.10104
 Alpha virt. eigenvalues --    0.10980   0.11091   0.11189   0.11743   0.12483
 Alpha virt. eigenvalues --    0.12531   0.12902   0.13223   0.13355   0.13540
 Alpha virt. eigenvalues --    0.13757   0.13863   0.14296   0.14633   0.14739
 Alpha virt. eigenvalues --    0.15550   0.15911   0.16112   0.16548   0.17127
 Alpha virt. eigenvalues --    0.17372   0.17619   0.17821   0.18180   0.18390
 Alpha virt. eigenvalues --    0.18587   0.18872   0.19054   0.19469   0.19658
 Alpha virt. eigenvalues --    0.19737   0.20180   0.20672   0.20786   0.20941
 Alpha virt. eigenvalues --    0.21141   0.21607   0.21826   0.21914   0.22215
 Alpha virt. eigenvalues --    0.22378   0.22798   0.23011   0.23171   0.23655
 Alpha virt. eigenvalues --    0.23798   0.24123   0.24191   0.24886   0.25021
 Alpha virt. eigenvalues --    0.25188   0.25253   0.25941   0.26123   0.26354
 Alpha virt. eigenvalues --    0.26735   0.26925   0.27493   0.27794   0.27906
 Alpha virt. eigenvalues --    0.28278   0.28716   0.28807   0.29112   0.29171
 Alpha virt. eigenvalues --    0.29523   0.29877   0.30249   0.30497   0.30676
 Alpha virt. eigenvalues --    0.31034   0.31151   0.31433   0.31722   0.31883
 Alpha virt. eigenvalues --    0.32433   0.32561   0.32817   0.33178   0.33337
 Alpha virt. eigenvalues --    0.33665   0.33743   0.34040   0.34273   0.34630
 Alpha virt. eigenvalues --    0.34762   0.35155   0.35308   0.35522   0.35630
 Alpha virt. eigenvalues --    0.36022   0.36137   0.36515   0.36642   0.36747
 Alpha virt. eigenvalues --    0.37152   0.37283   0.37563   0.37674   0.37772
 Alpha virt. eigenvalues --    0.37950   0.38187   0.38404   0.38668   0.38948
 Alpha virt. eigenvalues --    0.39052   0.39146   0.39351   0.39395   0.39901
 Alpha virt. eigenvalues --    0.40088   0.40178   0.40503   0.40633   0.40997
 Alpha virt. eigenvalues --    0.41199   0.41481   0.41628   0.41851   0.42054
 Alpha virt. eigenvalues --    0.42561   0.42646   0.42784   0.42984   0.43453
 Alpha virt. eigenvalues --    0.43625   0.43773   0.44151   0.44300   0.44452
 Alpha virt. eigenvalues --    0.44519   0.44767   0.45104   0.45310   0.45401
 Alpha virt. eigenvalues --    0.45724   0.45931   0.46123   0.46173   0.46571
 Alpha virt. eigenvalues --    0.46750   0.46801   0.47157   0.47376   0.47495
 Alpha virt. eigenvalues --    0.47719   0.48047   0.48436   0.48478   0.48708
 Alpha virt. eigenvalues --    0.48965   0.49158   0.49237   0.49668   0.49792
 Alpha virt. eigenvalues --    0.50163   0.50247   0.50618   0.50732   0.50942
 Alpha virt. eigenvalues --    0.51240   0.51458   0.51661   0.51698   0.52067
 Alpha virt. eigenvalues --    0.52140   0.52346   0.52634   0.52873   0.53223
 Alpha virt. eigenvalues --    0.53295   0.53571   0.53666   0.54137   0.54189
 Alpha virt. eigenvalues --    0.54278   0.54738   0.54759   0.55118   0.55466
 Alpha virt. eigenvalues --    0.55557   0.55723   0.55876   0.56007   0.56290
 Alpha virt. eigenvalues --    0.56570   0.56904   0.57175   0.57273   0.57886
 Alpha virt. eigenvalues --    0.57987   0.58088   0.58234   0.58340   0.58553
 Alpha virt. eigenvalues --    0.58857   0.58998   0.59240   0.59462   0.59903
 Alpha virt. eigenvalues --    0.60190   0.60344   0.60518   0.60832   0.61398
 Alpha virt. eigenvalues --    0.61450   0.61616   0.62133   0.62500   0.62743
 Alpha virt. eigenvalues --    0.62824   0.62997   0.63109   0.63415   0.63975
 Alpha virt. eigenvalues --    0.64099   0.64336   0.64523   0.64838   0.65311
 Alpha virt. eigenvalues --    0.65441   0.65693   0.65954   0.66323   0.66488
 Alpha virt. eigenvalues --    0.66693   0.67206   0.67697   0.67753   0.67904
 Alpha virt. eigenvalues --    0.68200   0.68676   0.68810   0.69049   0.69342
 Alpha virt. eigenvalues --    0.69850   0.70359   0.70472   0.70747   0.70864
 Alpha virt. eigenvalues --    0.71567   0.71728   0.72010   0.72251   0.73016
 Alpha virt. eigenvalues --    0.73596   0.73704   0.73980   0.74193   0.74516
 Alpha virt. eigenvalues --    0.74666   0.75092   0.75233   0.75384   0.75830
 Alpha virt. eigenvalues --    0.76143   0.76434   0.76748   0.76963   0.77400
 Alpha virt. eigenvalues --    0.78015   0.78089   0.79010   0.79172   0.79535
 Alpha virt. eigenvalues --    0.79976   0.80059   0.80518   0.80956   0.81531
 Alpha virt. eigenvalues --    0.82050   0.82392   0.82593   0.82918   0.83091
 Alpha virt. eigenvalues --    0.83480   0.83839   0.84328   0.84644   0.85461
 Alpha virt. eigenvalues --    0.85577   0.85848   0.86029   0.86361   0.86647
 Alpha virt. eigenvalues --    0.86926   0.87185   0.87551   0.87778   0.88281
 Alpha virt. eigenvalues --    0.88402   0.88643   0.89157   0.89256   0.89723
 Alpha virt. eigenvalues --    0.90057   0.90526   0.90812   0.91249   0.91636
 Alpha virt. eigenvalues --    0.91803   0.91881   0.92239   0.92652   0.93162
 Alpha virt. eigenvalues --    0.93524   0.93585   0.93965   0.94314   0.94485
 Alpha virt. eigenvalues --    0.94555   0.94901   0.94906   0.95146   0.95753
 Alpha virt. eigenvalues --    0.95783   0.96242   0.96446   0.96642   0.96946
 Alpha virt. eigenvalues --    0.97177   0.97324   0.97465   0.97819   0.98045
 Alpha virt. eigenvalues --    0.98252   0.98460   0.98644   0.98997   0.99206
 Alpha virt. eigenvalues --    0.99689   1.00063   1.00418   1.00467   1.00843
 Alpha virt. eigenvalues --    1.00931   1.01424   1.01566   1.01984   1.02177
 Alpha virt. eigenvalues --    1.02641   1.03009   1.03179   1.03456   1.03742
 Alpha virt. eigenvalues --    1.04275   1.04400   1.05219   1.05265   1.05377
 Alpha virt. eigenvalues --    1.05539   1.05970   1.06165   1.06346   1.06617
 Alpha virt. eigenvalues --    1.07010   1.07290   1.07466   1.07990   1.08198
 Alpha virt. eigenvalues --    1.08414   1.08589   1.08830   1.08996   1.09325
 Alpha virt. eigenvalues --    1.09369   1.10028   1.10696   1.10973   1.11184
 Alpha virt. eigenvalues --    1.11444   1.12039   1.12235   1.12631   1.12771
 Alpha virt. eigenvalues --    1.12822   1.13309   1.13884   1.14113   1.14416
 Alpha virt. eigenvalues --    1.14778   1.14870   1.15001   1.15198   1.15592
 Alpha virt. eigenvalues --    1.15930   1.15997   1.16395   1.16661   1.16785
 Alpha virt. eigenvalues --    1.17188   1.17273   1.17462   1.17902   1.17952
 Alpha virt. eigenvalues --    1.18575   1.18604   1.18804   1.19060   1.19269
 Alpha virt. eigenvalues --    1.19507   1.19890   1.20058   1.20494   1.20577
 Alpha virt. eigenvalues --    1.21011   1.21430   1.21685   1.22208   1.22296
 Alpha virt. eigenvalues --    1.22685   1.23004   1.23175   1.23357   1.23510
 Alpha virt. eigenvalues --    1.23948   1.24388   1.24534   1.24815   1.25212
 Alpha virt. eigenvalues --    1.25461   1.26020   1.26410   1.26826   1.27123
 Alpha virt. eigenvalues --    1.27341   1.27496   1.28025   1.28220   1.28708
 Alpha virt. eigenvalues --    1.29026   1.29185   1.29406   1.29560   1.30049
 Alpha virt. eigenvalues --    1.30398   1.30739   1.30839   1.31046   1.31305
 Alpha virt. eigenvalues --    1.31843   1.32084   1.32597   1.32954   1.33363
 Alpha virt. eigenvalues --    1.33661   1.33889   1.34099   1.34229   1.34610
 Alpha virt. eigenvalues --    1.34912   1.35214   1.35669   1.35975   1.36257
 Alpha virt. eigenvalues --    1.36409   1.36753   1.37100   1.37349   1.37746
 Alpha virt. eigenvalues --    1.37872   1.38330   1.38522   1.39130   1.39457
 Alpha virt. eigenvalues --    1.39886   1.40463   1.40735   1.41035   1.41321
 Alpha virt. eigenvalues --    1.41768   1.41912   1.42075   1.42235   1.43177
 Alpha virt. eigenvalues --    1.43306   1.44060   1.44161   1.44395   1.44951
 Alpha virt. eigenvalues --    1.45151   1.45355   1.45791   1.46338   1.46558
 Alpha virt. eigenvalues --    1.47042   1.47181   1.47336   1.47693   1.47887
 Alpha virt. eigenvalues --    1.48446   1.48832   1.49040   1.49402   1.49574
 Alpha virt. eigenvalues --    1.49823   1.50077   1.50321   1.51097   1.51294
 Alpha virt. eigenvalues --    1.51526   1.52271   1.52593   1.52759   1.53201
 Alpha virt. eigenvalues --    1.53660   1.54302   1.54385   1.55132   1.55396
 Alpha virt. eigenvalues --    1.55988   1.56618   1.56753   1.56862   1.57146
 Alpha virt. eigenvalues --    1.57645   1.58032   1.58444   1.58670   1.59171
 Alpha virt. eigenvalues --    1.59480   1.59722   1.60225   1.60483   1.60884
 Alpha virt. eigenvalues --    1.61273   1.61918   1.62294   1.62575   1.63180
 Alpha virt. eigenvalues --    1.63446   1.63915   1.64311   1.64595   1.65038
 Alpha virt. eigenvalues --    1.65411   1.65563   1.66030   1.66360   1.66710
 Alpha virt. eigenvalues --    1.66882   1.67657   1.67982   1.68204   1.68365
 Alpha virt. eigenvalues --    1.68691   1.68947   1.69518   1.69883   1.70392
 Alpha virt. eigenvalues --    1.70611   1.71218   1.71256   1.71822   1.72036
 Alpha virt. eigenvalues --    1.72241   1.72514   1.73287   1.73499   1.73581
 Alpha virt. eigenvalues --    1.74160   1.74508   1.74717   1.75139   1.75285
 Alpha virt. eigenvalues --    1.75554   1.75693   1.76039   1.76254   1.76658
 Alpha virt. eigenvalues --    1.77182   1.77402   1.77995   1.78543   1.78798
 Alpha virt. eigenvalues --    1.79123   1.79900   1.80191   1.80559   1.80711
 Alpha virt. eigenvalues --    1.81043   1.81359   1.81822   1.82399   1.82524
 Alpha virt. eigenvalues --    1.82614   1.82961   1.83406   1.83535   1.83665
 Alpha virt. eigenvalues --    1.84763   1.85107   1.85326   1.85547   1.86106
 Alpha virt. eigenvalues --    1.86462   1.86758   1.87142   1.87961   1.88054
 Alpha virt. eigenvalues --    1.88610   1.88970   1.89126   1.89649   1.90162
 Alpha virt. eigenvalues --    1.90490   1.90719   1.91437   1.91713   1.92273
 Alpha virt. eigenvalues --    1.92456   1.92763   1.93240   1.93505   1.93742
 Alpha virt. eigenvalues --    1.94278   1.94792   1.94876   1.95293   1.95559
 Alpha virt. eigenvalues --    1.95940   1.96098   1.96583   1.96901   1.97213
 Alpha virt. eigenvalues --    1.97589   1.98245   1.98431   1.98669   1.99107
 Alpha virt. eigenvalues --    1.99639   1.99741   2.00409   2.00924   2.01467
 Alpha virt. eigenvalues --    2.01962   2.02036   2.02150   2.02901   2.03384
 Alpha virt. eigenvalues --    2.03536   2.04411   2.04644   2.04984   2.05358
 Alpha virt. eigenvalues --    2.05550   2.06170   2.06565   2.06771   2.07439
 Alpha virt. eigenvalues --    2.07889   2.08087   2.08656   2.09084   2.09381
 Alpha virt. eigenvalues --    2.10113   2.10261   2.10569   2.10707   2.11575
 Alpha virt. eigenvalues --    2.11678   2.12244   2.12352   2.12614   2.13410
 Alpha virt. eigenvalues --    2.14388   2.15128   2.15311   2.15559   2.16134
 Alpha virt. eigenvalues --    2.16702   2.16965   2.17660   2.17971   2.18179
 Alpha virt. eigenvalues --    2.19401   2.19951   2.20342   2.20626   2.21262
 Alpha virt. eigenvalues --    2.22086   2.22151   2.22497   2.23660   2.24543
 Alpha virt. eigenvalues --    2.24766   2.25177   2.25514   2.25977   2.26377
 Alpha virt. eigenvalues --    2.26818   2.27430   2.27766   2.28278   2.29533
 Alpha virt. eigenvalues --    2.29946   2.30150   2.30639   2.31425   2.31750
 Alpha virt. eigenvalues --    2.32657   2.33110   2.33711   2.33901   2.34834
 Alpha virt. eigenvalues --    2.34947   2.35653   2.36139   2.36582   2.37080
 Alpha virt. eigenvalues --    2.38735   2.38899   2.39032   2.40137   2.40803
 Alpha virt. eigenvalues --    2.41468   2.41983   2.42327   2.42480   2.43785
 Alpha virt. eigenvalues --    2.44824   2.45143   2.45496   2.46081   2.47076
 Alpha virt. eigenvalues --    2.48168   2.48447   2.48679   2.49489   2.50203
 Alpha virt. eigenvalues --    2.50598   2.50933   2.51177   2.52195   2.52710
 Alpha virt. eigenvalues --    2.53083   2.54165   2.54541   2.55143   2.55590
 Alpha virt. eigenvalues --    2.56526   2.56610   2.57577   2.57781   2.58917
 Alpha virt. eigenvalues --    2.59228   2.60588   2.61200   2.61632   2.62202
 Alpha virt. eigenvalues --    2.63420   2.64069   2.64644   2.64883   2.65811
 Alpha virt. eigenvalues --    2.67151   2.67416   2.68440   2.70009   2.70606
 Alpha virt. eigenvalues --    2.71287   2.72317   2.72995   2.73271   2.73799
 Alpha virt. eigenvalues --    2.74225   2.74879   2.76408   2.76502   2.77278
 Alpha virt. eigenvalues --    2.77497   2.78250   2.79186   2.79901   2.80228
 Alpha virt. eigenvalues --    2.81249   2.82115   2.82570   2.82914   2.83605
 Alpha virt. eigenvalues --    2.83978   2.84829   2.85353   2.85936   2.86362
 Alpha virt. eigenvalues --    2.87010   2.87276   2.87547   2.88324   2.88911
 Alpha virt. eigenvalues --    2.89781   2.90182   2.90502   2.91198   2.91992
 Alpha virt. eigenvalues --    2.92262   2.93288   2.94359   2.94651   2.96081
 Alpha virt. eigenvalues --    2.96538   2.96801   2.97393   2.97566   2.98780
 Alpha virt. eigenvalues --    2.98800   2.99508   3.00182   3.01103   3.01276
 Alpha virt. eigenvalues --    3.01769   3.02357   3.03307   3.03515   3.04788
 Alpha virt. eigenvalues --    3.05395   3.06530   3.07065   3.07427   3.08025
 Alpha virt. eigenvalues --    3.08614   3.08991   3.09456   3.10568   3.11077
 Alpha virt. eigenvalues --    3.11482   3.12674   3.13667   3.14121   3.14429
 Alpha virt. eigenvalues --    3.14919   3.15389   3.15590   3.17096   3.17279
 Alpha virt. eigenvalues --    3.17511   3.18043   3.18386   3.18858   3.19638
 Alpha virt. eigenvalues --    3.20113   3.21125   3.21280   3.21553   3.23080
 Alpha virt. eigenvalues --    3.23927   3.24121   3.25155   3.25402   3.25697
 Alpha virt. eigenvalues --    3.26440   3.26653   3.27734   3.28961   3.30604
 Alpha virt. eigenvalues --    3.31354   3.31976   3.32111   3.33114   3.33602
 Alpha virt. eigenvalues --    3.34214   3.34864   3.36020   3.36491   3.37110
 Alpha virt. eigenvalues --    3.37589   3.38516   3.38977   3.39532   3.40002
 Alpha virt. eigenvalues --    3.40327   3.40556   3.41032   3.41412   3.42104
 Alpha virt. eigenvalues --    3.42455   3.42736   3.43287   3.44369   3.44488
 Alpha virt. eigenvalues --    3.45354   3.45479   3.46066   3.46195   3.47146
 Alpha virt. eigenvalues --    3.47326   3.48029   3.48259   3.48666   3.48742
 Alpha virt. eigenvalues --    3.49302   3.49807   3.50469   3.51253   3.52024
 Alpha virt. eigenvalues --    3.52437   3.52921   3.54318   3.54478   3.55116
 Alpha virt. eigenvalues --    3.55482   3.55836   3.56345   3.56918   3.57683
 Alpha virt. eigenvalues --    3.58062   3.58382   3.59335   3.59596   3.59913
 Alpha virt. eigenvalues --    3.60575   3.60963   3.61935   3.62081   3.62782
 Alpha virt. eigenvalues --    3.63220   3.64526   3.64850   3.65141   3.66006
 Alpha virt. eigenvalues --    3.66030   3.66390   3.66882   3.67505   3.67706
 Alpha virt. eigenvalues --    3.68711   3.69142   3.70417   3.70441   3.70841
 Alpha virt. eigenvalues --    3.71172   3.71605   3.71894   3.72141   3.72796
 Alpha virt. eigenvalues --    3.73362   3.73537   3.74062   3.74115   3.74559
 Alpha virt. eigenvalues --    3.75028   3.75268   3.75395   3.76256   3.76740
 Alpha virt. eigenvalues --    3.77044   3.77407   3.78067   3.78570   3.78811
 Alpha virt. eigenvalues --    3.79340   3.79831   3.79966   3.80461   3.80677
 Alpha virt. eigenvalues --    3.81351   3.81628   3.82319   3.83145   3.83374
 Alpha virt. eigenvalues --    3.83623   3.83694   3.84758   3.85145   3.85375
 Alpha virt. eigenvalues --    3.85983   3.86491   3.86915   3.87351   3.87932
 Alpha virt. eigenvalues --    3.88500   3.89285   3.89504   3.89867   3.90176
 Alpha virt. eigenvalues --    3.90393   3.91084   3.91818   3.92410   3.92776
 Alpha virt. eigenvalues --    3.93251   3.94162   3.94191   3.94765   3.95129
 Alpha virt. eigenvalues --    3.95475   3.95938   3.96865   3.97004   3.97703
 Alpha virt. eigenvalues --    3.98241   3.98567   3.99076   3.99440   3.99770
 Alpha virt. eigenvalues --    4.00684   4.00935   4.01352   4.01704   4.02087
 Alpha virt. eigenvalues --    4.02699   4.03209   4.03791   4.04096   4.04443
 Alpha virt. eigenvalues --    4.05287   4.06148   4.06423   4.07268   4.07550
 Alpha virt. eigenvalues --    4.07810   4.08535   4.09722   4.10658   4.11210
 Alpha virt. eigenvalues --    4.12310   4.12558   4.13165   4.13411   4.14097
 Alpha virt. eigenvalues --    4.14675   4.15114   4.16177   4.16587   4.17055
 Alpha virt. eigenvalues --    4.17549   4.17965   4.18612   4.18919   4.19571
 Alpha virt. eigenvalues --    4.19888   4.20079   4.20481   4.20755   4.21012
 Alpha virt. eigenvalues --    4.21554   4.21752   4.22660   4.22737   4.23335
 Alpha virt. eigenvalues --    4.23991   4.24363   4.24536   4.25793   4.26144
 Alpha virt. eigenvalues --    4.26524   4.26817   4.27232   4.28250   4.28347
 Alpha virt. eigenvalues --    4.28732   4.29630   4.29820   4.30251   4.30468
 Alpha virt. eigenvalues --    4.30981   4.31698   4.32107   4.32856   4.34099
 Alpha virt. eigenvalues --    4.34206   4.34554   4.35468   4.36421   4.36671
 Alpha virt. eigenvalues --    4.37436   4.38225   4.38536   4.39004   4.39611
 Alpha virt. eigenvalues --    4.39899   4.40523   4.40943   4.42507   4.43045
 Alpha virt. eigenvalues --    4.43710   4.43871   4.44798   4.45087   4.46786
 Alpha virt. eigenvalues --    4.47265   4.47326   4.47782   4.48683   4.49191
 Alpha virt. eigenvalues --    4.49602   4.50265   4.50679   4.51734   4.52326
 Alpha virt. eigenvalues --    4.52603   4.52775   4.53816   4.54903   4.55635
 Alpha virt. eigenvalues --    4.56777   4.57065   4.57913   4.59044   4.59265
 Alpha virt. eigenvalues --    4.59906   4.60680   4.61082   4.61581   4.62221
 Alpha virt. eigenvalues --    4.63161   4.63985   4.65118   4.65278   4.65593
 Alpha virt. eigenvalues --    4.66482   4.66659   4.67037   4.67976   4.68645
 Alpha virt. eigenvalues --    4.68945   4.69740   4.70215   4.70836   4.71527
 Alpha virt. eigenvalues --    4.72162   4.72740   4.73044   4.73431   4.73699
 Alpha virt. eigenvalues --    4.74598   4.75103   4.76993   4.77730   4.78362
 Alpha virt. eigenvalues --    4.79415   4.79690   4.79959   4.81267   4.81819
 Alpha virt. eigenvalues --    4.82161   4.82481   4.83079   4.83213   4.83624
 Alpha virt. eigenvalues --    4.84427   4.85241   4.85594   4.86510   4.87608
 Alpha virt. eigenvalues --    4.88597   4.88709   4.89768   4.91171   4.91847
 Alpha virt. eigenvalues --    4.92645   4.93295   4.93706   4.94426   4.95062
 Alpha virt. eigenvalues --    4.95250   4.96219   4.96851   4.97439   4.98072
 Alpha virt. eigenvalues --    4.98828   4.99211   5.00113   5.01940   5.01947
 Alpha virt. eigenvalues --    5.02629   5.03956   5.04706   5.05070   5.06618
 Alpha virt. eigenvalues --    5.06918   5.07805   5.08794   5.09086   5.09612
 Alpha virt. eigenvalues --    5.09923   5.10772   5.11231   5.11770   5.12363
 Alpha virt. eigenvalues --    5.12936   5.14534   5.15334   5.15581   5.16046
 Alpha virt. eigenvalues --    5.16194   5.16841   5.18388   5.19065   5.19882
 Alpha virt. eigenvalues --    5.20860   5.21217   5.21458   5.22653   5.23427
 Alpha virt. eigenvalues --    5.24047   5.24742   5.25977   5.26517   5.27612
 Alpha virt. eigenvalues --    5.27878   5.28471   5.29124   5.29356   5.30541
 Alpha virt. eigenvalues --    5.30824   5.31922   5.32739   5.33133   5.34116
 Alpha virt. eigenvalues --    5.34445   5.35307   5.35594   5.36239   5.37150
 Alpha virt. eigenvalues --    5.39429   5.40796   5.41361   5.41839   5.43295
 Alpha virt. eigenvalues --    5.45029   5.45355   5.47146   5.48034   5.49495
 Alpha virt. eigenvalues --    5.49961   5.51006   5.52771   5.53218   5.54530
 Alpha virt. eigenvalues --    5.55553   5.57078   5.57821   5.58304   5.58411
 Alpha virt. eigenvalues --    5.58870   5.61370   5.62649   5.63097   5.63987
 Alpha virt. eigenvalues --    5.65105   5.66565   5.67533   5.67997   5.68832
 Alpha virt. eigenvalues --    5.70872   5.71878   5.72200   5.73114   5.74598
 Alpha virt. eigenvalues --    5.74860   5.77147   5.77854   5.78487   5.79465
 Alpha virt. eigenvalues --    5.80224   5.81566   5.82310   5.83120   5.83597
 Alpha virt. eigenvalues --    5.84045   5.84870   5.85323   5.85640   5.87076
 Alpha virt. eigenvalues --    5.89929   5.91208   5.91448   5.92755   5.93503
 Alpha virt. eigenvalues --    5.95963   5.97119   5.98048   5.98474   5.99021
 Alpha virt. eigenvalues --    5.99520   6.00756   6.00935   6.03317   6.05431
 Alpha virt. eigenvalues --    6.06019   6.06958   6.08107   6.09218   6.11036
 Alpha virt. eigenvalues --    6.12793   6.13548   6.14546   6.15354   6.15740
 Alpha virt. eigenvalues --    6.16801   6.17327   6.18424   6.19094   6.19671
 Alpha virt. eigenvalues --    6.21557   6.23307   6.23940   6.26566   6.28944
 Alpha virt. eigenvalues --    6.31090   6.33215   6.35720   6.36392   6.37687
 Alpha virt. eigenvalues --    6.39825   6.41139   6.44217   6.45899   6.46158
 Alpha virt. eigenvalues --    6.48584   6.53340   6.57317   6.61723   6.65249
 Alpha virt. eigenvalues --    6.69320   6.70293   6.71163   6.75059   6.76750
 Alpha virt. eigenvalues --    6.77970   6.78640   6.79162   6.79388   6.82626
 Alpha virt. eigenvalues --    6.83882   6.85332   6.88061   6.90243   6.92197
 Alpha virt. eigenvalues --    6.93612   6.94415   6.95409   6.97869   7.00045
 Alpha virt. eigenvalues --    7.00671   7.03788   7.06490   7.07416   7.08378
 Alpha virt. eigenvalues --    7.10057   7.11268   7.13503   7.16603   7.17755
 Alpha virt. eigenvalues --    7.18179   7.19596   7.23533   7.24633   7.25584
 Alpha virt. eigenvalues --    7.29484   7.29693   7.36227   7.36482   7.36811
 Alpha virt. eigenvalues --    7.37920   7.39177   7.39926   7.41850   7.43670
 Alpha virt. eigenvalues --    7.48277   7.49534   7.52577   7.64760   7.67442
 Alpha virt. eigenvalues --    7.68304   7.70183   7.71826   7.76945   7.80921
 Alpha virt. eigenvalues --    7.89159   7.96659   7.99751   8.02539   8.08910
 Alpha virt. eigenvalues --    8.11714   8.13554   8.34001   8.49172   8.81046
 Alpha virt. eigenvalues --    8.84778   8.85823   8.86323   8.87684   8.88922
 Alpha virt. eigenvalues --    8.89486   8.91120   8.91808   8.93146   8.95303
 Alpha virt. eigenvalues --    8.97418   9.02206   9.04082   9.06810   9.08775
 Alpha virt. eigenvalues --    9.16838   9.19030   9.19951   9.20450   9.21323
 Alpha virt. eigenvalues --    9.23130   9.24651   9.24840   9.25913   9.27746
 Alpha virt. eigenvalues --    9.28069   9.28593   9.30418   9.31138   9.32878
 Alpha virt. eigenvalues --    9.33620   9.34418   9.35630   9.36613   9.36685
 Alpha virt. eigenvalues --    9.37315   9.38500   9.39663   9.40058   9.40303
 Alpha virt. eigenvalues --    9.42695   9.42924   9.43934   9.44203   9.47266
 Alpha virt. eigenvalues --    9.48213   9.49642   9.50414   9.52093   9.54122
 Alpha virt. eigenvalues --    9.55767   9.56752   9.57501   9.59556   9.59710
 Alpha virt. eigenvalues --    9.61204   9.62250   9.63302   9.65154   9.68970
 Alpha virt. eigenvalues --    9.72077   9.82047   9.83458   9.84511   9.87011
 Alpha virt. eigenvalues --    9.89546   9.94372  10.04951  10.07261  10.10428
 Alpha virt. eigenvalues --   10.11685  15.34090  15.80999  15.98241  16.08889
 Alpha virt. eigenvalues --   16.21608  16.46049  16.54112  16.60627  16.71691
 Alpha virt. eigenvalues --   16.97531  17.25267  17.45027  17.81876  18.21175
 Alpha virt. eigenvalues --   18.37145  18.46275  18.64996  19.04364  19.27356
 Alpha virt. eigenvalues --   19.50435  20.53360  20.71852  21.03179  21.38599
 Alpha virt. eigenvalues --   21.91644  22.38623
          Condensed to atoms (all electrons):
               1          2          3          4          5          6
     1  C   12.101458  -0.962130  -0.801481   0.096861  -0.126884   0.011177
     2  N   -0.962130  10.150632   0.846511  -0.237805  -0.849930  -0.222843
     3  C   -0.801481   0.846511   7.430181   0.362108  -0.175067  -0.561501
     4  O    0.096861  -0.237805   0.362108   9.210343  -0.186033   0.020050
     5  N   -0.126884  -0.849930  -0.175067  -0.186033   8.912599   0.479041
     6  C    0.011177  -0.222843  -0.561501   0.020050   0.479041   6.770028
     7  C    0.002371  -0.019387   0.057069  -0.009866   0.022452  -0.126025
     8  C    0.002019  -0.001610   0.007248   0.000856  -0.048796   0.012218
     9  C   -1.711521   0.026506  -0.134438  -0.004475  -0.027159  -0.032989
    10  C   -0.522396   0.191491  -0.117152   0.001304   0.005729  -0.006206
    11  C   -0.003156  -0.116371   0.068394  -0.002046   0.018528   0.004663
    12  C   -0.707607   0.411744  -0.083821   0.016359   0.039907   0.000879
    13  C   -0.974008  -0.787381  -0.003795  -0.103853  -0.097788  -0.046686
    14  H   -0.277889  -1.018875  -0.316234  -0.009392   0.326788  -0.014273
    15  H   -0.093943   0.239799  -0.150347  -0.084053  -0.837394  -0.480184
    16  H    0.004341   0.010887  -0.061635  -0.013064  -0.087382   0.370348
    17  H    0.003406  -0.004644  -0.057836   0.012271  -0.031629   0.427816
    18  H    0.001694   0.002700   0.010952  -0.003788  -0.030642  -0.004301
    19  H   -0.000491   0.001754   0.015119   0.000347  -0.023890  -0.018036
    20  H    0.000306  -0.000058   0.002486  -0.000341   0.003972  -0.012414
    21  H   -0.000058  -0.000162   0.000156   0.000097  -0.000922  -0.006863
    22  H    0.000428  -0.000112   0.003114   0.000485   0.001892  -0.009696
    23  H   -1.096031   0.154643  -0.126104   0.002208   0.055634   0.001949
    24  H    0.180231  -0.164238   0.004500  -0.052973  -0.025914  -0.014953
    25  C   -0.079675   0.026798   0.001579  -0.001037   0.002652   0.000517
    26  C    0.012096   0.003337  -0.002179  -0.000459   0.000627  -0.000576
    27  H   -0.007864   0.016634  -0.000347  -0.002139   0.003491   0.000860
    28  F   -0.014437   0.002943  -0.000358  -0.000006   0.000017  -0.000008
    29  F   -0.005486  -0.003551  -0.000766   0.000022  -0.000075  -0.000011
    30  F   -0.021410   0.005642   0.000101   0.000005   0.000122   0.000004
    31  F   -0.023346   0.014843   0.000459  -0.000025   0.000665   0.000052
    32  F    0.011658   0.000735   0.000663  -0.000021  -0.000045  -0.000010
    33  F    0.032909  -0.002631   0.000734   0.000024   0.000135   0.000015
    34  O   -0.040431  -0.076661  -0.025641  -0.001895  -0.013277  -0.010962
    35  O    0.010460   0.034693  -0.012601  -0.004900  -0.059643  -0.066405
    36  C   -0.057346  -0.066572  -0.007925  -0.006981  -0.005355   0.007948
    37  C    0.016928  -0.028003  -0.017539  -0.001164   0.007051   0.007017
    38  C   -0.001168  -0.001074  -0.000580  -0.000020   0.001327  -0.000511
    39  H    0.003678  -0.004934  -0.000874  -0.000063   0.003237   0.000541
    40  H    0.003445  -0.004807  -0.000757  -0.000060   0.002578   0.000499
    41  H   -0.000381   0.000029   0.000034   0.000009  -0.001007   0.000519
    42  H   -0.000305   0.000279   0.000221  -0.000000  -0.000309  -0.000481
    43  H   -0.000141  -0.000122  -0.000028  -0.000008   0.000281  -0.000105
               7          8          9         10         11         12
     1  C    0.002371   0.002019  -1.711521  -0.522396  -0.003156  -0.707607
     2  N   -0.019387  -0.001610   0.026506   0.191491  -0.116371   0.411744
     3  C    0.057069   0.007248  -0.134438  -0.117152   0.068394  -0.083821
     4  O   -0.009866   0.000856  -0.004475   0.001304  -0.002046   0.016359
     5  N    0.022452  -0.048796  -0.027159   0.005729   0.018528   0.039907
     6  C   -0.126025   0.012218  -0.032989  -0.006206   0.004663   0.000879
     7  C    5.767399   0.007937  -0.004918  -0.000860  -0.000054   0.000316
     8  C    0.007937   5.945456  -0.000804  -0.000028  -0.000047  -0.000103
     9  C   -0.004918  -0.000804  12.338245  -1.396715  -0.259829  -0.131642
    10  C   -0.000860  -0.000028  -1.396715  10.090827  -1.682006  -0.059741
    11  C   -0.000054  -0.000047  -0.259829  -1.682006   9.683572  -1.335191
    12  C    0.000316  -0.000103  -0.131642  -0.059741  -1.335191  10.643731
    13  C   -0.000954  -0.000138  -0.273229  -0.104772   0.112777  -1.093952
    14  H    0.017286   0.004366  -0.367260  -0.057621   0.066492  -0.087856
    15  H    0.001373   0.001370   0.010263   0.016604  -0.009225   0.002076
    16  H   -0.031872  -0.011449  -0.000665  -0.000706   0.000451  -0.000143
    17  H   -0.018490  -0.012274  -0.003085  -0.000426   0.000389  -0.000844
    18  H    0.330821  -0.033268  -0.002667  -0.000297  -0.000057   0.000141
    19  H    0.389246  -0.042167  -0.001591  -0.000259   0.000121   0.000058
    20  H    0.020113   0.381535   0.000031  -0.000000   0.000004   0.000020
    21  H   -0.014481   0.448915   0.000073  -0.000005   0.000002  -0.000012
    22  H    0.016842   0.391541   0.000002   0.000045  -0.000039   0.000020
    23  H   -0.006217  -0.000403  -0.425688  -0.117603  -0.063136   0.033342
    24  H    0.000978   0.000053  -0.092365  -0.115238   0.133991  -0.438907
    25  C   -0.000031  -0.000001   0.115577  -0.223376  -0.636017  -0.439469
    26  C   -0.000210  -0.000005  -0.357611  -0.381880  -0.164303   0.027310
    27  H   -0.000150  -0.000019   0.021457  -0.043644  -0.088000   0.064285
    28  F   -0.000000  -0.000000   0.006247   0.014357   0.000276  -0.017770
    29  F    0.000000   0.000000   0.003650  -0.021315   0.043330  -0.011434
    30  F    0.000001  -0.000000  -0.013328   0.038770  -0.016987  -0.013742
    31  F   -0.000006  -0.000000   0.110656  -0.100784  -0.014311   0.004739
    32  F    0.000003   0.000000  -0.027536  -0.033668   0.046918  -0.001388
    33  F    0.000002  -0.000000  -0.031116   0.014415   0.005072  -0.007444
    34  O    0.002279   0.001681   0.070662   0.052463  -0.009279   0.003009
    35  O   -0.020468  -0.007427   0.034043   0.001547   0.000226   0.000187
    36  C   -0.004297  -0.001191  -0.039408   0.009112  -0.008941   0.007769
    37  C    0.000505   0.000082  -0.022097   0.002351  -0.001132   0.000893
    38  C    0.003911  -0.000601  -0.000690   0.000097  -0.000156   0.000103
    39  H   -0.000530  -0.000106  -0.009571   0.000643  -0.000058   0.000057
    40  H   -0.000699  -0.000078  -0.010277   0.000726  -0.000010  -0.000031
    41  H   -0.000293   0.000367   0.000181  -0.000073   0.000001   0.000002
    42  H    0.000315  -0.000059   0.000615  -0.000003  -0.000009   0.000007
    43  H   -0.000300  -0.000026  -0.000126  -0.000056  -0.000023   0.000018
              13         14         15         16         17         18
     1  C   -0.974008  -0.277889  -0.093943   0.004341   0.003406   0.001694
     2  N   -0.787381  -1.018875   0.239799   0.010887  -0.004644   0.002700
     3  C   -0.003795  -0.316234  -0.150347  -0.061635  -0.057836   0.010952
     4  O   -0.103853  -0.009392  -0.084053  -0.013064   0.012271  -0.003788
     5  N   -0.097788   0.326788  -0.837394  -0.087382  -0.031629  -0.030642
     6  C   -0.046686  -0.014273  -0.480184   0.370348   0.427816  -0.004301
     7  C   -0.000954   0.017286   0.001373  -0.031872  -0.018490   0.330821
     8  C   -0.000138   0.004366   0.001370  -0.011449  -0.012274  -0.033268
     9  C   -0.273229  -0.367260   0.010263  -0.000665  -0.003085  -0.002667
    10  C   -0.104772  -0.057621   0.016604  -0.000706  -0.000426  -0.000297
    11  C    0.112777   0.066492  -0.009225   0.000451   0.000389  -0.000057
    12  C   -1.093952  -0.087856   0.002076  -0.000143  -0.000844   0.000141
    13  C    9.978391   0.152850   0.038143  -0.000399   0.001922  -0.000866
    14  H    0.152850   2.470320  -0.222620   0.004952  -0.001063   0.007771
    15  H    0.038143  -0.222620   1.822686   0.041085  -0.015437  -0.001093
    16  H   -0.000399   0.004952   0.041085   0.432768   0.023939   0.016346
    17  H    0.001922  -0.001063  -0.015437   0.023939   0.437979  -0.009956
    18  H   -0.000866   0.007771  -0.001093   0.016346  -0.009956   0.444309
    19  H   -0.000823   0.001823  -0.012591  -0.013413   0.019059   0.018546
    20  H   -0.000116  -0.000181   0.001106  -0.006043  -0.011015   0.005996
    21  H    0.000025  -0.000802   0.003607  -0.002291  -0.000802  -0.020704
    22  H    0.000097  -0.000266  -0.000456  -0.009819  -0.006650  -0.000604
    23  H   -0.034498  -0.422719   0.019738  -0.000578  -0.000139  -0.001870
    24  H    0.085362   0.045999  -0.002257  -0.001368  -0.000907   0.000262
    25  C    0.041182  -0.003306  -0.000355   0.000036   0.000037  -0.000003
    26  C    0.016547  -0.036520   0.004327  -0.000056  -0.000042  -0.000085
    27  H   -0.269174  -0.013254   0.000786   0.000048   0.000112  -0.000023
    28  F   -0.004098  -0.000661   0.000063  -0.000001  -0.000001  -0.000001
    29  F    0.010554  -0.001273   0.000091  -0.000003  -0.000005   0.000001
    30  F    0.018962   0.001122  -0.000102  -0.000001   0.000001   0.000000
    31  F   -0.005676  -0.002819  -0.000600   0.000003   0.000001   0.000013
    32  F   -0.001538   0.000798  -0.000101   0.000001   0.000001   0.000002
    33  F   -0.007827   0.002047  -0.000105   0.000006   0.000002  -0.000002
    34  O   -0.011756  -0.176771  -0.074121  -0.000364  -0.001106  -0.001320
    35  O    0.003643  -0.007107  -0.145839   0.002748   0.000801   0.000753
    36  C    0.001639   0.029442  -0.012199   0.002679   0.000004   0.001263
    37  C    0.000578   0.001976   0.019946   0.000722   0.000459   0.003095
    38  C   -0.000083   0.009152  -0.010236   0.000055   0.000189  -0.000582
    39  H   -0.000011  -0.002273   0.005297   0.000076   0.000031   0.000223
    40  H    0.000065  -0.000541   0.004892   0.000049   0.000086   0.000206
    41  H   -0.000016   0.002516  -0.003337   0.000012   0.000002  -0.000103
    42  H    0.000007  -0.000497   0.001682  -0.000009  -0.000002  -0.000221
    43  H   -0.000001   0.001387  -0.001391   0.000019  -0.000049   0.000560
              19         20         21         22         23         24
     1  C   -0.000491   0.000306  -0.000058   0.000428  -1.096031   0.180231
     2  N    0.001754  -0.000058  -0.000162  -0.000112   0.154643  -0.164238
     3  C    0.015119   0.002486   0.000156   0.003114  -0.126104   0.004500
     4  O    0.000347  -0.000341   0.000097   0.000485   0.002208  -0.052973
     5  N   -0.023890   0.003972  -0.000922   0.001892   0.055634  -0.025914
     6  C   -0.018036  -0.012414  -0.006863  -0.009696   0.001949  -0.014953
     7  C    0.389246   0.020113  -0.014481   0.016842  -0.006217   0.000978
     8  C   -0.042167   0.381535   0.448915   0.391541  -0.000403   0.000053
     9  C   -0.001591   0.000031   0.000073   0.000002  -0.425688  -0.092365
    10  C   -0.000259  -0.000000  -0.000005   0.000045  -0.117603  -0.115238
    11  C    0.000121   0.000004   0.000002  -0.000039  -0.063136   0.133991
    12  C    0.000058   0.000020  -0.000012   0.000020   0.033342  -0.438907
    13  C   -0.000823  -0.000116   0.000025   0.000097  -0.034498   0.085362
    14  H    0.001823  -0.000181  -0.000802  -0.000266  -0.422719   0.045999
    15  H   -0.012591   0.001106   0.003607  -0.000456   0.019738  -0.002257
    16  H   -0.013413  -0.006043  -0.002291  -0.009819  -0.000578  -0.001368
    17  H    0.019059  -0.011015  -0.000802  -0.006650  -0.000139  -0.000907
    18  H    0.018546   0.005996  -0.020704  -0.000604  -0.001870   0.000262
    19  H    0.447720  -0.000683  -0.008512   0.000342  -0.000968   0.000155
    20  H   -0.000683   0.332044  -0.007226   0.019271  -0.000001   0.000054
    21  H   -0.008512  -0.007226   0.338439   0.000456   0.000018  -0.000002
    22  H    0.000342   0.019271   0.000456   0.323946   0.000038   0.000041
    23  H   -0.000968  -0.000001   0.000018   0.000038   2.676058  -0.069971
    24  H    0.000155   0.000054  -0.000002   0.000041  -0.069971   1.088734
    25  C    0.000002  -0.000000   0.000000  -0.000001   0.013201  -0.009843
    26  C   -0.000042  -0.000001   0.000001   0.000001  -0.090549  -0.001916
    27  H    0.000007  -0.000003  -0.000001  -0.000006   0.022162  -0.046863
    28  F    0.000000   0.000000   0.000000  -0.000000  -0.001987  -0.000168
    29  F   -0.000001  -0.000000   0.000000   0.000000   0.001793   0.001304
    30  F    0.000001   0.000000  -0.000000   0.000000  -0.002111  -0.002482
    31  F    0.000004  -0.000000   0.000000   0.000000  -0.078627   0.000023
    32  F   -0.000001  -0.000000   0.000000   0.000000   0.003475   0.000087
    33  F    0.000003   0.000000   0.000000  -0.000000   0.003325   0.000075
    34  O   -0.000214   0.000105   0.000202   0.000061  -0.016159  -0.001977
    35  O    0.002192  -0.000400   0.000531  -0.000774  -0.008933   0.000835
    36  C   -0.001597  -0.000097  -0.000423  -0.000173   0.047935  -0.002113
    37  C    0.000381  -0.000045  -0.000180   0.000003  -0.003544  -0.000209
    38  C   -0.000105  -0.000029   0.000094  -0.000048  -0.000982  -0.000020
    39  H    0.000149  -0.000017  -0.000024  -0.000008   0.003577  -0.000024
    40  H    0.000209  -0.000016  -0.000024  -0.000006   0.004280  -0.000040
    41  H   -0.000050   0.000040  -0.000020   0.000027  -0.000029  -0.000011
    42  H   -0.000047  -0.000003   0.000027  -0.000008  -0.000051   0.000006
    43  H   -0.000076  -0.000007  -0.000015  -0.000002  -0.000021  -0.000003
              25         26         27         28         29         30
     1  C   -0.079675   0.012096  -0.007864  -0.014437  -0.005486  -0.021410
     2  N    0.026798   0.003337   0.016634   0.002943  -0.003551   0.005642
     3  C    0.001579  -0.002179  -0.000347  -0.000358  -0.000766   0.000101
     4  O   -0.001037  -0.000459  -0.002139  -0.000006   0.000022   0.000005
     5  N    0.002652   0.000627   0.003491   0.000017  -0.000075   0.000122
     6  C    0.000517  -0.000576   0.000860  -0.000008  -0.000011   0.000004
     7  C   -0.000031  -0.000210  -0.000150  -0.000000   0.000000   0.000001
     8  C   -0.000001  -0.000005  -0.000019  -0.000000   0.000000  -0.000000
     9  C    0.115577  -0.357611   0.021457   0.006247   0.003650  -0.013328
    10  C   -0.223376  -0.381880  -0.043644   0.014357  -0.021315   0.038770
    11  C   -0.636017  -0.164303  -0.088000   0.000276   0.043330  -0.016987
    12  C   -0.439469   0.027310   0.064285  -0.017770  -0.011434  -0.013742
    13  C    0.041182   0.016547  -0.269174  -0.004098   0.010554   0.018962
    14  H   -0.003306  -0.036520  -0.013254  -0.000661  -0.001273   0.001122
    15  H   -0.000355   0.004327   0.000786   0.000063   0.000091  -0.000102
    16  H    0.000036  -0.000056   0.000048  -0.000001  -0.000003  -0.000001
    17  H    0.000037  -0.000042   0.000112  -0.000001  -0.000005   0.000001
    18  H   -0.000003  -0.000085  -0.000023  -0.000001   0.000001   0.000000
    19  H    0.000002  -0.000042   0.000007   0.000000  -0.000001   0.000001
    20  H   -0.000000  -0.000001  -0.000003   0.000000  -0.000000   0.000000
    21  H    0.000000   0.000001  -0.000001   0.000000   0.000000  -0.000000
    22  H   -0.000001   0.000001  -0.000006  -0.000000   0.000000   0.000000
    23  H    0.013201  -0.090549   0.022162  -0.001987   0.001793  -0.002111
    24  H   -0.009843  -0.001916  -0.046863  -0.000168   0.001304  -0.002482
[...]
                                                    374(r),370(r),551(r),1268(v)
                                                    273(r),143(r),677(r),1540(r)
                                                    371(r),1136(r),1290(v)
                                                    1403(r),104(r),630(r),282(r)
                                                    1435(r),838(r),366(r),465(r)
                                                    596(r),171(r),1474(r),606(r)
                                                    324(r),634(r),1340(v)
                                                    1490(r),1355(v),1536(r)
                                                    154(r),933(r),631(r),602(r)
                                                    1282(v),427(r),794(r)
                                                    1239(g),128(r),731(r),697(r)
                                                    351(r),712(r),267(r),1472(r)
                                                    927(r),289(r),113(r),853(r)
                                                    275(r),529(r),288(r),302(r)
                                                    877(r),1289(v),597(r)
                                                    1090(r),1310(g),192(r)
                                                    291(r),832(r),706(r),442(r)
                                                    761(r),259(r),928(r),333(r)
                                                    536(r),1313(g),1394(r)
                                                    264(r),765(r),749(r),662(r)
                                                    155(r),293(r),1419(r),686(r)
                                                    718(r),923(r),353(r),592(r)
                                                    1393(r),894(r),639(r),387(r)
                                                    652(r),651(r),1092(r)
                                                    1293(g),1149(r),433(r)
                                                    1319(g),256(r),716(r),195(r)
                                                    818(r),236(r),386(r),131(r)
                                                    368(r),1211(g),564(r)
                                                    1460(r),586(r),1235(g)
                                                    239(r),687(r),591(r),650(r)
                                                    1311(g),343(r),643(r)
                                                    1429(r),325(r),664(r),624(r)
                                                    243(r),1516(r),1332(g)
                                                    396(r),684(r),696(r),421(r)
                                                    672(r),378(r),898(r),621(r)
                                                    702(r),1274(v),220(r),724(r)
                                                    1271(v),607(r),890(r),111(r)
                                                    443(r),690(r),238(r),319(r)
                                                    735(r),1547(r),321(r),241(r)
                                                    316(r),295(r),352(r),695(r)
                                                    314(r),406(r),350(r),698(r)
                                                    489(r),654(r),691(r),1501(r)
                                                    132(r),504(r),459(r),836(r)
                                                    821(r),745(r),629(r),723(r)
                                                    870(r),1230(g),1317(g)
                                                    277(r),152(r),488(r),708(r)
                                                    543(r),1412(r),773(r),214(r)
                                                    752(r),616(r),711(r),1539(r)
                                                    728(r),892(r),1248(g)
                                                    1522(r),812(r),678(r)
                                                    1103(r),732(r),620(r),271(r)
                                                    399(r),1535(r),165(r),646(r)
                                                    1534(r),212(r),268(r),748(r)
                                                    1415(r),1541(r),1408(r)
                                                    1252(v),862(r),548(r),412(r)
                                                    187(r),492(r),841(r),1210(g)
                                                    1245(g),632(r),354(r),166(r)
                                                    1344(v),1225(g),1480(r)
                                                    445(r),114(r),1496(r),751(r)
                                                    568(r),885(r),478(r),418(r)
                                                    470(r),110(r),270(r),253(r)
                                                    310(r),280(r),1333(v),447(r)
                                                    134(r),814(r),426(r),250(r)
                                                    269(r),847(r),671(r),649(r)
                                                    1277(v),921(r),826(r),436(r)
                                                    215(r),676(r),599(r),895(r)
                                                    804(r),432(r),675(r),1548(r)
                                                    208(r),229(r),788(r),359(r)
                                                    839(r),320(r),873(r),213(r)
                                                    622(r),457(r),663(r),437(r)
                                                    950(r),107(r),919(r),1212(g)
                                                    827(r),477(r),147(r),833(r)
                                                    136(r),303(r),1249(g),641(r)
                                                    566(r),756(r),542(r),450(r)
                                                    469(r),513(r),669(r),1135(r)
                                                    153(r),845(r),318(r),311(r)
                                                    851(r),628(r),438(r),657(r)
                                                    262(r),1243(g),1530(r)
                                                    487(r),587(r),266(r),556(r)
                                                    689(r),1294(g),1138(r)
                                                    233(r),1269(v),248(r),498(r)
                                                    216(r),784(r),563(r),584(r)
                                                    363(r),1341(v),746(r),161(r)
                                                    822(r),338(r),917(r),124(r)
                                                    843(r),228(r),1370(v),455(r)
                                                    834(r),313(r),781(r),924(r)
                                                    920(r),1105(r),468(r),246(r)
                                                    429(r),1096(r),483(r),222(r)
                                                    454(r),283(r),444(r),683(r)
                                                    808(r),1532(r),431(r),290(r)
                                                    434(r),1359(v),1108(r)
                                                    139(r),670(r),661(r),555(r)
                                                    613(r),190(r),456(r),449(r)
                                                    1531(r),608(r),611(r),831(r)
                                                    1453(r),334(r),189(r)
                                                    1153(r),364(r),1250(g)
                                                    1494(r),909(r),673(r),733(r)
                                                    485(r),467(r),598(r),294(r)
                                                    145(r),893(r),844(r),682(r)
                                                    952(r),762(r),667(r),605(r)
                                                    506(r),610(r),937(r),148(r)
                                                    108(r),693(r),417(r),227(r)
                                                    1587(r),397(r),633(r)
                                                    1139(r),411(r),588(r),160(r)
                                                    1529(r),138(r),481(r)
                                                    1299(g),1525(r),810(r)
                                                    760(r),1281(v),340(r)
                                                    1244(g),1091(r),820(r)
                                                    115(r),528(r),878(r),887(r)
                                                    1265(v),850(r),554(r),180(r)
                                                    750(r),583(r),497(r),1238(g)
                                                    884(r),938(r),441(r),244(r)
                                                    1227(g),931(r),127(r),609(r)
                                                    375(r),779(r),792(r),1420(r)
                                                    473(r),617(r),705(r),1352(v)
                                                    1291(v),666(r),553(r),550(r)
                                                    407(r),911(r),415(r),525(r)
                                                    581(r),915(r),405(r),532(r)
                                                    889(r),759(r),764(r),486(r)
                                                    535(r),871(r),549(r),219(r)
                                                    1452(r),537(r),1198(r)
                                                    694(r),1357(v),349(r)
                                                    1246(g),242(r),390(r),217(r)
                                                    879(r),336(r),526(r),770(r)
                                                    1109(r),176(r),121(r),381(r)
                                                    1026(r),1582(r),265(r)
                                                    930(r),809(r),141(r),642(r)
                                                    1003(r),768(r),530(r),342(r)
                                                    1581(r),557(r),496(r),163(r)
                                                    1133(r),936(r),391(r),140(r)
                                                    207(r),546(r),872(r),625(r)
                                                    521(r),1312(g),668(r)
                                                    1144(r),202(r),218(r),453(r)
                                                    173(r),974(r),185(r),1097(r)
                                                    255(r),1557(r),645(r)
                                                    1330(g),458(r),647(r),725(r)
                                                    766(r),858(r),1204(r)
                                                    1586(r),533(r),585(r),527(r)
                                                    309(r),1457(r),692(r),849(r)
                                                    466(r),1102(r),807(r),916(r)
                                                    203(r),460(r),1178(r)
                                                    1578(r),346(r),183(r)
                                                    1015(r),1194(r),225(r)
                                                    423(r),1292(g),842(r),420(r)
                                                    558(r),863(r),520(r),301(r)
                                                    800(r),1014(r),1020(r)
                                                    1140(r),130(r),257(r)
                                                    1114(r),137(r),569(r),184(r)
                                                    648(r),861(r),769(r),619(r)
                                                    665(r),900(r),296(r),404(r)
                                                    979(r),1573(r),644(r),623(r)
                                                    1174(r),505(r),462(r),367(r)
                                                    409(r),953(r),1161(r),780(r)
                                                    783(r),787(r),567(r),1173(r)
                                                    1120(r),425(r),785(r),464(r)
                                                    1187(r),144(r),181(r)
                                                    1116(r),392(r),638(r),797(r)
                                                    835(r),985(r),600(r),742(r)
                                                    777(r),178(r),577(r),926(r)
                                                    940(r),508(r),593(r),881(r)
                                                    782(r),494(r),999(r),942(r)
                                                    1130(r),776(r),516(r),149(r)
                                                    223(r),1021(r),948(r),479(r)
                                                    518(r),906(r),876(r),247(r)
                                                    747(r),263(r),954(r),1124(r)
                                                    734(r),907(r),679(r),1145(r)
                                                    500(r),897(r),823(r),713(r)
                                                    507(r),976(r),1583(r),837(r)
                                                    323(r),793(r),1147(r),864(r)
                                                    983(r),828(r),410(r),578(r)
                                                    973(r),729(r),1533(r),899(r)
                                                    209(r),627(r),939(r),482(r)
                                                    763(r),757(r),362(r),170(r)
                                                    1011(r),474(r),1100(r)
                                                    106(r),304(r),1008(r),816(r)
                                                    519(r),840(r),402(r),935(r)
                                                    1055(r),476(r),910(r),135(r)
                                                    512(r),348(r),913(r),495(r)
                                                    914(r),904(r),1155(r),174(r)
                                                    475(r),1202(r),701(r)
                                                    1023(r),260(r),78(r),754(r)
                                                    570(r),970(r),805(r),798(r)
                                                    918(r),1044(r),1181(r)
                                                    710(r),975(r),1122(r),499(r)
                                                    357(r),636(r),531(r),249(r)
                                                    880(r),312(r),439(r),572(r)
                                                    258(r),509(r),413(r),422(r)
                                                    1013(r),1118(r),903(r)
                                                    1128(r),912(r),337(r),452(r)
                                                    1106(r),1094(r),1572(r)
                                                    164(r),579(r),790(r),998(r)
                                                    393(r),1171(r),1580(r)
                                                    720(r),1195(r),1059(r)
                                                    245(r),416(r),573(r),379(r)
                                                    1068(r),562(r),908(r),383(r)
                                                    803(r),727(r),1006(r)
                                                    1056(r),221(r),1009(r)
                                                    971(r),403(r),1579(r),576(r)
                                                    934(r),888(r),867(r),1575(r)
                                                    815(r),1165(r),503(r)
                                                    1576(r),875(r),941(r)
                                                    1087(r),129(r),472(r),300(r)
                                                    541(r),1012(r),1062(r)
                                                    965(r),869(r),1038(r),688(r)
                                                    414(r),1132(r),524(r),231(r)
                                                    982(r),1101(r),922(r)
                                                    1049(r),775(r),1088(r)
  1562. BD*(   2) O  34 - C  36          0.04652     5.39354   
  1563. BD*(   1) O  35 - C  36          0.04493   -12.87369   
  1564. BD*(   1) C  36 - C  37          0.07791    -0.48936   
  1565. BD*(   1) C  37 - C  38          0.00627    -3.33720   
  1566. BD*(   1) C  37 - H  39          0.01143     3.78509   
  1567. BD*(   1) C  37 - H  40          0.01143     4.36336   
  1568. BD*(   1) C  38 - H  41          0.00759     8.42592   
  1569. BD*(   1) C  38 - H  42          0.00716     2.11403   
  1570. BD*(   1) C  38 - H  43          0.00760     7.16158   
       -------------------------------
              Total Lewis   39.24237  ( 98.3804%)
        Valence non-Lewis    0.57695  (  1.4464%)
        Rydberg non-Lewis    0.06908  (  0.1732%)
       -------------------------------
            Total unit  2   39.88840  (100.0000%)
           Charge unit  2   -0.88840
 Unable to Open any file for archive entry.
 1\1\GINC-GADI-HMEM-CLX-0019\SP\RDSDPBEP86-FC\Aug-CC-pVTZ\C15H17F6N2O3(
 1-)\HIO507\03-Nov-2020\0\\# DSDPBEP86/AUG-cc-PVTZ SCF=Tight INT(grid=u
 ltrafine) Pop=NBO MaxDisk=1400000MB\\NM2_c2_carboxy.DSDPBEP86_AUG-cc-P
 VTZ\\-1,1\C,0,-5.7798664643,1.3075874693,0.2355192901\N,0,-4.582336064
 8,0.6437484312,0.1782451248\C,0,-3.3126341095,1.2100345836,0.093506249
 2\O,0,-3.1020757702,2.417781683,0.05753012\N,0,-2.3338123085,0.2795001
 203,0.059058639\C,0,-0.9517308984,0.68105856,-0.0744963802\C,0,-0.0457
 250166,-0.5343940485,0.0744801054\C,0,1.4244666968,-0.1630817465,-0.08
 92317162\C,0,-6.9424965344,0.5050495696,0.2952967573\C,0,-8.2012950291
 ,1.0677740934,0.3603287954\C,0,-8.3573761986,2.4674681796,0.3778926768
 \C,0,-7.2093770818,3.2495718396,0.3088173864\C,0,-5.9373778952,2.70151
 42559,0.2391829807\H,0,-4.6471218482,-0.3961207272,0.1927893257\H,0,-2
 .5539888072,-0.7284778947,0.0362984664\H,0,-0.7136730399,1.433979896,0
 .6848767714\H,0,-0.7839980624,1.1613941507,-1.0479082385\H,0,-0.335663
 9369,-1.2921872566,-0.6589742997\H,0,-0.2195635069,-0.9883364749,1.054
 5340485\H,0,1.61549868,0.2647043439,-1.0776682272\H,0,2.0720329569,-1.
 0352985889,0.0251948783\H,0,1.7304364894,0.5787417524,0.6543579753\H,0
 ,-6.818814824,-0.5732514991,0.2839029032\H,0,-5.0652343308,3.334827425
 ,0.1903707071\C,0,-9.6846168649,3.1627220139,0.4189335026\C,0,-9.37297
 76236,0.1219538803,0.453085702\H,0,-7.3082023149,4.3281119916,0.316116
 7838\F,0,-10.5453137491,2.6152363737,1.2924953689\F,0,-10.3110344493,3
 .1823155559,-0.7748073127\F,0,-9.5558334423,4.4555061528,0.7808957157\
 F,0,-9.0514701041,-1.1196002955,0.0699136282\F,0,-10.4033784038,0.5040
 689305,-0.3207006708\F,0,-9.8458820286,0.0197603339,1.708297257\O,0,-4
 .9763478602,-2.0684281428,0.2136763192\O,0,-2.7945168237,-2.5016924983
 ,-0.0183354581\C,0,-3.9921483868,-2.8437525315,0.0942319014\C,0,-4.320
 8390777,-4.3431503412,0.0885677684\C,0,-3.1053259763,-5.2500919978,-0.
 0417413168\H,0,-5.0306295642,-4.5116623393,-0.7273077522\H,0,-4.876348
 7401,-4.5530586497,1.007774602\H,0,-2.5626375887,-5.0387853803,-0.9645
 751093\H,0,-3.3939156454,-6.3056775205,-0.0417384972\H,0,-2.4073544515
 ,-5.0814836528,0.7800632287\\Version=ES64L-G16RevC.01\State=1-A\HF=-15
 11.9009323\MP2=-1514.4643535\RMSD=1.902e-09\PG=C01 [X(C15H17F6N2O3)]\\
 @
 The archive entry for this job was punched.


 IF YOU GIVE EVERYONE A PIECE OF YOUR MIND,
 PRETTY SOON IT WILL BE ALL GONE.
 Job cpu time:      11 days 11 hours 11 minutes 36.9 seconds.
 Elapsed time:       0 days  8 hours 36 minutes 58.2 seconds.
 File lengths (MBytes):  RWF=1012855 Int=      0 D2E=      0 Chk=    164 Scr=      1
 Normal termination of Gaussian 16 at Tue Nov  3 19:15:40 2020.
