 Entering Gaussian System, Link 0=/apps/gaussian/g09e01/g09/g09
 Initial command:
 /apps/gaussian/g09e01/g09/l1.exe "/jobfs/local/3595118.r-man2/Gau-55506.inp" -scrdir="/jobfs/local/3595118.r-man2/"
 Entering Link 1 = /apps/gaussian/g09e01/g09/l1.exe PID=     55507.
  
 Copyright (c) 1988,1990,1992,1993,1995,1998,2003,2009,2015,
            Gaussian, Inc.  All Rights Reserved.
  
 This is part of the Gaussian(R) 09 program.  It is based on
 the Gaussian(R) 03 system (copyright 2003, Gaussian, Inc.),
 the Gaussian(R) 98 system (copyright 1998, Gaussian, Inc.),
 the Gaussian(R) 94 system (copyright 1995, Gaussian, Inc.),
 the Gaussian 92(TM) system (copyright 1992, Gaussian, Inc.),
 the Gaussian 90(TM) system (copyright 1990, Gaussian, Inc.),
 the Gaussian 88(TM) system (copyright 1988, Gaussian, Inc.),
 the Gaussian 86(TM) system (copyright 1986, Carnegie Mellon
 University), and the Gaussian 82(TM) system (copyright 1983,
 Carnegie Mellon University). Gaussian is a federally registered
 trademark of Gaussian, Inc.
  
 This software contains proprietary and confidential information,
 including trade secrets, belonging to Gaussian, Inc.
  
 This software is provided under written license and may be
 used, copied, transmitted, or stored only in accord with that
 written license.
  
 The following legend is applicable only to US Government
 contracts under FAR:
  
                    RESTRICTED RIGHTS LEGEND
  
 Use, reproduction and disclosure by the US Government is
 subject to restrictions as set forth in subparagraphs (a)
 and (c) of the Commercial Computer Software - Restricted
 Rights clause in FAR 52.227-19.
  
 Gaussian, Inc.
 340 Quinnipiac St., Bldg. 40, Wallingford CT 06492
  
  
 ---------------------------------------------------------------
 Warning -- This program may not be used in any manner that
 competes with the business of Gaussian, Inc. or will provide
 assistance to any competitor of Gaussian, Inc.  The licensee
 of this program is prohibited from giving any competitor of
 Gaussian, Inc. access to this program.  By using this program,
 the user acknowledges that Gaussian, Inc. is engaged in the
 business of creating and licensing software in the field of
 computational chemistry and represents and warrants to the
 licensee that it is not a competitor of Gaussian, Inc. and that
 it will not use this program in any manner prohibited above.
 ---------------------------------------------------------------
  

 Cite this work as:
 Gaussian 09, Revision E.01,
 M. J. Frisch, G. W. Trucks, H. B. Schlegel, G. E. Scuseria, 
 M. A. Robb, J. R. Cheeseman, G. Scalmani, V. Barone, B. Mennucci, 
 G. A. Petersson, H. Nakatsuji, M. Caricato, X. Li, H. P. Hratchian, 
 A. F. Izmaylov, J. Bloino, G. Zheng, J. L. Sonnenberg, M. Hada, 
 M. Ehara, K. Toyota, R. Fukuda, J. Hasegawa, M. Ishida, T. Nakajima, 
 Y. Honda, O. Kitao, H. Nakai, T. Vreven, J. A. Montgomery, Jr., 
 J. E. Peralta, F. Ogliaro, M. Bearpark, J. J. Heyd, E. Brothers, 
 K. N. Kudin, V. N. Staroverov, T. Keith, R. Kobayashi, J. Normand, 
 K. Raghavachari, A. Rendell, J. C. Burant, S. S. Iyengar, J. Tomasi, 
 M. Cossi, N. Rega, J. M. Millam, M. Klene, J. E. Knox, J. B. Cross, 
 V. Bakken, C. Adamo, J. Jaramillo, R. Gomperts, R. E. Stratmann, 
 O. Yazyev, A. J. Austin, R. Cammi, C. Pomelli, J. W. Ochterski, 
 R. L. Martin, K. Morokuma, V. G. Zakrzewski, G. A. Voth, 
 P. Salvador, J. J. Dannenberg, S. Dapprich, A. D. Daniels, 
 O. Farkas, J. B. Foresman, J. V. Ortiz, J. Cioslowski, 
 and D. J. Fox, Gaussian, Inc., Wallingford CT, 2013.
 
 ******************************************
 Gaussian 09:  ES64L-G09RevE.01 30-Nov-2015
                14-Nov-2019 
 ******************************************
 %chk=NM2_carboxy.M062X_6-311pGd_opt_GD3.chk
 %mem=196608000
 %nproc=8
 Will use up to    8 processors via shared memory.
 ----------------------------------------------------------------------
 # M062X/6-311+G* SCF=Tight INT(grid=ultrafine) OPT IOP(2/17=4) Empiric
 alDispersion=GD3 maxdisk=3221225472
 ----------------------------------------------------------------------
 1/14=-1,18=20,19=15,26=4,38=1/1,3;
 2/9=110,12=2,17=4,18=5,40=1/2;
 3/5=4,6=6,7=11,11=2,16=1,25=1,30=1,71=1,74=-55,75=-5,124=31/1,2,3;
 4//1;
 5/5=2,32=2,38=5/2;
 6/7=2,8=2,9=2,10=2,28=1/1;
 7//1,2,3,16;
 1/14=-1,18=20,19=15,26=4/3(2);
 2/9=110,17=4/2;
 99//99;
 2/9=110,17=4/2;
 3/5=4,6=6,7=11,11=2,16=1,25=1,30=1,71=1,74=-55,75=-5,124=31/1,2,3;
 4/5=5,16=3,69=1/1;
 5/5=2,32=2,38=5/2;
 7//1,2,3,16;
 1/14=-1,18=20,19=15,26=4/3(-5);
 2/9=110,17=4/2;
 6/7=2,8=2,9=2,10=2,19=2,28=1/1;
 99/9=1/99;
 ----------------------------------
 NM2_carboxy.M062X_6-311pGd_opt_GD3
 ----------------------------------
 Symbolic Z-matrix:
 Charge = -1 Multiplicity = 1
 C                    -5.89256   1.08027   0.1947 
 N                    -4.65805   0.48745   0.13093 
 C                    -3.41643   1.11872   0.11675 
 O                    -3.26748   2.33469   0.15717 
 N                    -2.39286   0.23878   0.04561 
 C                    -1.02487   0.70423   0.08163 
 C                    -0.08315  -0.43231  -0.29577 
 C                     1.37782  -0.00032  -0.2235 
 C                    -6.11659   2.47069   0.22658 
 C                    -7.40712   2.97475   0.28892 
 C                    -8.51992   2.12019   0.33321 
 C                    -8.2877    0.74477   0.29102 
 C                    -7.01015   0.22652   0.22404 
 H                    -4.67225  -0.55239   0.10525 
 H                    -2.56242  -0.77738   0.09609 
 H                    -0.77171   1.08727   1.08007 
 H                    -0.91249   1.54563  -0.60929 
 H                    -0.33135  -0.7753   -1.30464 
 H                    -0.26547  -1.28571   0.36384 
 H                     1.57513   0.84167  -0.89356 
 H                     2.04984  -0.8142   -0.50497 
 H                     1.64569   0.31585   0.78873 
 H                    -5.2679    3.13606   0.19636 
 H                    -6.84329  -0.84571   0.19636 
 C                    -9.94292   2.59124   0.37602 
 C                    -7.54402   4.47675   0.34983 
 H                    -9.12998   0.06488   0.31877 
 F                    -10.1415   3.61132   1.22652 
 F                    -10.77692   1.60794   0.77072 
 F                    -10.40405   2.99692  -0.82407 
 F                    -6.43232   5.1043   -0.05797 
 F                    -7.78676   4.91599   1.59798 
 F                    -8.54145   4.93508  -0.42513 
 O                    -4.9406   -2.25682   0.09771 
 O                    -2.72668  -2.56198   0.18912 
 C                    -3.90717  -2.97269   0.15614 
 C                    -4.14582  -4.48947   0.18831 
 C                    -2.87332  -5.32219   0.25518 
 H                    -4.73702  -4.73957  -0.69818 
 H                    -4.79809  -4.69324   1.04331 
 H                    -2.23235  -5.11753  -0.60393 
 H                    -3.09789  -6.39307   0.27463 
 H                    -2.2949   -5.07287   1.14628 
 
 Add virtual bond connecting atoms O34        and H14        Dist= 3.26D+00.
 Add virtual bond connecting atoms O35        and H15        Dist= 3.39D+00.

 GradGradGradGradGradGradGradGradGradGradGradGradGradGradGradGradGradGrad
 Berny optimization.
 Initialization pass.
                           ----------------------------
                           !    Initial Parameters    !
                           ! (Angstroms and Degrees)  !
 --------------------------                            --------------------------
 ! Name  Definition              Value          Derivative Info.                !
 --------------------------------------------------------------------------------
 ! R1    R(1,2)                  1.371          estimate D2E/DX2                !
 ! R2    R(1,9)                  1.4087         estimate D2E/DX2                !
 ! R3    R(1,13)                 1.4067         estimate D2E/DX2                !
 ! R4    R(2,3)                  1.3929         estimate D2E/DX2                !
 ! R5    R(2,14)                 1.0403         estimate D2E/DX2                !
 ! R6    R(3,4)                  1.2257         estimate D2E/DX2                !
 ! R7    R(3,5)                  1.3517         estimate D2E/DX2                !
 ! R8    R(5,6)                  1.4455         estimate D2E/DX2                !
 ! R9    R(5,15)                 1.0314         estimate D2E/DX2                !
 ! R10   R(6,7)                  1.5235         estimate D2E/DX2                !
 ! R11   R(6,16)                 1.0989         estimate D2E/DX2                !
 ! R12   R(6,17)                 1.0945         estimate D2E/DX2                !
 ! R13   R(7,8)                  1.5252         estimate D2E/DX2                !
 ! R14   R(7,18)                 1.0941         estimate D2E/DX2                !
 ! R15   R(7,19)                 1.0939         estimate D2E/DX2                !
 ! R16   R(8,20)                 1.094          estimate D2E/DX2                !
 ! R17   R(8,21)                 1.0924         estimate D2E/DX2                !
 ! R18   R(8,22)                 1.0938         estimate D2E/DX2                !
 ! R19   R(9,10)                 1.3869         estimate D2E/DX2                !
 ! R20   R(9,23)                 1.0789         estimate D2E/DX2                !
 ! R21   R(10,11)                1.4038         estimate D2E/DX2                !
 ! R22   R(10,26)                1.5095         estimate D2E/DX2                !
 ! R23   R(11,12)                1.3955         estimate D2E/DX2                !
 ! R24   R(11,25)                1.4995         estimate D2E/DX2                !
 ! R25   R(12,13)                1.3803         estimate D2E/DX2                !
 ! R26   R(12,27)                1.0828         estimate D2E/DX2                !
 ! R27   R(13,24)                1.0855         estimate D2E/DX2                !
 ! R28   R(14,34)                1.7254         estimate D2E/DX2                !
 ! R29   R(15,35)                1.7946         estimate D2E/DX2                !
 ! R30   R(25,28)                1.3429         estimate D2E/DX2                !
 ! R31   R(25,29)                1.3484         estimate D2E/DX2                !
 ! R32   R(25,30)                1.3481         estimate D2E/DX2                !
 ! R33   R(26,31)                1.3401         estimate D2E/DX2                !
 ! R34   R(26,32)                1.3453         estimate D2E/DX2                !
 ! R35   R(26,33)                1.3437         estimate D2E/DX2                !
 ! R36   R(34,36)                1.2585         estimate D2E/DX2                !
 ! R37   R(35,36)                1.2503         estimate D2E/DX2                !
 ! R38   R(36,37)                1.5358         estimate D2E/DX2                !
 ! R39   R(37,38)                1.5222         estimate D2E/DX2                !
 ! R40   R(37,39)                1.0945         estimate D2E/DX2                !
 ! R41   R(37,40)                1.0945         estimate D2E/DX2                !
 ! R42   R(38,41)                1.0912         estimate D2E/DX2                !
 ! R43   R(38,42)                1.0943         estimate D2E/DX2                !
 ! R44   R(38,43)                1.0912         estimate D2E/DX2                !
 ! A1    A(2,1,9)              124.8236         estimate D2E/DX2                !
 ! A2    A(2,1,13)             116.9975         estimate D2E/DX2                !
 ! A3    A(9,1,13)             118.1783         estimate D2E/DX2                !
 ! A4    A(1,2,3)              127.3844         estimate D2E/DX2                !
 ! A5    A(1,2,14)             114.9032         estimate D2E/DX2                !
 ! A6    A(3,2,14)             117.7055         estimate D2E/DX2                !
 ! A7    A(2,3,4)              123.8874         estimate D2E/DX2                !
 ! A8    A(2,3,5)              112.3649         estimate D2E/DX2                !
 ! A9    A(4,3,5)              123.7467         estimate D2E/DX2                !
 ! A10   A(3,5,6)              120.3806         estimate D2E/DX2                !
 ! A11   A(3,5,15)             120.9494         estimate D2E/DX2                !
 ! A12   A(6,5,15)             118.1381         estimate D2E/DX2                !
 ! A13   A(5,6,7)              109.7925         estimate D2E/DX2                !
 ! A14   A(5,6,16)             110.6646         estimate D2E/DX2                !
 ! A15   A(5,6,17)             109.2072         estimate D2E/DX2                !
 ! A16   A(7,6,16)             110.0412         estimate D2E/DX2                !
 ! A17   A(7,6,17)             110.711          estimate D2E/DX2                !
 ! A18   A(16,6,17)            106.3746         estimate D2E/DX2                !
 ! A19   A(6,7,8)              111.6583         estimate D2E/DX2                !
 ! A20   A(6,7,18)             108.7884         estimate D2E/DX2                !
 ! A21   A(6,7,19)             109.2448         estimate D2E/DX2                !
 ! A22   A(8,7,18)             110.4736         estimate D2E/DX2                !
 ! A23   A(8,7,19)             110.6115         estimate D2E/DX2                !
 ! A24   A(18,7,19)            105.881          estimate D2E/DX2                !
 ! A25   A(7,8,20)             111.2064         estimate D2E/DX2                !
 ! A26   A(7,8,21)             111.4729         estimate D2E/DX2                !
 ! A27   A(7,8,22)             111.1196         estimate D2E/DX2                !
 ! A28   A(20,8,21)            107.7375         estimate D2E/DX2                !
 ! A29   A(20,8,22)            107.4677         estimate D2E/DX2                !
 ! A30   A(21,8,22)            107.6479         estimate D2E/DX2                !
 ! A31   A(1,9,10)             120.5129         estimate D2E/DX2                !
 ! A32   A(1,9,23)             118.881          estimate D2E/DX2                !
 ! A33   A(10,9,23)            120.6053         estimate D2E/DX2                !
 ! A34   A(9,10,11)            121.1863         estimate D2E/DX2                !
 ! A35   A(9,10,26)            116.6065         estimate D2E/DX2                !
 ! A36   A(11,10,26)           122.1802         estimate D2E/DX2                !
 ! A37   A(10,11,12)           117.8477         estimate D2E/DX2                !
 ! A38   A(10,11,25)           124.1896         estimate D2E/DX2                !
 ! A39   A(12,11,25)           117.9288         estimate D2E/DX2                !
 ! A40   A(11,12,13)           121.7043         estimate D2E/DX2                !
 ! A41   A(11,12,27)           119.2512         estimate D2E/DX2                !
 ! A42   A(13,12,27)           119.0429         estimate D2E/DX2                !
 ! A43   A(1,13,12)            120.5633         estimate D2E/DX2                !
 ! A44   A(1,13,24)            118.4799         estimate D2E/DX2                !
 ! A45   A(12,13,24)           120.9565         estimate D2E/DX2                !
 ! A46   A(11,25,28)           113.3921         estimate D2E/DX2                !
 ! A47   A(11,25,29)           111.4822         estimate D2E/DX2                !
 ! A48   A(11,25,30)           113.1855         estimate D2E/DX2                !
 ! A49   A(28,25,29)           106.0861         estimate D2E/DX2                !
 ! A50   A(28,25,30)           106.5369         estimate D2E/DX2                !
 ! A51   A(29,25,30)           105.5722         estimate D2E/DX2                !
 ! A52   A(10,26,31)           112.2372         estimate D2E/DX2                !
 ! A53   A(10,26,32)           112.253          estimate D2E/DX2                !
 ! A54   A(10,26,33)           112.5483         estimate D2E/DX2                !
 ! A55   A(31,26,32)           106.2076         estimate D2E/DX2                !
 ! A56   A(31,26,33)           106.2927         estimate D2E/DX2                !
 ! A57   A(32,26,33)           106.8458         estimate D2E/DX2                !
 ! A58   A(14,34,36)           115.7203         estimate D2E/DX2                !
 ! A59   A(15,35,36)           114.3124         estimate D2E/DX2                !
 ! A60   A(34,36,35)           126.133          estimate D2E/DX2                !
 ! A61   A(34,36,37)           115.795          estimate D2E/DX2                !
 ! A62   A(35,36,37)           118.072          estimate D2E/DX2                !
 ! A63   A(36,37,38)           114.2863         estimate D2E/DX2                !
 ! A64   A(36,37,39)           107.017          estimate D2E/DX2                !
 ! A65   A(36,37,40)           107.0281         estimate D2E/DX2                !
 ! A66   A(38,37,39)           111.2302         estimate D2E/DX2                !
 ! A67   A(38,37,40)           111.2237         estimate D2E/DX2                !
 ! A68   A(39,37,40)           105.5603         estimate D2E/DX2                !
 ! A69   A(37,38,41)           110.7224         estimate D2E/DX2                !
 ! A70   A(37,38,42)           111.38           estimate D2E/DX2                !
 ! A71   A(37,38,43)           110.7319         estimate D2E/DX2                !
 ! A72   A(41,38,42)           108.545          estimate D2E/DX2                !
 ! A73   A(41,38,43)           106.7799         estimate D2E/DX2                !
 ! A74   A(42,38,43)           108.5319         estimate D2E/DX2                !
 ! A75   L(2,14,34,7,-1)       188.2348         estimate D2E/DX2                !
 ! A76   L(5,15,35,7,-1)       175.8607         estimate D2E/DX2                !
 ! A77   L(2,14,34,7,-2)       179.564          estimate D2E/DX2                !
 ! A78   L(5,15,35,7,-2)       179.1879         estimate D2E/DX2                !
 ! D1    D(9,1,2,3)              1.5782         estimate D2E/DX2                !
 ! D2    D(9,1,2,14)          -179.4032         estimate D2E/DX2                !
 ! D3    D(13,1,2,3)          -178.7127         estimate D2E/DX2                !
 ! D4    D(13,1,2,14)            0.306          estimate D2E/DX2                !
 ! D5    D(2,1,9,10)           179.8806         estimate D2E/DX2                !
 ! D6    D(2,1,9,23)             0.2042         estimate D2E/DX2                !
 ! D7    D(13,1,9,10)            0.1746         estimate D2E/DX2                !
 ! D8    D(13,1,9,23)         -179.5018         estimate D2E/DX2                !
 ! D9    D(2,1,13,12)          179.8587         estimate D2E/DX2                !
 ! D10   D(2,1,13,24)            0.0717         estimate D2E/DX2                !
 ! D11   D(9,1,13,12)           -0.4122         estimate D2E/DX2                !
 ! D12   D(9,1,13,24)          179.8008         estimate D2E/DX2                !
 ! D13   D(1,2,3,4)             -0.2404         estimate D2E/DX2                !
 ! D14   D(1,2,3,5)           -179.8875         estimate D2E/DX2                !
 ! D15   D(14,2,3,4)          -179.2351         estimate D2E/DX2                !
 ! D16   D(14,2,3,5)             1.1178         estimate D2E/DX2                !
 ! D17   D(1,2,34,36)         -173.9995         estimate D2E/DX2                !
 ! D18   D(3,2,34,36)            4.5545         estimate D2E/DX2                !
 ! D19   D(2,3,5,6)           -177.1813         estimate D2E/DX2                !
 ! D20   D(2,3,5,15)            -5.7022         estimate D2E/DX2                !
 ! D21   D(4,3,5,6)              3.171          estimate D2E/DX2                !
 ! D22   D(4,3,5,15)           174.6502         estimate D2E/DX2                !
 ! D23   D(3,5,6,7)           -168.5347         estimate D2E/DX2                !
 ! D24   D(3,5,6,16)            69.798          estimate D2E/DX2                !
 ! D25   D(3,5,6,17)           -46.975          estimate D2E/DX2                !
 ! D26   D(15,5,6,7)            19.7508         estimate D2E/DX2                !
 ! D27   D(15,5,6,16)         -101.9166         estimate D2E/DX2                !
 ! D28   D(15,5,6,17)          141.3105         estimate D2E/DX2                !
 ! D29   D(3,5,35,36)            8.6654         estimate D2E/DX2                !
 ! D30   D(6,5,35,36)         -179.8778         estimate D2E/DX2                !
 ! D31   D(5,6,7,8)           -177.9866         estimate D2E/DX2                !
 ! D32   D(5,6,7,18)            59.8305         estimate D2E/DX2                !
 ! D33   D(5,6,7,19)           -55.3151         estimate D2E/DX2                !
 ! D34   D(16,6,7,8)           -55.9471         estimate D2E/DX2                !
 ! D35   D(16,6,7,18)         -178.13           estimate D2E/DX2                !
 ! D36   D(16,6,7,19)           66.7245         estimate D2E/DX2                !
 ! D37   D(17,6,7,8)            61.3587         estimate D2E/DX2                !
 ! D38   D(17,6,7,18)          -60.8242         estimate D2E/DX2                !
 ! D39   D(17,6,7,19)         -175.9697         estimate D2E/DX2                !
 ! D40   D(6,7,8,20)           -59.1398         estimate D2E/DX2                !
 ! D41   D(6,7,8,21)          -179.3904         estimate D2E/DX2                !
 ! D42   D(6,7,8,22)            60.5316         estimate D2E/DX2                !
 ! D43   D(18,7,8,20)           62.0697         estimate D2E/DX2                !
 ! D44   D(18,7,8,21)          -58.181          estimate D2E/DX2                !
 ! D45   D(18,7,8,22)         -178.2589         estimate D2E/DX2                !
 ! D46   D(19,7,8,20)          178.9731         estimate D2E/DX2                !
 ! D47   D(19,7,8,21)           58.7225         estimate D2E/DX2                !
 ! D48   D(19,7,8,22)          -61.3555         estimate D2E/DX2                !
 ! D49   D(1,9,10,11)            0.5425         estimate D2E/DX2                !
 ! D50   D(1,9,10,26)          178.6902         estimate D2E/DX2                !
 ! D51   D(23,9,10,11)        -179.7868         estimate D2E/DX2                !
 ! D52   D(23,9,10,26)          -1.639          estimate D2E/DX2                !
 ! D53   D(9,10,11,12)          -0.9994         estimate D2E/DX2                !
 ! D54   D(9,10,11,25)        -178.8322         estimate D2E/DX2                !
 ! D55   D(26,10,11,12)       -179.0427         estimate D2E/DX2                !
 ! D56   D(26,10,11,25)          3.1245         estimate D2E/DX2                !
 ! D57   D(9,10,26,31)          18.4901         estimate D2E/DX2                !
 ! D58   D(9,10,26,32)        -101.0546         estimate D2E/DX2                !
 ! D59   D(9,10,26,33)         138.3531         estimate D2E/DX2                !
 ! D60   D(11,10,26,31)       -163.3821         estimate D2E/DX2                !
 ! D61   D(11,10,26,32)         77.0732         estimate D2E/DX2                !
 ! D62   D(11,10,26,33)        -43.5191         estimate D2E/DX2                !
 ! D63   D(10,11,12,13)          0.7627         estimate D2E/DX2                !
 ! D64   D(10,11,12,27)       -179.6933         estimate D2E/DX2                !
 ! D65   D(25,11,12,13)        178.7338         estimate D2E/DX2                !
 ! D66   D(25,11,12,27)         -1.7222         estimate D2E/DX2                !
 ! D67   D(10,11,25,28)        -43.7612         estimate D2E/DX2                !
 ! D68   D(10,11,25,29)       -163.4093         estimate D2E/DX2                !
 ! D69   D(10,11,25,30)         77.7484         estimate D2E/DX2                !
 ! D70   D(12,11,25,28)        138.4076         estimate D2E/DX2                !
 ! D71   D(12,11,25,29)         18.7595         estimate D2E/DX2                !
 ! D72   D(12,11,25,30)       -100.0828         estimate D2E/DX2                !
 ! D73   D(11,12,13,1)          -0.0646         estimate D2E/DX2                !
 ! D74   D(11,12,13,24)        179.717          estimate D2E/DX2                !
 ! D75   D(27,12,13,1)        -179.6096         estimate D2E/DX2                !
 ! D76   D(27,12,13,24)          0.1721         estimate D2E/DX2                !
 ! D77   D(14,34,36,35)         -1.6326         estimate D2E/DX2                !
 ! D78   D(14,34,36,37)        178.3915         estimate D2E/DX2                !
 ! D79   D(15,35,36,34)         -1.7544         estimate D2E/DX2                !
 ! D80   D(15,35,36,37)        178.221          estimate D2E/DX2                !
 ! D81   D(34,36,37,38)        179.8451         estimate D2E/DX2                !
 ! D82   D(34,36,37,39)         56.2332         estimate D2E/DX2                !
 ! D83   D(34,36,37,40)        -56.543          estimate D2E/DX2                !
 ! D84   D(35,36,37,38)         -0.1328         estimate D2E/DX2                !
 ! D85   D(35,36,37,39)       -123.7447         estimate D2E/DX2                !
 ! D86   D(35,36,37,40)        123.4791         estimate D2E/DX2                !
 ! D87   D(36,37,38,41)        -59.0439         estimate D2E/DX2                !
 ! D88   D(36,37,38,42)       -179.9269         estimate D2E/DX2                !
 ! D89   D(36,37,38,43)         59.2002         estimate D2E/DX2                !
 ! D90   D(39,37,38,41)         62.2709         estimate D2E/DX2                !
 ! D91   D(39,37,38,42)        -58.6121         estimate D2E/DX2                !
 ! D92   D(39,37,38,43)       -179.485          estimate D2E/DX2                !
 ! D93   D(40,37,38,41)        179.6316         estimate D2E/DX2                !
 ! D94   D(40,37,38,42)         58.7486         estimate D2E/DX2                !
 ! D95   D(40,37,38,43)        -62.1243         estimate D2E/DX2                !
 --------------------------------------------------------------------------------
 Trust Radius=3.00D-01 FncErr=1.00D-07 GrdErr=1.00D-06
 Number of steps in this run=    227 maximum allowed number of steps=    258.
 GradGradGradGradGradGradGradGradGradGradGradGradGradGradGradGradGradGrad

                          Input orientation:                          
 ---------------------------------------------------------------------
 Center     Atomic      Atomic             Coordinates (Angstroms)
 Number     Number       Type             X           Y           Z
 ---------------------------------------------------------------------
      1          6           0       -5.892560    1.080265    0.194696
      2          7           0       -4.658047    0.487454    0.130929
      3          6           0       -3.416434    1.118717    0.116747
      4          8           0       -3.267482    2.334689    0.157172
      5          7           0       -2.392857    0.238780    0.045612
      6          6           0       -1.024867    0.704225    0.081629
      7          6           0       -0.083154   -0.432307   -0.295774
      8          6           0        1.377816   -0.000323   -0.223504
      9          6           0       -6.116594    2.470690    0.226581
     10          6           0       -7.407123    2.974748    0.288918
     11          6           0       -8.519924    2.120194    0.333209
     12          6           0       -8.287703    0.744771    0.291019
     13          6           0       -7.010146    0.226525    0.224038
     14          1           0       -4.672253   -0.552392    0.105250
     15          1           0       -2.562418   -0.777377    0.096090
     16          1           0       -0.771706    1.087265    1.080065
     17          1           0       -0.912488    1.545634   -0.609287
     18          1           0       -0.331349   -0.775299   -1.304638
     19          1           0       -0.265466   -1.285713    0.363843
     20          1           0        1.575134    0.841669   -0.893559
     21          1           0        2.049841   -0.814203   -0.504972
     22          1           0        1.645689    0.315851    0.788730
     23          1           0       -5.267898    3.136063    0.196361
     24          1           0       -6.843287   -0.845711    0.196360
     25          6           0       -9.942923    2.591242    0.376015
     26          6           0       -7.544022    4.476753    0.349829
     27          1           0       -9.129977    0.064883    0.318775
     28          9           0      -10.141504    3.611324    1.226525
     29          9           0      -10.776921    1.607936    0.770722
     30          9           0      -10.404055    2.996916   -0.824070
     31          9           0       -6.432323    5.104300   -0.057973
     32          9           0       -7.786761    4.915991    1.597985
     33          9           0       -8.541451    4.935082   -0.425134
     34          8           0       -4.940602   -2.256825    0.097710
     35          8           0       -2.726676   -2.561977    0.189115
     36          6           0       -3.907169   -2.972691    0.156142
     37          6           0       -4.145818   -4.489465    0.188311
     38          6           0       -2.873320   -5.322186    0.255182
     39          1           0       -4.737016   -4.739572   -0.698181
     40          1           0       -4.798090   -4.693241    1.043306
     41          1           0       -2.232346   -5.117527   -0.603929
     42          1           0       -3.097888   -6.393066    0.274626
     43          1           0       -2.294901   -5.072873    1.146281
 ---------------------------------------------------------------------
                    Distance matrix (angstroms):
                    1          2          3          4          5
     1  C    0.000000
     2  N    1.370954   0.000000
     3  C    2.477651   1.392945   0.000000
     4  O    2.909643   2.312280   1.225728   0.000000
     5  N    3.602533   2.280396   1.351688   2.273819   0.000000
     6  C    4.883505   3.639974   2.427474   2.773705   1.445452
     7  C    6.023091   4.685902   3.699541   4.242802   2.429326
     8  C    7.362128   6.065904   4.934861   5.213059   3.787818
     9  C    1.408719   2.463683   3.021714   2.853201   4.345157
    10  C    2.427312   3.710662   4.404553   4.190902   5.717306
    11  C    2.829078   4.197720   5.205326   5.259767   6.415870
    12  C    2.420444   3.642286   4.888708   5.267673   5.921610
    13  C    1.406674   2.368358   3.704360   4.296087   4.620751
    14  H    2.040274   1.040260   2.090411   3.211124   2.413536
    15  H    3.814499   2.447993   2.079650   3.191520   1.031443
    16  H    5.196833   4.045279   2.814882   2.938826   2.101940
    17  H    5.065972   3.961928   2.641804   2.599243   2.080445
    18  H    6.051296   4.730297   3.889137   4.519933   2.664835
    19  H    6.106607   4.742693   3.971265   4.707667   2.636502
    20  H    7.550343   6.326736   5.100317   5.175333   4.121950
    21  H    8.195138   6.862539   5.831199   6.215133   4.598856
    22  H    7.600158   6.340286   5.169260   5.349189   4.107069
    23  H    2.148606   2.718700   2.739332   2.155319   4.084463
    24  H    2.147852   2.560641   3.950777   4.785693   4.583140
    25  C    4.326820   5.693497   6.695566   6.683953   7.914970
    26  C    3.779884   4.928619   5.326135   4.786894   6.677385
    27  H    3.395183   4.495778   5.813429   6.288640   6.744898
    28  F    5.052174   6.405248   7.257497   7.072871   8.532887
    29  F    4.946435   6.253434   7.405658   7.569431   8.526013
    30  F    5.006498   6.342399   7.296548   7.234090   8.517215
    31  F    4.067929   4.949648   5.001098   4.211087   6.324659
    32  F    4.502223   5.617211   5.976045   5.400273   7.306188
    33  F    4.718095   5.930550   6.412805   5.908965   7.751262
    34  O    3.471570   2.758987   3.703746   4.887215   3.566758
    35  O    4.825845   3.610070   3.745466   4.926543   2.824229
    36  C    4.513282   3.540771   4.120922   5.345792   3.552310
    37  C    5.837212   5.003538   5.655867   6.880518   5.044754
    38  C    7.078902   6.078865   6.465243   7.667640   5.585616
    39  H    6.000252   5.292963   6.060330   7.275736   5.552684
    40  H    5.937288   5.262286   6.045358   7.247055   5.577219
    41  H    7.242072   6.151411   6.388442   7.562163   5.397934
    42  H    7.979177   7.056650   7.520192   8.730193   6.673148
    43  H    7.190951   6.126388   6.376015   7.536327   5.425378
                    6          7          8          9         10
     6  C    0.000000
     7  C    1.523470   0.000000
     8  C    2.522376   1.525211   0.000000
     9  C    5.391390   6.715850   7.904091   0.000000
    10  C    6.777273   8.098790   9.289175   1.386876   0.000000
    11  C    7.631785   8.836853  10.137642   2.431093   1.403763
    12  C    7.265967   8.309300   9.707840   2.774286   2.397545
    13  C    6.006000   6.977641   8.402955   2.415516   2.777504
    14  H    3.857858   4.608152   6.084094   3.352591   4.466986
    15  H    2.135279   2.533649   4.028821   4.816548   6.130806
    16  H    1.098947   2.162438   2.739085   5.586603   6.943865
    17  H    1.094515   2.167565   2.790036   5.351366   6.710396
    18  H    2.142824   1.094098   2.165798   6.808094   8.165100
    19  H    2.148532   1.093907   2.167390   6.954503   8.316274
    20  H    2.780268   2.174922   1.094010   7.941732   9.307482
    21  H    3.479017   2.176989   1.092357   8.832687  10.218639
    22  H    2.789748   2.173658   1.093773   8.075418   9.448436
    23  H    4.891861   6.313242   7.360619   1.078850   2.147294
    24  H    6.022414   6.790618   8.275113   3.395219   3.862950
    25  C    9.120264  10.334805  11.629048   3.831143   2.566115
    26  C    7.536795   8.954341   9.998606   2.465164   1.509461
    27  H    8.133745   9.081292  10.521979   3.857057   3.381780
    28  F    9.637172  10.947089  12.159002   4.301260   2.959929
    29  F    9.818049  10.938768  12.300919   4.770647   3.668221
    30  F    9.697725  10.888510  12.171959   4.445571   3.197004
    31  F    6.972857   8.427486   9.331819   2.667688   2.367607
    32  F    8.109348   9.567454  10.558288   3.263389   2.371963
    33  F    8.640369  10.018402  11.081098   3.518223   2.374759
    34  O    4.909283   5.203700   6.716948   4.873290   5.787023
    35  O    3.684533   3.429113   4.855840   6.068005   7.250646
    36  C    4.672572   4.613119   6.075375   5.875110   6.902125
    37  C    6.060209   5.761953   7.129693   7.233891   8.146208
    38  C    6.305912   5.656809   6.828142   8.440886   9.454926
    39  H    6.634989   6.353967   7.750934   7.399074   8.222808
    40  H    6.655425   6.494560   7.859396   7.329898   8.134753
    41  H    5.985048   5.163843   6.274056   8.564938   9.646782
    42  H    7.396364   6.704075   7.819669   9.363817  10.311433
    43  H    6.010103   5.339120   6.410611   8.506264   9.572569
                   11         12         13         14         15
    11  C    0.000000
    12  C    1.395527   0.000000
    13  C    2.424321   1.380297   0.000000
    14  H    4.690336   3.845598   2.467096   0.000000
    15  H    6.629029   5.927379   4.561411   2.121817   0.000000
    16  H    7.852364   7.565059   6.355453   4.342005   2.766179
    17  H    7.687100   7.473000   6.294117   4.364414   2.935337
    18  H    8.838506   8.255926   6.924365   4.569565   2.634334
    19  H    8.929571   8.275534   6.913546   4.474864   2.367718
    20  H   10.249380   9.934193   8.679542   6.478493   4.551929
    21  H   11.001508  10.484695   9.148657   6.754811   4.651405
    22  H   10.334546   9.955097   8.674694   6.413843   4.402620
    23  H    3.409749   3.853110   3.391401   3.737351   4.758643
    24  H    3.409756   2.150565   1.085494   2.192652   4.282588
    25  C    1.499548   2.481216   3.770434   6.142940   8.117746
    26  C    2.550693   3.805813   4.285474   5.796480   7.244767
    27  H    2.143986   1.082794   2.128095   4.505322   6.625090
    28  F    2.377184   3.539616   4.718820   6.964661   8.830693
    29  F    2.355389   2.677941   4.049167   6.509749   8.580378
    30  F    2.378630   3.285502   4.504688   6.805496   8.751185
    31  F    3.662785   4.750761   4.919970   5.926437   7.042303
    32  F    3.154944   4.399794   4.947925   6.467738   7.871715
    33  F    2.915329   4.258635   4.993679   6.735307   8.285692
    34  O    5.659090   4.500003   3.235119   1.725445   2.800809
    35  O    7.450182   6.470702   5.111269   2.798345   1.794556
    36  C    6.873597   5.746894   4.457359   2.538857   2.575144
    37  C    7.927257   6.675552   5.517809   3.972982   4.036739
    38  C    9.342337   8.131715   6.921162   5.099959   4.558208
    39  H    7.901301   6.607868   5.538928   4.264056   4.588980
    40  H    7.796101   6.505022   5.456051   4.247637   4.607542
    41  H    9.633093   8.475543   7.216079   5.224610   4.408614
    42  H   10.093439   8.825144   7.689428   6.051512   5.643985
    43  H    9.547367   8.395840   7.153159   5.212514   4.430097
                   16         17         18         19         20
    16  H    0.000000
    17  H    1.756084   0.000000
    18  H    3.057755   2.491579   0.000000
    19  H    2.529877   3.063029   1.746050   0.000000
    20  H    3.076226   2.600893   2.533426   3.081335   0.000000
    21  H    3.753539   3.788814   2.512179   2.517500   1.765859
    22  H    2.554164   3.164030   3.079200   2.529436   1.763961
    23  H    5.019387   4.706180   6.474664   6.678659   7.299265
    24  H    6.432840   6.445306   6.683060   6.594648   8.654767
    25  C    9.320347   9.144008  10.321849  10.425168  11.719150
    26  C    7.608295   7.313591   9.074358   9.283513   9.895396
    27  H    8.454912   8.401253   8.986503   8.966923  10.801508
    28  F    9.704919   9.633900  11.040308  11.057185  12.224785
    29  F   10.023528   9.960689  10.913152  10.910061  12.487204
    30  F   10.002732   9.604280  10.766613  11.069916  12.171725
    31  F    7.033797   6.590647   8.564213   8.890463   9.109753
    32  F    8.008645   7.967872   9.818309   9.826196  10.509662
    33  F    8.800014   8.350050  10.039310  10.383290  10.923404
    34  O    5.433936   5.584285   5.040508   4.782341   7.282726
    35  O    4.234698   4.560832   3.340825   2.777937   5.591293
    36  C    5.212294   5.474419   4.443974   4.018836   6.760686
    37  C    6.578737   6.892968   5.529386   5.035074   7.894348
    38  C    6.795460   7.194381   5.437723   4.806852   7.687747
    39  H    7.268967   7.357903   5.957613   5.749070   8.428029
    40  H    7.044670   7.533428   6.388654   5.711182   8.660524
    41  H    6.593084   6.792626   4.791631   4.414522   7.077628
    42  H    7.874974   8.281319   6.458105   5.840859   8.691558
    43  H    6.346008   6.985537   5.322752   4.367311   7.356625
                   21         22         23         24         25
    21  H    0.000000
    22  H    1.764660   0.000000
    23  H    8.345405   7.490139   0.000000
    24  H    8.920795   8.588529   4.282099   0.000000
    25  C   12.497984  11.817092   4.710091   4.631703   0.000000
    26  C   10.989410  10.097353   2.646081   5.370587   3.051321
    27  H   11.244541  10.788829   4.935867   2.464370   2.654553
    28  F   13.084811  12.247029   5.003913   5.639561   1.342896
    29  F   13.115638  12.489637   5.745815   4.671589   1.348420
    30  F   13.027892  12.449319   5.238392   5.337240   1.348117
    31  F   10.352565   9.428703   2.300985   5.969607   4.339138
    32  F   11.576541  10.525555   3.387826   6.004324   3.398044
    33  F   12.051395  11.251159   3.786670   6.057028   2.845971
    34  O    7.163148   7.104604   5.403711   2.370903   6.971687
    35  O    5.133380   5.268681   6.239032   4.460057   8.869319
    36  C    6.370410   6.484513   6.258600   3.625803   8.211944
    37  C    7.237015   7.549379   7.707646   4.533580   9.153037
    38  C    6.718427   7.245245   8.790872   5.983555  10.612080
    39  H    7.842658   8.276903   7.944033   4.516496   9.055176
    40  H    8.021114   8.165666   7.888982   4.438878   8.943058
    41  H    6.071698   6.819109   8.830447   6.336375  10.947074
    42  H    7.630898   8.232581   9.773401   6.693825  11.295247
    43  H    6.303943   6.685390   8.782237   6.281645  10.854686
                   26         27         28         29         30
    26  C    0.000000
    27  H    4.688371   0.000000
    28  F    2.874800   3.797953   0.000000
    29  F    4.342683   2.301671   2.150599   0.000000
    30  F    3.427498   3.395024   2.156704   2.147477   0.000000
    31  F    1.340146   5.728438   4.199635   5.637981   4.560989
    32  F    1.345268   5.193637   2.717527   4.535267   4.049621
    33  F    1.343687   4.961714   2.653391   4.182978   2.717523
    34  O    7.223741   4.794795   7.922044   7.032206   7.635495
    35  O    8.530907   6.922389   9.703894   9.084761   9.532575
    36  C    8.292071   6.044090   9.130275   8.279694   8.877305
    37  C    9.589941   6.752848  10.131581   9.027127   9.810013
    38  C   10.855581   8.256532  11.557579  10.524223  11.273163
    39  H    9.691144   6.589013  10.131656   8.884198   9.590851
    40  H    9.597388   6.475333   9.876814   8.690544   9.698064
    41  H   11.007896   8.676755  11.920495  10.960441  11.518224
    42  H   11.744222   8.837034  12.272183  11.100887  11.948179
    43  H   10.926252   8.590667  11.704311  10.803652  11.608710
                   31         32         33         34         35
    31  F    0.000000
    32  F    2.147594   0.000000
    33  F    2.147524   2.159382   0.000000
    34  O    7.512365   7.861345   8.059963   0.000000
    35  O    8.518491   9.138347   9.507618   2.236726   0.000000
    36  C    8.465225   8.908505   9.184080   1.258516   1.250335
    37  C    9.865551  10.183628  10.417293   2.371619   2.393570
    38  C   11.021624  11.435266  11.738913   3.700661   2.764891
    39  H   10.009284  10.382834  10.399385   2.615134   3.093652
    40  H    9.993766  10.078551  10.434255   2.617363   3.092360
    41  H   11.064522  11.677819  11.869782   4.001321   2.721051
    42  H   11.975747  12.313879  12.587652   4.531599   3.849981
    43  H   11.051848  11.407979  11.901592   4.003669   2.721616
                   36         37         38         39         40
    36  C    0.000000
    37  C    1.535771   0.000000
    38  C    2.568809   1.522218   0.000000
    39  H    2.130817   1.094503   2.172948   0.000000
    40  H    2.130984   1.094533   2.172890   1.743174   0.000000
    41  H    2.825432   2.164135   1.091239   2.534779   3.078384
    42  H    3.516809   2.174697   1.094346   2.523319   2.524077
    43  H    2.826756   2.164247   1.091230   3.078482   2.533906
                   41         42         43
    41  H    0.000000
    42  H    1.774266   0.000000
    43  H    1.751896   1.774113   0.000000
 Stoichiometry    C15H17F6N2O3(1-)
 Framework group  C1[X(C15H17F6N2O3)]
 Deg. of freedom   123
 Full point group                 C1      NOp   1
 Largest Abelian subgroup         C1      NOp   1
 Largest concise Abelian subgroup C1      NOp   1
                         Standard orientation:                         
 ---------------------------------------------------------------------
 Center     Atomic      Atomic             Coordinates (Angstroms)
 Number     Number       Type             X           Y           Z
 ---------------------------------------------------------------------
      1          6           0        0.271933    0.118007   -0.029158
      2          7           0       -1.073189   -0.146826   -0.034142
      3          6           0       -1.689619   -1.394956    0.015662
      4          8           0       -1.079643   -2.456827    0.068287
      5          7           0       -3.038028   -1.303952   -0.008269
      6          6           0       -3.852960   -2.493104    0.097260
      7          6           0       -5.300813   -2.157660   -0.237642
      8          6           0       -6.208832   -3.374374   -0.091439
      9          6           0        1.284493   -0.861033   -0.002819
     10          6           0        2.621278   -0.491669   -0.002392
     11          6           0        3.002117    0.859371   -0.016646
     12          6           0        1.991599    1.821162   -0.052812
     13          6           0        0.656531    1.470763   -0.058576
     14          1           0       -1.685054    0.693906   -0.064663
     15          1           0       -3.508549   -0.386868    0.029680
     16          1           0       -3.789157   -2.918487    1.108528
     17          1           0       -3.465103   -3.257038   -0.583868
     18          1           0       -5.345014   -1.767673   -1.258919
     19          1           0       -5.641048   -1.343354    0.408717
     20          1           0       -5.887828   -4.188846   -0.747526
     21          1           0       -7.244195   -3.133128   -0.342573
     22          1           0       -6.196304   -3.754524    0.934070
     23          1           0        1.002331   -1.902231    0.011662
     24          1           0       -0.119700    2.229185   -0.082266
     25          6           0        4.424438    1.333696   -0.042412
     26          6           0        3.631958   -1.611217    0.057696
     27          1           0        2.259843    2.870071   -0.069494
     28          9           0        5.225491    0.663021    0.801316
     29          9           0        4.518149    2.632792    0.306596
     30          9           0        4.991556    1.244844   -1.262208
     31          9           0        3.102614   -2.791660   -0.292078
     32          9           0        4.135565   -1.777104    1.294065
     33          9           0        4.675623   -1.407840   -0.763825
     34          8           0       -2.490562    2.219538   -0.092311
     35          8           0       -4.441591    1.144092    0.107303
     36          6           0       -3.743847    2.177458    0.014311
     37          6           0       -4.459345    3.536300    0.028546
     38          6           0       -5.973570    3.445264    0.154957
     39          1           0       -4.168894    4.060848   -0.887109
     40          1           0       -4.027430    4.117383    0.849396
     41          1           0       -6.396068    2.870090   -0.670557
     42          1           0       -6.433973    4.438041    0.158969
     43          1           0       -6.254097    2.929140    1.074578
 ---------------------------------------------------------------------
 Rotational constants (GHZ):      0.3031367      0.0863263      0.0690009
 Standard basis: 6-311+G(d) (5D, 7F)
 There are   649 symmetry adapted cartesian basis functions of A   symmetry.
 There are   623 symmetry adapted basis functions of A   symmetry.
   623 basis functions,  1021 primitive gaussians,   649 cartesian basis functions
   100 alpha electrons      100 beta electrons
       nuclear repulsion energy      2471.7401947506 Hartrees.
 NAtoms=   43 NActive=   43 NUniq=   43 SFac= 1.00D+00 NAtFMM=   60 NAOKFM=F Big=F
 Integral buffers will be    131072 words long.
 Raffenetti 2 integral format.
 Two-electron integral symmetry is turned on.
 Nuclear repulsion after empirical dispersion term =     2471.7375320950 Hartrees.
 One-electron integrals computed using PRISM.
 NBasis=   623 RedAO= T EigKep=  1.25D-06  NBF=   623
 NBsUse=   620 1.00D-06 EigRej=  8.23D-07 NBFU=   620
 ExpMin= 4.38D-02 ExpMax= 1.14D+04 ExpMxC= 1.72D+03 IAcc=3 IRadAn=         5 AccDes= 0.00D+00
 Harris functional with IExCor= 1009 and IRadAn=       5 diagonalized for initial guess.
 HarFok:  IExCor= 1009 AccDes= 0.00D+00 IRadAn=         5 IDoV= 1 UseB2=F ITyADJ=14
 ICtDFT=  3500011 ScaDFX=  1.000000  1.000000  1.000000  1.000000
 FoFCou: FMM=F IPFlag=           0 FMFlag=      100000 FMFlg1=           0
         NFxFlg=           0 DoJE=T BraDBF=F KetDBF=T FulRan=T
         wScrn=  0.000000 ICntrl=     500 IOpCl=  0 I1Cent=   200000004 NGrid=           0
         NMat0=    1 NMatS0=      1 NMatT0=    0 NMatD0=    1 NMtDS0=    0 NMtDT0=    0
 Petite list used in FoFCou.
 Requested convergence on RMS density matrix=1.00D-08 within 128 cycles.
 Requested convergence on MAX density matrix=1.00D-06.
 Requested convergence on             energy=1.00D-06.
 No special actions if energy rises.
 EnCoef did     1 forward-backward iterations
 SCF Done:  E(RM062X) =  -1516.12845318     A.U. after   17 cycles
            NFock= 17  Conv=0.18D-08     -V/T= 2.0031

 **********************************************************************

            Population analysis using the SCF density.

 **********************************************************************

 Orbital symmetries:
       Occupied  (A) (A) (A) (A) (A) (A) (A) (A) (A) (A) (A) (A)
                 (A) (A) (A) (A) (A) (A) (A) (A) (A) (A) (A) (A)
                 (A) (A) (A) (A) (A) (A) (A) (A) (A) (A) (A) (A)
                 (A) (A) (A) (A) (A) (A) (A) (A) (A) (A) (A) (A)
                 (A) (A) (A) (A) (A) (A) (A) (A) (A) (A) (A) (A)
                 (A) (A) (A) (A) (A) (A) (A) (A) (A) (A) (A) (A)
                 (A) (A) (A) (A) (A) (A) (A) (A) (A) (A) (A) (A)
                 (A) (A) (A) (A) (A) (A) (A) (A) (A) (A) (A) (A)
                 (A) (A) (A) (A)
       Virtual   (A) (A) (A) (A) (A) (A) (A) (A) (A) (A) (A) (A)
                 (A) (A) (A) (A) (A) (A) (A) (A) (A) (A) (A) (A)
                 (A) (A) (A) (A) (A) (A) (A) (A) (A) (A) (A) (A)
                 (A) (A) (A) (A) (A) (A) (A) (A) (A) (A) (A) (A)
                 (A) (A) (A) (A) (A) (A) (A) (A) (A) (A) (A) (A)
                 (A) (A) (A) (A) (A) (A) (A) (A) (A) (A) (A) (A)
                 (A) (A) (A) (A) (A) (A) (A) (A) (A) (A) (A) (A)
                 (A) (A) (A) (A) (A) (A) (A) (A) (A) (A) (A) (A)
                 (A) (A) (A) (A) (A) (A) (A) (A) (A) (A) (A) (A)
                 (A) (A) (A) (A) (A) (A) (A) (A) (A) (A) (A) (A)
                 (A) (A) (A) (A) (A) (A) (A) (A) (A) (A) (A) (A)
                 (A) (A) (A) (A) (A) (A) (A) (A) (A) (A) (A) (A)
                 (A) (A) (A) (A) (A) (A) (A) (A) (A) (A) (A) (A)
                 (A) (A) (A) (A) (A) (A) (A) (A) (A) (A) (A) (A)
                 (A) (A) (A) (A) (A) (A) (A) (A) (A) (A) (A) (A)
                 (A) (A) (A) (A) (A) (A) (A) (A) (A) (A) (A) (A)
                 (A) (A) (A) (A) (A) (A) (A) (A) (A) (A) (A) (A)
                 (A) (A) (A) (A) (A) (A) (A) (A) (A) (A) (A) (A)
                 (A) (A) (A) (A) (A) (A) (A) (A) (A) (A) (A) (A)
                 (A) (A) (A) (A) (A) (A) (A) (A) (A) (A) (A) (A)
                 (A) (A) (A) (A) (A) (A) (A) (A) (A) (A) (A) (A)
                 (A) (A) (A) (A) (A) (A) (A) (A) (A) (A) (A) (A)
                 (A) (A) (A) (A) (A) (A) (A) (A) (A) (A) (A) (A)
                 (A) (A) (A) (A) (A) (A) (A) (A) (A) (A) (A) (A)
                 (A) (A) (A) (A) (A) (A) (A) (A) (A) (A) (A) (A)
                 (A) (A) (A) (A) (A) (A) (A) (A) (A) (A) (A) (A)
                 (A) (A) (A) (A) (A) (A) (A) (A) (A) (A) (A) (A)
                 (A) (A) (A) (A) (A) (A) (A) (A) (A) (A) (A) (A)
                 (A) (A) (A) (A) (A) (A) (A) (A) (A) (A) (A) (A)
                 (A) (A) (A) (A) (A) (A) (A) (A) (A) (A) (A) (A)
                 (A) (A) (A) (A) (A) (A) (A) (A) (A) (A) (A) (A)
                 (A) (A) (A) (A) (A) (A) (A) (A) (A) (A) (A) (A)
                 (A) (A) (A) (A) (A) (A) (A) (A) (A) (A) (A) (A)
                 (A) (A) (A) (A) (A) (A) (A) (A) (A) (A) (A) (A)
                 (A) (A) (A) (A) (A) (A) (A) (A) (A) (A) (A) (A)
                 (A) (A) (A) (A) (A) (A) (A) (A) (A) (A) (A) (A)
                 (A) (A) (A) (A) (A) (A) (A) (A) (A) (A) (A) (A)
                 (A) (A) (A) (A) (A) (A) (A) (A) (A) (A) (A) (A)
                 (A) (A) (A) (A) (A) (A) (A) (A) (A) (A) (A) (A)
                 (A) (A) (A) (A) (A) (A) (A) (A) (A) (A) (A) (A)
                 (A) (A) (A) (A) (A) (A) (A) (A) (A) (A) (A) (A)
                 (A) (A) (A) (A) (A) (A) (A) (A) (A) (A) (A) (A)
                 (A) (A) (A) (A) (A) (A) (A) (A) (A) (A) (A) (A)
                 (A) (A) (A) (A)
 The electronic state is 1-A.
 Alpha  occ. eigenvalues --  -25.19109 -25.18820 -25.18794 -25.18750 -25.18434
 Alpha  occ. eigenvalues --  -25.18434 -19.47366 -19.44947 -19.44702 -14.65896
 Alpha  occ. eigenvalues --  -14.63869 -10.71615 -10.71465 -10.55737 -10.51152
 Alpha  occ. eigenvalues --  -10.50727 -10.49314 -10.48313 -10.47101 -10.46522
 Alpha  occ. eigenvalues --  -10.45734 -10.45300 -10.44446 -10.43880 -10.42150
 Alpha  occ. eigenvalues --  -10.42043  -1.38390  -1.37951  -1.28995  -1.28608
 Alpha  occ. eigenvalues --   -1.28477  -1.28287  -1.06252  -1.04017  -0.94922
 Alpha  occ. eigenvalues --   -0.94160  -0.91559  -0.88823  -0.80118  -0.79744
 Alpha  occ. eigenvalues --   -0.78092  -0.75427  -0.72929  -0.71326  -0.68348
 Alpha  occ. eigenvalues --   -0.64555  -0.63962  -0.61802  -0.60955  -0.60700
 Alpha  occ. eigenvalues --   -0.60497  -0.60029  -0.59037  -0.58643  -0.56469
 Alpha  occ. eigenvalues --   -0.54265  -0.51877  -0.49350  -0.49165  -0.48885
 Alpha  occ. eigenvalues --   -0.48386  -0.48298  -0.46884  -0.45833  -0.45493
 Alpha  occ. eigenvalues --   -0.45095  -0.44841  -0.43907  -0.43816  -0.42889
 Alpha  occ. eigenvalues --   -0.42464  -0.42442  -0.42240  -0.42064  -0.41642
 Alpha  occ. eigenvalues --   -0.41364  -0.40507  -0.40001  -0.38857  -0.38057
 Alpha  occ. eigenvalues --   -0.37999  -0.37009  -0.35392  -0.35244  -0.34762
 Alpha  occ. eigenvalues --   -0.34212  -0.33233  -0.32657  -0.31399  -0.31041
 Alpha  occ. eigenvalues --   -0.30347  -0.29270  -0.28416  -0.23680  -0.23577
 Alpha  occ. eigenvalues --   -0.20888  -0.20441  -0.19937  -0.19755  -0.16844
 Alpha virt. eigenvalues --    0.08492   0.09142   0.09955   0.10192   0.10308
 Alpha virt. eigenvalues --    0.11371   0.11449   0.11719   0.11953   0.12443
 Alpha virt. eigenvalues --    0.12844   0.13134   0.13571   0.13851   0.14411
 Alpha virt. eigenvalues --    0.14664   0.15160   0.15300   0.15483   0.15895
 Alpha virt. eigenvalues --    0.16549   0.16796   0.17182   0.17656   0.17966
 Alpha virt. eigenvalues --    0.18236   0.18442   0.19601   0.19781   0.20121
 Alpha virt. eigenvalues --    0.20521   0.20642   0.20784   0.21410   0.21552
 Alpha virt. eigenvalues --    0.21868   0.22441   0.23171   0.23471   0.23687
 Alpha virt. eigenvalues --    0.24776   0.24858   0.25169   0.25817   0.26173
 Alpha virt. eigenvalues --    0.26454   0.26542   0.27369   0.27453   0.28206
 Alpha virt. eigenvalues --    0.28721   0.28781   0.29251   0.29744   0.29862
 Alpha virt. eigenvalues --    0.30093   0.30464   0.30668   0.30680   0.30944
 Alpha virt. eigenvalues --    0.31192   0.31673   0.32214   0.32525   0.32908
 Alpha virt. eigenvalues --    0.33372   0.33626   0.34047   0.34373   0.34743
 Alpha virt. eigenvalues --    0.34861   0.35208   0.35385   0.35426   0.35687
 Alpha virt. eigenvalues --    0.35827   0.36018   0.36655   0.36778   0.36954
 Alpha virt. eigenvalues --    0.37070   0.37645   0.37821   0.38271   0.38530
 Alpha virt. eigenvalues --    0.39047   0.39378   0.39669   0.39815   0.40232
 Alpha virt. eigenvalues --    0.40747   0.41157   0.41298   0.41990   0.42246
 Alpha virt. eigenvalues --    0.42476   0.42787   0.43255   0.43648   0.44062
 Alpha virt. eigenvalues --    0.44106   0.44497   0.44660   0.45211   0.45575
 Alpha virt. eigenvalues --    0.46070   0.46128   0.46462   0.46808   0.47502
 Alpha virt. eigenvalues --    0.47618   0.47954   0.48173   0.48364   0.49022
 Alpha virt. eigenvalues --    0.49212   0.49739   0.49965   0.50211   0.50781
 Alpha virt. eigenvalues --    0.51015   0.51941   0.52364   0.52756   0.53166
 Alpha virt. eigenvalues --    0.53520   0.53854   0.53948   0.54235   0.54853
 Alpha virt. eigenvalues --    0.55566   0.56374   0.56723   0.57166   0.57426
 Alpha virt. eigenvalues --    0.58350   0.58769   0.60157   0.60909   0.61708
 Alpha virt. eigenvalues --    0.61919   0.62305   0.62987   0.63163   0.63646
 Alpha virt. eigenvalues --    0.64209   0.64438   0.65132   0.65400   0.66431
 Alpha virt. eigenvalues --    0.66817   0.67244   0.67612   0.67886   0.68866
 Alpha virt. eigenvalues --    0.70213   0.70595   0.70847   0.71599   0.71927
 Alpha virt. eigenvalues --    0.73076   0.73595   0.74834   0.76134   0.76581
 Alpha virt. eigenvalues --    0.76795   0.77521   0.78046   0.78215   0.78965
 Alpha virt. eigenvalues --    0.79227   0.79756   0.80204   0.80796   0.81305
 Alpha virt. eigenvalues --    0.81814   0.82064   0.82765   0.83430   0.83640
 Alpha virt. eigenvalues --    0.83860   0.84558   0.85428   0.85944   0.86828
 Alpha virt. eigenvalues --    0.87495   0.87663   0.87900   0.88492   0.88953
 Alpha virt. eigenvalues --    0.89102   0.89278   0.90301   0.90430   0.91471
 Alpha virt. eigenvalues --    0.91746   0.92330   0.93275   0.93692   0.94062
 Alpha virt. eigenvalues --    0.98574   0.99385   1.00152   1.01785   1.03043
 Alpha virt. eigenvalues --    1.04481   1.05330   1.05831   1.07130   1.07536
 Alpha virt. eigenvalues --    1.08263   1.09363   1.09694   1.11224   1.12625
 Alpha virt. eigenvalues --    1.13261   1.14265   1.15407   1.16011   1.17385
 Alpha virt. eigenvalues --    1.18387   1.20055   1.20661   1.21355   1.21817
 Alpha virt. eigenvalues --    1.24899   1.25239   1.25336   1.25825   1.27154
 Alpha virt. eigenvalues --    1.27520   1.28262   1.29504   1.31226   1.32224
 Alpha virt. eigenvalues --    1.33276   1.34413   1.35177   1.37201   1.37351
 Alpha virt. eigenvalues --    1.37912   1.39623   1.41354   1.42462   1.44018
 Alpha virt. eigenvalues --    1.45086   1.47423   1.48402   1.49971   1.50246
 Alpha virt. eigenvalues --    1.50734   1.51659   1.52969   1.53876   1.55134
 Alpha virt. eigenvalues --    1.56062   1.56340   1.56836   1.57745   1.57974
 Alpha virt. eigenvalues --    1.58453   1.59297   1.60320   1.60935   1.61439
 Alpha virt. eigenvalues --    1.61886   1.62532   1.62633   1.63467   1.63698
 Alpha virt. eigenvalues --    1.64510   1.64928   1.66600   1.66900   1.67921
 Alpha virt. eigenvalues --    1.67998   1.68355   1.68804   1.69795   1.70156
 Alpha virt. eigenvalues --    1.70788   1.71407   1.71781   1.72520   1.72626
 Alpha virt. eigenvalues --    1.73547   1.74688   1.74882   1.75737   1.77568
 Alpha virt. eigenvalues --    1.79079   1.79304   1.81462   1.82867   1.86367
 Alpha virt. eigenvalues --    1.87374   1.87581   1.88508   1.88718   1.89964
 Alpha virt. eigenvalues --    1.90945   1.91217   1.91633   1.93028   1.93277
 Alpha virt. eigenvalues --    1.93585   1.94298   1.95119   1.96914   1.98301
 Alpha virt. eigenvalues --    1.98816   1.99729   2.02352   2.02586   2.03815
 Alpha virt. eigenvalues --    2.05428   2.07943   2.08773   2.10350   2.11252
 Alpha virt. eigenvalues --    2.13168   2.14168   2.14770   2.15021   2.16592
 Alpha virt. eigenvalues --    2.20846   2.21313   2.21997   2.22765   2.25660
 Alpha virt. eigenvalues --    2.27305   2.27846   2.28311   2.30151   2.31973
 Alpha virt. eigenvalues --    2.34197   2.36678   2.39445   2.40843   2.45164
 Alpha virt. eigenvalues --    2.46104   2.49685   2.50934   2.51759   2.52529
 Alpha virt. eigenvalues --    2.53365   2.59214   2.59966   2.63171   2.64397
 Alpha virt. eigenvalues --    2.64541   2.64995   2.66481   2.69002   2.69674
 Alpha virt. eigenvalues --    2.70603   2.71376   2.72405   2.74605   2.75225
 Alpha virt. eigenvalues --    2.77198   2.78259   2.80538   2.82390   2.83944
 Alpha virt. eigenvalues --    2.87314   2.92322   2.93959   2.96583   2.97246
 Alpha virt. eigenvalues --    2.98377   3.01269   3.02330   3.05906   3.06621
 Alpha virt. eigenvalues --    3.07461   3.08040   3.08857   3.09958   3.10581
 Alpha virt. eigenvalues --    3.12067   3.12718   3.14527   3.15093   3.16546
 Alpha virt. eigenvalues --    3.16990   3.17531   3.19663   3.22687   3.23738
 Alpha virt. eigenvalues --    3.24129   3.25778   3.26897   3.28345   3.31172
 Alpha virt. eigenvalues --    3.35572   3.35771   3.36305   3.37548   3.40253
 Alpha virt. eigenvalues --    3.43353   3.44212   3.48427   3.50140   3.50697
 Alpha virt. eigenvalues --    3.51729   3.53240   3.54531   3.54840   3.55320
 Alpha virt. eigenvalues --    3.57172   3.59677   3.60174   3.65174   3.72443
 Alpha virt. eigenvalues --    3.75492   3.82530   3.83509   3.84141   3.89796
 Alpha virt. eigenvalues --    3.89966   3.90302   3.90463   3.91410   3.93664
 Alpha virt. eigenvalues --    3.93778   3.94692   3.94751   3.95546   3.95821
 Alpha virt. eigenvalues --    3.97020   3.98121   3.98366   3.98775   4.00355
 Alpha virt. eigenvalues --    4.01005   4.04828   4.09622   4.10034   4.10507
 Alpha virt. eigenvalues --    4.10796   4.12083   4.12869   4.15509   4.17696
 Alpha virt. eigenvalues --    4.18301   4.22656   4.24893   4.30927   4.32375
 Alpha virt. eigenvalues --    4.32632   4.34930   4.36143   4.37483   4.39608
 Alpha virt. eigenvalues --    4.41439   4.75786   4.79546   4.85083   4.89652
 Alpha virt. eigenvalues --    4.93150   5.05548   5.08214   5.08632   5.11074
 Alpha virt. eigenvalues --    5.12427   5.30575   5.32222   5.33380   5.36227
 Alpha virt. eigenvalues --    5.52783   5.56626   5.58152   5.89415   6.03455
 Alpha virt. eigenvalues --    6.16115   6.55575   6.57647   6.59627   6.59929
 Alpha virt. eigenvalues --    6.60986   6.62554   6.63390   6.64939   6.65427
 Alpha virt. eigenvalues --    6.65647   6.68440   6.72686   6.73237   6.73312
 Alpha virt. eigenvalues --    6.96930   6.98178   6.98572   7.00680  23.57882
 Alpha virt. eigenvalues --   23.69350  23.73294  23.74694  23.76806  23.85730
 Alpha virt. eigenvalues --   23.91219  23.91987  24.03112  24.06724  24.10052
 Alpha virt. eigenvalues --   24.10564  24.18284  24.23889  24.30801  35.76723
 Alpha virt. eigenvalues --   35.86572  50.20637  50.28196  50.29167  66.99289
 Alpha virt. eigenvalues --   66.99594  67.00457  67.01142  67.05771  67.07945
          Condensed to atoms (all electrons):
               1          2          3          4          5          6
     1  C   21.825236  -0.075342   0.159731  -0.016131  -0.012980  -0.295915
     2  N   -0.075342   8.383849   0.278686  -0.077345  -0.704150  -0.805579
     3  C    0.159731   0.278686  10.135470   0.715160   0.203377  -1.929870
     4  O   -0.016131  -0.077345   0.715160   8.110276  -0.197773  -0.154841
     5  N   -0.012980  -0.704150   0.203377  -0.197773   8.169822   0.795945
     6  C   -0.295915  -0.805579  -1.929870  -0.154841   0.795945   9.821369
     7  C   -0.027879   0.087889   0.539916   0.026430  -0.103770  -1.331492
     8  C   -0.006351  -0.028230  -0.400369  -0.002509  -0.037398   0.601148
     9  C   -3.026562   0.334110  -0.952295   0.080791  -0.405481  -0.656482
    10  C   -3.039868   0.032811   0.228798  -0.040755   0.001095  -0.007968
    11  C    1.421863  -0.041838  -1.968552  -0.024786  -0.045308  -0.170242
    12  C   -6.543094   0.026140  -0.221848  -0.001094  -0.077371  -0.041154
    13  C   -0.064410   0.055756  -0.767363  -0.022175  -0.165137  -0.203230
    14  H   -0.056036   0.065553  -0.011426  -0.003716   0.018068   0.039196
    15  H   -0.024867   0.024585  -0.028461  -0.008252   0.098403   0.024005
    16  H    0.013834   0.006217   0.077357  -0.003808  -0.066833   0.386241
    17  H    0.000187   0.010906   0.035531   0.003221  -0.073797   0.364553
    18  H    0.003432   0.000334   0.031122  -0.000183   0.003828  -0.068535
    19  H   -0.003437  -0.001895  -0.025557  -0.000272   0.008950  -0.062455
    20  H   -0.000338  -0.000067  -0.009554  -0.000086   0.000718  -0.057011
    21  H    0.000123   0.000003   0.006542   0.000016  -0.001954   0.081628
    22  H    0.000110   0.000069   0.006614   0.000006   0.000306  -0.024489
    23  H    0.044542  -0.032279   0.106491   0.013085   0.010815   0.014331
    24  H    0.082344  -0.031566  -0.009584   0.000014   0.000637  -0.000177
    25  C   -2.216538   0.007965  -0.469861  -0.001277   0.002810  -0.012656
    26  C   -1.649361   0.002982   0.233285  -0.001955  -0.002616   0.014060
    27  H    0.027030  -0.002617   0.004193  -0.000016  -0.000075   0.000040
    28  F    0.016788   0.000128   0.001045  -0.000002   0.000004   0.000006
    29  F    0.038198   0.000080  -0.000093   0.000002   0.000003  -0.000004
    30  F    0.000928  -0.000071  -0.000635  -0.000003   0.000001  -0.000003
    31  F    0.048691   0.001022   0.008124  -0.001009  -0.000130   0.000030
    32  F    0.005383   0.000581  -0.001985   0.000160  -0.000009  -0.000066
    33  F    0.009343   0.000483  -0.000105   0.000007   0.000007   0.000008
    34  O   -0.136193   0.017579  -0.004786  -0.000637  -0.059414  -0.020996
    35  O    0.017120  -0.045160  -0.051342   0.000448  -0.002854   0.069735
    36  C    0.211684   0.009002   0.029226  -0.001072   0.041766   0.019679
    37  C   -0.054096  -0.070616  -0.068867  -0.001213  -0.061269   0.093405
    38  C    0.000601   0.001928   0.003429   0.000088   0.013561  -0.014029
    39  H    0.000410   0.000642   0.000548   0.000001  -0.000131  -0.000629
    40  H    0.000577   0.000213  -0.000403  -0.000000   0.000261   0.000183
    41  H    0.000109  -0.000024  -0.000504  -0.000000   0.000143   0.000905
    42  H   -0.000009   0.000037   0.000234   0.000000  -0.000092  -0.000139
    43  H    0.000028   0.000015  -0.000102  -0.000000   0.000166  -0.000219
               7          8          9         10         11         12
     1  C   -0.027879  -0.006351  -3.026562  -3.039868   1.421863  -6.543094
     2  N    0.087889  -0.028230   0.334110   0.032811  -0.041838   0.026140
     3  C    0.539916  -0.400369  -0.952295   0.228798  -1.968552  -0.221848
     4  O    0.026430  -0.002509   0.080791  -0.040755  -0.024786  -0.001094
     5  N   -0.103770  -0.037398  -0.405481   0.001095  -0.045308  -0.077371
     6  C   -1.331492   0.601148  -0.656482  -0.007968  -0.170242  -0.041154
     7  C    6.806684  -0.595729   0.041520  -0.002495  -0.000022   0.003211
     8  C   -0.595729   6.602513  -0.022406   0.000130  -0.001344  -0.000741
     9  C    0.041520  -0.022406  15.865331   4.205751  -8.185153   1.349556
    10  C   -0.002495   0.000130   4.205751  52.014515 -23.842397  -3.290104
    11  C   -0.000022  -0.001344  -8.185153 -23.842397  61.767694  -5.848619
    12  C    0.003211  -0.000741   1.349556  -3.290104  -5.848619  18.099965
    13  C    0.016862  -0.005606  -4.298106 -12.399478  -3.197891   2.382730
    14  H   -0.007784   0.000474   0.005275   0.012459   0.008760   0.013774
    15  H   -0.039003   0.011543  -0.012148  -0.001492  -0.001798  -0.004238
    16  H   -0.069621  -0.031143   0.006526   0.000386   0.000636  -0.000092
    17  H    0.010290  -0.005405  -0.012246   0.000698  -0.000379   0.000029
    18  H    0.433895  -0.076572   0.001009  -0.000003   0.000072  -0.000041
    19  H    0.467221  -0.050639  -0.001170   0.000024  -0.000056   0.000015
    20  H   -0.000005   0.410979  -0.000101  -0.000004  -0.000003   0.000002
    21  H   -0.143139   0.407557   0.000040  -0.000000   0.000001  -0.000000
    22  H    0.044487   0.319427   0.000080   0.000000   0.000002  -0.000001
    23  H   -0.000686   0.000134   0.347007  -0.078626  -0.078599  -0.024750
    24  H    0.000003   0.000005   0.001936   0.039787  -0.009085  -0.086617
    25  C   -0.000162  -0.000051  -2.949638  -0.899946  -4.590478  -1.997434
    26  C    0.000655   0.000031   4.265153  -5.504500  -7.930801   1.603091
    27  H   -0.000001   0.000000  -0.013035  -0.017501   0.049722   0.377203
    28  F   -0.000000   0.000000   0.076938  -0.423975   0.099330   0.152160
    29  F   -0.000000  -0.000000   0.001400  -0.090988  -0.182453   0.155698
    30  F    0.000000  -0.000000   0.009821  -0.046093   0.245110  -0.093260
    31  F    0.000013  -0.000002   0.059999  -0.302140   0.036731   0.009072
    32  F    0.000000  -0.000000  -0.104067   0.280717  -0.068825   0.005892
    33  F   -0.000001   0.000000  -0.053732   0.020664  -0.116261   0.033667
    34  O   -0.001875  -0.000447   0.023634  -0.007621  -0.004909   0.007080
    35  O   -0.017709   0.009076  -0.000763  -0.000829   0.000902  -0.005194
    36  C    0.005045  -0.011972  -0.103843  -0.034002  -0.036198  -0.143224
    37  C   -0.045434   0.011287  -0.002306   0.000974   0.006430   0.007421
    38  C    0.012839  -0.004103  -0.003246   0.000226  -0.002037  -0.000101
    39  H    0.000536   0.000015   0.000070  -0.000044   0.000012  -0.000470
    40  H   -0.000235  -0.000022  -0.000014   0.000000  -0.000028  -0.000382
    41  H   -0.000481   0.000023   0.000002  -0.000000   0.000003  -0.000018
    42  H   -0.000031  -0.000016   0.000005  -0.000001   0.000001   0.000005
    43  H    0.000386   0.000189   0.000016  -0.000003   0.000006  -0.000026
              13         14         15         16         17         18
     1  C   -0.064410  -0.056036  -0.024867   0.013834   0.000187   0.003432
     2  N    0.055756   0.065553   0.024585   0.006217   0.010906   0.000334
     3  C   -0.767363  -0.011426  -0.028461   0.077357   0.035531   0.031122
     4  O   -0.022175  -0.003716  -0.008252  -0.003808   0.003221  -0.000183
     5  N   -0.165137   0.018068   0.098403  -0.066833  -0.073797   0.003828
     6  C   -0.203230   0.039196   0.024005   0.386241   0.364553  -0.068535
     7  C    0.016862  -0.007784  -0.039003  -0.069621   0.010290   0.433895
     8  C   -0.005606   0.000474   0.011543  -0.031143  -0.005405  -0.076572
     9  C   -4.298106   0.005275  -0.012148   0.006526  -0.012246   0.001009
    10  C  -12.399478   0.012459  -0.001492   0.000386   0.000698  -0.000003
    11  C   -3.197891   0.008760  -0.001798   0.000636  -0.000379   0.000072
    12  C    2.382730   0.013774  -0.004238  -0.000092   0.000029  -0.000041
    13  C   24.659490  -0.039241  -0.001918   0.000048   0.000968  -0.000220
    14  H   -0.039241   0.316057   0.029934  -0.000128  -0.000059   0.000058
    15  H   -0.001918   0.029934   0.340277   0.001904   0.002187   0.001228
    16  H    0.000048  -0.000128   0.001904   0.487228  -0.051846   0.006728
    17  H    0.000968  -0.000059   0.002187  -0.051846   0.483111  -0.009935
    18  H   -0.000220   0.000058   0.001228   0.006728  -0.009935   0.450257
    19  H    0.000206   0.000076   0.006754  -0.008543   0.005461  -0.035515
    20  H    0.000016  -0.000000   0.000052  -0.000933   0.003497  -0.008886
    21  H   -0.000004   0.000000  -0.000076  -0.000110  -0.000259  -0.004221
    22  H    0.000002   0.000001  -0.000060   0.003503  -0.000632   0.006798
    23  H   -0.044562  -0.000299   0.000040  -0.000038  -0.000030   0.000000
    24  H    0.287464   0.013124  -0.000190   0.000000  -0.000000   0.000000
    25  C   -0.166649  -0.000963  -0.000231   0.000016  -0.000022   0.000001
    26  C   -0.223472  -0.000502  -0.000207  -0.000094   0.000058  -0.000006
    27  H   -0.093815  -0.000043   0.000001  -0.000000   0.000000  -0.000000
    28  F    0.052028   0.000002  -0.000000  -0.000000   0.000000  -0.000000
    29  F    0.141851  -0.000004  -0.000000   0.000000  -0.000000   0.000000
    30  F   -0.035676   0.000001  -0.000000   0.000000  -0.000000   0.000000
    31  F   -0.001744   0.000003   0.000000   0.000000  -0.000001   0.000000
    32  F    0.008879  -0.000001  -0.000000   0.000000  -0.000000   0.000000
    33  F    0.014374   0.000002  -0.000000  -0.000000   0.000000  -0.000000
    34  O    0.196072   0.086267   0.012485  -0.000027  -0.000003  -0.000051
    35  O   -0.020926   0.011239   0.076294   0.000701  -0.001218  -0.001250
    36  C   -0.018969  -0.014020  -0.005610   0.000676  -0.000913   0.001119
    37  C    0.022723   0.050261   0.051589   0.000218  -0.000677   0.001140
    38  C    0.001530  -0.003771  -0.006691  -0.000012   0.000123   0.000193
    39  H   -0.000302  -0.000347  -0.000012   0.000000   0.000000  -0.000002
    40  H    0.000547  -0.000330  -0.000099  -0.000000   0.000000   0.000001
    41  H    0.000019  -0.000018  -0.000381  -0.000000  -0.000000   0.000003
    42  H   -0.000014  -0.000002   0.000062   0.000000  -0.000000   0.000000
    43  H   -0.000003  -0.000019  -0.000355   0.000000  -0.000000  -0.000010
              19         20         21         22         23         24
     1  C   -0.003437  -0.000338   0.000123   0.000110   0.044542   0.082344
     2  N   -0.001895  -0.000067   0.000003   0.000069  -0.032279  -0.031566
     3  C   -0.025557  -0.009554   0.006542   0.006614   0.106491  -0.009584
     4  O   -0.000272  -0.000086   0.000016   0.000006   0.013085   0.000014
     5  N    0.008950   0.000718  -0.001954   0.000306   0.010815   0.000637
     6  C   -0.062455  -0.057011   0.081628  -0.024489   0.014331  -0.000177
     7  C    0.467221  -0.000005  -0.143139   0.044487  -0.000686   0.000003
     8  C   -0.050639   0.410979   0.407557   0.319427   0.000134   0.000005
     9  C   -0.001170  -0.000101   0.000040   0.000080   0.347007   0.001936
    10  C    0.000024  -0.000004  -0.000000   0.000000  -0.078626   0.039787
    11  C   -0.000056  -0.000003   0.000001   0.000002  -0.078599  -0.009085
    12  C    0.000015   0.000002  -0.000000  -0.000001  -0.024750  -0.086617
    13  C    0.000206   0.000016  -0.000004   0.000002  -0.044562   0.287464
    14  H    0.000076  -0.000000   0.000000   0.000001  -0.000299   0.013124
    15  H    0.006754   0.000052  -0.000076  -0.000060   0.000040  -0.000190
    16  H   -0.008543  -0.000933  -0.000110   0.003503  -0.000038   0.000000
    17  H    0.005461   0.003497  -0.000259  -0.000632  -0.000030  -0.000000
    18  H   -0.035515  -0.008886  -0.004221   0.006798   0.000000   0.000000
    19  H    0.428365   0.006585  -0.003684  -0.007769   0.000000  -0.000001
    20  H    0.006585   0.476938  -0.027586  -0.039818  -0.000000  -0.000000
    21  H   -0.003684  -0.027586   0.459657  -0.028097   0.000000   0.000000
    22  H   -0.007769  -0.039818  -0.028097   0.471229   0.000000   0.000000
    23  H    0.000000  -0.000000   0.000000   0.000000   0.335871  -0.000030
    24  H   -0.000001  -0.000000   0.000000   0.000000  -0.000030   0.344195
    25  C   -0.000001  -0.000000   0.000000   0.000000  -0.006903   0.007981
    26  C    0.000002   0.000000  -0.000000  -0.000000   0.039491   0.003862
    27  H    0.000000   0.000000  -0.000000   0.000000   0.000066  -0.002660
    28  F    0.000000  -0.000000   0.000000   0.000000   0.000028   0.000020
    29  F   -0.000000  -0.000000   0.000000   0.000000   0.000001  -0.000031
    30  F   -0.000000  -0.000000   0.000000   0.000000  -0.000000   0.000040
    31  F   -0.000000   0.000000  -0.000000   0.000000   0.011057  -0.000006
    32  F   -0.000000   0.000000   0.000000   0.000000  -0.000885  -0.000001
    33  F    0.000000   0.000000  -0.000000  -0.000000   0.000715  -0.000000
    34  O   -0.000126  -0.000002   0.000001   0.000002   0.000041   0.007328
    35  O   -0.006823  -0.000137   0.000076   0.000135  -0.000003   0.001020
    36  C    0.003334  -0.000065  -0.000106   0.000263   0.000459   0.009067
    37  C   -0.001966  -0.000053   0.000139  -0.000002   0.000067  -0.003709
    38  C    0.002722   0.000028  -0.000082   0.000019   0.000001   0.000260
    39  H    0.000003   0.000000  -0.000000   0.000000  -0.000000   0.000006
    40  H    0.000006   0.000000  -0.000000   0.000000   0.000000  -0.000078
    41  H   -0.000049  -0.000000   0.000001  -0.000000   0.000000  -0.000001
    42  H   -0.000003  -0.000000   0.000000  -0.000000  -0.000000  -0.000001
    43  H   -0.000053  -0.000000   0.000001  -0.000000  -0.000000   0.000000
              25         26         27         28         29         30
     1  C   -2.216538  -1.649361   0.027030   0.016788   0.038198   0.000928
     2  N    0.007965   0.002982  -0.002617   0.000128   0.000080  -0.000071
     3  C   -0.469861   0.233285   0.004193   0.001045  -0.000093  -0.000635
     4  O   -0.001277  -0.001955  -0.000016  -0.000002   0.000002  -0.000003
     5  N    0.002810  -0.002616  -0.000075   0.000004   0.000003   0.000001
     6  C   -0.012656   0.014060   0.000040   0.000006  -0.000004  -0.000003
     7  C   -0.000162   0.000655  -0.000001  -0.000000  -0.000000   0.000000
     8  C   -0.000051   0.000031   0.000000   0.000000  -0.000000  -0.000000
     9  C   -2.949638   4.265153  -0.013035   0.076938   0.001400   0.009821
    10  C   -0.899946  -5.504500  -0.017501  -0.423975  -0.090988  -0.046093
    11  C   -4.590478  -7.930801   0.049722   0.099330  -0.182453   0.245110
    12  C   -1.997434   1.603091   0.377203   0.152160   0.155698  -0.093260
    13  C   -0.166649  -0.223472  -0.093815   0.052028   0.141851  -0.035676
    14  H   -0.000963  -0.000502  -0.000043   0.000002  -0.000004   0.000001
    15  H   -0.000231  -0.000207   0.000001  -0.000000  -0.000000  -0.000000
    16  H    0.000016  -0.000094  -0.000000  -0.000000   0.000000   0.000000
    17  H   -0.000022   0.000058   0.000000   0.000000  -0.000000  -0.000000
    18  H    0.000001  -0.000006  -0.000000  -0.000000   0.000000   0.000000
    19  H   -0.000001   0.000002   0.000000   0.000000  -0.000000  -0.000000
    20  H   -0.000000   0.000000   0.000000  -0.000000  -0.000000  -0.000000
    21  H    0.000000  -0.000000  -0.000000   0.000000   0.000000   0.000000
    22  H    0.000000  -0.000000   0.000000   0.000000   0.000000   0.000000
    23  H   -0.006903   0.039491   0.000066   0.000028   0.000001  -0.000000
    24  H    0.007981   0.003862  -0.002660   0.000020  -0.000031   0.000040
    25  C   24.118237  -6.207530  -0.018931  -0.081494   0.057088   0.075888
    26  C   -6.207530  19.868910   0.004691   0.260606   0.012126  -0.001739
    27  H   -0.018931   0.004691   0.413923   0.000651   0.007392  -0.000994
    28  F   -0.081494   0.260606   0.000651   8.997156  -0.026090  -0.043689
    29  F    0.057088   0.012126   0.007392  -0.026090   9.054824  -0.042721
    30  F    0.075888  -0.001739  -0.000994  -0.043689  -0.042721   8.985073
    31  F   -0.016219   0.308198   0.000013   0.001466   0.000077   0.000201
    32  F   -0.009041   0.057058   0.000002   0.003512   0.000129  -0.000937
    33  F    0.255489  -0.012792   0.000047  -0.005025   0.001694   0.001039
    34  O    0.000081  -0.001701   0.000035  -0.000000   0.000001  -0.000001
    35  O    0.000047  -0.000055  -0.000002  -0.000000  -0.000000   0.000000
    36  C   -0.005055  -0.004802  -0.000287   0.000001   0.000012  -0.000007
    37  C   -0.000399   0.000425   0.000222   0.000000   0.000001  -0.000000
    38  C   -0.000079   0.000014  -0.000005  -0.000000   0.000000  -0.000000
    39  H   -0.000000  -0.000002  -0.000000  -0.000000  -0.000000   0.000000
    40  H    0.000003   0.000000   0.000000   0.000000  -0.000000  -0.000000
    41  H    0.000000   0.000000   0.000000   0.000000   0.000000  -0.000000
    42  H   -0.000000  -0.000000   0.000000  -0.000000  -0.000000   0.000000
    43  H    0.000000  -0.000000   0.000000   0.000000  -0.000000   0.000000
              31         32         33         34         35         36
     1  C    0.048691   0.005383   0.009343  -0.136193   0.017120   0.211684
     2  N    0.001022   0.000581   0.000483   0.017579  -0.045160   0.009002
     3  C    0.008124  -0.001985  -0.000105  -0.004786  -0.051342   0.029226
     4  O   -0.001009   0.000160   0.000007  -0.000637   0.000448  -0.001072
     5  N   -0.000130  -0.000009   0.000007  -0.059414  -0.002854   0.041766
     6  C    0.000030  -0.000066   0.000008  -0.020996   0.069735   0.019679
     7  C    0.000013   0.000000  -0.000001  -0.001875  -0.017709   0.005045
     8  C   -0.000002  -0.000000   0.000000  -0.000447   0.009076  -0.011972
     9  C    0.059999  -0.104067  -0.053732   0.023634  -0.000763  -0.103843
    10  C   -0.302140   0.280717   0.020664  -0.007621  -0.000829  -0.034002
    11  C    0.036731  -0.068825  -0.116261  -0.004909   0.000902  -0.036198
    12  C    0.009072   0.005892   0.033667   0.007080  -0.005194  -0.143224
    13  C   -0.001744   0.008879   0.014374   0.196072  -0.020926  -0.018969
    14  H    0.000003  -0.000001   0.000002   0.086267   0.011239  -0.014020
    15  H    0.000000  -0.000000  -0.000000   0.012485   0.076294  -0.005610
    16  H    0.000000   0.000000  -0.000000  -0.000027   0.000701   0.000676
    17  H   -0.000001  -0.000000   0.000000  -0.000003  -0.001218  -0.000913
[...]
 41343,-0.00035686,-0.00066810,0.00284071,0.00064731,-0.11448407,-0.051
 59095,-0.22148028,0.00080197,0.00061583,0.00082564,0.12594731,0.054893
 61,0.23939292,0.00000462,0.00001037,0.00000893,0.00009854,0.00008259,0
 .00002403,-0.00028215,0.00004957,0.00002841,0.00007037,-0.00004589,-0.
 00002034,0.00008648,-0.00026471,-0.00000010,-0.00000439,-0.00000572,0.
 00002421,0.00000173,0.00001884,-0.00001105,0.00000600,-0.00000578,0.00
 000725,0.00000031,-0.00001034,-0.00000678,-0.00000699,0.00000457,-0.00
 000250,0.00000698,0.00000526,0.00000070,0.00000829,0.00000385,-0.00000
 733,-0.00000350,-0.00000970,0.00000150,-0.00003970,-0.00019467,-0.0000
 6591,0.00000045,0.00033858,-0.00005598,0.00000203,-0.00000875,-0.00000
 795,-0.00000402,-0.00001061,-0.00000167,-0.00000105,0.00001309,-0.0000
 1868,0.00001042,0.00001067,0.00003151,-0.00000554,-0.00000679,0.000002
 00,0.00000942,0.00000105,-0.00000086,-0.00000539,-0.00000459,-0.000007
 35,-0.00000589,0.00000134,0.00000343,0.00002769,-0.00000031,0.00000370
 ,0.00000762,-0.00000255,0.00001180,-0.00000709,-0.00001550,0.00001337,
 -0.00000103,0.00000180,0.00000196,-0.00000204,0.00000040,-0.00000276,-
 0.00000181,0.00000131,-0.00000257,-0.00000444,0.00000234,-0.00000621,0
 .00000609,0.00000598,-0.00000376,0.00000091,0.00000310,-0.00000469,-0.
 00000213,0.00000471,-0.00000373,0.00066567,0.00171917,-0.00132708,0.00
 015376,-0.00269246,-0.00122259,-0.00693635,-0.00142931,0.00629946,-0.1
 3651512,-0.02866014,0.12372243,-0.01614087,-0.00530825,0.02183338,0.01
 065552,0.00414653,-0.01385835,0.15058251,-0.00018522,0.00010096,0.0000
 0285,0.00021594,0.00002527,0.00007281,-0.00042338,0.00018639,0.0000625
 3,0.00008546,-0.00018260,-0.00003995,0.00012323,-0.00055757,0.00008120
 ,0.00010582,0.00001424,0.00002664,-0.00001632,0.00003251,-0.00002586,0
 .00001045,-0.00001255,0.00001100,0.00003842,-0.00005162,-0.00000847,-0
 .00003090,0.00001019,-0.00000094,0.00004695,-0.00000857,-0.00000541,-0
 .00001627,0.00000782,-0.00000781,0.00007174,0.00000292,-0.00001799,-0.
 00002956,0.00004991,-0.00014973,0.00005554,0.00082710,-0.00024970,-0.0
 0001358,-0.00000795,-0.00001380,-0.00002374,-0.00002339,0.00000437,0.0
 0000958,-0.00000134,-0.00000402,0.00004450,-0.00000720,0.00001629,-0.0
 0000959,-0.00000747,0.00000105,-0.00001223,0.00000472,0.00000228,-0.00
 000480,-0.00000389,-0.00000518,-0.00001324,0.00000764,0.00000346,-0.00
 003658,-0.00001620,0.00003881,-0.00004311,-0.00000169,0.00001711,-0.00
 001604,0.00000200,0.00001503,0.00000936,-0.00000300,0.00000640,0.00000
 794,-0.00000514,-0.00000535,0.00001514,0.00001226,-0.00000683,0.000010
 58,-0.00000226,-0.00000119,0.00000903,0.00000183,-0.00000443,0.0000033
 5,-0.00000240,-0.00000908,0.00000403,-0.00000209,-0.00000046,0.0017256
 8,0.00002076,-0.00403675,-0.00215395,-0.00585435,-0.00394851,-0.019400
 77,-0.00321919,0.03066513,-0.02897572,-0.05542620,0.04406286,0.0120863
 4,0.00311031,-0.01652758,0.00539829,0.00109529,-0.00702749,0.02947637,
 0.06083441,0.00022712,-0.00010147,-0.00001742,-0.00019672,0.00011087,0
 .00001661,0.00023733,-0.00011646,-0.00002224,-0.00004682,0.00010804,0.
 00001072,-0.00008416,0.00020519,0.00004063,-0.00002340,-0.00000338,-0.
 00001530,0.00000130,-0.00001713,-0.00000253,-0.00000763,0.00000851,0.0
 0000062,-0.00005018,0.00005394,0.00000491,0.00003467,-0.00000795,0.000
 00047,-0.00005757,0.00001120,0.00000791,0.00003451,-0.00001016,0.00000
 489,-0.00008122,-0.00000899,0.00000926,0.00000794,-0.00015001,-0.00000
 890,-0.00003070,-0.00025151,-0.00003427,0.00000208,0.00000630,0.000009
 57,0.00000521,0.00000916,-0.00000317,-0.00000630,-0.00000827,0.0000158
 1,-0.00001419,-0.00000172,-0.00001861,0.00000595,0.00000666,-0.0000041
 1,-0.00000038,-0.00000328,-0.00000107,0.00000490,0.00000310,0.00000682
 ,0.00001185,-0.00000818,-0.00000261,0.00003437,0.00003553,-0.00002675,
 0.00007876,0.00001606,-0.00001694,0.00002620,-0.00000452,-0.00001182,-
 0.00001327,0.00000702,-0.00000413,-0.00001421,0.00000206,0.00000331,-0
 .00003214,-0.00002480,0.00001006,-0.00001957,0.00000105,-0.00000097,-0
 .00001272,-0.00000355,0.00000490,-0.00000587,0.00000329,0.00000826,-0.
 00000908,0.00000395,-0.00000182,-0.00167379,0.00080363,0.00112196,-0.0
 0074193,0.00051271,-0.00033578,0.00114396,-0.00274327,-0.00030872,0.12
 239739,0.04098885,-0.20988611,-0.00263561,-0.00114265,0.00323072,0.015
 94867,0.00612733,-0.02235787,-0.13418805,-0.04360581,0.22638554,0.0000
 0357,0.00001055,0.00000590,0.00003266,0.00009564,-0.00001861,-0.000088
 43,-0.00001521,0.00001512,0.00002428,0.00002431,-0.00000586,0.00002466
 ,-0.00000491,-0.00003735,-0.00000062,0.00000105,-0.00000228,-0.0000055
 7,-0.00000517,0.00003951,0.00000097,-0.00000292,-0.00001077,0.00000244
 ,0.00000079,-0.00000301,-0.00000583,0.00001349,-0.00000143,-0.00000111
 ,0.00000929,0.00000072,0.00000601,0.00000011,-0.00000148,-0.00000306,-
 0.00001892,-0.00001439,-0.00001372,-0.00013961,0.00001438,-0.00000747,
 -0.00001296,0.00003707,0.00000181,-0.00000084,-0.00000120,-0.00000014,
 0.00000711,0.00000153,0.00000706,0.00000131,-0.00000344,0.00000563,-0.
 00000024,-0.00001940,0.00000149,0.00000737,-0.00000093,-0.00000376,-0.
 00000249,0.00000436,-0.00000272,-0.00000114,-0.00000104,-0.00000200,0.
 00000043,0.00000258,0.00001017,-0.00001891,0.00001546,0.00002241,-0.00
 002537,0.00001651,0.00000015,-0.00003908,0.00000985,0.00000454,-0.0000
 0385,0.00000331,-0.00000705,0.00000978,0.00000134,-0.00000310,0.000007
 86,-0.00000426,-0.00001137,0.00000830,-0.00001438,0.00000646,0.0000126
 1,-0.00000452,-0.00000120,0.00001084,0.00000138,-0.00000674,0.00001186
 ,-0.00000637,0.00065123,0.00039343,-0.00031171,0.00157070,0.00004014,-
 0.00062659,-0.00151076,-0.00175904,0.00028936,-0.01764637,-0.00483108,
 0.02377544,-0.13744338,-0.03021380,0.12459604,0.00062851,-0.00091692,-
 0.00033451,-0.00413053,0.00369818,-0.00112811,0.15168962,0.00014748,-0
 .00006643,-0.00001070,-0.00014864,0.00006622,0.00000837,0.00021009,-0.
 00014123,-0.00001523,-0.00003871,0.00012055,0.00000958,-0.00006285,0.0
 0022576,0.00002085,-0.00001095,-0.00000538,-0.00001998,-0.00000750,-0.
 00003034,-0.00000135,-0.00002014,0.00002134,0.00000349,-0.00002916,0.0
 0004037,0.00000282,0.00002000,0.00000294,-0.00000400,-0.00004084,0.000
 01517,0.00000798,0.00002111,-0.00000949,-0.00000496,-0.00005132,-0.000
 01343,0.00000737,0.00001692,-0.00011164,-0.00000456,-0.00004366,-0.000
 30423,0.00000520,-0.00000060,0.00001068,0.00001566,0.00000234,0.000015
 35,-0.00000301,-0.00000861,-0.00002291,0.00004006,-0.00002327,-0.00001
 056,-0.00004862,0.00001251,0.00001259,-0.00000480,0.00000232,-0.000008
 84,-0.00000289,0.00001148,0.00000778,0.00001024,0.00000833,-0.00000583
 ,-0.00000106,0.00002132,-0.00000205,-0.00000499,0.00007136,-0.00001926
 ,0.00000049,0.00002070,-0.00004093,-0.00000408,-0.00000343,-0.00000011
 ,-0.00000035,-0.00001595,0.00001327,0.00000590,-0.00002193,-0.00000598
 ,0.00000312,-0.00002270,0.00000956,-0.00001251,-0.00000375,0.00000996,
 0.00000092,-0.00000549,0.00001368,0.00001002,-0.00001197,0.00001383,-0
 .00000586,-0.00088697,0.00019462,0.00018837,-0.00101875,-0.00033568,0.
 00050636,0.00191344,0.00055246,-0.00094672,0.01086051,0.00354225,-0.01
 609593,-0.03157756,-0.05707029,0.04286362,-0.00082996,0.00074917,0.000
 26187,0.00340102,-0.00207698,0.00016201,0.03075599,0.05905248,0.000047
 90,-0.00003198,-0.00000511,-0.00011799,-0.00006825,0.00001168,0.000199
 82,-0.00004121,-0.00001607,-0.00005591,0.00002027,0.00000766,-0.000092
 69,0.00007833,0.00003561,0.00007193,0.00001082,-0.00003060,-0.00001881
 ,-0.00002306,0.00003101,-0.00000641,0.00000404,-0.00001088,-0.00001178
 ,0.00001619,0.00000192,0.00001144,-0.00001029,0.00000030,-0.00001520,0
 .00000035,0.00000281,0.00000343,-0.00000408,-0.00000056,-0.00001611,0.
 00000653,0.00000646,0.00002486,0.00009002,-0.00001074,0.00000222,-0.00
 005714,-0.00002877,-0.00001102,0.00000797,0.00000650,-0.00001122,0.000
 00895,0.00000385,0.00000684,-0.00002288,0.00002695,0.00000924,-0.00002
 987,-0.00006003,0.00000667,0.00001455,-0.00000492,-0.00002506,-0.00000
 348,0.00000557,0.00000569,0.00000508,0.00001018,0.00000583,-0.00000250
 ,-0.00000150,-0.00000069,0.00000484,-0.00000454,0.00001149,0.00001261,
 -0.00001017,0.00001077,0.00001792,-0.00000886,-0.00000359,0.00000132,-
 0.00000104,-0.00000089,-0.00000321,0.00000046,-0.00000642,-0.00000838,
 0.00000395,-0.00000100,-0.00000271,0.00000451,-0.00000791,-0.00000762,
 0.00000387,-0.00000170,-0.00000424,0.00000274,-0.00000031,-0.00000460,
 0.00000207,-0.00066876,-0.00052100,-0.00011238,-0.00184775,0.00039361,
 0.00052053,0.00224075,0.00143961,0.00011039,-0.00188615,-0.00138198,0.
 00245662,0.12499515,0.04072055,-0.21912272,0.00034687,-0.00053829,0.00
 070949,-0.00071841,0.00049933,0.00147861,-0.13627752,-0.04663830,0.234
 56787,0.00008516,-0.00000294,-0.00000324,0.00010099,0.00033226,0.00000
 915,-0.00027072,0.00002818,0.00000539,0.00007973,0.00002465,-0.0000004
 0,0.00008421,-0.00008111,-0.00000879,-0.00005585,-0.00001606,0.0000110
 0,0.00001511,0.00003173,-0.00001671,0.00001056,-0.00001268,0.00000282,
 -0.00001605,0.00001082,0.00000096,0.00000099,0.00001178,0.00000026,-0.
 00001656,0.00001298,0.00000240,0.00001876,0.00000375,0.00000024,-0.000
 03136,-0.00003673,-0.00000004,-0.00009602,-0.00048127,-0.00001085,-0.0
 0000482,0.00006748,-0.00000718,0.00001223,0.00000116,-0.00000242,0.000
 00876,-0.00000639,0.00000113,-0.00000273,0.00000957,-0.00001263,0.0000
 0078,0.00001482,0.00002606,-0.00000712,-0.00000928,0.00000465,0.000010
 80,0.00000394,-0.00000218,-0.00000301,-0.00000043,-0.00000510,-0.00000
 312,0.00000006,-0.00000003,0.00003783,-0.00000672,-0.00000348,0.000034
 86,-0.00000565,-0.00000073,-0.00000081,-0.00002816,-0.00000168,-0.0000
 0168,-0.00000006,-0.00000022,-0.00000843,0.00000659,0.00000323,-0.0000
 1156,-0.00000376,0.00000191,-0.00001116,0.00000399,-0.00000621,0.00000
 339,0.00000854,-0.00000103,-0.00000129,0.00000926,0.00000583,-0.000004
 15,0.00000837,-0.00000252,-0.00024322,0.00337035,-0.00009780,0.0023456
 6,-0.00070621,0.00008756,-0.00735689,-0.00176873,-0.00023824,0.0078812
 8,0.03092528,-0.00046579,-0.06002319,-0.05546113,0.00108463,0.00108209
 ,-0.00095310,-0.00036334,0.00106007,-0.00090895,0.00049321,-0.00446873
 ,-0.01787219,-0.00219893,0.06411629,-0.00040876,0.00013058,0.00001707,
 0.00018129,-0.00053858,-0.00001556,-0.00005041,0.00031184,0.00001943,-
 0.00003248,-0.00031702,-0.00001339,-0.00000874,-0.00036214,0.00000259,
 0.00011944,0.00003206,0.00002324,-0.00000496,0.00003490,-0.00003048,0.
 00001759,-0.00001448,0.00000943,0.00007137,-0.00009968,-0.00000539,-0.
 00003631,-0.00003975,0.00000556,0.00012237,-0.00006285,-0.00001818,-0.
 00007970,0.00002243,0.00000531,0.00014230,0.00009369,-0.00000066,0.000
 04909,0.00087829,0.00000803,0.00012735,0.00057550,-0.00002369,-0.00001
 979,-0.00001392,-0.00002368,-0.00001805,-0.00003005,0.00000778,0.00001
 165,0.00001213,-0.00002226,0.00004458,0.00000636,0.00003926,-0.0000149
 6,-0.00001905,0.00000693,-0.00001357,0.00001382,0.00000336,-0.00000749
 ,-0.00000736,-0.00001268,-0.00001236,0.00001203,0.00000058,-0.00009282
 ,0.00004120,0.00000416,-0.00024918,0.00008325,-0.00000080,-0.00005808,
 0.00018404,0.00001439,0.00000132,0.00000580,0.00000040,0.00005947,-0.0
 0005493,-0.00002558,0.00007444,0.00001168,-0.00000978,0.00008032,-0.00
 003660,0.00004549,0.00000064,-0.00004916,0.00000110,0.00001835,-0.0000
 5994,-0.00004016,0.00004262,-0.00005856,0.00002127,0.00164767,-0.00324
 686,0.00013769,0.00054800,-0.00105146,0.00007711,0.00185846,0.00259126
 ,-0.00000043,-0.00594650,-0.01606400,0.00016895,-0.05531431,-0.2971393
 3,0.00438424,0.00016301,0.00041675,0.00064521,0.00019975,0.00036495,-0
 .00065062,-0.00115692,-0.00501655,0.00016196,0.05931085,0.32486923,0.0
 0001216,-0.00000274,-0.00000041,-0.00000159,0.00002453,-0.00000010,-0.
 00000563,-0.00000914,-0.00000487,0.00000293,0.00001056,-0.00000011,0.0
 0000156,0.00000780,0.00003037,0.00000067,-0.00000158,-0.00000141,-0.00
 000103,0.00000958,-0.00001981,-0.00000169,-0.00000104,0.00000707,-0.00
 000221,0.00000266,0.00000199,0.00000023,0.00000127,0.00000068,-0.00000
 240,0.00000269,-0.00000119,0.00000189,-0.00000003,0.00000103,-0.000004
 75,-0.00000352,-0.00000819,-0.00000467,-0.00003912,-0.00000571,-0.0000
 0317,-0.00001031,-0.00002978,-0.00000043,0.00000548,0.00000288,0.00000
 098,-0.00000040,0.00000030,-0.00000276,-0.00001275,0.00001774,0.000001
 83,-0.00000180,-0.00001510,-0.00000025,0.00000008,0.00000009,-0.000001
 68,-0.00000072,-0.00000193,0.00000381,0.00000393,0.00000220,-0.0000000
 2,-0.00000041,0.00000036,0.00000338,-0.00000172,0.00000334,0.00000717,
 -0.00000390,0.00000667,0.00000112,-0.00000648,0.00000313,0.00000003,-0
 .00000032,0.00000181,-0.00000143,0.00000099,-0.00000098,-0.00000124,0.
 00000101,-0.00000164,-0.00000352,0.00000177,-0.00000453,0.00000087,0.0
 0000204,-0.00000099,-0.00000030,0.00000141,-0.00000057,-0.00000197,0.0
 0000233,-0.00000176,-0.00005284,0.00020603,0.00005689,0.00004891,0.000
 02033,0.00063247,-0.00033777,-0.00011292,0.00062353,0.00048473,0.00148
 678,-0.00134972,0.00109143,0.00438808,-0.05042688,0.00022518,0.0002717
 9,-0.00005706,-0.00016155,-0.00035744,0.00000520,0.00391375,0.02637956
 ,0.00098128,-0.00091551,-0.00504220,0.04733234,0.00001722,0.00000420,-
 0.00000744,0.00001404,0.00009199,0.00002107,-0.00005606,-0.00002162,-0
 .00001392,0.00001689,0.00002982,0.00000923,0.00001002,0.00000654,0.000
 03043,0.00000350,-0.00000136,-0.00002179,-0.00000633,-0.00001177,0.000
 02246,-0.00000146,-0.00000119,-0.00000592,0.00000031,0.00000550,0.0000
 0359,-0.00000271,0.00000905,0.00000012,-0.00001183,0.00000960,0.000002
 29,0.00000754,-0.00000150,0.00000216,-0.00000517,-0.00001878,0.0000138
 4,-0.00001324,-0.00013950,-0.00001949,-0.00000645,-0.00001841,-0.00003
 129,0.00000434,0.00000676,0.00000503,-0.00000237,0.00000476,0.00000306
 ,0.00000038,0.00000029,0.00000415,0.00000987,-0.00000607,-0.00001939,0
 .00000132,0.00000517,-0.00000171,-0.00000580,-0.00000135,0.00000398,0.
 00000239,0.00000141,0.00000263,-0.00000082,0.00000014,-0.00000275,0.00
 000938,-0.00001751,-0.00001821,0.00002604,-0.00001741,-0.00001604,0.00
 000510,-0.00003247,-0.00001583,0.00000305,-0.00000325,-0.00000410,-0.0
 0000809,0.00001228,0.00000977,-0.00000701,0.00000184,0.00000435,-0.000
 00700,0.00000482,0.00000093,0.00000132,0.00000912,0.00000215,-0.000002
 62,0.00001238,0.00001363,-0.00000328,0.00000858,0.00000101,0.00057440,
 0.00038049,0.00034699,0.00139036,0.00011220,0.00067204,-0.00133994,-0.
 00166247,-0.00030826,-0.01594901,-0.00619448,-0.02474999,-0.12008492,-
 0.03307865,-0.11589651,-0.00422055,0.00376356,0.00051912,0.00063456,-0
 .00093795,0.00037820,0.01066931,0.00525998,0.01600133,-0.00435108,-0.0
 0136654,-0.00429418,0.13268440,0.00014278,-0.00006350,-0.00000443,-0.0
 0013664,0.00006760,-0.00000095,0.00018902,-0.00013473,-0.00001356,-0.0
 0003358,0.00011547,0.00000448,-0.00004900,0.00021772,-0.00001390,-0.00
 002714,-0.00000334,-0.00001101,-0.00000220,-0.00004653,0.00004666,-0.0
 0001377,0.00001958,-0.00001268,-0.00002720,0.00003853,0.00000184,0.000
 01963,0.00000414,0.00000028,-0.00004071,0.00001490,0.00000598,0.000021
 99,-0.00000941,-0.00000046,-0.00004939,-0.00001437,-0.00000663,0.00001
 632,-0.00011580,0.00000811,-0.00004629,-0.00030178,0.00003183,0.000000
 96,-0.00000003,0.00000877,0.00000276,0.00001772,-0.00000441,-0.0000024
 4,0.00000006,-0.00000114,-0.00003365,-0.00000673,-0.00002183,0.0000138
 3,0.00001158,-0.00000518,0.00000552,-0.00000748,-0.00000154,0.00000154
 ,0.00000119,0.00000620,0.00000785,-0.00000548,0.00000041,0.00002136,-0
 .00000330,0.00000533,0.00007155,-0.00001955,-0.00000089,0.00002003,-0.
 00004245,-0.00000343,-0.00000293,-0.00000040,0.00000031,-0.00001626,0.
 00001390,0.00000636,-0.00002209,-0.00000592,0.00000316,-0.00002246,0.0
 0000955,-0.00001222,-0.00000342,0.00001044,0.00000037,-0.00000550,0.00
 001413,0.00000982,-0.00001201,0.00001433,-0.00000607,-0.00083702,0.000
 20639,-0.00026483,-0.00088210,-0.00040560,-0.00055487,0.00173826,0.000
 52422,0.00107565,0.00970069,0.00448522,0.01665383,-0.03430311,-0.06203
 459,-0.05371069,0.00341514,-0.00208024,0.00027286,-0.00082620,0.000762
 20,-0.00032272,0.00404893,0.00060808,0.00589022,-0.01583486,-0.0064095
 2,-0.02722214,0.03379182,0.06455380,-0.00004883,0.00003330,-0.00000047
 ,0.00011833,0.00007160,0.00001218,-0.00020102,0.00004196,-0.00000277,0
 .00005576,-0.00002031,0.00000312,0.00008738,-0.00008559,0.00001642,-0.
 00005939,-0.00001391,0.00001886,0.00001407,0.00004507,-0.00007587,0.00
 000608,-0.00001067,0.00002001,0.00001272,-0.00001545,0.00000158,-0.000
 01276,0.00000879,0.00000141,0.00001216,0.00000067,-0.00000298,-0.00000
 312,0.00000389,0.00000101,0.00001815,-0.00000783,0.00000630,-0.0000270
 0,-0.00009635,-0.00001807,0.00000250,0.00007121,-0.00003184,0.00000952
 ,0.00000687,0.00000289,0.00001062,-0.00001317,-0.00000169,-0.00000566,
 -0.00000427,0.00000974,-0.00000384,0.00002502,0.00002770,-0.00000775,-
 0.00001828,0.00000755,0.00001507,0.00000435,-0.00001371,0.00000166,0.0
 0000830,-0.00000040,-0.00000616,0.00000247,-0.00000175,0.00000003,-0.0
 0000620,-0.00000591,-0.00001078,-0.00001085,-0.00000827,-0.00000911,-0
 .00001715,-0.00000792,0.00000360,-0.00000174,-0.00000169,0.00000021,0.
 00000566,0.00000496,0.00000513,0.00000655,0.00000041,0.00000363,0.0000
 0107,0.00000408,0.00000573,0.00000646,0.00000023,0.00000088,0.00000643
 ,0.00000560,0.00000262,0.00000315,0.00000274,0.00076460,0.00054011,-0.
 00004513,0.00196646,-0.00033589,0.00075840,-0.00245678,-0.00159943,-0.
 00007030,0.00009762,0.00081369,-0.00010975,-0.11624492,-0.05148583,-0.
 23140944,0.00013095,-0.00003850,0.00157645,-0.00031181,0.00047062,0.00
 070438,-0.01391443,-0.00668392,-0.02156398,0.00262460,0.00012500,0.002
 22140,0.12735327,0.05816311,0.24796454\\-0.00000117,-0.00000132,0.0000
 0380,-0.00000195,0.00000310,0.00000048,-0.00000377,0.00000172,-0.00001
 700,-0.00000192,0.00000260,0.00000591,0.00000886,-0.00000101,0.0000051
 6,-0.00000077,-0.00000173,0.00000079,0.00000149,0.00000091,-0.00000189
 ,0.00000018,-0.00000152,-0.00000003,0.00000076,-0.00000134,-0.00000005
 ,0.00000088,0.00000010,0.00000036,0.00000031,0.00000021,0.00000113,0.0
 0000044,0.00000089,0.00000006,-0.00000145,-0.00000052,-0.00000153,-0.0
 0000422,-0.00000210,0.00000197,0.00000218,0.00000033,0.00000028,-0.000
 00072,-0.00000021,-0.00000178,-0.00000093,-0.00000012,-0.00000105,0.00
 000007,-0.00000039,-0.00000082,0.00000040,0.00000018,0.00000032,-0.000
 00038,0.00000017,-0.00000074,0.00000033,0.00000008,-0.00000092,0.,-0.0
 0000015,-0.00000191,0.00000127,0.00000050,-0.00000041,0.00000028,0.000
 00026,0.00000166,0.00000138,-0.00000037,0.00000075,-0.00000016,-0.0000
 0190,0.00000043,-0.00000009,0.00000001,0.00000092,-0.00000130,-0.00000
 126,-0.00000082,0.00000022,0.00000157,-0.00000017,-0.00000115,-0.00000
 066,0.00000195,-0.00000179,-0.00000008,0.00000038,0.00000178,0.0000016
 5,-0.00000202,0.00000115,0.00000067,0.00000101,-0.00001251,0.00000102,
 0.00000155,0.00000464,-0.00000579,0.00000358,0.00000542,0.00000021,-0.
 00000616,0.00000162,0.00000095,0.00000001,-0.00000068,0.00000123,0.000
 00140,-0.00000009,0.00000067,0.00000092,0.00000142,0.00000076,0.000001
 18,-0.00000029,0.00000007,0.00000012,-0.00000009,0.00000038,0.00000054
 ,0.00000036,0.00000022,0.00000066\\\@


 IT WAS A GAME, A VERY INTERESTING GAME ONE COULD
 PLAY.  WHENEVER ONE SOLVED ONE OF THE LITTLE PROBLEMS,
 ONE COULD WRITE A PAPER ABOUT IT.  IT WAS VERY EASY IN
 THOSE DAYS FOR ANY SECOND-RATE PHYSICIST TO DO
 FIRST-RATE WORK.  THERE HAS NOT BEEN SUCH A GLORIOUS
 TIME SINCE.  IT IS VERY DIFFICULT NOW FOR A FIRST-RATE
 PHYSICIST TO DO SECOND-RATE WORK.
     P.A.M. DIRAC, ON THE EARLY DAYS OF QUANTUM MECHANICS
                   DIRECTIONS IN PHYSICS, 1978, P. 7
 Job cpu time:       0 days 14 hours 50 minutes 13.9 seconds.
 File lengths (MBytes):  RWF=   1549 Int=      0 D2E=      0 Chk=     29 Scr=      1
 Normal termination of Gaussian 09 at Fri Nov 15 00:06:49 2019.
pbs_rusage has been removed.
Please contact help@nci.org.au if you require this functionality.
