 Entering Gaussian System, Link 0=/apps/gaussian/g09e01/g09/g09
 Initial command:
 /apps/gaussian/g09e01/g09/l1.exe "/jobfs/local/3595126.r-man2/Gau-34234.inp" -scrdir="/jobfs/local/3595126.r-man2/"
 Entering Link 1 = /apps/gaussian/g09e01/g09/l1.exe PID=     34244.
  
 Copyright (c) 1988,1990,1992,1993,1995,1998,2003,2009,2015,
            Gaussian, Inc.  All Rights Reserved.
  
 This is part of the Gaussian(R) 09 program.  It is based on
 the Gaussian(R) 03 system (copyright 2003, Gaussian, Inc.),
 the Gaussian(R) 98 system (copyright 1998, Gaussian, Inc.),
 the Gaussian(R) 94 system (copyright 1995, Gaussian, Inc.),
 the Gaussian 92(TM) system (copyright 1992, Gaussian, Inc.),
 the Gaussian 90(TM) system (copyright 1990, Gaussian, Inc.),
 the Gaussian 88(TM) system (copyright 1988, Gaussian, Inc.),
 the Gaussian 86(TM) system (copyright 1986, Carnegie Mellon
 University), and the Gaussian 82(TM) system (copyright 1983,
 Carnegie Mellon University). Gaussian is a federally registered
 trademark of Gaussian, Inc.
  
 This software contains proprietary and confidential information,
 including trade secrets, belonging to Gaussian, Inc.
  
 This software is provided under written license and may be
 used, copied, transmitted, or stored only in accord with that
 written license.
  
 The following legend is applicable only to US Government
 contracts under FAR:
  
                    RESTRICTED RIGHTS LEGEND
  
 Use, reproduction and disclosure by the US Government is
 subject to restrictions as set forth in subparagraphs (a)
 and (c) of the Commercial Computer Software - Restricted
 Rights clause in FAR 52.227-19.
  
 Gaussian, Inc.
 340 Quinnipiac St., Bldg. 40, Wallingford CT 06492
  
  
 ---------------------------------------------------------------
 Warning -- This program may not be used in any manner that
 competes with the business of Gaussian, Inc. or will provide
 assistance to any competitor of Gaussian, Inc.  The licensee
 of this program is prohibited from giving any competitor of
 Gaussian, Inc. access to this program.  By using this program,
 the user acknowledges that Gaussian, Inc. is engaged in the
 business of creating and licensing software in the field of
 computational chemistry and represents and warrants to the
 licensee that it is not a competitor of Gaussian, Inc. and that
 it will not use this program in any manner prohibited above.
 ---------------------------------------------------------------
  

 Cite this work as:
 Gaussian 09, Revision E.01,
 M. J. Frisch, G. W. Trucks, H. B. Schlegel, G. E. Scuseria, 
 M. A. Robb, J. R. Cheeseman, G. Scalmani, V. Barone, B. Mennucci, 
 G. A. Petersson, H. Nakatsuji, M. Caricato, X. Li, H. P. Hratchian, 
 A. F. Izmaylov, J. Bloino, G. Zheng, J. L. Sonnenberg, M. Hada, 
 M. Ehara, K. Toyota, R. Fukuda, J. Hasegawa, M. Ishida, T. Nakajima, 
 Y. Honda, O. Kitao, H. Nakai, T. Vreven, J. A. Montgomery, Jr., 
 J. E. Peralta, F. Ogliaro, M. Bearpark, J. J. Heyd, E. Brothers, 
 K. N. Kudin, V. N. Staroverov, T. Keith, R. Kobayashi, J. Normand, 
 K. Raghavachari, A. Rendell, J. C. Burant, S. S. Iyengar, J. Tomasi, 
 M. Cossi, N. Rega, J. M. Millam, M. Klene, J. E. Knox, J. B. Cross, 
 V. Bakken, C. Adamo, J. Jaramillo, R. Gomperts, R. E. Stratmann, 
 O. Yazyev, A. J. Austin, R. Cammi, C. Pomelli, J. W. Ochterski, 
 R. L. Martin, K. Morokuma, V. G. Zakrzewski, G. A. Voth, 
 P. Salvador, J. J. Dannenberg, S. Dapprich, A. D. Daniels, 
 O. Farkas, J. B. Foresman, J. V. Ortiz, J. Cioslowski, 
 and D. J. Fox, Gaussian, Inc., Wallingford CT, 2013.
 
 ******************************************
 Gaussian 09:  ES64L-G09RevE.01 30-Nov-2015
                14-Nov-2019 
 ******************************************
 %chk=NM2_c2_carboxy.M062X_6-311pGd_opt_Pentadecane_GD3.chk
 %mem=196608000
 %nproc=8
 Will use up to    8 processors via shared memory.
 ----------------------------------------------------------------------
 # M062X/6-311+G* SCF=Tight INT(grid=ultrafine) OPT IOP(2/17=4) Empiric
 alDispersion=GD3 SCRF=(SMD,Solvent=n-Pentadecane) maxdisk=3221225472
 ----------------------------------------------------------------------
 1/14=-1,18=20,19=15,26=4,38=1/1,3;
 2/9=110,12=2,17=4,18=5,40=1/2;
 3/5=4,6=6,7=11,11=2,16=1,25=1,30=1,70=32201,71=1,72=151,74=-55,75=-5,124=31/1,2,3;
 4//1;
 5/5=2,32=2,38=5,53=151/2;
 6/7=2,8=2,9=2,10=2,28=1/1;
 7//1,2,3,16;
 1/14=-1,18=20,19=15,26=4/3(2);
 2/9=110,17=4/2;
 99//99;
 2/9=110,17=4/2;
 3/5=4,6=6,7=11,11=2,16=1,25=1,30=1,70=32205,71=1,72=151,74=-55,75=-5,124=31/1,2,3;
 4/5=5,16=3,69=1/1;
 5/5=2,32=2,38=5,53=151/2;
 7//1,2,3,16;
 1/14=-1,18=20,19=15,26=4/3(-5);
 2/9=110,17=4/2;
 6/7=2,8=2,9=2,10=2,19=2,28=1/1;
 99/9=1/99;
 -------------------------------------------------
 NM2_c2_carboxy.M062X_6-311pGd_opt_Pentadecane_GD3
 -------------------------------------------------
 Symbolic Z-matrix:
 Charge = -1 Multiplicity = 1
 C                    -5.77427   1.3052    0.23011 
 N                    -4.57432   0.63957   0.17658 
 C                    -3.30493   1.2048    0.1048 
 O                    -3.09806   2.4146    0.08504 
 N                    -2.32146   0.28086   0.0639 
 C                    -0.93622   0.69297  -0.03575 
 C                    -0.02355  -0.52389   0.0302 
 C                     1.44467  -0.12997  -0.0817 
 C                    -6.93456   0.50257   0.30744 
 C                    -8.19411   1.06386   0.36645 
 C                    -8.35219   2.46291   0.36053 
 C                    -7.20721   3.24681   0.2752 
 C                    -5.93483   2.69803   0.21147 
 H                    -4.64249  -0.39866   0.20244 
 H                    -2.54068  -0.72577   0.02471 
 H                    -0.70005   1.38801   0.77731 
 H                    -0.76903   1.24008  -0.9719 
 H                    -0.29275  -1.22029  -0.76925 
 H                    -0.20374  -1.05475   0.96974 
 H                     1.64766   0.37858  -1.02861 
 H                     2.09578  -1.0056   -0.03064 
 H                     1.73628   0.54762   0.72607 
 H                    -6.81133  -0.57533   0.31575 
 H                    -5.06712   3.33577   0.15042 
 C                    -9.68207   3.15363   0.39515 
 C                    -9.36311   0.11739   0.48117 
 H                    -7.30532   4.32546   0.263 
 F                    -10.53646   2.61471   1.28115 
 F                    -10.31379   3.1474   -0.79623 
 F                    -9.55948   4.45085   0.73408 
 F                    -9.03999  -1.13067   0.12055 
 F                    -10.39812   0.48115  -0.29483 
 F                    -9.8314    0.03715   1.73976 
 O                    -5.00557  -2.07669   0.25445 
 O                    -2.83569  -2.50208  -0.06017 
 C                    -4.02575  -2.85285   0.09762 
 C                    -4.35067  -4.35056   0.10187 
 C                    -3.1415   -5.26076  -0.05016 
 H                    -5.07445  -4.52157  -0.70143 
 H                    -4.88908  -4.56075   1.03112 
 H                    -2.61672  -5.06002  -0.98581 
 H                    -3.43662  -6.31425  -0.0415 
 H                    -2.42617  -5.09963   0.75862 
 
 Add virtual bond connecting atoms O34        and H14        Dist= 3.25D+00.
 Add virtual bond connecting atoms O35        and H15        Dist= 3.41D+00.

 GradGradGradGradGradGradGradGradGradGradGradGradGradGradGradGradGradGrad
 Berny optimization.
 Initialization pass.
                           ----------------------------
                           !    Initial Parameters    !
                           ! (Angstroms and Degrees)  !
 --------------------------                            --------------------------
 ! Name  Definition              Value          Derivative Info.                !
 --------------------------------------------------------------------------------
 ! R1    R(1,2)                  1.3732         estimate D2E/DX2                !
 ! R2    R(1,9)                  1.413          estimate D2E/DX2                !
 ! R3    R(1,13)                 1.4022         estimate D2E/DX2                !
 ! R4    R(2,3)                  1.3914         estimate D2E/DX2                !
 ! R5    R(2,14)                 1.0408         estimate D2E/DX2                !
 ! R6    R(3,4)                  1.2275         estimate D2E/DX2                !
 ! R7    R(3,5)                  1.35           estimate D2E/DX2                !
 ! R8    R(5,6)                  1.4487         estimate D2E/DX2                !
 ! R9    R(5,15)                 1.031          estimate D2E/DX2                !
 ! R10   R(6,7)                  1.5225         estimate D2E/DX2                !
 ! R11   R(6,16)                 1.0954         estimate D2E/DX2                !
 ! R12   R(6,17)                 1.0971         estimate D2E/DX2                !
 ! R13   R(7,8)                  1.5243         estimate D2E/DX2                !
 ! R14   R(7,18)                 1.0939         estimate D2E/DX2                !
 ! R15   R(7,19)                 1.0941         estimate D2E/DX2                !
 ! R16   R(8,20)                 1.0938         estimate D2E/DX2                !
 ! R17   R(8,21)                 1.0924         estimate D2E/DX2                !
 ! R18   R(8,22)                 1.0939         estimate D2E/DX2                !
 ! R19   R(9,10)                 1.3802         estimate D2E/DX2                !
 ! R20   R(9,23)                 1.085          estimate D2E/DX2                !
 ! R21   R(10,11)                1.408          estimate D2E/DX2                !
 ! R22   R(10,26)                1.5085         estimate D2E/DX2                !
 ! R23   R(11,12)                1.3902         estimate D2E/DX2                !
 ! R24   R(11,25)                1.499          estimate D2E/DX2                !
 ! R25   R(12,13)                1.3872         estimate D2E/DX2                !
 ! R26   R(12,27)                1.0832         estimate D2E/DX2                !
 ! R27   R(13,24)                1.0786         estimate D2E/DX2                !
 ! R28   R(14,34)                1.7176         estimate D2E/DX2                !
 ! R29   R(15,35)                1.8026         estimate D2E/DX2                !
 ! R30   R(25,28)                1.3437         estimate D2E/DX2                !
 ! R31   R(25,29)                1.3485         estimate D2E/DX2                !
 ! R32   R(25,30)                1.3464         estimate D2E/DX2                !
 ! R33   R(26,31)                1.3387         estimate D2E/DX2                !
 ! R34   R(26,32)                1.3438         estimate D2E/DX2                !
 ! R35   R(26,33)                1.3453         estimate D2E/DX2                !
 ! R36   R(34,36)                1.2598         estimate D2E/DX2                !
 ! R37   R(35,36)                1.2507         estimate D2E/DX2                !
 ! R38   R(36,37)                1.5326         estimate D2E/DX2                !
 ! R39   R(37,38)                1.5211         estimate D2E/DX2                !
 ! R40   R(37,39)                1.0947         estimate D2E/DX2                !
 ! R41   R(37,40)                1.0943         estimate D2E/DX2                !
 ! R42   R(38,41)                1.0914         estimate D2E/DX2                !
 ! R43   R(38,42)                1.0941         estimate D2E/DX2                !
 ! R44   R(38,43)                1.0917         estimate D2E/DX2                !
 ! A1    A(2,1,9)              116.3807         estimate D2E/DX2                !
 ! A2    A(2,1,13)             125.5225         estimate D2E/DX2                !
 ! A3    A(9,1,13)             118.0966         estimate D2E/DX2                !
 ! A4    A(1,2,3)              127.0335         estimate D2E/DX2                !
 ! A5    A(1,2,14)             115.1716         estimate D2E/DX2                !
 ! A6    A(3,2,14)             117.7923         estimate D2E/DX2                !
 ! A7    A(2,3,4)              123.7075         estimate D2E/DX2                !
 ! A8    A(2,3,5)              112.8395         estimate D2E/DX2                !
 ! A9    A(4,3,5)              123.4526         estimate D2E/DX2                !
 ! A10   A(3,5,6)              120.264          estimate D2E/DX2                !
 ! A11   A(3,5,15)             120.9624         estimate D2E/DX2                !
 ! A12   A(6,5,15)             118.5856         estimate D2E/DX2                !
 ! A13   A(5,6,7)              110.0507         estimate D2E/DX2                !
 ! A14   A(5,6,16)             109.6087         estimate D2E/DX2                !
 ! A15   A(5,6,17)             110.2592         estimate D2E/DX2                !
 ! A16   A(7,6,16)             110.2266         estimate D2E/DX2                !
 ! A17   A(7,6,17)             110.1319         estimate D2E/DX2                !
 ! A18   A(16,6,17)            106.504          estimate D2E/DX2                !
 ! A19   A(6,7,8)              111.5721         estimate D2E/DX2                !
 ! A20   A(6,7,18)             109.2471         estimate D2E/DX2                !
 ! A21   A(6,7,19)             109.0426         estimate D2E/DX2                !
 ! A22   A(8,7,18)             110.3606         estimate D2E/DX2                !
 ! A23   A(8,7,19)             110.3089         estimate D2E/DX2                !
 ! A24   A(18,7,19)            106.1516         estimate D2E/DX2                !
 ! A25   A(7,8,20)             111.2514         estimate D2E/DX2                !
 ! A26   A(7,8,21)             111.3184         estimate D2E/DX2                !
 ! A27   A(7,8,22)             111.2629         estimate D2E/DX2                !
 ! A28   A(20,8,21)            107.6094         estimate D2E/DX2                !
 ! A29   A(20,8,22)            107.5646         estimate D2E/DX2                !
 ! A30   A(21,8,22)            107.6439         estimate D2E/DX2                !
 ! A31   A(1,9,10)             121.3804         estimate D2E/DX2                !
 ! A32   A(1,9,23)             118.1322         estimate D2E/DX2                !
 ! A33   A(10,9,23)            120.487          estimate D2E/DX2                !
 ! A34   A(9,10,11)            120.4223         estimate D2E/DX2                !
 ! A35   A(9,10,26)            117.0843         estimate D2E/DX2                !
 ! A36   A(11,10,26)           122.4639         estimate D2E/DX2                !
 ! A37   A(10,11,12)           117.91           estimate D2E/DX2                !
 ! A38   A(10,11,25)           123.8756         estimate D2E/DX2                !
 ! A39   A(12,11,25)           118.1824         estimate D2E/DX2                !
 ! A40   A(11,12,13)           122.3567         estimate D2E/DX2                !
 ! A41   A(11,12,27)           119.1832         estimate D2E/DX2                !
 ! A42   A(13,12,27)           118.4593         estimate D2E/DX2                !
 ! A43   A(1,13,12)            119.8285         estimate D2E/DX2                !
 ! A44   A(1,13,24)            119.7332         estimate D2E/DX2                !
 ! A45   A(12,13,24)           120.4382         estimate D2E/DX2                !
 ! A46   A(11,25,28)           113.2384         estimate D2E/DX2                !
 ! A47   A(11,25,29)           113.1467         estimate D2E/DX2                !
 ! A48   A(11,25,30)           111.6546         estimate D2E/DX2                !
 ! A49   A(28,25,29)           106.4292         estimate D2E/DX2                !
 ! A50   A(28,25,30)           106.1611         estimate D2E/DX2                !
 ! A51   A(29,25,30)           105.6354         estimate D2E/DX2                !
 ! A52   A(10,26,31)           112.1735         estimate D2E/DX2                !
 ! A53   A(10,26,32)           112.5271         estimate D2E/DX2                !
 ! A54   A(10,26,33)           112.2305         estimate D2E/DX2                !
 ! A55   A(31,26,32)           106.4224         estimate D2E/DX2                !
 ! A56   A(31,26,33)           106.2861         estimate D2E/DX2                !
 ! A57   A(32,26,33)           106.7562         estimate D2E/DX2                !
 ! A58   A(14,34,36)           115.7033         estimate D2E/DX2                !
 ! A59   A(15,35,36)           115.2236         estimate D2E/DX2                !
 ! A60   A(34,36,35)           125.6608         estimate D2E/DX2                !
 ! A61   A(34,36,37)           115.9031         estimate D2E/DX2                !
 ! A62   A(35,36,37)           118.436          estimate D2E/DX2                !
 ! A63   A(36,37,38)           114.5805         estimate D2E/DX2                !
 ! A64   A(36,37,39)           106.906          estimate D2E/DX2                !
 ! A65   A(36,37,40)           107.12           estimate D2E/DX2                !
 ! A66   A(38,37,39)           111.0243         estimate D2E/DX2                !
 ! A67   A(38,37,40)           111.1642         estimate D2E/DX2                !
 ! A68   A(39,37,40)           105.5342         estimate D2E/DX2                !
 ! A69   A(37,38,41)           110.9689         estimate D2E/DX2                !
 ! A70   A(37,38,42)           111.1602         estimate D2E/DX2                !
 ! A71   A(37,38,43)           111.0094         estimate D2E/DX2                !
 ! A72   A(41,38,42)           108.276          estimate D2E/DX2                !
 ! A73   A(41,38,43)           107.0324         estimate D2E/DX2                !
 ! A74   A(42,38,43)           108.2402         estimate D2E/DX2                !
 ! A75   L(2,14,34,7,-1)       188.4555         estimate D2E/DX2                !
 ! A76   L(5,15,35,7,-1)       177.1415         estimate D2E/DX2                !
 ! A77   L(2,14,34,7,-2)       179.9791         estimate D2E/DX2                !
 ! A78   L(5,15,35,7,-2)       180.5122         estimate D2E/DX2                !
 ! D1    D(9,1,2,3)           -179.6245         estimate D2E/DX2                !
 ! D2    D(9,1,2,14)            -0.2311         estimate D2E/DX2                !
 ! D3    D(13,1,2,3)             0.514          estimate D2E/DX2                !
 ! D4    D(13,1,2,14)          179.9074         estimate D2E/DX2                !
 ! D5    D(2,1,9,10)           179.981          estimate D2E/DX2                !
 ! D6    D(2,1,9,23)            -0.2416         estimate D2E/DX2                !
 ! D7    D(13,1,9,10)           -0.1467         estimate D2E/DX2                !
 ! D8    D(13,1,9,23)          179.6307         estimate D2E/DX2                !
 ! D9    D(2,1,13,12)         -179.8163         estimate D2E/DX2                !
 ! D10   D(2,1,13,24)            0.0114         estimate D2E/DX2                !
 ! D11   D(9,1,13,12)            0.3243         estimate D2E/DX2                !
 ! D12   D(9,1,13,24)         -179.848          estimate D2E/DX2                !
 ! D13   D(1,2,3,4)              0.2953         estimate D2E/DX2                !
 ! D14   D(1,2,3,5)           -179.9292         estimate D2E/DX2                !
 ! D15   D(14,2,3,4)          -179.0841         estimate D2E/DX2                !
 ! D16   D(14,2,3,5)             0.6914         estimate D2E/DX2                !
 ! D17   D(1,2,34,36)          173.8843         estimate D2E/DX2                !
 ! D18   D(3,2,34,36)           -6.608          estimate D2E/DX2                !
 ! D19   D(2,3,5,6)            178.9239         estimate D2E/DX2                !
 ! D20   D(2,3,5,15)             3.9769         estimate D2E/DX2                !
 ! D21   D(4,3,5,6)             -1.2999         estimate D2E/DX2                !
 ! D22   D(4,3,5,15)          -176.2469         estimate D2E/DX2                !
 ! D23   D(3,5,6,7)            176.197          estimate D2E/DX2                !
 ! D24   D(3,5,6,16)            54.8163         estimate D2E/DX2                !
 ! D25   D(3,5,6,17)           -62.117          estimate D2E/DX2                !
 ! D26   D(15,5,6,7)            -8.7371         estimate D2E/DX2                !
 ! D27   D(15,5,6,16)         -130.1179         estimate D2E/DX2                !
 ! D28   D(15,5,6,17)          112.9488         estimate D2E/DX2                !
 ! D29   D(3,5,35,36)           -8.9019         estimate D2E/DX2                !
 ! D30   D(6,5,35,36)          176.3417         estimate D2E/DX2                !
 ! D31   D(5,6,7,8)            179.5948         estimate D2E/DX2                !
 ! D32   D(5,6,7,18)            57.2964         estimate D2E/DX2                !
 ! D33   D(5,6,7,19)           -58.3122         estimate D2E/DX2                !
 ! D34   D(16,6,7,8)           -59.3942         estimate D2E/DX2                !
 ! D35   D(16,6,7,18)          178.3074         estimate D2E/DX2                !
 ! D36   D(16,6,7,19)           62.6988         estimate D2E/DX2                !
 ! D37   D(17,6,7,8)            57.8331         estimate D2E/DX2                !
 ! D38   D(17,6,7,18)          -64.4653         estimate D2E/DX2                !
 ! D39   D(17,6,7,19)          179.9261         estimate D2E/DX2                !
 ! D40   D(6,7,8,20)           -60.1713         estimate D2E/DX2                !
 ! D41   D(6,7,8,21)           179.8144         estimate D2E/DX2                !
 ! D42   D(6,7,8,22)            59.7487         estimate D2E/DX2                !
 ! D43   D(18,7,8,20)           61.4848         estimate D2E/DX2                !
 ! D44   D(18,7,8,21)          -58.5295         estimate D2E/DX2                !
 ! D45   D(18,7,8,22)         -178.5952         estimate D2E/DX2                !
 ! D46   D(19,7,8,20)          178.4681         estimate D2E/DX2                !
 ! D47   D(19,7,8,21)           58.4539         estimate D2E/DX2                !
 ! D48   D(19,7,8,22)          -61.6118         estimate D2E/DX2                !
 ! D49   D(1,9,10,11)           -0.4615         estimate D2E/DX2                !
 ! D50   D(1,9,10,26)         -178.5341         estimate D2E/DX2                !
 ! D51   D(23,9,10,11)         179.7663         estimate D2E/DX2                !
 ! D52   D(23,9,10,26)           1.6937         estimate D2E/DX2                !
 ! D53   D(9,10,11,12)           0.8711         estimate D2E/DX2                !
 ! D54   D(9,10,11,25)         178.772          estimate D2E/DX2                !
 ! D55   D(26,10,11,12)        178.8371         estimate D2E/DX2                !
 ! D56   D(26,10,11,25)         -3.262          estimate D2E/DX2                !
 ! D57   D(9,10,26,31)         -18.3093         estimate D2E/DX2                !
 ! D58   D(9,10,26,32)        -138.2797         estimate D2E/DX2                !
 ! D59   D(9,10,26,33)         101.2761         estimate D2E/DX2                !
 ! D60   D(11,10,26,31)        163.6606         estimate D2E/DX2                !
 ! D61   D(11,10,26,32)         43.6902         estimate D2E/DX2                !
 ! D62   D(11,10,26,33)        -76.754          estimate D2E/DX2                !
 ! D63   D(10,11,12,13)         -0.703          estimate D2E/DX2                !
 ! D64   D(10,11,12,27)        179.6335         estimate D2E/DX2                !
 ! D65   D(25,11,12,13)       -178.7258         estimate D2E/DX2                !
 ! D66   D(25,11,12,27)          1.6106         estimate D2E/DX2                !
 ! D67   D(10,11,25,28)         43.8847         estimate D2E/DX2                !
 ! D68   D(10,11,25,29)        -77.3346         estimate D2E/DX2                !
 ! D69   D(10,11,25,30)        163.6466         estimate D2E/DX2                !
 ! D70   D(12,11,25,28)       -138.2198         estimate D2E/DX2                !
 ! D71   D(12,11,25,29)        100.5609         estimate D2E/DX2                !
 ! D72   D(12,11,25,30)        -18.4578         estimate D2E/DX2                !
 ! D73   D(11,12,13,1)           0.1075         estimate D2E/DX2                !
 ! D74   D(11,12,13,24)       -179.719          estimate D2E/DX2                !
 ! D75   D(27,12,13,1)         179.7734         estimate D2E/DX2                !
 ! D76   D(27,12,13,24)         -0.0531         estimate D2E/DX2                !
 ! D77   D(14,34,36,35)          1.5978         estimate D2E/DX2                !
 ! D78   D(14,34,36,37)       -178.2631         estimate D2E/DX2                !
 ! D79   D(15,35,36,34)          2.8285         estimate D2E/DX2                !
 ! D80   D(15,35,36,37)       -177.3138         estimate D2E/DX2                !
 ! D81   D(34,36,37,38)       -178.3501         estimate D2E/DX2                !
 ! D82   D(34,36,37,39)         58.1893         estimate D2E/DX2                !
 ! D83   D(34,36,37,40)        -54.5481         estimate D2E/DX2                !
 ! D84   D(35,36,37,38)          1.7784         estimate D2E/DX2                !
 ! D85   D(35,36,37,39)       -121.6822         estimate D2E/DX2                !
 ! D86   D(35,36,37,40)        125.5805         estimate D2E/DX2                !
 ! D87   D(36,37,38,41)        -59.3467         estimate D2E/DX2                !
 ! D88   D(36,37,38,42)       -179.9081         estimate D2E/DX2                !
 ! D89   D(36,37,38,43)         59.5486         estimate D2E/DX2                !
 ! D90   D(39,37,38,41)         61.8782         estimate D2E/DX2                !
 ! D91   D(39,37,38,42)        -58.6831         estimate D2E/DX2                !
 ! D92   D(39,37,38,43)       -179.2265         estimate D2E/DX2                !
 ! D93   D(40,37,38,41)        179.0377         estimate D2E/DX2                !
 ! D94   D(40,37,38,42)         58.4763         estimate D2E/DX2                !
 ! D95   D(40,37,38,43)        -62.067          estimate D2E/DX2                !
 --------------------------------------------------------------------------------
 Trust Radius=3.00D-01 FncErr=1.00D-07 GrdErr=1.00D-06
 Number of steps in this run=    227 maximum allowed number of steps=    258.
 GradGradGradGradGradGradGradGradGradGradGradGradGradGradGradGradGradGrad

                          Input orientation:                          
 ---------------------------------------------------------------------
 Center     Atomic      Atomic             Coordinates (Angstroms)
 Number     Number       Type             X           Y           Z
 ---------------------------------------------------------------------
      1          6           0       -5.774271    1.305203    0.230111
      2          7           0       -4.574324    0.639567    0.176578
      3          6           0       -3.304935    1.204801    0.104800
      4          8           0       -3.098061    2.414595    0.085036
      5          7           0       -2.321457    0.280863    0.063900
      6          6           0       -0.936216    0.692973   -0.035748
      7          6           0       -0.023550   -0.523894    0.030204
      8          6           0        1.444666   -0.129973   -0.081696
      9          6           0       -6.934558    0.502573    0.307439
     10          6           0       -8.194110    1.063859    0.366452
     11          6           0       -8.352187    2.462913    0.360532
     12          6           0       -7.207210    3.246815    0.275204
     13          6           0       -5.934828    2.698029    0.211465
     14          1           0       -4.642487   -0.398665    0.202444
     15          1           0       -2.540681   -0.725771    0.024715
     16          1           0       -0.700055    1.388010    0.777313
     17          1           0       -0.769033    1.240081   -0.971900
     18          1           0       -0.292753   -1.220289   -0.769248
     19          1           0       -0.203744   -1.054751    0.969742
     20          1           0        1.647660    0.378583   -1.028613
     21          1           0        2.095776   -1.005596   -0.030636
     22          1           0        1.736283    0.547616    0.726073
     23          1           0       -6.811331   -0.575328    0.315746
     24          1           0       -5.067115    3.335768    0.150415
     25          6           0       -9.682073    3.153628    0.395148
     26          6           0       -9.363112    0.117393    0.481174
     27          1           0       -7.305320    4.325457    0.262997
     28          9           0      -10.536462    2.614715    1.281151
     29          9           0      -10.313793    3.147396   -0.796229
     30          9           0       -9.559485    4.450847    0.734084
     31          9           0       -9.039993   -1.130672    0.120549
     32          9           0      -10.398116    0.481154   -0.294826
     33          9           0       -9.831400    0.037150    1.739760
     34          8           0       -5.005573   -2.076692    0.254454
     35          8           0       -2.835693   -2.502080   -0.060166
     36          6           0       -4.025751   -2.852849    0.097618
     37          6           0       -4.350673   -4.350558    0.101871
     38          6           0       -3.141503   -5.260761   -0.050160
     39          1           0       -5.074451   -4.521569   -0.701430
     40          1           0       -4.889077   -4.560753    1.031118
     41          1           0       -2.616719   -5.060019   -0.985811
     42          1           0       -3.436618   -6.314254   -0.041499
     43          1           0       -2.426170   -5.099633    0.758620
 ---------------------------------------------------------------------
                    Distance matrix (angstroms):
                    1          2          3          4          5
     1  C    0.000000
     2  N    1.373248   0.000000
     3  C    2.474551   1.391399   0.000000
     4  O    2.900672   2.310510   1.227513   0.000000
     5  N    3.605388   2.284026   1.350023   2.270765   0.000000
     6  C    4.883880   3.644690   2.427458   2.766251   1.448674
     7  C    6.037909   4.699426   3.709641   4.253274   2.434984
     8  C    7.366818   6.073478   4.937116   5.209510   3.791262
     9  C    1.412962   2.367825   3.702479   4.292319   4.624842
    10  C    2.435663   3.649511   4.898200   5.279527   5.932341
    11  C    2.828949   4.198891   5.207975   5.261566   6.420206
    12  C    2.413546   3.706692   4.407563   4.196888   5.719450
    13  C    1.402173   2.467682   3.026127   2.853694   4.349818
    14  H    2.045695   1.040788   2.090379   3.211459   2.422423
    15  H    3.824022   2.454162   2.077885   3.190017   1.030974
    16  H    5.104308   3.991367   2.696523   2.698806   2.088941
    17  H    5.147959   4.019932   2.755236   2.814422   2.098332
    18  H    6.117505   4.762929   3.964626   4.670325   2.657674
    19  H    6.094851   4.754134   3.933329   4.603926   2.662540
    20  H    7.584726   6.343002   5.147374   5.282748   4.117890
    21  H    8.206425   6.873116   5.837112   6.219889   4.601723
    22  H    7.564941   6.335153   5.121694   5.221821   4.120059
    23  H    2.149238   2.549419   3.938041   4.772970   4.577713
    24  H    2.151653   2.740990   2.765570   2.174858   4.108353
    25  C    4.326063   5.697137   6.674587   6.632613   7.908297
    26  C    3.788629   4.826794   6.166492   6.684679   7.055902
    27  H    3.386314   4.588201   5.076081   4.624294   6.421625
    28  F    5.049551   6.377177   7.461008   7.536614   8.626405
    29  F    5.005428   6.338538   7.328685   7.306190   8.534300
    30  F    4.947414   6.299881   7.074759   6.805703   8.380153
    31  F    4.075590   4.804070   6.192381   6.919302   6.865448
    32  F    4.725946   5.844987   7.141190   7.561303   8.087103
    33  F    4.510797   5.517544   6.828708   7.329953   7.698516
    34  O    3.468242   2.751382   3.699022   4.882516   3.577549
    35  O    4.818185   3.598448   3.740103   4.925811   2.832774
    36  C    4.512679   3.536118   4.121183   5.348526   3.567339
    37  C    5.833585   4.995693   5.652928   6.880161   5.056602
    38  C    7.079683   6.076040   6.469484   7.676670   5.603132
    39  H    5.942120   5.259120   6.047521   7.254999   5.588207
    40  H    5.986203   5.279454   6.050553   7.263490   5.565019
    41  H    7.208652   6.137479   6.396174   7.566258   5.451064
    42  H    7.974617   7.049649   7.521631   8.736328   6.689564
    43  H    7.246449   6.155628   6.398874   7.574218   5.426171
                    6          7          8          9         10
     6  C    0.000000
     7  C    1.522522   0.000000
     8  C    2.519514   1.524256   0.000000
     9  C    6.011167   6.992319   8.412071   0.000000
    10  C    7.278485   8.330190   9.722761   1.380216   0.000000
    11  C    7.634550   8.854170  10.143814   2.419799   1.407969
    12  C    6.778213   8.116850   9.294356   2.757942   2.397414
    13  C    5.391427   6.734750   7.908254   2.414270   2.792649
    14  H    3.871027   4.623843   6.099702   2.465126   3.844464
    15  H    2.142615   2.525220   4.031041   4.571095   5.939765
    16  H    1.095407   2.161297   2.764416   6.314571   7.512306
    17  H    1.097113   2.161380   2.751358   6.339899   7.546788
    18  H    2.147705   1.093873   2.163364   6.945580   8.302926
    19  H    2.145242   1.094080   2.162867   6.940299   8.288450
    20  H    2.785864   2.174512   1.093840   8.686476   9.963746
    21  H    3.475361   2.174231   1.092367   9.161648  10.503431
    22  H    2.782760   2.174714   1.093919   8.681058   9.950303
    23  H    6.020723   6.793978   8.277547   1.084954   2.145130
    24  H    4.907479   6.352085   7.380280   3.396909   3.871219
    25  C    9.095631  10.341393  11.610932   3.818982   2.565539
    26  C    8.462333   9.372409  10.825253   2.465041   1.508485
    27  H    7.338234   8.751832   9.825066   3.841078   3.382110
    28  F    9.878868  11.042511  12.366814   4.287537   2.954394
    29  F    9.723244  10.956754  12.227554   4.430847   3.191553
    30  F    9.437957  10.778569  11.947416   4.760371   3.670298
    31  F    8.307907   9.037289  10.534248   2.671194   2.364731
    32  F    9.467816  10.428202  11.860455   3.515597   2.373705
    33  F    9.094329   9.971523  11.423454   3.264943   2.370828
    34  O    4.931016   5.223219   6.745984   3.221241   4.476871
    35  O    3.717119   3.439409   4.893755   5.095465   6.450624
    36  C    4.704877   4.631003   6.113237   4.445676   5.726088
    37  C    6.092180   5.776892   7.171680   5.501963   6.645143
    38  C    6.349051   5.671508   6.881783   6.908775   8.105753
    39  H    6.690259   6.482923   7.884737   5.451588   6.486112
    40  H    6.660702   6.400892   7.809384   5.508627   6.557536
    41  H    6.068247   5.322898   6.451173   7.159515   8.392722
    42  H    7.439978   6.721788   7.878698   7.669841   8.788441
    43  H    6.033677   5.219248   6.355078   7.205126   8.450536
                   11         12         13         14         15
    11  C    0.000000
    12  C    1.390236   0.000000
    13  C    2.433337   1.387150   0.000000
    14  H    4.687803   4.457872   3.355554   0.000000
    15  H    6.637325   6.133570   4.824678   2.134519   0.000000
    16  H    7.738492   6.786041   5.425789   4.366400   2.902133
    17  H    7.795828   6.858016   5.496491   4.366717   2.827818
    18  H    8.932909   8.297928   6.938878   4.532045   2.434770
    19  H    8.896191   8.248296   6.892290   4.552102   2.542160
    20  H   10.308788   9.398693   8.025693   6.456435   4.457723
    21  H   11.015603  10.233381   8.846810   6.769555   4.645223
    22  H   10.275175   9.352809   7.983423   6.469802   4.517283
    23  H    3.406927   3.842804   3.390280   2.178975   4.283197
    24  H    3.405543   2.145575   1.078593   3.758857   4.784847
    25  C    1.498960   2.479519   3.779306   6.168739   8.135504
    26  C    2.556949   3.805735   4.299483   4.756923   6.889474
    27  H    2.138811   1.083163   2.128244   5.423253   6.947910
    28  F    2.375213   3.534883   4.725061   6.706937   8.756140
    29  F    2.377921   3.287660   4.515829   6.762811   8.723339
    30  F    2.355629   2.682062   4.060005   6.926563   8.750096
    31  F    3.666677   4.748200   4.930443   4.458767   6.512617
    32  F    2.922787   4.260950   5.009172   5.843683   7.956008
    33  F    3.158269   4.396958   4.959761   5.429373   7.528479
    34  O    5.640841   5.760847   4.864496   1.717647   2.820187
    35  O    7.433697   7.229967   6.059666   2.785287   1.802640
    36  C    6.858899   6.881796   5.871097   2.532661   2.595228
    37  C    7.905847   8.118493   7.225243   3.963929   4.052296
    38  C    9.326041   9.434760   8.438807   5.094776   4.575230
    39  H    7.788087   8.114817   7.327770   4.242867   4.621186
    40  H    7.859688   8.179442   7.379386   4.250939   4.608134
    41  H    9.555247   9.574250   8.522361   5.219570   4.451140
    42  H   10.067924  10.282592   9.355548   6.042170   5.660232
    43  H    9.616042   9.630952   8.568173   5.226901   4.436485
                   16         17         18         19         20
    16  H    0.000000
    17  H    1.756811   0.000000
    18  H    3.059569   2.514225   0.000000
    19  H    2.500086   3.058721   1.749117   0.000000
    20  H    3.129229   2.566281   2.527620   3.078240   0.000000
    21  H    3.768129   3.759810   2.509325   2.508180   1.764289
    22  H    2.577718   3.104710   3.078711   2.527975   1.765035
    23  H    6.435482   6.439185   6.639656   6.657158   8.618107
    24  H    4.822653   4.911721   6.663180   6.603054   7.431235
    25  C    9.161883   9.218067  10.423353  10.386497  11.751205
    26  C    8.760749   8.788063   9.253343   9.246980  11.116869
    27  H    7.247251   7.332637   8.999828   8.937477   9.869241
    28  F    9.925400  10.117733  11.128565  10.969367  12.601116
    29  F    9.899264   9.735048  10.931543  11.090076  12.279930
    30  F    9.374025   9.512699  10.967867  10.858039  12.053652
    31  F    8.736685   8.673102   8.792837   8.877285  10.854692
    32  F    9.799197   9.682647  10.258574  10.386691  12.068541
    33  F    9.280764   9.535546   9.942940   9.719924  11.813097
    34  O    5.551128   5.518441   4.898169   4.961205   7.206951
    35  O    4.516096   4.371054   2.934677   3.175316   5.416324
    36  C    5.432046   5.338741   4.165571   4.312945   6.625567
    37  C    6.834793   6.725799   5.198475   5.367734   7.721578
    38  C    7.131026   6.981344   4.995786   5.230789   7.462952
    39  H    7.499676   7.197665   5.810997   6.207691   8.324981
    40  H    7.280117   7.391652   5.960387   5.852193   8.447986
    41  H    6.954084   6.565470   4.493467   5.068413   6.911233
    42  H    8.214870   8.065335   6.030090   6.255914   8.462762
    43  H    6.713369   6.777372   4.683498   4.620045   7.056992
                   21         22         23         24         25
    21  H    0.000000
    22  H    1.764741   0.000000
    23  H    8.924217   8.630821   0.000000
    24  H    8.377782   7.375052   4.285591   0.000000
    25  C   12.497926  11.716640   4.706652   4.625030   0.000000
    26  C   11.525154  11.110430   2.649305   5.378004   3.054154
    27  H   10.811426   9.810051   4.925901   2.449841   2.653225
    28  F   13.206092  12.457980   4.998498   5.631362   1.343656
    29  F   13.108427  12.420974   5.230909   5.334721   1.348513
    30  F   12.891961  11.951136   5.743674   4.665346   1.346359
    31  F   11.137497  10.922978   2.305091   5.977770   4.340840
    32  F   12.584815  12.177450   3.788665   6.063549   2.851473
    33  F   12.102856  11.623228   3.394667   6.008769   3.397457
    34  O    7.187327   7.249968   2.349172   5.413809   7.017527
    35  O    5.153613   5.551737   4.433889   6.253324   8.891977
    36  C    6.395458   6.720056   3.604738   6.275843   8.255923
    37  C    7.263817   7.837906   4.511423   7.719796   9.209921
    38  C    6.748029   7.624472   5.962785   8.811840  10.666738
    39  H    8.013999   8.609326   4.429922   7.903381   9.018941
    40  H    7.909149   8.371612   4.482235   7.947476   9.104336
    41  H    6.289540   7.302379   6.277043   8.819563  10.922008
    42  H    7.667421   8.627475   6.667202   9.788680  11.350645
    43  H    6.150777   7.015589   6.316257   8.860050  10.995297
                   26         27         28         29         30
    26  C    0.000000
    27  H    4.689340   0.000000
    28  F    2.872860   3.795201   0.000000
    29  F    3.422933   3.400102   2.156117   0.000000
    30  F    4.345267   2.306275   2.150615   2.147050   0.000000
    31  F    1.338702   5.727017   4.196944   4.556853   5.639118
    32  F    1.343775   4.965402   2.656111   2.714288   4.185740
    33  F    1.345277   5.191482   2.711324   4.041977   4.534980
    34  O    4.884011   6.802677   7.324898   7.521451   7.973514
    35  O    7.054211   8.166839   9.342513   9.401082   9.704813
    36  C    6.120203   7.893731   8.583959   8.737355   9.185383
    37  C    6.725400   9.166740   9.389873   9.622094  10.246763
    38  C    8.241073  10.456147  10.884895  11.076799  11.667085
    39  H    6.427374   9.174789   9.202757   9.288310  10.133137
    40  H    6.496498   9.240831   9.134704   9.601161  10.154303
    41  H    8.629685  10.565494  11.258907  11.253557  11.900278
    42  H    8.761427  11.325326  11.484061  11.721261  12.408804
    43  H    8.684210  10.624691  11.205402  11.517189  11.920421
                   31         32         33         34         35
    31  F    0.000000
    32  F    2.148259   0.000000
    33  F    2.147551   2.158204   0.000000
    34  O    4.146014   5.993647   5.473853   0.000000
    35  O    6.356631   8.132957   7.656848   2.233454   0.000000
    36  C    5.301796   7.202543   6.689864   1.259789   1.250668
    37  C    5.688386   7.750767   7.209232   2.371212   2.395473
    38  C    7.202706   9.256776   8.719312   3.702141   2.775597
    39  H    5.281984   7.316691   7.026370   2.626001   3.082465
    40  H    5.461199   7.584752   6.787447   2.605252   3.105707
    41  H    7.610667   9.577693   9.244538   4.018099   2.729069
    42  H    7.635024   9.731608   9.187298   4.528370   3.859291
    43  H    7.739667   9.788098   9.065682   4.005706   2.754160
                   36         37         38         39         40
    36  C    0.000000
    37  C    1.532555   0.000000
    38  C    2.569392   1.521077   0.000000
    39  H    2.126705   1.094711   2.169527   0.000000
    40  H    2.129247   1.094331   2.170988   1.742877   0.000000
    41  H    2.833865   2.166330   1.091393   2.532045   3.079104
    42  H    3.513937   2.170749   1.094082   2.516292   2.516924
    43  H    2.836128   2.167059   1.091691   3.078847   2.535855
                   41         42         43
    41  H    0.000000
    42  H    1.771176   0.000000
    43  H    1.755255   1.771017   0.000000
 Stoichiometry    C15H17F6N2O3(1-)
 Framework group  C1[X(C15H17F6N2O3)]
 Deg. of freedom   123
 Full point group                 C1      NOp   1
 Largest Abelian subgroup         C1      NOp   1
 Largest concise Abelian subgroup C1      NOp   1
                         Standard orientation:                         
 ---------------------------------------------------------------------
 Center     Atomic      Atomic             Coordinates (Angstroms)
 Number     Number       Type             X           Y           Z
 ---------------------------------------------------------------------
      1          6           0        0.281503   -0.883927   -0.001499
      2          7           0       -1.086113   -0.760182    0.009646
      3          6           0       -2.020894   -1.790769    0.001596
      4          8           0       -1.722190   -2.981307   -0.011920
      5          7           0       -3.294481   -1.343155    0.015107
      6          6           0       -4.398302   -2.280906   -0.014208
      7          6           0       -5.720298   -1.534875    0.103432
      8          6           0       -6.907861   -2.489686    0.066246
      9          6           0        1.021004    0.319898    0.018624
     10          6           0        2.401188    0.315762    0.010253
     11          6           0        3.110394   -0.900392   -0.009039
     12          6           0        2.376923   -2.081046   -0.037875
     13          6           0        0.989836   -2.093605   -0.033604
     14          1           0       -1.441936    0.217544    0.035803
     15          1           0       -3.502726   -0.334515   -0.031639
     16          1           0       -4.293569   -2.997774    0.807405
     17          1           0       -4.375787   -2.865266   -0.942471
     18          1           0       -5.794731   -0.803192   -0.706295
     19          1           0       -5.724198   -0.960072    1.034344
     20          1           0       -6.934156   -3.053419   -0.870771
     21          1           0       -7.853823   -1.950533    0.154203
     22          1           0       -6.861093   -3.213065    0.885511
     23          1           0        0.473467    1.256370    0.037303
     24          1           0        0.451793   -3.028236   -0.052009
     25          6           0        4.605913   -0.994974   -0.045897
     26          6           0        3.092382    1.655338    0.067803
     27          1           0        2.901623   -3.028400   -0.059150
     28          9           0        5.212014   -0.141669    0.796671
     29          9           0        5.122248   -0.755221   -1.268355
     30          9           0        5.034453   -2.225189    0.294114
     31          9           0        2.275486    2.660344   -0.270972
     32          9           0        4.146856    1.726648   -0.762095
     33          9           0        3.549251    1.939775    1.300740
     34          8           0       -1.785490    1.900021    0.075171
     35          8           0       -3.954852    1.408001   -0.125087
     36          6           0       -3.001712    2.211890   -0.027835
     37          6           0       -3.309631    3.713177   -0.034852
     38          6           0       -4.789269    4.055201   -0.120686
     39          1           0       -2.756793    4.147618   -0.873912
     40          1           0       -2.857293    4.139017    0.866043
     41          1           0       -5.233296    3.643393   -1.028648
     42          1           0       -4.944776    5.138172   -0.123407
     43          1           0       -5.338116    3.633304    0.723445
 ---------------------------------------------------------------------
 Rotational constants (GHZ):      0.3013686      0.0911146      0.0719042
 Standard basis: 6-311+G(d) (5D, 7F)
 There are   649 symmetry adapted cartesian basis functions of A   symmetry.
 There are   623 symmetry adapted basis functions of A   symmetry.
   623 basis functions,  1021 primitive gaussians,   649 cartesian basis functions
   100 alpha electrons      100 beta electrons
       nuclear repulsion energy      2485.4107308242 Hartrees.
 NAtoms=   43 NActive=   43 NUniq=   43 SFac= 1.00D+00 NAtFMM=   60 NAOKFM=F Big=F
 Integral buffers will be    131072 words long.
 Raffenetti 2 integral format.
 Two-electron integral symmetry is turned on.
 Nuclear repulsion after empirical dispersion term =     2485.4080275775 Hartrees.
 ------------------------------------------------------------------------------
 Polarizable Continuum Model (PCM)
 =================================
 Model                : PCM (using non-symmetric T matrix).
 Atomic radii         : SMD-Coulomb.
 Polarization charges : Total charges.
 Charge compensation  : None.
 Solution method      : On-the-fly selection.
 Cavity type          : VdW (van der Waals Surface) (Alpha=1.000).
 Cavity algorithm     : GePol (No added spheres)
                        Default sphere list used, NSphG=   43.
                        Lebedev-Laikov grids with approx.  5.0 points / Ang**2.
                        Smoothing algorithm: York/Karplus (Gamma=1.0000).
                        Polarization charges: spherical gaussians, with
                                              point-specific exponents (IZeta= 3).
                        Self-potential: point-specific (ISelfS= 7).
                        Self-field    : sphere-specific E.n sum rule (ISelfD= 2).
 1st derivatives      : Analytical E(r).r(x)/FMM algorithm (CHGder, D1EAlg=3).
                        Cavity 1st derivative terms included.
 Solvent              : n-Pentadecane, Eps=   2.033300 Eps(inf)=   2.049192
 ------------------------------------------------------------------------------
 ------------------------------------------------------------------------------
 Atomic radii for non-electrostatic terms: SMD-CDS.
 ------------------------------------------------------------------------------
 Nuclear repulsion after PCM non-electrostatic terms =     2485.4005645212 Hartrees.
 One-electron integrals computed using PRISM.
 NBasis=   623 RedAO= T EigKep=  1.12D-06  NBF=   623
 NBsUse=   620 1.00D-06 EigRej=  7.88D-07 NBFU=   620
 ExpMin= 4.38D-02 ExpMax= 1.14D+04 ExpMxC= 1.72D+03 IAcc=3 IRadAn=         5 AccDes= 0.00D+00
 Harris functional with IExCor= 1009 and IRadAn=       5 diagonalized for initial guess.
 HarFok:  IExCor= 1009 AccDes= 0.00D+00 IRadAn=         5 IDoV= 1 UseB2=F ITyADJ=14
 ICtDFT=  3500011 ScaDFX=  1.000000  1.000000  1.000000  1.000000
 FoFCou: FMM=F IPFlag=           0 FMFlag=      100000 FMFlg1=           0
         NFxFlg=           0 DoJE=T BraDBF=F KetDBF=T FulRan=T
         wScrn=  0.000000 ICntrl=     500 IOpCl=  0 I1Cent=   200000004 NGrid=           0
         NMat0=    1 NMatS0=      1 NMatT0=    0 NMatD0=    1 NMtDS0=    0 NMtDT0=    0
 Petite list used in FoFCou.
 Requested convergence on RMS density matrix=1.00D-08 within 128 cycles.
 Requested convergence on MAX density matrix=1.00D-06.
 Requested convergence on             energy=1.00D-06.
 No special actions if energy rises.
 Inv3:  Mode=1 IEnd=    30070668.
 Iteration    1 A*A^-1 deviation from unit magnitude is 4.66D-15 for   3145.
 Iteration    1 A*A^-1 deviation from orthogonality  is 2.92D-15 for   2125    216.
 Iteration    1 A^-1*A deviation from unit magnitude is 4.66D-15 for   3145.
 Iteration    1 A^-1*A deviation from orthogonality  is 2.28D-11 for   1426   1372.
 Error on total polarization charges =  0.02433
 SCF Done:  E(RM062X) =  -1516.16581832     A.U. after   16 cycles
            NFock= 16  Conv=0.17D-08     -V/T= 2.0031
 SMD-CDS (non-electrostatic) energy       (kcal/mol) =      -4.68
 (included in total energy above)

 **********************************************************************

            Population analysis using the SCF density.

 **********************************************************************

 Orbital symmetries:
       Occupied  (A) (A) (A) (A) (A) (A) (A) (A) (A) (A) (A) (A)
                 (A) (A) (A) (A) (A) (A) (A) (A) (A) (A) (A) (A)
                 (A) (A) (A) (A) (A) (A) (A) (A) (A) (A) (A) (A)
                 (A) (A) (A) (A) (A) (A) (A) (A) (A) (A) (A) (A)
                 (A) (A) (A) (A) (A) (A) (A) (A) (A) (A) (A) (A)
                 (A) (A) (A) (A) (A) (A) (A) (A) (A) (A) (A) (A)
                 (A) (A) (A) (A) (A) (A) (A) (A) (A) (A) (A) (A)
                 (A) (A) (A) (A) (A) (A) (A) (A) (A) (A) (A) (A)
                 (A) (A) (A) (A)
       Virtual   (A) (A) (A) (A) (A) (A) (A) (A) (A) (A) (A) (A)
                 (A) (A) (A) (A) (A) (A) (A) (A) (A) (A) (A) (A)
                 (A) (A) (A) (A) (A) (A) (A) (A) (A) (A) (A) (A)
                 (A) (A) (A) (A) (A) (A) (A) (A) (A) (A) (A) (A)
                 (A) (A) (A) (A) (A) (A) (A) (A) (A) (A) (A) (A)
                 (A) (A) (A) (A) (A) (A) (A) (A) (A) (A) (A) (A)
                 (A) (A) (A) (A) (A) (A) (A) (A) (A) (A) (A) (A)
                 (A) (A) (A) (A) (A) (A) (A) (A) (A) (A) (A) (A)
                 (A) (A) (A) (A) (A) (A) (A) (A) (A) (A) (A) (A)
                 (A) (A) (A) (A) (A) (A) (A) (A) (A) (A) (A) (A)
                 (A) (A) (A) (A) (A) (A) (A) (A) (A) (A) (A) (A)
                 (A) (A) (A) (A) (A) (A) (A) (A) (A) (A) (A) (A)
                 (A) (A) (A) (A) (A) (A) (A) (A) (A) (A) (A) (A)
                 (A) (A) (A) (A) (A) (A) (A) (A) (A) (A) (A) (A)
                 (A) (A) (A) (A) (A) (A) (A) (A) (A) (A) (A) (A)
                 (A) (A) (A) (A) (A) (A) (A) (A) (A) (A) (A) (A)
                 (A) (A) (A) (A) (A) (A) (A) (A) (A) (A) (A) (A)
                 (A) (A) (A) (A) (A) (A) (A) (A) (A) (A) (A) (A)
                 (A) (A) (A) (A) (A) (A) (A) (A) (A) (A) (A) (A)
                 (A) (A) (A) (A) (A) (A) (A) (A) (A) (A) (A) (A)
                 (A) (A) (A) (A) (A) (A) (A) (A) (A) (A) (A) (A)
                 (A) (A) (A) (A) (A) (A) (A) (A) (A) (A) (A) (A)
                 (A) (A) (A) (A) (A) (A) (A) (A) (A) (A) (A) (A)
                 (A) (A) (A) (A) (A) (A) (A) (A) (A) (A) (A) (A)
                 (A) (A) (A) (A) (A) (A) (A) (A) (A) (A) (A) (A)
                 (A) (A) (A) (A) (A) (A) (A) (A) (A) (A) (A) (A)
                 (A) (A) (A) (A) (A) (A) (A) (A) (A) (A) (A) (A)
                 (A) (A) (A) (A) (A) (A) (A) (A) (A) (A) (A) (A)
                 (A) (A) (A) (A) (A) (A) (A) (A) (A) (A) (A) (A)
                 (A) (A) (A) (A) (A) (A) (A) (A) (A) (A) (A) (A)
                 (A) (A) (A) (A) (A) (A) (A) (A) (A) (A) (A) (A)
                 (A) (A) (A) (A) (A) (A) (A) (A) (A) (A) (A) (A)
                 (A) (A) (A) (A) (A) (A) (A) (A) (A) (A) (A) (A)
                 (A) (A) (A) (A) (A) (A) (A) (A) (A) (A) (A) (A)
                 (A) (A) (A) (A) (A) (A) (A) (A) (A) (A) (A) (A)
                 (A) (A) (A) (A) (A) (A) (A) (A) (A) (A) (A) (A)
                 (A) (A) (A) (A) (A) (A) (A) (A) (A) (A) (A) (A)
                 (A) (A) (A) (A) (A) (A) (A) (A) (A) (A) (A) (A)
                 (A) (A) (A) (A) (A) (A) (A) (A) (A) (A) (A) (A)
                 (A) (A) (A) (A) (A) (A) (A) (A) (A) (A) (A) (A)
                 (A) (A) (A) (A) (A) (A) (A) (A) (A) (A) (A) (A)
                 (A) (A) (A) (A) (A) (A) (A) (A) (A) (A) (A) (A)
                 (A) (A) (A) (A) (A) (A) (A) (A) (A) (A) (A) (A)
                 (A) (A) (A) (A)
 The electronic state is 1-A.
 Alpha  occ. eigenvalues --  -25.23945 -25.23684 -25.23644 -25.23643 -25.23323
 Alpha  occ. eigenvalues --  -25.23311 -19.52620 -19.50161 -19.49927 -14.71089
 Alpha  occ. eigenvalues --  -14.69074 -10.76468 -10.76377 -10.60955 -10.56282
 Alpha  occ. eigenvalues --  -10.55800 -10.54243 -10.53198 -10.51951 -10.51209
 Alpha  occ. eigenvalues --  -10.51048 -10.50036 -10.48294 -10.48227 -10.46801
 Alpha  occ. eigenvalues --  -10.46490  -1.43279  -1.42839  -1.33879  -1.33492
 Alpha  occ. eigenvalues --   -1.33367  -1.33162  -1.11459  -1.09231  -1.00063
 Alpha  occ. eigenvalues --   -0.99293  -0.96599  -0.93805  -0.85011  -0.84607
 Alpha  occ. eigenvalues --   -0.82659  -0.80108  -0.77968  -0.76049  -0.72945
 Alpha  occ. eigenvalues --   -0.69590  -0.68555  -0.66536  -0.65608  -0.65566
 Alpha  occ. eigenvalues --   -0.65400  -0.64912  -0.64268  -0.63336  -0.62002
 Alpha  occ. eigenvalues --   -0.58392  -0.57048  -0.54310  -0.54019  -0.53932
 Alpha  occ. eigenvalues --   -0.53259  -0.53184  -0.51929  -0.50622  -0.50311
 Alpha  occ. eigenvalues --   -0.49871  -0.49704  -0.48876  -0.48724  -0.47663
 Alpha  occ. eigenvalues --   -0.47566  -0.47313  -0.47117  -0.46830  -0.46505
 Alpha  occ. eigenvalues --   -0.46248  -0.45129  -0.44944  -0.43810  -0.43217
 Alpha  occ. eigenvalues --   -0.42567  -0.41731  -0.40126  -0.39993  -0.39728
 Alpha  occ. eigenvalues --   -0.38803  -0.37802  -0.37468  -0.36037  -0.35277
 Alpha  occ. eigenvalues --   -0.34932  -0.33934  -0.33381  -0.28856  -0.28607
 Alpha  occ. eigenvalues --   -0.26139  -0.25683  -0.25105  -0.24951  -0.21970
 Alpha virt. eigenvalues --    0.03741   0.05043   0.05662   0.05999   0.06502
 Alpha virt. eigenvalues --    0.07305   0.07358   0.07864   0.08029   0.08478
 Alpha virt. eigenvalues --    0.08691   0.09004   0.09643   0.09754   0.10433
 Alpha virt. eigenvalues --    0.10657   0.10874   0.11075   0.11214   0.11825
 Alpha virt. eigenvalues --    0.12756   0.12939   0.13322   0.13549   0.13763
 Alpha virt. eigenvalues --    0.14186   0.14408   0.14863   0.15285   0.15689
 Alpha virt. eigenvalues --    0.15937   0.16144   0.17054   0.17115   0.17274
 Alpha virt. eigenvalues --    0.17597   0.18063   0.18804   0.19080   0.19677
 Alpha virt. eigenvalues --    0.20023   0.20211   0.20704   0.21307   0.21841
 Alpha virt. eigenvalues --    0.22100   0.22510   0.22856   0.23249   0.23590
 Alpha virt. eigenvalues --    0.23710   0.24324   0.24984   0.25083   0.25328
 Alpha virt. eigenvalues --    0.25688   0.26128   0.26211   0.26459   0.26807
 Alpha virt. eigenvalues --    0.27099   0.27338   0.27604   0.28311   0.28508
 Alpha virt. eigenvalues --    0.28828   0.29284   0.29457   0.29746   0.30138
 Alpha virt. eigenvalues --    0.30250   0.30508   0.30740   0.30998   0.31230
 Alpha virt. eigenvalues --    0.31342   0.31556   0.31911   0.32257   0.32668
 Alpha virt. eigenvalues --    0.32792   0.32916   0.33292   0.33496   0.33811
 Alpha virt. eigenvalues --    0.34228   0.34768   0.35178   0.35383   0.36076
 Alpha virt. eigenvalues --    0.36131   0.36455   0.36885   0.37153   0.37758
 Alpha virt. eigenvalues --    0.37888   0.38292   0.38453   0.38743   0.39208
 Alpha virt. eigenvalues --    0.39258   0.39719   0.39859   0.40380   0.40945
 Alpha virt. eigenvalues --    0.41279   0.41658   0.41970   0.42141   0.42483
 Alpha virt. eigenvalues --    0.42975   0.43260   0.43619   0.43779   0.44302
 Alpha virt. eigenvalues --    0.44757   0.44952   0.45256   0.45734   0.46403
 Alpha virt. eigenvalues --    0.46477   0.47157   0.48129   0.48377   0.48583
 Alpha virt. eigenvalues --    0.48993   0.49365   0.49506   0.49775   0.50054
 Alpha virt. eigenvalues --    0.50242   0.51375   0.51907   0.52776   0.53660
 Alpha virt. eigenvalues --    0.54329   0.54815   0.55043   0.55979   0.56002
 Alpha virt. eigenvalues --    0.56979   0.57650   0.58248   0.58509   0.58922
 Alpha virt. eigenvalues --    0.59887   0.60348   0.60477   0.61192   0.61849
 Alpha virt. eigenvalues --    0.62193   0.62435   0.63594   0.64038   0.64586
 Alpha virt. eigenvalues --    0.64969   0.65565   0.66268   0.66728   0.67651
 Alpha virt. eigenvalues --    0.68074   0.68886   0.69861   0.71076   0.71737
 Alpha virt. eigenvalues --    0.71967   0.72366   0.72524   0.73789   0.74137
 Alpha virt. eigenvalues --    0.74474   0.74956   0.75515   0.75980   0.76224
 Alpha virt. eigenvalues --    0.77453   0.77961   0.78229   0.78505   0.79167
 Alpha virt. eigenvalues --    0.79334   0.79825   0.80851   0.81138   0.82157
 Alpha virt. eigenvalues --    0.82391   0.82882   0.83080   0.83877   0.84084
 Alpha virt. eigenvalues --    0.84578   0.84747   0.85555   0.85903   0.86848
 Alpha virt. eigenvalues --    0.87099   0.87485   0.88453   0.88600   0.90225
 Alpha virt. eigenvalues --    0.92614   0.94302   0.94710   0.96992   0.98168
 Alpha virt. eigenvalues --    0.98827   0.99655   1.01684   1.02040   1.02738
 Alpha virt. eigenvalues --    1.04193   1.04219   1.05359   1.05853   1.06274
 Alpha virt. eigenvalues --    1.08676   1.10588   1.10988   1.12355   1.13115
 Alpha virt. eigenvalues --    1.13987   1.14559   1.15595   1.16644   1.17761
 Alpha virt. eigenvalues --    1.19891   1.20222   1.20688   1.21246   1.23095
 Alpha virt. eigenvalues --    1.23208   1.23432   1.24692   1.24973   1.26894
 Alpha virt. eigenvalues --    1.27764   1.29325   1.29743   1.32157   1.32521
 Alpha virt. eigenvalues --    1.33201   1.34741   1.36150   1.37060   1.39717
 Alpha virt. eigenvalues --    1.40874   1.41615   1.43544   1.44847   1.45307
 Alpha virt. eigenvalues --    1.45940   1.46656   1.48385   1.48764   1.50324
 Alpha virt. eigenvalues --    1.50436   1.51310   1.51512   1.53118   1.53727
 Alpha virt. eigenvalues --    1.54307   1.54696   1.55130   1.55378   1.56020
 Alpha virt. eigenvalues --    1.57103   1.57273   1.57959   1.58771   1.59238
 Alpha virt. eigenvalues --    1.60047   1.60348   1.61313   1.62582   1.63088
 Alpha virt. eigenvalues --    1.63812   1.64172   1.64451   1.65282   1.65681
 Alpha virt. eigenvalues --    1.66243   1.67351   1.67918   1.67997   1.68650
 Alpha virt. eigenvalues --    1.68834   1.69571   1.70122   1.71335   1.71960
 Alpha virt. eigenvalues --    1.74586   1.75362   1.77541   1.78994   1.81878
 Alpha virt. eigenvalues --    1.82113   1.82805   1.83204   1.84217   1.84783
 Alpha virt. eigenvalues --    1.85367   1.86814   1.87078   1.88098   1.88898
 Alpha virt. eigenvalues --    1.89742   1.90184   1.90265   1.92720   1.93740
 Alpha virt. eigenvalues --    1.94023   1.94640   1.96319   1.96924   1.99959
 Alpha virt. eigenvalues --    2.00384   2.02820   2.03883   2.05443   2.06368
 Alpha virt. eigenvalues --    2.06792   2.08623   2.09977   2.10206   2.12139
 Alpha virt. eigenvalues --    2.16279   2.16572   2.17339   2.18993   2.21921
 Alpha virt. eigenvalues --    2.22385   2.22936   2.23595   2.24422   2.27880
 Alpha virt. eigenvalues --    2.29590   2.32452   2.33962   2.34296   2.40072
 Alpha virt. eigenvalues --    2.40928   2.44346   2.45712   2.46848   2.48513
 Alpha virt. eigenvalues --    2.48596   2.54440   2.54772   2.59323   2.60230
 Alpha virt. eigenvalues --    2.60339   2.60916   2.62324   2.64066   2.65533
 Alpha virt. eigenvalues --    2.65915   2.66472   2.66949   2.69680   2.71227
 Alpha virt. eigenvalues --    2.72173   2.74041   2.75630   2.77232   2.79152
 Alpha virt. eigenvalues --    2.82583   2.87168   2.88530   2.90945   2.91845
 Alpha virt. eigenvalues --    2.93379   2.97154   2.98322   2.99234   3.00855
 Alpha virt. eigenvalues --    3.02804   3.03536   3.04228   3.04811   3.05412
 Alpha virt. eigenvalues --    3.07470   3.08053   3.09908   3.10532   3.11424
 Alpha virt. eigenvalues --    3.12284   3.13839   3.14574   3.17731   3.18776
 Alpha virt. eigenvalues --    3.19012   3.21089   3.22148   3.23539   3.26623
 Alpha virt. eigenvalues --    3.30861   3.31097   3.31331   3.33602   3.34980
 Alpha virt. eigenvalues --    3.37647   3.39004   3.42835   3.44796   3.45473
 Alpha virt. eigenvalues --    3.46743   3.48278   3.49287   3.49898   3.50667
 Alpha virt. eigenvalues --    3.51903   3.54226   3.54793   3.61527   3.67496
 Alpha virt. eigenvalues --    3.70923   3.76728   3.78461   3.79841   3.84615
 Alpha virt. eigenvalues --    3.85079   3.85348   3.85930   3.87362   3.88788
 Alpha virt. eigenvalues --    3.88891   3.89754   3.89911   3.90617   3.90934
 Alpha virt. eigenvalues --    3.92072   3.92354   3.93226   3.93959   3.95590
 Alpha virt. eigenvalues --    3.96444   4.01231   4.04100   4.05305   4.05624
 Alpha virt. eigenvalues --    4.06003   4.06322   4.07353   4.10858   4.12758
 Alpha virt. eigenvalues --    4.13510   4.17890   4.19401   4.26107   4.27627
 Alpha virt. eigenvalues --    4.28357   4.30902   4.31381   4.32797   4.34885
 Alpha virt. eigenvalues --    4.36745   4.71042   4.75185   4.79679   4.84836
 Alpha virt. eigenvalues --    4.88395   5.00154   5.03418   5.03858   5.06578
 Alpha virt. eigenvalues --    5.08004   5.25022   5.27059   5.28239   5.31158
 Alpha virt. eigenvalues --    5.47934   5.50622   5.52710   5.84983   5.97976
 Alpha virt. eigenvalues --    6.11133   6.50599   6.52916   6.54755   6.55208
 Alpha virt. eigenvalues --    6.56113   6.57968   6.58611   6.59952   6.60375
 Alpha virt. eigenvalues --    6.61079   6.63641   6.67458   6.68162   6.68437
 Alpha virt. eigenvalues --    6.92020   6.93375   6.93980   6.96329  23.52908
 Alpha virt. eigenvalues --   23.65683  23.68924  23.69920  23.71800  23.81180
 Alpha virt. eigenvalues --   23.87087  23.87732  23.98162  24.01611  24.04857
 Alpha virt. eigenvalues --   24.05324  24.13471  24.19501  24.25814  35.71737
 Alpha virt. eigenvalues --   35.81385  50.15705  50.22929  50.24061  66.94177
 Alpha virt. eigenvalues --   66.94651  66.95362  66.96218  67.00996  67.03127
          Condensed to atoms (all electrons):
               1          2          3          4          5          6
     1  C   35.319667  -0.092102  -0.540775  -0.331287  -0.313874  -0.766807
     2  N   -0.092102   8.324143   0.284312  -0.081925  -0.599218  -0.688519
     3  C   -0.540775   0.284312   9.955183   0.687930   0.260534  -1.716041
     4  O   -0.331287  -0.081925   0.687930   8.132181  -0.189704  -0.148422
     5  N   -0.313874  -0.599218   0.260534  -0.189704   8.038028   0.660393
     6  C   -0.766807  -0.688519  -1.716041  -0.148422   0.660393   9.733205
     7  C   -0.005221   0.079255   0.468956   0.030000  -0.066445  -1.400849
     8  C   -0.007086  -0.024531  -0.338810  -0.001032  -0.047780   0.548643
     9  C   -4.805291   0.275869  -0.560364  -0.151219  -0.413715  -0.298892
    10  C  -11.594339   0.144168  -1.877437  -0.074949  -0.130701  -0.184295
    11  C    0.089403   0.014004  -0.361358   0.036597   0.045659  -0.021735
    12  C   -2.711275   0.034189   0.707376   0.194252   0.106957   0.069494
    13  C   -1.885873  -0.179675  -0.818587   0.317075   0.109622  -0.150735
    14  H   -0.188744   0.065852  -0.017561  -0.005427   0.021793   0.044774
    15  H    0.005357   0.014716  -0.063199  -0.008373   0.124465   0.049378
    16  H    0.008622   0.008772   0.054576   0.001540  -0.067302   0.353406
    17  H    0.016678   0.006398   0.054776  -0.003253  -0.057635   0.378372
    18  H   -0.002640  -0.001474  -0.012867  -0.000169   0.007718  -0.058470
    19  H    0.002482  -0.001174   0.010051  -0.000302   0.006732  -0.064755
    20  H   -0.000003  -0.000011  -0.000160  -0.000023   0.000169  -0.030946
    21  H    0.000193   0.000003   0.007684   0.000017  -0.002013   0.092228
    22  H   -0.000320  -0.000042  -0.005625  -0.000036   0.000415  -0.052550
    23  H    0.026190  -0.029073  -0.000810   0.000114   0.000344   0.000133
    24  H    0.085779  -0.031515   0.125187   0.005649   0.008573   0.016921
    25  C   -0.143696   0.031835   0.008400   0.001758   0.009496   0.002685
    26  C   -5.743244  -0.026284  -0.310609  -0.005961  -0.014165  -0.013856
    27  H   -0.022711  -0.001713  -0.000814   0.000034  -0.000010  -0.000062
    28  F   -0.015164   0.000029  -0.001106   0.000002   0.000002  -0.000007
    29  F   -0.006152  -0.000072  -0.000628  -0.000000   0.000001  -0.000001
    30  F    0.020190   0.000059  -0.000044   0.000002   0.000008   0.000004
    31  F    0.227179   0.002083  -0.000497  -0.000002   0.000019   0.000005
    32  F    0.032120   0.000829  -0.001191   0.000002   0.000014  -0.000011
    33  F    0.025088   0.000661  -0.000469  -0.000001  -0.000001   0.000002
    34  O   -0.182469   0.035662   0.006322  -0.000746  -0.061706  -0.013511
    35  O    0.023761  -0.053530  -0.068759   0.000368   0.016278   0.069156
    36  C    0.293840   0.002774   0.012933  -0.001551   0.033722   0.023646
    37  C   -0.138848  -0.055143  -0.070316  -0.001192  -0.068950   0.089928
    38  C   -0.001595   0.001896   0.007740   0.000080   0.012648  -0.016765
    39  H    0.000402   0.000253  -0.000420  -0.000000   0.000290   0.000067
    40  H    0.001284   0.000547   0.000608   0.000001  -0.000119  -0.000721
    41  H   -0.000053   0.000031  -0.000088  -0.000000   0.000178  -0.000232
    42  H    0.000133   0.000021   0.000194   0.000000  -0.000085  -0.000077
    43  H   -0.000004   0.000018  -0.000534  -0.000000   0.000139   0.000674
               7          8          9         10         11         12
     1  C   -0.005221  -0.007086  -4.805291 -11.594339   0.089403  -2.711275
     2  N    0.079255  -0.024531   0.275869   0.144168   0.014004   0.034189
     3  C    0.468956  -0.338810  -0.560364  -1.877437  -0.361358   0.707376
     4  O    0.030000  -0.001032  -0.151219  -0.074949   0.036597   0.194252
     5  N   -0.066445  -0.047780  -0.413715  -0.130701   0.045659   0.106957
     6  C   -1.400849   0.548643  -0.298892  -0.184295  -0.021735   0.069494
     7  C    6.888314  -0.582888   0.037758   0.006279  -0.001169  -0.007157
     8  C   -0.582888   6.637702  -0.010502  -0.001324  -0.000524   0.000181
     9  C    0.037758  -0.010502  16.750561   4.013569  -1.746976  -4.455696
    10  C    0.006279  -0.001324   4.013569  34.747017  -7.136567 -11.500941
    11  C   -0.001169  -0.000524  -1.746976  -7.136567  32.975095   2.272055
    12  C   -0.007157   0.000181  -4.455696 -11.500941   2.272055  27.018440
    13  C   -0.010933  -0.005984  -1.945548   4.609242 -13.718692  -3.314749
    14  H   -0.010366   0.000228   0.096387   0.024948  -0.011109  -0.009226
    15  H   -0.052570   0.012526   0.002397  -0.002481  -0.004613  -0.003768
    16  H   -0.009620  -0.013953   0.003121   0.000289  -0.000126  -0.001440
    17  H   -0.039765  -0.027139   0.001168   0.000741  -0.000209  -0.000723
    18  H    0.459199  -0.062333   0.000626  -0.000052   0.000010  -0.000022
    19  H    0.438032  -0.062336  -0.000033   0.000048  -0.000009  -0.000019
    20  H    0.042722   0.333771   0.000020   0.000000   0.000000  -0.000003
    21  H   -0.169179   0.422364  -0.000016   0.000000   0.000000   0.000001
    22  H    0.025329   0.376975   0.000027  -0.000002   0.000000  -0.000001
    23  H    0.000023   0.000012   0.299742  -0.063320   0.008063  -0.013476
    24  H   -0.000658   0.000130  -0.050016  -0.085512   0.023621  -0.024448
    25  C   -0.000150   0.000007  -2.077442  -0.624772  -2.160334  -0.763816
    26  C    0.000338  -0.000046   1.240131  -3.792947  -3.393523  -1.698357
    27  H    0.000005  -0.000000   0.003420   0.093880  -0.072313   0.292178
    28  F    0.000000  -0.000000   0.063486  -0.219275  -0.022760   0.086120
    29  F   -0.000000  -0.000000   0.030121  -0.000637   0.102245  -0.071706
    30  F   -0.000000   0.000000   0.014533   0.071855  -0.262787   0.051190
    31  F    0.000001  -0.000000   0.141049  -0.469373   0.090136   0.034647
    32  F    0.000000  -0.000000   0.013032   0.028812  -0.120933   0.033735
    33  F   -0.000000   0.000000  -0.045110   0.145921  -0.001519   0.024025
    34  O   -0.001547  -0.000163   0.224609  -0.001299   0.011031   0.010230
    35  O   -0.012198   0.012371  -0.014404  -0.001293   0.000958   0.000016
    36  C   -0.003239  -0.014887  -0.216261  -0.081795  -0.026567  -0.004900
    37  C   -0.046152   0.011806   0.171345   0.031833  -0.014794  -0.017977
    38  C    0.013334  -0.005431  -0.002285   0.002769   0.000821   0.000356
    39  H   -0.000129  -0.000019   0.000243  -0.000030   0.000014  -0.000007
    40  H    0.000565   0.000015  -0.001323  -0.000444  -0.000014   0.000026
    41  H    0.000468   0.000216   0.000132  -0.000000  -0.000002  -0.000002
    42  H   -0.000050  -0.000006  -0.000196  -0.000017   0.000000   0.000001
    43  H   -0.000259   0.000077   0.000163   0.000009  -0.000002  -0.000003
              13         14         15         16         17         18
     1  C   -1.885873  -0.188744   0.005357   0.008622   0.016678  -0.002640
     2  N   -0.179675   0.065852   0.014716   0.008772   0.006398  -0.001474
     3  C   -0.818587  -0.017561  -0.063199   0.054576   0.054776  -0.012867
     4  O    0.317075  -0.005427  -0.008373   0.001540  -0.003253  -0.000169
     5  N    0.109622   0.021793   0.124465  -0.067302  -0.057635   0.007718
     6  C   -0.150735   0.044774   0.049378   0.353406   0.378372  -0.058470
     7  C   -0.010933  -0.010366  -0.052570  -0.009620  -0.039765   0.459199
     8  C   -0.005984   0.000228   0.012526  -0.013953  -0.027139  -0.062333
     9  C   -1.945548   0.096387   0.002397   0.003121   0.001168   0.000626
    10  C    4.609242   0.024948  -0.002481   0.000289   0.000741  -0.000052
    11  C  -13.718692  -0.011109  -0.004613  -0.000126  -0.000209   0.000010
    12  C   -3.314749  -0.009226  -0.003768  -0.001440  -0.000723  -0.000022
    13  C   23.783022   0.011588  -0.036195  -0.007247  -0.002752  -0.000797
    14  H    0.011588   0.324631   0.028579  -0.000170  -0.000056   0.000064
    15  H   -0.036195   0.028579   0.327742   0.002017   0.001662   0.004204
    16  H   -0.007247  -0.000170   0.002017   0.481319  -0.053110   0.005987
    17  H   -0.002752  -0.000056   0.001662  -0.053110   0.472148  -0.008842
    18  H   -0.000797   0.000064   0.004204   0.005987  -0.008842   0.441508
    19  H   -0.000373   0.000077   0.001829  -0.009147   0.006240  -0.036591
    20  H   -0.000034   0.000001  -0.000035  -0.000850   0.003156  -0.007619
    21  H    0.000041   0.000000  -0.000070  -0.000128  -0.000068  -0.003883
    22  H   -0.000039  -0.000000  -0.000002   0.003579  -0.000695   0.006535
    23  H   -0.006823   0.013275  -0.000078  -0.000001   0.000000  -0.000001
    24  H    0.247520  -0.000501   0.000060  -0.000030  -0.000042   0.000000
    25  C   -3.743936   0.000530  -0.000214  -0.000002  -0.000004   0.000000
    26  C    2.836327   0.012279  -0.000113   0.000004   0.000031  -0.000005
    27  H    0.013125   0.000003  -0.000000  -0.000000   0.000000  -0.000000
    28  F    0.063653  -0.000002  -0.000000  -0.000000   0.000000  -0.000000
    29  F    0.007740   0.000001  -0.000000   0.000000  -0.000000   0.000000
    30  F    0.242666   0.000002  -0.000000  -0.000000  -0.000000   0.000000
    31  F   -0.008377  -0.000258  -0.000002   0.000000  -0.000000   0.000000
    32  F   -0.006647  -0.000006  -0.000000  -0.000000   0.000000  -0.000000
    33  F   -0.001766   0.000026   0.000000  -0.000000  -0.000000   0.000000
    34  O   -0.007417   0.082878   0.013318  -0.000029  -0.000033  -0.000088
    35  O   -0.010278   0.012877   0.070783  -0.000754   0.000123  -0.005117
    36  C   -0.041006  -0.021049  -0.007874  -0.000488   0.000374   0.003206
    37  C   -0.068011   0.056754   0.054199  -0.000459  -0.000050  -0.001122
    38  C    0.001125  -0.004220  -0.006988   0.000094   0.000034   0.001883
    39  H    0.000020  -0.000337  -0.000110   0.000000   0.000000   0.000004
    40  H    0.000218  -0.000345  -0.000012   0.000000   0.000000   0.000001
    41  H   -0.000016  -0.000016  -0.000302  -0.000000   0.000000  -0.000059
    42  H    0.000016  -0.000001   0.000054  -0.000000  -0.000000  -0.000000
    43  H   -0.000032  -0.000018  -0.000323  -0.000000  -0.000000  -0.000041
              19         20         21         22         23         24
     1  C    0.002482  -0.000003   0.000193  -0.000320   0.026190   0.085779
     2  N   -0.001174  -0.000011   0.000003  -0.000042  -0.029073  -0.031515
     3  C    0.010051  -0.000160   0.007684  -0.005625  -0.000810   0.125187
     4  O   -0.000302  -0.000023   0.000017  -0.000036   0.000114   0.005649
     5  N    0.006732   0.000169  -0.002013   0.000415   0.000344   0.008573
     6  C   -0.064755  -0.030946   0.092228  -0.052550   0.000133   0.016921
     7  C    0.438032   0.042722  -0.169179   0.025329   0.000023  -0.000658
     8  C   -0.062336   0.333771   0.422364   0.376975   0.000012   0.000130
     9  C   -0.000033   0.000020  -0.000016   0.000027   0.299742  -0.050016
    10  C    0.000048   0.000000   0.000000  -0.000002  -0.063320  -0.085512
    11  C   -0.000009   0.000000   0.000000   0.000000   0.008063   0.023621
    12  C   -0.000019  -0.000003   0.000001  -0.000001  -0.013476  -0.024448
    13  C   -0.000373  -0.000034   0.000041  -0.000039  -0.006823   0.247520
    14  H    0.000077   0.000001   0.000000  -0.000000   0.013275  -0.000501
    15  H    0.001829  -0.000035  -0.000070  -0.000002  -0.000078   0.000060
    16  H   -0.009147  -0.000850  -0.000128   0.003579  -0.000001  -0.000030
    17  H    0.006240   0.003156  -0.000068  -0.000695   0.000000  -0.000042
    18  H   -0.036591  -0.007619  -0.003883   0.006535  -0.000001   0.000000
    19  H    0.441771   0.006696  -0.004230  -0.008152  -0.000000   0.000000
    20  H    0.006696   0.464089  -0.026575  -0.039409  -0.000000  -0.000000
    21  H   -0.004230  -0.026575   0.444579  -0.026305   0.000000   0.000000
    22  H   -0.008152  -0.039409  -0.026305   0.466599  -0.000000  -0.000000
    23  H   -0.000000  -0.000000   0.000000  -0.000000   0.312350  -0.000035
    24  H    0.000000  -0.000000   0.000000  -0.000000  -0.000035   0.369304
    25  C   -0.000000  -0.000000   0.000000  -0.000000   0.006724   0.010870
    26  C    0.000003   0.000000   0.000000  -0.000000   0.028684  -0.007319
    27  H   -0.000000   0.000000  -0.000000   0.000000   0.000036  -0.003257
    28  F    0.000000  -0.000000   0.000000  -0.000000  -0.000008   0.000007
    29  F   -0.000000  -0.000000  -0.000000   0.000000   0.000031   0.000031
    30  F   -0.000000  -0.000000   0.000000  -0.000000   0.000006  -0.000025
    31  F   -0.000000  -0.000000  -0.000000   0.000000   0.010787  -0.000007
    32  F    0.000000   0.000000   0.000000  -0.000000   0.000468  -0.000004
    33  F   -0.000000   0.000000  -0.000000  -0.000000  -0.000755  -0.000003
    34  O   -0.000154   0.000001  -0.000001  -0.000001   0.010031   0.000030
    35  O   -0.002964   0.000046   0.000007  -0.000063   0.001169   0.000001
    36  C    0.001469   0.000183  -0.000189   0.000018   0.005166   0.000427
    37  C    0.000259  -0.000018   0.000134  -0.000053   0.000627   0.000059
    38  C    0.000820   0.000026  -0.000086   0.000033   0.000112  -0.000000
    39  H    0.000001   0.000000  -0.000000   0.000000  -0.000114   0.000000
    40  H   -0.000001   0.000000  -0.000000   0.000000  -0.000010  -0.000000
    41  H   -0.000022  -0.000000   0.000001  -0.000000   0.000000  -0.000000
    42  H    0.000000  -0.000000  -0.000000  -0.000000  -0.000001  -0.000000
    43  H   -0.000014  -0.000000   0.000001  -0.000000  -0.000000   0.000000
              25         26         27         28         29         30
     1  C   -0.143696  -5.743244  -0.022711  -0.015164  -0.006152   0.020190
     2  N    0.031835  -0.026284  -0.001713   0.000029  -0.000072   0.000059
     3  C    0.008400  -0.310609  -0.000814  -0.001106  -0.000628  -0.000044
     4  O    0.001758  -0.005961   0.000034   0.000002  -0.000000   0.000002
     5  N    0.009496  -0.014165  -0.000010   0.000002   0.000001   0.000008
     6  C    0.002685  -0.013856  -0.000062  -0.000007  -0.000001   0.000004
     7  C   -0.000150   0.000338   0.000005   0.000000  -0.000000  -0.000000
     8  C    0.000007  -0.000046  -0.000000  -0.000000  -0.000000   0.000000
     9  C   -2.077442   1.240131   0.003420   0.063486   0.030121   0.014533
    10  C   -0.624772  -3.792947   0.093880  -0.219275  -0.000637   0.071855
    11  C   -2.160334  -3.393523  -0.072313  -0.022760   0.102245  -0.262787
    12  C   -0.763816  -1.698357   0.292178   0.086120  -0.071706   0.051190
    13  C   -3.743936   2.836327   0.013125   0.063653   0.007740   0.242666
    14  H    0.000530   0.012279   0.000003  -0.000002   0.000001   0.000002
    15  H   -0.000214  -0.000113  -0.000000  -0.000000  -0.000000  -0.000000
    16  H   -0.000002   0.000004  -0.000000  -0.000000   0.000000  -0.000000
    17  H   -0.000004   0.000031   0.000000   0.000000  -0.000000  -0.000000
    18  H    0.000000  -0.000005  -0.000000  -0.000000   0.000000   0.000000
    19  H   -0.000000   0.000003  -0.000000   0.000000  -0.000000  -0.000000
    20  H   -0.000000   0.000000   0.000000  -0.000000  -0.000000  -0.000000
    21  H    0.000000   0.000000  -0.000000   0.000000  -0.000000   0.000000
    22  H   -0.000000  -0.000000   0.000000  -0.000000   0.000000  -0.000000
    23  H    0.006724   0.028684   0.000036  -0.000008   0.000031   0.000006
    24  H    0.010870  -0.007319  -0.003257   0.000007   0.000031  -0.000025
    25  C   21.281726  -7.021265  -0.004595  -0.098442   0.098857  -0.022909
    26  C   -7.021265  22.408758   0.018908   0.287220  -0.008130   0.028563
    27  H   -0.004595   0.018908   0.396404   0.000831  -0.000523   0.009631
    28  F   -0.098442   0.287220   0.000831   9.008733  -0.042103  -0.028434
    29  F    0.098857  -0.008130  -0.000523  -0.042103   8.990677  -0.040131
    30  F   -0.022909   0.028563   0.009631  -0.028434  -0.040131   9.048144
    31  F    0.014912   0.124152   0.000018   0.001423   0.000164   0.000118
    32  F    0.246445  -0.082359   0.000031  -0.003031  -0.000755   0.001316
[...]
 000822,-0.00022123,-0.00006120,0.00000144,-0.00000025,-0.00000125,0.00
 001776,0.00000899,-0.00000382,0.00001850,0.00000166,0.00001255,0.00000
 686,0.00000708,0.00000389,-0.00000885,0.00013913,0.00003201,-0.0000015
 6,0.00003994,-0.00000018,0.00000379,0.00003616,0.00002538,0.00139042,-
 0.00086069,0.00072650,0.00063324,-0.00024486,-0.00064096,-0.00007601,0
 .00266429,0.00053363,-0.12829748,-0.03349816,-0.19247572,0.00386717,0.
 00129366,0.00411224,0.14022836,0.03551225,0.20740932,0.00004541,0.0000
 0002,-0.00000076,0.00006716,0.00011001,0.00002875,-0.00023016,0.000046
 05,0.00003114,0.00005646,-0.00003965,-0.00001517,0.00003510,-0.0002672
 5,-0.00002334,0.00001805,-0.00000540,0.00000245,0.00000010,0.00000942,
 0.00003659,0.00000277,-0.00000364,-0.00001023,-0.00001907,-0.00001308,
 -0.00000004,0.00000840,-0.00001247,-0.00000517,-0.00000752,0.00001202,
 0.00000100,-0.00000127,-0.00000167,0.00000044,-0.00000623,-0.00000525,
 -0.00000461,-0.00006317,-0.00022179,-0.00007172,0.00003030,0.00036857,
 -0.00002072,-0.00000485,-0.00001336,-0.00000251,-0.00000432,-0.0000016
 0,0.00000002,0.00000465,0.00000650,-0.00002385,0.00000057,0.00000659,0
 .00000601,-0.00000004,0.00000173,-0.00000012,0.00000344,0.00000107,0.0
 0000484,-0.00000604,-0.00000857,-0.00000361,0.00003046,0.00000088,-0.0
 0000090,-0.00000158,0.00000099,0.00000301,0.00002181,0.00000465,0.0000
 0869,0.00001077,0.00008217,0.00001956,-0.00000136,0.00000046,0.0000015
 1,-0.00000648,-0.00000237,0.00000002,-0.00000741,0.00000041,-0.0000080
 2,-0.00000340,-0.00000061,-0.00000201,0.00000160,-0.00005173,-0.000006
 99,-0.00000257,-0.00001475,-0.00000144,-0.00000298,-0.00001551,-0.0000
 0670,0.00051304,0.00182037,-0.00143988,-0.00049329,-0.00295258,-0.0014
 2230,-0.00692384,-0.00200688,0.00885999,-0.10828968,-0.02449590,0.1121
 1344,-0.01283209,-0.00521484,0.02244855,0.01084105,0.00511172,-0.01827
 646,0.11926971,-0.00015345,0.00008854,-0.00000023,0.00019434,0.0000169
 4,0.00005831,-0.00035876,0.00019857,0.00004975,0.00006513,-0.00019567,
 -0.00002376,0.00005874,-0.00058378,0.00003552,0.00011868,0.00001029,-0
 .00000215,-0.00002109,0.00000766,0.00000086,0.00000901,-0.00000795,-0.
 00000023,0.00005516,0.00000808,-0.00001476,-0.00000596,0.00000967,-0.0
 0000564,0.00003829,-0.00001149,-0.00000444,-0.00002738,0.00000594,-0.0
 0000038,0.00003258,-0.00004877,-0.00000401,-0.00004213,0.00009030,-0.0
 0013393,0.00010688,0.00090692,-0.00015032,-0.00002551,-0.00002025,-0.0
 0000577,-0.00001979,-0.00001566,0.00001032,0.00002402,-0.00000136,-0.0
 0002735,0.00001855,0.00000661,0.00002360,-0.00000558,-0.00000496,0.000
 00290,-0.00001169,0.00000372,-0.00000030,-0.00000876,-0.00000607,-0.00
 000187,-0.00004070,0.00000182,0.00002555,-0.00000774,0.00000679,0.0000
 0243,-0.00003774,0.00000604,0.00001525,-0.00000614,-0.00008395,0.00005
 379,0.00000130,-0.00000069,0.00000195,0.00001609,0.00000532,-0.0000104
 0,0.00001114,-0.00000170,0.00000109,0.00000504,-0.00000422,-0.00000240
 ,-0.00000554,0.00004206,-0.00001212,-0.00000767,0.00001639,-0.00001505
 ,0.00000834,0.00002208,-0.00002882,0.00068961,0.00007020,-0.00362092,-
 0.00323868,-0.00559556,-0.00360745,-0.01454246,-0.00355312,0.03213282,
 -0.02425627,-0.05710723,0.04851064,0.01076302,0.00350805,-0.01929297,0
 .00335162,0.00067346,-0.00551450,0.02520061,0.06263606,0.00014237,-0.0
 0007582,-0.00001263,-0.00013484,0.00007283,0.00001870,0.00018608,-0.00
 009493,-0.00002132,-0.00003391,0.00008177,0.00000641,-0.00004744,0.000
 17238,0.00003659,-0.00002091,-0.00000154,-0.00000246,0.00000039,-0.000
 00995,-0.00001479,-0.00000469,0.00000557,0.00000361,-0.00004535,-0.000
 00962,0.00001359,0.00000730,-0.00001584,-0.00000146,-0.00004155,0.0000
 0937,0.00000182,0.00002634,-0.00000717,0.00000102,-0.00003105,0.000037
 08,0.00000417,0.00000668,-0.00006889,-0.00000077,-0.00004368,-0.000214
 11,-0.00004910,0.00000457,0.00001003,0.00000511,0.00000104,0.00000338,
 -0.00000319,-0.00000685,0.00000123,0.00001844,-0.00000242,-0.00000384,
 -0.00000980,0.00000204,0.00000029,-0.00000294,-0.00000109,-0.00000220,
 -0.00000196,0.00000619,0.00000640,0.00000486,0.00002412,0.00003244,-0.
 00002225,0.00000621,-0.00000619,-0.00000328,0.00004259,0.00000988,-0.0
 0002064,0.00000649,0.00018640,-0.00003837,-0.00000103,-0.00000007,-0.0
 0000075,-0.00001968,-0.00001111,0.00001348,-0.00001124,-0.00000189,0.0
 0000331,-0.00000546,-0.00000535,0.00000196,0.00000684,-0.00010675,0.00
 000141,0.00001323,-0.00003573,0.00002207,-0.00001330,-0.00003878,0.000
 02055,-0.00141691,0.00073295,0.00134689,-0.00079947,0.00065700,-0.0001
 9140,0.00100632,-0.00272704,-0.00017354,0.11075029,0.04593333,-0.23789
 895,0.00001284,-0.00031667,-0.00054352,0.01185001,0.00567680,-0.021733
 49,-0.12179912,-0.04867498,0.25694800,0.00002465,0.00000271,0.00000722
 ,0.00000275,0.00008599,-0.00002251,-0.00003014,-0.00001862,0.00001852,
 0.00001038,0.00002694,-0.00000872,-0.00000084,0.00001781,-0.00002941,0
 .00000887,-0.00000326,0.00001383,-0.00000781,-0.00000302,-0.00001311,-
 0.00000222,-0.00000190,0.00000407,-0.00001274,-0.00001076,-0.00001196,
 0.00000505,-0.00000348,-0.00000343,-0.00000409,0.00001079,0.00000133,-
 0.00000277,0.00000166,-0.00000098,-0.00000252,0.00000237,-0.00000347,-
 0.00001616,-0.00013073,0.00001724,-0.00000426,-0.00003066,0.00002670,-
 0.00000262,0.00000424,-0.00000097,0.00000164,0.00000734,-0.00000321,0.
 00001046,-0.00000717,0.00001933,0.00000289,-0.00000264,-0.00001148,0.0
 0000268,0.00000327,-0.00000345,-0.00000754,-0.00000093,-0.00000163,0.0
 0000128,0.00000388,0.00000213,0.00001059,-0.00001720,0.00001625,0.0000
 0046,0.00000029,0.00000288,0.00001840,-0.00001245,0.00001809,0.0000249
 8,-0.00004205,0.00003527,-0.00000048,0.00000137,0.00000126,-0.00000248
 ,0.00000390,-0.00000416,-0.00000868,0.00000354,-0.00001226,-0.00000345
 ,0.00000631,-0.00000213,-0.00000825,0.00002333,-0.00000786,-0.00001833
 ,0.00000914,-0.00001671,-0.00000120,0.00000971,-0.00001205,0.00044437,
 0.00038357,-0.00033554,0.00140926,0.00000183,-0.00079564,-0.00107848,-
 0.00151784,0.00031044,-0.01381119,-0.00490164,0.02441541,-0.10907238,-
 0.02453743,0.11114842,0.00063241,-0.00093791,-0.00032475,-0.00372525,0
 .00387352,-0.00012944,0.11925165,0.00010563,-0.00004792,-0.00000940,-0
 .00009317,0.00006372,0.00001089,0.00013112,-0.00011483,-0.00000598,-0.
 00001760,0.00009645,0.00000327,-0.00001528,0.00018813,0.00001535,-0.00
 002794,-0.00000346,0.00000410,-0.00000286,-0.00002039,-0.00003337,-0.0
 0000839,0.00001261,0.00000887,-0.00003667,-0.00001015,0.00000966,0.000
 00984,-0.00001179,-0.00000243,-0.00002786,0.00001554,0.00000399,0.0000
 1471,-0.00000364,0.00000145,-0.00001986,0.00002805,-0.00000189,0.00000
 394,-0.00011138,-0.00000398,-0.00006587,-0.00026747,-0.00001835,0.0000
 0337,0.00001428,0.00000656,0.00000252,0.00000423,-0.00000704,-0.000013
 84,0.00000094,0.00003062,-0.00000509,-0.00000330,-0.00000909,0.0000025
 3,0.00000189,-0.00000423,0.00000257,-0.00000463,-0.00000062,0.00001050
 ,0.00000705,0.00000465,0.00001918,-0.00000511,-0.00000663,0.00000452,-
 0.00000394,-0.00000119,0.00004705,-0.00001616,-0.00000140,0.00003254,0
 .00003499,-0.00000656,-0.00000082,0.00000120,-0.00000035,-0.00001608,-
 0.00000112,0.00000589,-0.00001619,0.00000461,-0.00000817,-0.00000753,0
 .00000921,0.00000099,-0.00000605,-0.00001758,0.00000053,-0.00001202,-0
 .00000603,-0.00000190,-0.00001079,-0.00000904,0.00000905,-0.00069950,0
 .00026875,0.00035020,-0.00075380,-0.00014980,0.00053495,0.00135033,0.0
 0038146,-0.00114742,0.00972083,0.00402119,-0.01890445,-0.02554891,-0.0
 5672335,0.04572118,-0.00080768,0.00086602,0.00038591,0.00341923,-0.002
 45909,-0.00039934,0.02423392,0.05878916,0.00004142,-0.00003213,-0.0000
 0374,-0.00009775,-0.00004658,0.00002283,0.00015910,-0.00005378,-0.0000
 2017,-0.00004013,0.00003087,0.00000767,-0.00005390,0.00009512,0.000033
 66,0.00003939,0.00000289,0.00000233,-0.00001794,-0.00001900,-0.0000546
 8,-0.00000390,0.00000410,0.00001558,-0.00001116,0.00000056,0.00000691,
 -0.00000180,-0.00000294,-0.00000014,-0.00001560,-0.00000009,0.00000073
 ,0.00001277,-0.00000234,0.00000017,-0.00000937,0.00001702,0.00000077,0
 .00002632,0.00005714,-0.00002041,-0.00002221,-0.00009970,-0.00003533,-
 0.00000752,0.00001563,0.00000340,-0.00000633,0.00000004,0.00000021,0.0
 0000742,-0.00001665,0.00004125,0.00000745,-0.00000813,-0.00001248,0.00
 000024,-0.00000197,-0.00000295,-0.00001699,-0.00000187,-0.00000813,0.0
 0000866,0.00001497,0.00000803,0.00000335,0.00000489,-0.00000813,0.0000
 0362,-0.00000276,-0.00000229,0.00001050,0.00000558,-0.00001247,0.00000
 143,0.00005347,-0.00002119,0.00000022,-0.00000031,-0.00000066,-0.00000
 658,-0.00000483,0.00000644,-0.00000223,-0.00000165,0.00000398,-0.00000
 121,-0.00000380,0.00000156,0.00000238,-0.00002839,0.00000221,0.0000058
 0,-0.00001081,0.00000898,-0.00000432,-0.00001236,0.00001158,-0.0007870
 5,-0.00042390,0.00005105,-0.00195027,0.00067535,0.00092939,0.00249279,
 0.00134061,-0.00032124,0.00064197,-0.00047202,-0.00143660,0.11162275,0
 .04344050,-0.24874564,0.00027819,-0.00041982,0.00070990,0.00024494,-0.
 00020444,0.00157232,-0.12262105,-0.04934414,0.26641439,0.00009938,-0.0
 0001318,-0.00000465,0.00008281,0.00032100,-0.00001327,-0.00020892,0.00
 002454,0.00001152,0.00006509,0.00003142,-0.00000387,0.00005416,-0.0000
 5158,0.00000146,-0.00004372,-0.00000942,-0.00000012,0.00001378,0.00001
 832,0.00000110,0.00000753,-0.00000841,-0.00000063,-0.00004089,-0.00003
 163,-0.00000001,0.00001417,-0.00000507,-0.00000299,-0.00002056,0.00001
 815,0.00000308,0.00000420,0.00000507,-0.00000089,-0.00001886,0.0000154
 0,0.00000128,-0.00011375,-0.00046725,0.00001931,-0.00000043,0.00003074
 ,0.00000628,0.00000828,-0.00000375,-0.00000311,0.00000986,-0.00000190,
 0.00000225,-0.00000382,0.00000761,-0.00002085,-0.00000343,0.00000892,0
 .00001798,-0.00000330,-0.00000294,0.00000469,0.00001022,0.00000245,0.0
 0000009,-0.00000466,-0.00000534,-0.00000417,0.00004054,-0.00001145,-0.
 00000040,-0.00000047,0.00000023,0.00000004,0.00003312,-0.00000811,-0.0
 0000019,0.00003165,0.00003617,-0.00000077,-0.00000223,0.00000154,0.000
 00041,-0.00001091,-0.00000147,0.00000426,-0.00001137,0.00000243,-0.000
 00636,-0.00000580,0.00000593,0.00000070,-0.00000781,-0.00001882,-0.000
 00190,-0.00001141,-0.00000633,-0.00000306,-0.00000973,-0.00000915,0.00
 000708,-0.00010613,0.00323952,0.00011343,0.00213007,-0.00077616,-0.000
 20060,-0.00682218,-0.00108912,0.00079313,0.00911010,0.02920935,-0.0005
 0838,-0.06861486,-0.07125426,0.00033802,0.00106187,-0.00091042,-0.0004
 4422,0.00105723,-0.00098198,0.00020154,-0.00510199,-0.01401827,-0.0018
 9021,0.07322693,-0.00034729,0.00011045,0.00001817,0.00010658,-0.000526
 25,0.00000066,0.00000349,0.00025033,-0.00000377,-0.00004869,-0.0002684
 1,0.00000574,-0.00003888,-0.00031607,-0.00000622,0.00010518,0.00002657
 ,-0.00001308,-0.00000820,0.00001384,0.00001264,0.00001138,-0.00000797,
 -0.00000469,0.00013181,0.00006834,-0.00000607,-0.00004177,0.00004052,0
 .00000531,0.00008792,-0.00006924,-0.00001516,-0.00003050,-0.00000139,0
 .00000181,0.00006452,-0.00008020,-0.00000152,0.00010382,0.00086032,-0.
 00001890,0.00014982,0.00051850,0.00001201,-0.00001917,-0.00002136,-0.0
 0000997,-0.00001727,-0.00001806,0.00001563,0.00002006,0.00000148,-0.00
 003637,0.00001346,0.00000567,0.00002728,-0.00000746,-0.00000715,0.0000
 0842,-0.00000814,0.00000822,0.00000035,-0.00001072,-0.00001054,-0.0000
 0647,-0.00009000,0.00004745,0.00000435,-0.00000934,0.00000751,0.000000
 32,-0.00017485,0.00007022,-0.00000126,-0.00016016,-0.00004026,0.000020
 41,0.00000423,-0.00000613,0.00000003,0.00005649,-0.00000043,-0.0000189
 6,0.00005969,-0.00001888,0.00003244,0.00002993,-0.00004073,-0.00000407
 ,0.00003919,0.00000766,-0.00000534,0.00006474,0.00000486,0.00001896,0.
 00004695,0.00001732,-0.00003560,0.00138097,-0.00355958,-0.00027297,0.0
 0021283,-0.00109805,-0.00006985,0.00258176,0.00271155,-0.00016407,-0.0
 0746683,-0.01757470,0.00045511,-0.07059707,-0.29136469,0.00199144,0.00
 010279,0.00048919,0.00059464,0.00000876,0.00051907,-0.00058348,-0.0013
 3214,-0.00480526,0.00027731,0.07617002,0.31774209,-0.00001604,0.000003
 69,0.00000720,-0.00000547,-0.00004160,-0.00000154,0.00001878,0.0000034
 7,-0.00000498,-0.00000704,-0.00000877,0.00000003,-0.00000263,-0.000000
 81,0.00002338,0.00000356,0.00000200,0.00000303,-0.00000206,-0.00000412
 ,-0.00002422,0.00000066,0.00000109,0.00000768,0.00000661,0.00000430,-0
 .00000887,-0.00000239,0.00000121,-0.00000201,0.00000361,-0.00000261,-0
 .00000148,-0.00000142,-0.00000072,0.00000020,0.00000357,-0.00000441,-0
 .00000117,0.00001299,0.00006183,-0.00000296,-0.00000113,0.00000173,-0.
 00002468,-0.00000191,0.00000187,-0.00000010,0.00000037,-0.00000362,0.0
 0000068,-0.00000113,-0.00000103,0.00000111,0.00000273,0.00000464,0.000
 01027,-0.00000227,-0.00000228,0.00000074,-0.00000010,0.00000001,-0.000
 00199,0.00000143,0.00000137,0.00000022,-0.00000496,0.00000218,0.000004
 83,-0.00000012,0.00000011,0.00000040,-0.00000634,0.00000253,0.00000805
 ,-0.00000632,-0.00000154,0.00002220,0.00000036,-0.00000020,0.00000060,
 0.00000343,0.00000082,-0.00000341,0.00000108,-0.00000065,-0.00000227,0
 .00000120,-0.00000221,-0.00000151,0.00000186,-0.00000230,-0.00000614,-
 0.00000060,0.00000065,-0.00000460,0.00000442,0.00000269,-0.00001122,0.
 00002517,-0.00040362,0.00004320,-0.00020387,0.00007557,0.00055182,0.00
 089767,0.00019893,0.00060201,-0.00117730,-0.00337685,-0.00122131,0.000
 31499,0.00205170,-0.05014998,0.00014217,0.00039846,0.00004979,-0.00034
 461,-0.00017207,0.00000278,0.00668141,0.02790045,0.00171394,-0.0009857
 6,-0.00195293,0.04712355,0.00001912,0.00000389,-0.00001188,0.00002489,
 0.00010080,0.00002192,-0.00006791,-0.00001380,-0.00001569,0.00002126,0
 .00002720,0.00000727,0.00002071,0.00001016,0.00003820,-0.00000334,-0.0
 0000280,-0.00000600,-0.00000606,0.00000312,-0.00002062,-0.00000063,-0.
 00000334,0.00000480,-0.00001341,-0.00001317,0.00001365,0.00000917,-0.0
 0000227,0.00000556,-0.00000391,0.00001138,0.00000312,-0.00000207,0.000
 00408,0.00000113,-0.00000314,0.00000725,0.00000348,-0.00002250,-0.0001
 5055,-0.00001313,-0.00001516,-0.00003628,-0.00003829,0.00000232,0.0000
 0847,0.00000130,0.00000090,0.00000020,0.00000110,0.00000516,0.00000101
 ,0.00001637,0.00000655,-0.00000460,-0.00000576,-0.00000146,-0.00000054
 ,0.00000066,-0.00000387,-0.00000129,-0.00000252,0.00000284,0.00000621,
 0.00000225,0.00000941,-0.00002129,-0.00001785,-0.00000045,0.00000065,-
 0.00000303,0.00002057,-0.00002090,-0.00001701,0.00003279,-0.00006938,-
 0.00005360,-0.00000073,0.00000121,-0.00000160,-0.00000850,0.00000225,0
 .00000731,-0.00000544,0.00000490,0.00000291,-0.00000447,0.00001343,0.0
 0000468,-0.00001205,0.00005073,0.00002048,-0.00001076,0.00001223,0.000
 00304,-0.00001216,0.00000662,0.00002952,0.00056513,0.00046573,0.000219
 70,0.00171915,0.00025429,0.00044493,-0.00144117,-0.00178723,-0.0000228
 7,-0.01810815,-0.00369285,-0.02101191,-0.15854209,-0.02701393,-0.13081
 494,-0.00351569,0.00379986,0.00131947,0.00061455,-0.00083667,0.0003059
 4,0.01106311,0.00311773,0.01195683,-0.00589374,-0.00114791,-0.00535457
 ,0.17356123,0.00010320,-0.00004762,-0.00000095,-0.00009865,0.00005825,
 0.00000142,0.00014173,-0.00011308,-0.00000338,-0.00002122,0.00009356,-
 0.00000390,-0.00002719,0.00018069,-0.00001075,-0.00001882,-0.00000749,
 0.00000640,-0.00000166,-0.00001888,0.00002707,-0.00001235,0.00001395,-
 0.00000703,-0.00003594,-0.00000806,-0.00000552,0.00000810,-0.00001240,
 0.00000026,-0.00002640,0.00001356,0.00000408,0.00001488,-0.00000364,-0
 .00000247,-0.00002004,0.00002826,0.00000216,0.00000656,-0.00009529,0.0
 0000349,-0.00005524,-0.00024568,-0.00001160,0.00000312,0.00000771,0.00
 000537,0.00000036,0.00001304,-0.00000983,-0.00000877,-0.00000196,0.000
 02342,-0.00000770,-0.00000612,-0.00003575,0.00000996,0.00000724,-0.000
 00691,0.00000097,-0.00000498,0.00000143,0.00000634,0.00000526,0.000003
 89,0.00001806,-0.00000225,0.00000251,0.00000466,-0.00000403,0.00000088
 ,0.00004354,-0.00001341,0.00000240,0.00002784,0.00004223,0.00000577,-0
 .00000079,0.00000106,0.00000009,-0.00001473,-0.00000123,0.00000471,-0.
 00001521,0.00000392,-0.00000907,-0.00000690,0.00000740,0.00000018,-0.0
 0000422,-0.00002362,-0.00000426,-0.00001085,-0.00000710,-0.00000346,-0
 .00000871,-0.00000920,0.00000259,-0.00068691,0.00022908,-0.00017921,-0
 .00060627,-0.00010810,-0.00024453,0.00153179,0.00043779,0.00081552,0.0
 1327372,0.00313162,0.01666361,-0.02830712,-0.05360139,-0.03263108,0.00
 342723,-0.00242953,-0.00044164,-0.00086337,0.00084094,-0.00021784,0.00
 479440,-0.00001406,0.00517835,-0.01946280,-0.00368580,-0.02473894,0.02
 690539,0.05534936,-0.00003697,0.00002701,-0.00000266,0.00009298,0.0000
 3851,0.00000587,-0.00014931,0.00004944,-0.00000184,0.00003895,-0.00002
 820,0.00000333,0.00006175,-0.00008305,0.00002092,-0.00004879,-0.000000
 55,-0.00000770,0.00001699,0.00000993,-0.00000748,0.00000555,-0.0000008
 9,0.00000031,0.00000970,0.00000007,0.00000484,0.00000261,0.00000200,0.
 00000485,0.00001401,-0.00000187,-0.00000073,-0.00000923,0.00000280,0.0
 0000213,0.00000665,-0.00001164,-0.00000066,-0.00002453,-0.00004608,-0.
 00000928,0.00000724,0.00007889,-0.00002467,0.00000786,-0.00000755,-0.0
 0000079,0.00000899,-0.00001261,0.00000477,-0.00001150,0.00001599,-0.00
 004205,-0.00000699,0.00002308,0.00004067,-0.00000616,-0.00000970,0.000
 00941,0.00002173,0.00000151,-0.00000237,-0.00000494,-0.00000800,-0.000
 00530,-0.00000362,-0.00000283,-0.00000369,-0.00000354,0.00000232,-0.00
 000129,-0.00000984,-0.00000587,-0.00000532,-0.00000220,-0.00004400,-0.
 00001203,-0.00000038,-0.00000014,-0.00000132,0.00000307,0.00000274,-0.
 00000036,0.00000411,0.00000121,0.00000387,0.00000096,0.00000557,0.0000
 0162,-0.00000188,0.00002684,0.00000595,0.00000002,0.00000803,0.0000006
 4,0.00000028,0.00000770,0.00000334,0.00058398,0.00038144,-0.00019148,0
 .00158502,-0.00040302,0.00030284,-0.00207024,-0.00094452,0.00028929,0.
 00338735,0.00144363,0.00377715,-0.13127760,-0.03083579,-0.20199411,0.0
 0094805,-0.00073850,0.00134911,-0.00032065,0.00060651,0.00069953,-0.01
 836390,-0.00509065,-0.02086305,0.00256876,-0.00027227,0.00129671,0.142
 97567,0.03581250,0.21535104\\-0.00000298,-0.00000267,0.00000375,-0.000
 01103,-0.00001536,-0.00000468,0.00000662,-0.00000086,-0.00000384,-0.00
 000199,-0.00000251,-0.00000265,-0.00000211,0.00000124,0.00001816,0.000
 00475,-0.00000140,-0.00000381,0.00000051,-0.00000349,-0.00000088,0.000
 00045,-0.00000213,0.00000047,0.00000426,0.00000142,-0.00000232,-0.0000
 0020,0.00000331,0.00000080,0.00000299,0.00000284,-0.00000182,0.0000006
 6,0.00000119,-0.00000171,0.00000524,-0.00000007,0.00000205,0.00000431,
 0.00002657,0.00000361,-0.00000331,-0.00000035,-0.00000418,0.00000101,-
 0.00000233,-0.00000280,-0.00000033,-0.00000186,-0.00000041,-0.00000031
 ,-0.00000279,0.00000240,-0.00000101,-0.00000176,-0.00000112,0.00000042
 ,-0.00000400,-0.00000002,-0.00000075,-0.00000323,-0.00000053,0.0000002
 4,-0.00000372,-0.00000171,0.,-0.00000028,0.00000027,0.00000273,0.00000
 008,-0.00000373,-0.00000081,0.00000297,-0.00000254,-0.00000258,0.00000
 380,-0.00000021,0.00000238,0.00000141,-0.00000224,0.00000424,0.0000047
 0,0.00000034,0.00000297,0.00000444,0.00000004,0.00000198,0.00000113,-0
 .00000360,-0.00000081,0.00000338,0.00000144,0.00000258,-0.00000057,0.0
 0000065,0.00000105,0.00000428,-0.00000151,0.00000817,-0.00000085,-0.00
 001325,0.00000732,-0.00000026,-0.00000715,-0.00001308,0.00000076,0.000
 01075,-0.00000371,-0.00001123,0.00000554,-0.00000579,0.00000115,0.0000
 0272,-0.00000226,-0.00000188,0.00000378,-0.00000253,0.00000064,0.00000
 316,-0.00000201,-0.00000133,0.00000170,-0.00000428,-0.00000119,0.00000
 285,-0.00000301,0.00000080,0.00000223\\\@


 ERROR IS A HARDY PLANT... IT FLOURISHETH IN EVERY SOIL.
            MARTIN FARQUHAR TUPPER
 Job cpu time:       0 days 16 hours 11 minutes 55.3 seconds.
 File lengths (MBytes):  RWF=   1717 Int=      0 D2E=      0 Chk=     40 Scr=      1
 Normal termination of Gaussian 09 at Fri Nov 15 00:47:47 2019.
pbs_rusage has been removed.
Please contact help@nci.org.au if you require this functionality.
