 Entering Gaussian System, Link 0=/apps/gaussian/g09e01/g09/g09
 Initial command:
 /apps/gaussian/g09e01/g09/l1.exe "/jobfs/local/3595134.r-man2/Gau-34470.inp" -scrdir="/jobfs/local/3595134.r-man2/"
 Entering Link 1 = /apps/gaussian/g09e01/g09/l1.exe PID=     34471.
  
 Copyright (c) 1988,1990,1992,1993,1995,1998,2003,2009,2015,
            Gaussian, Inc.  All Rights Reserved.
  
 This is part of the Gaussian(R) 09 program.  It is based on
 the Gaussian(R) 03 system (copyright 2003, Gaussian, Inc.),
 the Gaussian(R) 98 system (copyright 1998, Gaussian, Inc.),
 the Gaussian(R) 94 system (copyright 1995, Gaussian, Inc.),
 the Gaussian 92(TM) system (copyright 1992, Gaussian, Inc.),
 the Gaussian 90(TM) system (copyright 1990, Gaussian, Inc.),
 the Gaussian 88(TM) system (copyright 1988, Gaussian, Inc.),
 the Gaussian 86(TM) system (copyright 1986, Carnegie Mellon
 University), and the Gaussian 82(TM) system (copyright 1983,
 Carnegie Mellon University). Gaussian is a federally registered
 trademark of Gaussian, Inc.
  
 This software contains proprietary and confidential information,
 including trade secrets, belonging to Gaussian, Inc.
  
 This software is provided under written license and may be
 used, copied, transmitted, or stored only in accord with that
 written license.
  
 The following legend is applicable only to US Government
 contracts under FAR:
  
                    RESTRICTED RIGHTS LEGEND
  
 Use, reproduction and disclosure by the US Government is
 subject to restrictions as set forth in subparagraphs (a)
 and (c) of the Commercial Computer Software - Restricted
 Rights clause in FAR 52.227-19.
  
 Gaussian, Inc.
 340 Quinnipiac St., Bldg. 40, Wallingford CT 06492
  
  
 ---------------------------------------------------------------
 Warning -- This program may not be used in any manner that
 competes with the business of Gaussian, Inc. or will provide
 assistance to any competitor of Gaussian, Inc.  The licensee
 of this program is prohibited from giving any competitor of
 Gaussian, Inc. access to this program.  By using this program,
 the user acknowledges that Gaussian, Inc. is engaged in the
 business of creating and licensing software in the field of
 computational chemistry and represents and warrants to the
 licensee that it is not a competitor of Gaussian, Inc. and that
 it will not use this program in any manner prohibited above.
 ---------------------------------------------------------------
  

 Cite this work as:
 Gaussian 09, Revision E.01,
 M. J. Frisch, G. W. Trucks, H. B. Schlegel, G. E. Scuseria, 
 M. A. Robb, J. R. Cheeseman, G. Scalmani, V. Barone, B. Mennucci, 
 G. A. Petersson, H. Nakatsuji, M. Caricato, X. Li, H. P. Hratchian, 
 A. F. Izmaylov, J. Bloino, G. Zheng, J. L. Sonnenberg, M. Hada, 
 M. Ehara, K. Toyota, R. Fukuda, J. Hasegawa, M. Ishida, T. Nakajima, 
 Y. Honda, O. Kitao, H. Nakai, T. Vreven, J. A. Montgomery, Jr., 
 J. E. Peralta, F. Ogliaro, M. Bearpark, J. J. Heyd, E. Brothers, 
 K. N. Kudin, V. N. Staroverov, T. Keith, R. Kobayashi, J. Normand, 
 K. Raghavachari, A. Rendell, J. C. Burant, S. S. Iyengar, J. Tomasi, 
 M. Cossi, N. Rega, J. M. Millam, M. Klene, J. E. Knox, J. B. Cross, 
 V. Bakken, C. Adamo, J. Jaramillo, R. Gomperts, R. E. Stratmann, 
 O. Yazyev, A. J. Austin, R. Cammi, C. Pomelli, J. W. Ochterski, 
 R. L. Martin, K. Morokuma, V. G. Zakrzewski, G. A. Voth, 
 P. Salvador, J. J. Dannenberg, S. Dapprich, A. D. Daniels, 
 O. Farkas, J. B. Foresman, J. V. Ortiz, J. Cioslowski, 
 and D. J. Fox, Gaussian, Inc., Wallingford CT, 2013.
 
 ******************************************
 Gaussian 09:  ES64L-G09RevE.01 30-Nov-2015
                14-Nov-2019 
 ******************************************
 %chk=NM2_carboxy.M062X_6-311pGd_opt_water_GD3.chk
 %mem=196608000
 %nproc=8
 Will use up to    8 processors via shared memory.
 ----------------------------------------------------------------------
 # M062X/6-311+G* SCF=Tight INT(grid=ultrafine) OPT IOP(2/17=4) Empiric
 alDispersion=GD3 SCRF=(SMD,Solvent=h2o) maxdisk=3221225472
 ----------------------------------------------------------------------
 1/14=-1,18=20,19=15,26=4,38=1/1,3;
 2/9=110,12=2,17=4,18=5,40=1/2;
 3/5=4,6=6,7=11,11=2,16=1,25=1,30=1,70=32201,71=1,72=1,74=-55,75=-5,124=31/1,2,3;
 4//1;
 5/5=2,32=2,38=5,53=1/2;
 6/7=2,8=2,9=2,10=2,28=1/1;
 7//1,2,3,16;
 1/14=-1,18=20,19=15,26=4/3(2);
 2/9=110,17=4/2;
 99//99;
 2/9=110,17=4/2;
 3/5=4,6=6,7=11,11=2,16=1,25=1,30=1,70=32205,71=1,72=1,74=-55,75=-5,124=31/1,2,3;
 4/5=5,16=3,69=1/1;
 5/5=2,32=2,38=5,53=1/2;
 7//1,2,3,16;
 1/14=-1,18=20,19=15,26=4/3(-5);
 2/9=110,17=4/2;
 6/7=2,8=2,9=2,10=2,19=2,28=1/1;
 99/9=1/99;
 ----------------------------------------
 NM2_carboxy.M062X_6-311pGd_opt_water_GD3
 ----------------------------------------
 Symbolic Z-matrix:
 Charge = -1 Multiplicity = 1
 C                    -5.9298    1.09187   0.31304 
 N                    -4.6906    0.47679   0.24224 
 C                    -3.45205   1.09471   0.23013 
 O                    -3.3063    2.32128   0.30757 
 N                    -2.41763   0.24162   0.13943 
 C                    -1.04634   0.73105   0.1369 
 C                    -0.0721   -0.43301   0.05096 
 C                     1.37039   0.05757   0.04554 
 C                    -6.15058   2.45054   0.04099 
 C                    -7.42892   2.98369   0.11506 
 C                    -8.52433   2.18357   0.46889 
 C                    -8.30156   0.83033   0.71133 
 C                    -7.03134   0.2899    0.63644 
 H                    -4.698    -0.5511    0.31482 
 H                    -2.57863  -0.76588   0.04996 
 H                    -0.86045   1.30879   1.04754 
 H                    -0.89637   1.40781  -0.71029 
 H                    -0.27612  -1.00938  -0.85686 
 H                    -0.23766  -1.10601   0.89807 
 H                     1.55858   0.71391  -0.80819 
 H                     2.07074  -0.77762  -0.01479 
 H                     1.59757   0.61937   0.9554 
 H                    -5.32293   3.08142  -0.23923 
 H                    -6.88333  -0.7654    0.83593 
 C                    -9.93373   2.69212   0.57141 
 C                    -7.56333   4.45808  -0.17931 
 H                    -9.13101   0.18615   0.97398 
 F                    -10.0144   3.89326   1.16866 
 F                    -10.70874   1.86229   1.28649 
 F                    -10.53405   2.81916  -0.62801 
 F                    -6.51141   4.93525  -0.85771 
 F                    -7.65358   5.19448   0.94231 
 F                    -8.64865   4.73792  -0.91806 
 O                    -4.82667  -2.36315   0.43259 
 O                    -2.69047  -2.63096  -0.13988 
 C                    -3.83437  -3.08294   0.11928 
 C                    -4.07269  -4.58782   0.06213 
 C                    -2.86556  -5.41712  -0.34704 
 H                    -4.90935  -4.75217  -0.62349 
 H                    -4.43558  -4.88944   1.04957 
 H                    -2.51194  -5.13926  -1.34195 
 H                    -3.11895  -6.4793   -0.36608 
 H                    -2.03677  -5.28316   0.35097 
 
 Add virtual bond connecting atoms O34        and H14        Dist= 3.44D+00.
 Add virtual bond connecting atoms O35        and H15        Dist= 3.55D+00.

 GradGradGradGradGradGradGradGradGradGradGradGradGradGradGradGradGradGrad
 Berny optimization.
 Initialization pass.
                           ----------------------------
                           !    Initial Parameters    !
                           ! (Angstroms and Degrees)  !
 --------------------------                            --------------------------
 ! Name  Definition              Value          Derivative Info.                !
 --------------------------------------------------------------------------------
 ! R1    R(1,2)                  1.3853         estimate D2E/DX2                !
 ! R2    R(1,9)                  1.4031         estimate D2E/DX2                !
 ! R3    R(1,13)                 1.4004         estimate D2E/DX2                !
 ! R4    R(2,3)                  1.3842         estimate D2E/DX2                !
 ! R5    R(2,14)                 1.0305         estimate D2E/DX2                !
 ! R6    R(3,4)                  1.2376         estimate D2E/DX2                !
 ! R7    R(3,5)                  1.3439         estimate D2E/DX2                !
 ! R8    R(5,6)                  1.456          estimate D2E/DX2                !
 ! R9    R(5,15)                 1.0242         estimate D2E/DX2                !
 ! R10   R(6,7)                  1.5204         estimate D2E/DX2                !
 ! R11   R(6,16)                 1.0944         estimate D2E/DX2                !
 ! R12   R(6,17)                 1.0946         estimate D2E/DX2                !
 ! R13   R(7,8)                  1.5236         estimate D2E/DX2                !
 ! R14   R(7,18)                 1.0945         estimate D2E/DX2                !
 ! R15   R(7,19)                 1.0945         estimate D2E/DX2                !
 ! R16   R(8,20)                 1.0932         estimate D2E/DX2                !
 ! R17   R(8,21)                 1.0916         estimate D2E/DX2                !
 ! R18   R(8,22)                 1.0932         estimate D2E/DX2                !
 ! R19   R(9,10)                 1.387          estimate D2E/DX2                !
 ! R20   R(9,23)                 1.0777         estimate D2E/DX2                !
 ! R21   R(10,11)                1.4019         estimate D2E/DX2                !
 ! R22   R(10,26)                1.5095         estimate D2E/DX2                !
 ! R23   R(11,12)                1.3927         estimate D2E/DX2                !
 ! R24   R(11,25)                1.5018         estimate D2E/DX2                !
 ! R25   R(12,13)                1.3824         estimate D2E/DX2                !
 ! R26   R(12,27)                1.0826         estimate D2E/DX2                !
 ! R27   R(13,24)                1.0841         estimate D2E/DX2                !
 ! R28   R(14,34)                1.8204         estimate D2E/DX2                !
 ! R29   R(15,35)                1.878          estimate D2E/DX2                !
 ! R30   R(25,28)                1.3439         estimate D2E/DX2                !
 ! R31   R(25,29)                1.3419         estimate D2E/DX2                !
 ! R32   R(25,30)                1.3473         estimate D2E/DX2                !
 ! R33   R(26,31)                1.3396         estimate D2E/DX2                !
 ! R34   R(26,32)                1.3448         estimate D2E/DX2                !
 ! R35   R(26,33)                1.3424         estimate D2E/DX2                !
 ! R36   R(34,36)                1.2653         estimate D2E/DX2                !
 ! R37   R(35,36)                1.257          estimate D2E/DX2                !
 ! R38   R(36,37)                1.5247         estimate D2E/DX2                !
 ! R39   R(37,38)                1.5206         estimate D2E/DX2                !
 ! R40   R(37,39)                1.0941         estimate D2E/DX2                !
 ! R41   R(37,40)                1.0944         estimate D2E/DX2                !
 ! R42   R(38,41)                1.0918         estimate D2E/DX2                !
 ! R43   R(38,42)                1.0922         estimate D2E/DX2                !
 ! R44   R(38,43)                1.0918         estimate D2E/DX2                !
 ! A1    A(2,1,9)              124.111          estimate D2E/DX2                !
 ! A2    A(2,1,13)             117.4635         estimate D2E/DX2                !
 ! A3    A(9,1,13)             118.394          estimate D2E/DX2                !
 ! A4    A(1,2,3)              127.0614         estimate D2E/DX2                !
 ! A5    A(1,2,14)             115.6504         estimate D2E/DX2                !
 ! A6    A(3,2,14)             116.8934         estimate D2E/DX2                !
 ! A7    A(2,3,4)              123.1786         estimate D2E/DX2                !
 ! A8    A(2,3,5)              113.9504         estimate D2E/DX2                !
 ! A9    A(4,3,5)              122.8681         estimate D2E/DX2                !
 ! A10   A(3,5,6)              120.7753         estimate D2E/DX2                !
 ! A11   A(3,5,15)             120.6205         estimate D2E/DX2                !
 ! A12   A(6,5,15)             118.591          estimate D2E/DX2                !
 ! A13   A(5,6,7)              110.2573         estimate D2E/DX2                !
 ! A14   A(5,6,16)             109.633          estimate D2E/DX2                !
 ! A15   A(5,6,17)             109.7666         estimate D2E/DX2                !
 ! A16   A(7,6,16)             110.0231         estimate D2E/DX2                !
 ! A17   A(7,6,17)             109.9878         estimate D2E/DX2                !
 ! A18   A(16,6,17)            107.1187         estimate D2E/DX2                !
 ! A19   A(6,7,8)              111.1209         estimate D2E/DX2                !
 ! A20   A(6,7,18)             109.3068         estimate D2E/DX2                !
 ! A21   A(6,7,19)             109.275          estimate D2E/DX2                !
 ! A22   A(8,7,18)             110.0651         estimate D2E/DX2                !
 ! A23   A(8,7,19)             110.1171         estimate D2E/DX2                !
 ! A24   A(18,7,19)            106.855          estimate D2E/DX2                !
 ! A25   A(7,8,20)             111.0427         estimate D2E/DX2                !
 ! A26   A(7,8,21)             111.1762         estimate D2E/DX2                !
 ! A27   A(7,8,22)             111.0545         estimate D2E/DX2                !
 ! A28   A(20,8,21)            107.803          estimate D2E/DX2                !
 ! A29   A(20,8,22)            107.7982         estimate D2E/DX2                !
 ! A30   A(21,8,22)            107.8103         estimate D2E/DX2                !
 ! A31   A(1,9,10)             120.4552         estimate D2E/DX2                !
 ! A32   A(1,9,23)             119.7621         estimate D2E/DX2                !
 ! A33   A(10,9,23)            119.7785         estimate D2E/DX2                !
 ! A34   A(9,10,11)            120.9465         estimate D2E/DX2                !
 ! A35   A(9,10,26)            116.557          estimate D2E/DX2                !
 ! A36   A(11,10,26)           122.4879         estimate D2E/DX2                !
 ! A37   A(10,11,12)           118.263          estimate D2E/DX2                !
 ! A38   A(10,11,25)           123.8655         estimate D2E/DX2                !
 ! A39   A(12,11,25)           117.8553         estimate D2E/DX2                !
 ! A40   A(11,12,13)           121.1567         estimate D2E/DX2                !
 ! A41   A(11,12,27)           119.859          estimate D2E/DX2                !
 ! A42   A(13,12,27)           118.981          estimate D2E/DX2                !
 ! A43   A(1,13,12)            120.7559         estimate D2E/DX2                !
 ! A44   A(1,13,24)            119.5072         estimate D2E/DX2                !
 ! A45   A(12,13,24)           119.7358         estimate D2E/DX2                !
 ! A46   A(11,25,28)           112.9127         estimate D2E/DX2                !
 ! A47   A(11,25,29)           111.653          estimate D2E/DX2                !
 ! A48   A(11,25,30)           112.9119         estimate D2E/DX2                !
 ! A49   A(28,25,29)           106.3337         estimate D2E/DX2                !
 ! A50   A(28,25,30)           106.5367         estimate D2E/DX2                !
 ! A51   A(29,25,30)           105.9846         estimate D2E/DX2                !
 ! A52   A(10,26,31)           112.1341         estimate D2E/DX2                !
 ! A53   A(10,26,32)           112.2217         estimate D2E/DX2                !
 ! A54   A(10,26,33)           112.5152         estimate D2E/DX2                !
 ! A55   A(31,26,32)           106.2619         estimate D2E/DX2                !
 ! A56   A(31,26,33)           106.3754         estimate D2E/DX2                !
 ! A57   A(32,26,33)           106.8925         estimate D2E/DX2                !
 ! A58   A(14,34,36)           119.657          estimate D2E/DX2                !
 ! A59   A(15,35,36)           112.9829         estimate D2E/DX2                !
 ! A60   A(34,36,35)           124.0702         estimate D2E/DX2                !
 ! A61   A(34,36,37)           116.6267         estimate D2E/DX2                !
 ! A62   A(35,36,37)           119.3031         estimate D2E/DX2                !
 ! A63   A(36,37,38)           115.1049         estimate D2E/DX2                !
 ! A64   A(36,37,39)           106.935          estimate D2E/DX2                !
 ! A65   A(36,37,40)           106.8599         estimate D2E/DX2                !
 ! A66   A(38,37,39)           110.8852         estimate D2E/DX2                !
 ! A67   A(38,37,40)           110.8362         estimate D2E/DX2                !
 ! A68   A(39,37,40)           105.6904         estimate D2E/DX2                !
 ! A69   A(37,38,41)           111.3159         estimate D2E/DX2                !
 ! A70   A(37,38,42)           110.5436         estimate D2E/DX2                !
 ! A71   A(37,38,43)           111.3251         estimate D2E/DX2                !
 ! A72   A(41,38,42)           107.8641         estimate D2E/DX2                !
 ! A73   A(41,38,43)           107.7867         estimate D2E/DX2                !
 ! A74   A(42,38,43)           107.8537         estimate D2E/DX2                !
 ! A75   L(2,14,34,7,-1)       183.6188         estimate D2E/DX2                !
 ! A76   L(5,15,35,7,-1)       174.3615         estimate D2E/DX2                !
 ! A77   L(2,14,34,7,-2)       180.5223         estimate D2E/DX2                !
 ! A78   L(5,15,35,7,-2)       180.6821         estimate D2E/DX2                !
 ! D1    D(9,1,2,3)             17.2001         estimate D2E/DX2                !
 ! D2    D(9,1,2,14)          -170.2876         estimate D2E/DX2                !
 ! D3    D(13,1,2,3)          -164.881          estimate D2E/DX2                !
 ! D4    D(13,1,2,14)            7.6312         estimate D2E/DX2                !
 ! D5    D(2,1,9,10)           178.9824         estimate D2E/DX2                !
 ! D6    D(2,1,9,23)            -0.263          estimate D2E/DX2                !
 ! D7    D(13,1,9,10)            1.0815         estimate D2E/DX2                !
 ! D8    D(13,1,9,23)         -178.1639         estimate D2E/DX2                !
 ! D9    D(2,1,13,12)         -179.2938         estimate D2E/DX2                !
 ! D10   D(2,1,13,24)            1.0817         estimate D2E/DX2                !
 ! D11   D(9,1,13,12)           -1.2525         estimate D2E/DX2                !
 ! D12   D(9,1,13,24)          179.123          estimate D2E/DX2                !
 ! D13   D(1,2,3,4)              1.3225         estimate D2E/DX2                !
 ! D14   D(1,2,3,5)           -179.2811         estimate D2E/DX2                !
 ! D15   D(14,2,3,4)          -171.1087         estimate D2E/DX2                !
 ! D16   D(14,2,3,5)             8.2877         estimate D2E/DX2                !
 ! D17   D(1,2,34,36)          165.644          estimate D2E/DX2                !
 ! D18   D(3,2,34,36)          -20.7859         estimate D2E/DX2                !
 ! D19   D(2,3,5,6)           -178.9794         estimate D2E/DX2                !
 ! D20   D(2,3,5,15)             2.3651         estimate D2E/DX2                !
 ! D21   D(4,3,5,6)              0.4191         estimate D2E/DX2                !
 ! D22   D(4,3,5,15)          -178.2364         estimate D2E/DX2                !
 ! D23   D(3,5,6,7)            178.9715         estimate D2E/DX2                !
 ! D24   D(3,5,6,16)            57.6957         estimate D2E/DX2                !
 ! D25   D(3,5,6,17)           -59.7099         estimate D2E/DX2                !
 ! D26   D(15,5,6,7)            -2.3462         estimate D2E/DX2                !
 ! D27   D(15,5,6,16)         -123.622          estimate D2E/DX2                !
 ! D28   D(15,5,6,17)          118.9725         estimate D2E/DX2                !
 ! D29   D(3,5,35,36)          -14.9537         estimate D2E/DX2                !
 ! D30   D(6,5,35,36)          166.8127         estimate D2E/DX2                !
 ! D31   D(5,6,7,8)            179.9433         estimate D2E/DX2                !
 ! D32   D(5,6,7,18)            58.2725         estimate D2E/DX2                !
 ! D33   D(5,6,7,19)           -58.342          estimate D2E/DX2                !
 ! D34   D(16,6,7,8)           -59.0136         estimate D2E/DX2                !
 ! D35   D(16,6,7,18)          179.3156         estimate D2E/DX2                !
 ! D36   D(16,6,7,19)           62.7012         estimate D2E/DX2                !
 ! D37   D(17,6,7,8)            58.7564         estimate D2E/DX2                !
 ! D38   D(17,6,7,18)          -62.9144         estimate D2E/DX2                !
 ! D39   D(17,6,7,19)         -179.5289         estimate D2E/DX2                !
 ! D40   D(6,7,8,20)           -60.0529         estimate D2E/DX2                !
 ! D41   D(6,7,8,21)           179.9237         estimate D2E/DX2                !
 ! D42   D(6,7,8,22)            59.8832         estimate D2E/DX2                !
 ! D43   D(18,7,8,20)           61.1743         estimate D2E/DX2                !
 ! D44   D(18,7,8,21)          -58.8491         estimate D2E/DX2                !
 ! D45   D(18,7,8,22)         -178.8896         estimate D2E/DX2                !
 ! D46   D(19,7,8,20)          178.7249         estimate D2E/DX2                !
 ! D47   D(19,7,8,21)           58.7015         estimate D2E/DX2                !
 ! D48   D(19,7,8,22)          -61.339          estimate D2E/DX2                !
 ! D49   D(1,9,10,11)            0.3536         estimate D2E/DX2                !
 ! D50   D(1,9,10,26)          179.3116         estimate D2E/DX2                !
 ! D51   D(23,9,10,11)         179.5989         estimate D2E/DX2                !
 ! D52   D(23,9,10,26)          -1.4431         estimate D2E/DX2                !
 ! D53   D(9,10,11,12)          -1.6112         estimate D2E/DX2                !
 ! D54   D(9,10,11,25)         179.887          estimate D2E/DX2                !
 ! D55   D(26,10,11,12)        179.4938         estimate D2E/DX2                !
 ! D56   D(26,10,11,25)          0.992          estimate D2E/DX2                !
 ! D57   D(9,10,26,31)          19.2391         estimate D2E/DX2                !
 ! D58   D(9,10,26,32)        -100.2813         estimate D2E/DX2                !
 ! D59   D(9,10,26,33)         139.1123         estimate D2E/DX2                !
 ! D60   D(11,10,26,31)       -161.8204         estimate D2E/DX2                !
 ! D61   D(11,10,26,32)         78.6592         estimate D2E/DX2                !
 ! D62   D(11,10,26,33)        -41.9472         estimate D2E/DX2                !
 ! D63   D(10,11,12,13)          1.4459         estimate D2E/DX2                !
 ! D64   D(10,11,12,27)       -179.221          estimate D2E/DX2                !
 ! D65   D(25,11,12,13)       -179.9612         estimate D2E/DX2                !
 ! D66   D(25,11,12,27)         -0.6281         estimate D2E/DX2                !
 ! D67   D(10,11,25,28)        -42.0424         estimate D2E/DX2                !
 ! D68   D(10,11,25,29)       -161.7981         estimate D2E/DX2                !
 ! D69   D(10,11,25,30)         78.8968         estimate D2E/DX2                !
 ! D70   D(12,11,25,28)        139.4502         estimate D2E/DX2                !
 ! D71   D(12,11,25,29)         19.6945         estimate D2E/DX2                !
 ! D72   D(12,11,25,30)        -99.6107         estimate D2E/DX2                !
 ! D73   D(11,12,13,1)          -0.019          estimate D2E/DX2                !
 ! D74   D(11,12,13,24)        179.6046         estimate D2E/DX2                !
 ! D75   D(27,12,13,1)        -179.3578         estimate D2E/DX2                !
 ! D76   D(27,12,13,24)          0.2658         estimate D2E/DX2                !
 ! D77   D(14,34,36,35)          8.0259         estimate D2E/DX2                !
 ! D78   D(14,34,36,37)       -172.0197         estimate D2E/DX2                !
 ! D79   D(15,35,36,34)          2.2483         estimate D2E/DX2                !
 ! D80   D(15,35,36,37)       -177.705          estimate D2E/DX2                !
 ! D81   D(34,36,37,38)        178.7269         estimate D2E/DX2                !
 ! D82   D(34,36,37,39)         55.0714         estimate D2E/DX2                !
 ! D83   D(34,36,37,40)        -57.7385         estimate D2E/DX2                !
 ! D84   D(35,36,37,38)         -1.3164         estimate D2E/DX2                !
 ! D85   D(35,36,37,39)       -124.9719         estimate D2E/DX2                !
 ! D86   D(35,36,37,40)        122.2183         estimate D2E/DX2                !
 ! D87   D(36,37,38,41)        -59.9934         estimate D2E/DX2                !
 ! D88   D(36,37,38,42)       -179.8533         estimate D2E/DX2                !
 ! D89   D(36,37,38,43)         60.294          estimate D2E/DX2                !
 ! D90   D(39,37,38,41)         61.5453         estimate D2E/DX2                !
 ! D91   D(39,37,38,42)        -58.3146         estimate D2E/DX2                !
 ! D92   D(39,37,38,43)       -178.1673         estimate D2E/DX2                !
 ! D93   D(40,37,38,41)        178.6059         estimate D2E/DX2                !
 ! D94   D(40,37,38,42)         58.746          estimate D2E/DX2                !
 ! D95   D(40,37,38,43)        -61.1067         estimate D2E/DX2                !
 --------------------------------------------------------------------------------
 Trust Radius=3.00D-01 FncErr=1.00D-07 GrdErr=1.00D-06
 Number of steps in this run=    227 maximum allowed number of steps=    258.
 GradGradGradGradGradGradGradGradGradGradGradGradGradGradGradGradGradGrad

                          Input orientation:                          
 ---------------------------------------------------------------------
 Center     Atomic      Atomic             Coordinates (Angstroms)
 Number     Number       Type             X           Y           Z
 ---------------------------------------------------------------------
      1          6           0       -5.929801    1.091868    0.313042
      2          7           0       -4.690600    0.476790    0.242235
      3          6           0       -3.452049    1.094711    0.230133
      4          8           0       -3.306304    2.321278    0.307573
      5          7           0       -2.417633    0.241622    0.139427
      6          6           0       -1.046339    0.731047    0.136904
      7          6           0       -0.072101   -0.433012    0.050956
      8          6           0        1.370393    0.057572    0.045543
      9          6           0       -6.150580    2.450544    0.040993
     10          6           0       -7.428923    2.983691    0.115059
     11          6           0       -8.524330    2.183570    0.468891
     12          6           0       -8.301564    0.830329    0.711327
     13          6           0       -7.031345    0.289903    0.636438
     14          1           0       -4.697997   -0.551099    0.314819
     15          1           0       -2.578629   -0.765879    0.049957
     16          1           0       -0.860451    1.308789    1.047543
     17          1           0       -0.896374    1.407813   -0.710286
     18          1           0       -0.276125   -1.009382   -0.856856
     19          1           0       -0.237659   -1.106009    0.898066
     20          1           0        1.558576    0.713908   -0.808186
     21          1           0        2.070736   -0.777622   -0.014794
     22          1           0        1.597569    0.619374    0.955396
     23          1           0       -5.322927    3.081420   -0.239229
     24          1           0       -6.883329   -0.765395    0.835929
     25          6           0       -9.933725    2.692118    0.571411
     26          6           0       -7.563326    4.458076   -0.179308
     27          1           0       -9.131011    0.186147    0.973980
     28          9           0      -10.014397    3.893259    1.168664
     29          9           0      -10.708739    1.862288    1.286493
     30          9           0      -10.534051    2.819159   -0.628014
     31          9           0       -6.511409    4.935253   -0.857707
     32          9           0       -7.653585    5.194482    0.942315
     33          9           0       -8.648653    4.737918   -0.918056
     34          8           0       -4.826674   -2.363149    0.432586
     35          8           0       -2.690472   -2.630957   -0.139878
     36          6           0       -3.834368   -3.082940    0.119281
     37          6           0       -4.072695   -4.587816    0.062126
     38          6           0       -2.865564   -5.417118   -0.347043
     39          1           0       -4.909352   -4.752173   -0.623491
     40          1           0       -4.435582   -4.889442    1.049572
     41          1           0       -2.511941   -5.139258   -1.341949
     42          1           0       -3.118946   -6.479300   -0.366084
     43          1           0       -2.036765   -5.283156    0.350970
 ---------------------------------------------------------------------
                    Distance matrix (angstroms):
                    1          2          3          4          5
     1  C    0.000000
     2  N    1.385264   0.000000
     3  C    2.479141   1.384190   0.000000
     4  O    2.897278   2.307094   1.237621   0.000000
     5  N    3.617787   2.287411   1.343876   2.267813   0.000000
     6  C    4.899941   3.654637   2.434827   2.768646   1.456019
     7  C    6.058597   4.711141   3.713501   4.255823   2.442228
     8  C    7.377951   6.078656   4.936159   5.202356   3.793656
     9  C    1.403123   2.463280   3.025910   2.859665   4.338654
    10  C    2.421891   3.714720   4.404205   4.179934   5.712492
    11  C    2.819163   4.202614   5.193328   5.222336   6.416499
    12  C    2.419151   3.658428   4.880496   5.228630   5.940899
    13  C    1.400404   2.381053   3.691092   4.255651   4.640656
    14  H    2.053457   1.030474   2.065974   3.191772   2.420584
    15  H    3.840676   2.457969   2.063279   3.182202   1.024198
    16  H    5.126876   4.001348   2.725870   2.748615   2.094836
    17  H    5.146107   4.021225   2.741148   2.770959   2.096722
    18  H    6.143938   4.785843   3.961722   4.650933   2.672761
    19  H    6.129715   4.771168   3.952418   4.638055   2.672813
    20  H    7.581280   6.341278   5.131226   5.243626   4.114762
    21  H    8.222595   6.881517   5.836675   6.214472   4.605225
    22  H    7.569490   6.330086   5.123533   5.231072   4.114651
    23  H    2.152119   2.723186   2.769025   2.223416   4.080265
    24  H    2.152221   2.589123   3.949769   4.754138   4.630512
    25  C    4.319602   5.701439   6.684333   6.643030   7.917271
    26  C    3.773879   4.927565   5.327520   4.788026   6.660197
    27  H    3.391890   4.509676   5.799087   6.239399   6.765279
    28  F    5.026311   6.393227   7.195632   6.943422   8.491442
    29  F    4.937550   6.263233   7.373237   7.480976   8.525536
    30  F    5.006819   6.355309   7.339270   7.305035   8.550374
    31  F    4.059622   4.939952   5.029200   4.296912   6.307413
    32  F    4.494313   5.614803   5.913394   5.249481   7.251941
    33  F    4.711840   5.930402   6.449495   5.990243   7.756323
    34  O    3.628819   2.849562   3.726577   4.926562   3.560092
    35  O    4.955584   3.715455   3.820668   5.010398   2.898993
    36  C    4.675191   3.663322   4.196573   5.433220   3.613897
    37  C    5.980854   5.105337   5.718788   6.955801   5.105749
    38  C    7.224414   6.198076   6.563612   7.778531   5.697247
    39  H    6.005933   5.304657   6.085923   7.312342   5.632823
    40  H    6.208964   5.432611   6.119551   7.336232   5.588228
    41  H    7.297102   6.228659   6.497508   7.681896   5.581867
    42  H    8.104610   7.157327   7.604740   8.828312   6.776295
    43  H    7.469813   6.342841   6.534127   7.709800   5.541929
                    6          7          8          9         10
     6  C    0.000000
     7  C    1.520382   0.000000
     8  C    2.510480   1.523644   0.000000
     9  C    5.386942   6.727771   7.892488   0.000000
    10  C    6.768476   8.111769   9.273347   1.387045   0.000000
    11  C    7.624984   8.857841  10.129394   2.426738   1.401894
    12  C    7.278606   8.352016   9.725593   2.775099   2.398751
    13  C    6.021996   7.021144   8.425695   2.408042   2.772435
    14  H    3.874294   4.634919   6.104780   3.345869   4.471309
    15  H    2.143889   2.528534   4.033964   4.806692   6.130976
    16  H    1.094352   2.156050   2.747037   5.504745   6.842489
    17  H    1.094638   2.155819   2.744569   5.409103   6.770435
    18  H    2.147063   1.094509   2.159568   6.876514   8.249351
    19  H    2.146650   1.094499   2.160219   6.953149   8.309816
    20  H    2.771114   2.170866   1.093181   7.947836   9.315549
    21  H    3.466302   2.171366   1.091637   8.832565  10.218017
    22  H    2.769955   2.171020   1.093189   8.013934   9.368763
    23  H    4.894377   6.325078   7.350189   1.077748   2.137825
    24  H    6.066171   6.864364   8.332221   3.392802   3.856550
    25  C    9.111543  10.358037  11.618969   3.827778   2.562675
    26  C    7.514110   8.949537   9.961241   2.464664   1.509479
    27  H    8.146136   9.126839  10.543150   3.857580   3.385424
    28  F    9.565049  10.900235  12.065957   4.275762   2.936336
    29  F    9.796083  10.951394  12.276090   4.761736   3.658824
    30  F    9.744844  10.976794  12.239110   4.449524   3.197037
    31  F    6.966462   8.432594   9.312918   2.666766   2.365735
    32  F    8.014152   9.483781  10.422294   3.255856   2.371164
    33  F    8.658125  10.061547  11.100244   3.520258   2.373263
    34  O    4.894120   5.145584   6.664333   5.007765   5.954933
    35  O    3.752712   3.423922   4.873724   6.150342   7.351339
    36  C    4.724395   4.602329   6.079291   5.999201   7.051586
    37  C    6.120026   5.767778   7.155914   7.338703   8.282197
    38  C    6.429908   5.727403   6.933230   8.534752   9.571383
    39  H    6.750316   6.519894   7.938290   7.339027   8.169289
    40  H    6.626449   6.316404   7.693527   7.604856   8.474646
    41  H    6.228601   5.481036   6.633603   8.529790   9.606347
    42  H    7.519162   6.783420   7.940674   9.439207  10.409400
    43  H    6.098967   5.241546   6.342349   8.765254   9.872780
                   11         12         13         14         15
    11  C    0.000000
    12  C    1.392717   0.000000
    13  C    2.417240   1.382434   0.000000
    14  H    4.705632   3.879595   2.501047   0.000000
    15  H    6.650271   5.978065   4.613601   2.146625   0.000000
    16  H    7.735317   7.464055   6.267940   4.326988   2.872553
    17  H    7.757446   7.562493   6.379754   4.397785   2.851822
    18  H    8.943458   8.381611   7.039252   4.597369   2.486590
    19  H    8.926054   8.295230   6.940547   4.532408   2.512990
    20  H   10.269169   9.977215   8.720864   6.481210   4.476902
    21  H   11.011723  10.521281   9.187578   6.780538   4.649831
    22  H   10.253596   9.904388   8.641090   6.435410   4.492146
    23  H    3.399493   3.852693   3.387927   3.727291   4.734607
    24  H    3.394701   2.138516   1.084140   2.256803   4.375865
    25  C    1.501841   2.479876   3.768113   6.164182   8.144144
    26  C    2.552855   3.807726   4.280433   5.791900   7.224228
    27  H    2.147760   1.082562   2.129155   4.541987   6.685348
    28  F    2.373398   3.538996   4.708082   6.981796   8.845886
    29  F    2.354429   2.681464   4.051937   6.549627   8.633363
    30  F    2.376163   3.276169   4.501658   6.804932   8.752192
    31  F    3.658343   4.745200   4.907350   5.896045   6.985236
    32  F    3.169846   4.418039   4.953346   6.491606   7.878920
    33  F    2.909256   4.247895   4.981663   6.715754   8.250697
    34  O    5.860600   4.727669   3.455549   1.820427   2.784130
    35  O    7.588423   6.647510   5.289354   2.926212   1.878047
    36  C    7.060744   5.968252   4.675916   2.682221   2.636372
    37  C    8.113826   6.903701   5.733724   4.092669   4.103606
    38  C    9.510932   8.348702   7.133797   5.241566   4.676961
    39  H    7.897208   6.667321   5.613627   4.309770   4.666513
    40  H    8.190394   6.912019   5.808122   4.407941   4.631552
    41  H    9.646335   8.565725   7.335859   5.345552   4.590021
    42  H   10.245032   9.025022   7.882514   6.172568   5.753974
    43  H    9.892138   8.760836   7.489079   5.429164   4.559607
                   16         17         18         19         20
    16  H    0.000000
    17  H    1.760983   0.000000
    18  H    3.056483   2.499805   0.000000
    19  H    2.498292   3.056142   1.758000   0.000000
    20  H    3.106334   2.553012   2.517583   3.074061   0.000000
    21  H    3.751470   3.750144   2.504103   2.503964   1.765345
    22  H    2.554535   3.100949   3.073732   2.519582   1.766545
    23  H    4.971086   4.755757   6.525820   6.684904   7.299582
    24  H    6.373546   6.554178   6.824969   6.654684   8.726811
    25  C    9.190463   9.217695  10.440800  10.418550  11.742640
    26  C    7.506777   7.350802   9.135397   9.262029   9.880454
    27  H    8.346730   8.493437   9.120870   8.987055  10.849974
    28  F    9.512564   9.635675  11.089299  10.984102  12.163466
    29  F    9.866724  10.023781  11.030860  10.890601  12.497739
    30  F    9.933138   9.740815  10.951490  11.124368  12.275837
    31  F    6.979581   6.632736   8.614956   8.884793   9.107518
    32  F    7.826643   7.920218   9.805706   9.731090  10.392483
    33  F    8.733761   8.439822  10.155512  10.401663  10.972340
    34  O    5.439874   5.565391   4.919639   4.780809   7.195778
    35  O    4.503392   4.455987   2.995436   3.069053   5.448777
    36  C    5.384527   5.430180   4.232444   4.177449   6.660337
    37  C    6.786715   6.828851   5.297515   5.246835   7.783118
    38  C    7.155639   7.112618   5.137435   5.200177   7.574639
    39  H    7.478049   7.352344   5.960683   6.118363   8.470316
    40  H    7.155392   7.434952   5.999201   5.653307   8.413009
    41  H    7.072086   6.772976   4.721236   5.143649   7.149375
    42  H    8.231250   8.201516   6.184052   6.226729   8.591677
    43  H    6.732211   6.869922   4.777430   4.580901   7.087658
                   21         22         23         24         25
    21  H    0.000000
    22  H    1.765434   0.000000
    23  H    8.343190   7.441912   0.000000
    24  H    8.994396   8.594039   4.288217   0.000000
    25  C   12.509589  11.722391   4.697676   4.618363   0.000000
    26  C   10.966072   9.997259   2.630240   5.364490   3.049751
    27  H   11.286526  10.737340   4.935179   2.444702   2.662010
    28  F   13.010309  12.066547   4.964991   5.622931   1.343860
    29  F   13.114018  12.373346   5.728969   4.662777   1.341867
    30  F   13.122253  12.430706   5.232184   5.321647   1.347276
    31  F   10.344113   9.363209   2.287292   5.958534   4.334314
    32  F   11.451834  10.320641   3.360513   6.010387   3.405648
    33  F   12.088935  11.200772   3.776936   6.039808   2.838172
    34  O    7.091425   7.102089   5.508260   2.635400   7.187278
    35  O    5.110733   5.491045   6.290543   4.691756   9.016971
    36  C    6.340561   6.626625   6.351666   3.896250   8.411770
    37  C    7.229470   7.750139   7.776314   4.807217   9.359940
    38  C    6.782505   7.619392   8.847338   6.259423  10.796396
    39  H    8.055383   8.584080   7.853908   4.681975   9.060330
    40  H    7.769949   8.170363   8.122993   4.800507   9.377540
    41  H    6.464219   7.438260   8.757692   6.556132  10.957841
    42  H    7.717858   8.624558   9.812287   6.947239  11.464511
    43  H    6.107797   6.957987   9.006293   6.643383  11.225665
                   26         27         28         29         30
    26  C    0.000000
    27  H    4.694367   0.000000
    28  F    2.853733   3.815881   0.000000
    29  F    4.333626   2.323001   2.149614   0.000000
    30  F    3.422366   3.386393   2.156799   2.147430   0.000000
    31  F    1.339572   5.724631   4.178858   5.626570   4.551072
    32  F    1.344796   5.221801   2.705152   4.533867   4.050330
    33  F    1.342384   4.952886   2.633079   4.168122   2.705639
    34  O    7.375147   5.031833   8.160694   7.292610   7.781731
    35  O    8.602363   7.117394   9.895329   9.301419   9.563669
    36  C    8.417910   6.282665   9.378769   8.548371   8.959854
    37  C    9.699018   7.014896  10.414263   9.334880   9.853359
    38  C   10.936935   8.508673  11.835805  10.824674  11.257037
    39  H    9.595288   6.690391  10.198862   9.001779   9.431984
    40  H    9.933228   6.914794  10.405440   9.219246   9.971367
    41  H   10.907660   8.805428  12.007347  11.095849  11.322560
    42  H   11.807353   9.075731  12.549608  11.398160  11.895954
    43  H   11.212300   8.979407  12.186789  11.275447  11.781756
                   31         32         33         34         35
    31  F    0.000000
    32  F    2.147520   0.000000
    33  F    2.147182   2.158608   0.000000
    34  O    7.600650   8.085112   8.176607   0.000000
    35  O    8.506608   9.329583   9.508196   2.227733   0.000000
    36  C    8.509553   9.153115   9.242252   1.265279   1.256961
    37  C    9.873311  10.454226  10.434052   2.377996   2.404297
    38  C   10.987473  11.712969  11.700210   3.712209   2.799334
    39  H    9.821796  10.436403  10.204457   2.613345   3.107550
    40  H   10.221126  10.585488  10.691472   2.629787   3.092080
    41  H   10.850163  11.766076  11.636044   4.026630   2.787189
    42  H   11.918160  12.591745  12.518319   4.527351   3.878725
    43  H   11.220483  11.902909  12.072672   4.039392   2.775324
                   36         37         38         39         40
    36  C    0.000000
    37  C    1.524702   0.000000
    38  C    2.569907   1.520633   0.000000
    39  H    2.119821   1.094112   2.166944   0.000000
    40  H    2.119044   1.094402   2.166548   1.744260   0.000000
    41  H    2.848236   2.170592   1.091830   2.532508   3.079314
    42  H    3.504664   2.161184   1.092152   2.500956   2.503051
    43  H    2.850615   2.170700   1.091822   3.079492   2.529304
                   41         42         43
    41  H    0.000000
    42  H    1.765355   0.000000
    43  H    1.764219   1.765232   0.000000
 Stoichiometry    C15H17F6N2O3(1-)
 Framework group  C1[X(C15H17F6N2O3)]
 Deg. of freedom   123
 Full point group                 C1      NOp   1
 Largest Abelian subgroup         C1      NOp   1
 Largest concise Abelian subgroup C1      NOp   1
                         Standard orientation:                         
 ---------------------------------------------------------------------
 Center     Atomic      Atomic             Coordinates (Angstroms)
 Number     Number       Type             X           Y           Z
 ---------------------------------------------------------------------
      1          6           0       -0.309198    0.148240   -0.116490
      2          7           0        1.049633   -0.120413   -0.097541
      3          6           0        1.655580   -1.362503   -0.175149
      4          8           0        1.022176   -2.418569   -0.298552
      5          7           0        2.997520   -1.319410   -0.117325
      6          6           0        3.786695   -2.539637   -0.208101
      7          6           0        5.270161   -2.213263   -0.142008
      8          6           0        6.115152   -3.477786   -0.233996
      9          6           0       -1.304361   -0.810798    0.125690
     10          6           0       -2.644418   -0.453258    0.108247
     11          6           0       -3.034990    0.866602   -0.157702
     12          6           0       -2.040777    1.818375   -0.370612
     13          6           0       -0.702706    1.471486   -0.351660
     14          1           0        1.667759    0.703098   -0.137860
     15          1           0        3.485755   -0.428438    0.012199
     16          1           0        3.558130   -3.056491   -1.145238
     17          1           0        3.515925   -3.217189    0.607889
     18          1           0        5.483437   -1.686325    0.793299
     19          1           0        5.526275   -1.529242   -0.957145
     20          1           0        5.887295   -4.162723    0.586971
     21          1           0        7.180545   -3.244354   -0.187977
     22          1           0        5.929047   -4.007108   -1.172211
     23          1           0       -1.024949   -1.829673    0.338673
     24          1           0        0.051957    2.229922   -0.526638
     25          6           0       -4.464717    1.324850   -0.195307
     26          6           0       -3.640970   -1.557747    0.364205
     27          1           0       -2.313043    2.847846   -0.565549
     28          9           0       -5.275909    0.457091   -0.823733
     29          9           0       -4.592769    2.495208   -0.839102
     30          9           0       -4.986224    1.517484    1.031915
     31          9           0       -3.079627   -2.614448    0.966476
     32          9           0       -4.190664   -2.020303   -0.772614
     33          9           0       -4.652227   -1.164653    1.154668
     34          8           0        2.666042    2.224425   -0.192177
     35          8           0        4.537823    1.106504    0.265513
     36          6           0        3.899327    2.174245    0.086069
     37          6           0        4.628267    3.508288    0.203091
     38          6           0        6.101085    3.408874    0.568124
     39          1           0        4.083229    4.105706    0.940048
     40          1           0        4.498085    4.026001   -0.752284
     41          1           0        6.238593    2.915178    1.532203
     42          1           0        6.547510    4.403419    0.634322
     43          1           0        6.658073    2.841050   -0.179817
 ---------------------------------------------------------------------
 Rotational constants (GHZ):      0.3005238      0.0846548      0.0683082
 Standard basis: 6-311+G(d) (5D, 7F)
 There are   649 symmetry adapted cartesian basis functions of A   symmetry.
 There are   623 symmetry adapted basis functions of A   symmetry.
   623 basis functions,  1021 primitive gaussians,   649 cartesian basis functions
   100 alpha electrons      100 beta electrons
       nuclear repulsion energy      2462.5638778599 Hartrees.
 NAtoms=   43 NActive=   43 NUniq=   43 SFac= 1.00D+00 NAtFMM=   60 NAOKFM=F Big=F
 Integral buffers will be    131072 words long.
 Raffenetti 2 integral format.
 Two-electron integral symmetry is turned on.
 Nuclear repulsion after empirical dispersion term =     2462.5612614878 Hartrees.
 ------------------------------------------------------------------------------
 Polarizable Continuum Model (PCM)
 =================================
 Model                : PCM (using non-symmetric T matrix).
 Atomic radii         : SMD-Coulomb.
 Polarization charges : Total charges.
 Charge compensation  : None.
 Solution method      : On-the-fly selection.
 Cavity type          : VdW (van der Waals Surface) (Alpha=1.000).
 Cavity algorithm     : GePol (No added spheres)
                        Default sphere list used, NSphG=   43.
                        Lebedev-Laikov grids with approx.  5.0 points / Ang**2.
                        Smoothing algorithm: York/Karplus (Gamma=1.0000).
                        Polarization charges: spherical gaussians, with
                                              point-specific exponents (IZeta= 3).
                        Self-potential: point-specific (ISelfS= 7).
                        Self-field    : sphere-specific E.n sum rule (ISelfD= 2).
 1st derivatives      : Analytical E(r).r(x)/FMM algorithm (CHGder, D1EAlg=3).
                        Cavity 1st derivative terms included.
 Solvent              : Water, Eps=  78.355300 Eps(inf)=   1.777849
 ------------------------------------------------------------------------------
 ------------------------------------------------------------------------------
 Atomic radii for non-electrostatic terms: SMD-CDS.
 ------------------------------------------------------------------------------
 Nuclear repulsion after PCM non-electrostatic terms =     2462.5782807525 Hartrees.
 One-electron integrals computed using PRISM.
 NBasis=   623 RedAO= T EigKep=  1.07D-06  NBF=   623
 NBsUse=   621 1.00D-06 EigRej=  7.55D-07 NBFU=   621
 ExpMin= 4.38D-02 ExpMax= 1.14D+04 ExpMxC= 1.72D+03 IAcc=3 IRadAn=         5 AccDes= 0.00D+00
 Harris functional with IExCor= 1009 and IRadAn=       5 diagonalized for initial guess.
 HarFok:  IExCor= 1009 AccDes= 0.00D+00 IRadAn=         5 IDoV= 1 UseB2=F ITyADJ=14
 ICtDFT=  3500011 ScaDFX=  1.000000  1.000000  1.000000  1.000000
 FoFCou: FMM=F IPFlag=           0 FMFlag=      100000 FMFlg1=           0
         NFxFlg=           0 DoJE=T BraDBF=F KetDBF=T FulRan=T
         wScrn=  0.000000 ICntrl=     500 IOpCl=  0 I1Cent=   200000004 NGrid=           0
         NMat0=    1 NMatS0=      1 NMatT0=    0 NMatD0=    1 NMtDS0=    0 NMtDT0=    0
 Petite list used in FoFCou.
 Requested convergence on RMS density matrix=1.00D-08 within 128 cycles.
 Requested convergence on MAX density matrix=1.00D-06.
 Requested convergence on             energy=1.00D-06.
 No special actions if energy rises.
 Inv3:  Mode=1 IEnd=    30470907.
 Iteration    1 A*A^-1 deviation from unit magnitude is 6.00D-15 for    784.
 Iteration    1 A*A^-1 deviation from orthogonality  is 6.66D-15 for   3187   2094.
 Iteration    1 A^-1*A deviation from unit magnitude is 7.66D-15 for   1190.
 Iteration    1 A^-1*A deviation from orthogonality  is 2.49D-11 for   2487   2459.
 Error on total polarization charges =  0.05997
 SCF Done:  E(RM062X) =  -1516.19605361     A.U. after   15 cycles
            NFock= 15  Conv=0.53D-08     -V/T= 2.0031
 SMD-CDS (non-electrostatic) energy       (kcal/mol) =      10.68
 (included in total energy above)

 **********************************************************************

            Population analysis using the SCF density.

 **********************************************************************

 Orbital symmetries:
       Occupied  (A) (A) (A) (A) (A) (A) (A) (A) (A) (A) (A) (A)
                 (A) (A) (A) (A) (A) (A) (A) (A) (A) (A) (A) (A)
                 (A) (A) (A) (A) (A) (A) (A) (A) (A) (A) (A) (A)
                 (A) (A) (A) (A) (A) (A) (A) (A) (A) (A) (A) (A)
                 (A) (A) (A) (A) (A) (A) (A) (A) (A) (A) (A) (A)
                 (A) (A) (A) (A) (A) (A) (A) (A) (A) (A) (A) (A)
                 (A) (A) (A) (A) (A) (A) (A) (A) (A) (A) (A) (A)
                 (A) (A) (A) (A) (A) (A) (A) (A) (A) (A) (A) (A)
                 (A) (A) (A) (A)
       Virtual   (A) (A) (A) (A) (A) (A) (A) (A) (A) (A) (A) (A)
                 (A) (A) (A) (A) (A) (A) (A) (A) (A) (A) (A) (A)
                 (A) (A) (A) (A) (A) (A) (A) (A) (A) (A) (A) (A)
                 (A) (A) (A) (A) (A) (A) (A) (A) (A) (A) (A) (A)
                 (A) (A) (A) (A) (A) (A) (A) (A) (A) (A) (A) (A)
                 (A) (A) (A) (A) (A) (A) (A) (A) (A) (A) (A) (A)
                 (A) (A) (A) (A) (A) (A) (A) (A) (A) (A) (A) (A)
                 (A) (A) (A) (A) (A) (A) (A) (A) (A) (A) (A) (A)
                 (A) (A) (A) (A) (A) (A) (A) (A) (A) (A) (A) (A)
                 (A) (A) (A) (A) (A) (A) (A) (A) (A) (A) (A) (A)
                 (A) (A) (A) (A) (A) (A) (A) (A) (A) (A) (A) (A)
                 (A) (A) (A) (A) (A) (A) (A) (A) (A) (A) (A) (A)
                 (A) (A) (A) (A) (A) (A) (A) (A) (A) (A) (A) (A)
                 (A) (A) (A) (A) (A) (A) (A) (A) (A) (A) (A) (A)
                 (A) (A) (A) (A) (A) (A) (A) (A) (A) (A) (A) (A)
                 (A) (A) (A) (A) (A) (A) (A) (A) (A) (A) (A) (A)
                 (A) (A) (A) (A) (A) (A) (A) (A) (A) (A) (A) (A)
                 (A) (A) (A) (A) (A) (A) (A) (A) (A) (A) (A) (A)
                 (A) (A) (A) (A) (A) (A) (A) (A) (A) (A) (A) (A)
                 (A) (A) (A) (A) (A) (A) (A) (A) (A) (A) (A) (A)
                 (A) (A) (A) (A) (A) (A) (A) (A) (A) (A) (A) (A)
                 (A) (A) (A) (A) (A) (A) (A) (A) (A) (A) (A) (A)
                 (A) (A) (A) (A) (A) (A) (A) (A) (A) (A) (A) (A)
                 (A) (A) (A) (A) (A) (A) (A) (A) (A) (A) (A) (A)
                 (A) (A) (A) (A) (A) (A) (A) (A) (A) (A) (A) (A)
                 (A) (A) (A) (A) (A) (A) (A) (A) (A) (A) (A) (A)
                 (A) (A) (A) (A) (A) (A) (A) (A) (A) (A) (A) (A)
                 (A) (A) (A) (A) (A) (A) (A) (A) (A) (A) (A) (A)
                 (A) (A) (A) (A) (A) (A) (A) (A) (A) (A) (A) (A)
                 (A) (A) (A) (A) (A) (A) (A) (A) (A) (A) (A) (A)
                 (A) (A) (A) (A) (A) (A) (A) (A) (A) (A) (A) (A)
                 (A) (A) (A) (A) (A) (A) (A) (A) (A) (A) (A) (A)
                 (A) (A) (A) (A) (A) (A) (A) (A) (A) (A) (A) (A)
                 (A) (A) (A) (A) (A) (A) (A) (A) (A) (A) (A) (A)
                 (A) (A) (A) (A) (A) (A) (A) (A) (A) (A) (A) (A)
                 (A) (A) (A) (A) (A) (A) (A) (A) (A) (A) (A) (A)
                 (A) (A) (A) (A) (A) (A) (A) (A) (A) (A) (A) (A)
                 (A) (A) (A) (A) (A) (A) (A) (A) (A) (A) (A) (A)
                 (A) (A) (A) (A) (A) (A) (A) (A) (A) (A) (A) (A)
                 (A) (A) (A) (A) (A) (A) (A) (A) (A) (A) (A) (A)
                 (A) (A) (A) (A) (A) (A) (A) (A) (A) (A) (A) (A)
                 (A) (A) (A) (A) (A) (A) (A) (A) (A) (A) (A) (A)
                 (A) (A) (A) (A) (A) (A) (A) (A) (A) (A) (A) (A)
                 (A) (A) (A) (A) (A)
 The electronic state is 1-A.
 Alpha  occ. eigenvalues --  -25.28672 -25.28625 -25.28499 -25.28435 -25.28330
 Alpha  occ. eigenvalues --  -25.28077 -19.59416 -19.57931 -19.57623 -14.77492
 Alpha  occ. eigenvalues --  -14.75616 -10.81407 -10.81221 -10.67679 -10.63880
 Alpha  occ. eigenvalues --  -10.61225 -10.59386 -10.58407 -10.56749 -10.56226
 Alpha  occ. eigenvalues --  -10.56137 -10.55697 -10.52688 -10.52469 -10.51548
 Alpha  occ. eigenvalues --  -10.51354  -1.48204  -1.47671  -1.38768  -1.38400
 Alpha  occ. eigenvalues --   -1.38262  -1.37991  -1.17964  -1.16705  -1.06880
 Alpha  occ. eigenvalues --   -1.05978  -1.02673  -0.99184  -0.90245  -0.89699
 Alpha  occ. eigenvalues --   -0.87296  -0.85740  -0.82925  -0.81251  -0.77717
 Alpha  occ. eigenvalues --   -0.74649  -0.73813  -0.72228  -0.70790  -0.70555
 Alpha  occ. eigenvalues --   -0.70270  -0.69779  -0.68943  -0.68086  -0.67156
 Alpha  occ. eigenvalues --   -0.64953  -0.62670  -0.59689  -0.59011  -0.58912
 Alpha  occ. eigenvalues --   -0.58778  -0.58129  -0.58019  -0.55898  -0.55568
 Alpha  occ. eigenvalues --   -0.55201  -0.54634  -0.54047  -0.53613  -0.53326
 Alpha  occ. eigenvalues --   -0.52911  -0.52856  -0.52620  -0.52189  -0.51978
 Alpha  occ. eigenvalues --   -0.51921  -0.51332  -0.50149  -0.50043  -0.48962
 Alpha  occ. eigenvalues --   -0.47443  -0.46412  -0.46347  -0.45193  -0.44990
 Alpha  occ. eigenvalues --   -0.44327  -0.43093  -0.41778  -0.41454  -0.39722
 Alpha  occ. eigenvalues --   -0.39544  -0.39469  -0.38680  -0.35978  -0.34018
 Alpha  occ. eigenvalues --   -0.33581  -0.32918  -0.32505  -0.32430  -0.27994
 Alpha virt. eigenvalues --   -0.01670   0.00020   0.01443   0.02317   0.02638
 Alpha virt. eigenvalues --    0.03222   0.03291   0.03592   0.04275   0.04593
 Alpha virt. eigenvalues --    0.04716   0.05007   0.05420   0.05856   0.06380
 Alpha virt. eigenvalues --    0.06537   0.07013   0.07016   0.07236   0.07693
 Alpha virt. eigenvalues --    0.08032   0.08577   0.08724   0.09064   0.09343
 Alpha virt. eigenvalues --    0.09563   0.09865   0.10073   0.10431   0.11125
 Alpha virt. eigenvalues --    0.11716   0.12002   0.12292   0.12466   0.12741
 Alpha virt. eigenvalues --    0.13072   0.13640   0.14036   0.14421   0.14964
 Alpha virt. eigenvalues --    0.15468   0.16085   0.16355   0.16556   0.16759
 Alpha virt. eigenvalues --    0.17516   0.17733   0.17969   0.18378   0.18808
 Alpha virt. eigenvalues --    0.18874   0.19902   0.20150   0.20551   0.20700
 Alpha virt. eigenvalues --    0.20868   0.21019   0.21552   0.21836   0.21945
 Alpha virt. eigenvalues --    0.22224   0.22376   0.22821   0.23056   0.23572
 Alpha virt. eigenvalues --    0.23885   0.24065   0.24522   0.24620   0.24818
 Alpha virt. eigenvalues --    0.25292   0.25477   0.25759   0.26261   0.26506
 Alpha virt. eigenvalues --    0.26543   0.26639   0.27129   0.27413   0.27434
 Alpha virt. eigenvalues --    0.27710   0.28088   0.28276   0.28423   0.28869
 Alpha virt. eigenvalues --    0.29224   0.29450   0.29790   0.30034   0.30246
 Alpha virt. eigenvalues --    0.30658   0.30995   0.31317   0.31793   0.32156
 Alpha virt. eigenvalues --    0.32719   0.32790   0.33008   0.33301   0.33359
 Alpha virt. eigenvalues --    0.33886   0.34082   0.34381   0.34798   0.35162
 Alpha virt. eigenvalues --    0.35608   0.35924   0.36619   0.36847   0.37051
 Alpha virt. eigenvalues --    0.37253   0.37659   0.38324   0.38438   0.38641
 Alpha virt. eigenvalues --    0.38947   0.39485   0.39985   0.40248   0.40777
 Alpha virt. eigenvalues --    0.41119   0.41420   0.42290   0.42651   0.42868
 Alpha virt. eigenvalues --    0.43903   0.44078   0.44278   0.44843   0.45066
 Alpha virt. eigenvalues --    0.45133   0.45349   0.45894   0.46511   0.47484
 Alpha virt. eigenvalues --    0.48234   0.48620   0.49272   0.49738   0.49867
 Alpha virt. eigenvalues --    0.50016   0.51140   0.51787   0.51963   0.52737
 Alpha virt. eigenvalues --    0.53088   0.54029   0.54528   0.55253   0.55586
 Alpha virt. eigenvalues --    0.55919   0.56581   0.56972   0.57692   0.58335
 Alpha virt. eigenvalues --    0.58940   0.60267   0.60813   0.61137   0.61493
 Alpha virt. eigenvalues --    0.62430   0.63296   0.63861   0.64085   0.65194
 Alpha virt. eigenvalues --    0.66124   0.67138   0.67652   0.67976   0.69408
 Alpha virt. eigenvalues --    0.69561   0.69911   0.70387   0.70556   0.70911
 Alpha virt. eigenvalues --    0.71499   0.71657   0.72747   0.72927   0.73703
 Alpha virt. eigenvalues --    0.73947   0.74076   0.74385   0.75348   0.75649
 Alpha virt. eigenvalues --    0.76361   0.76600   0.77331   0.77724   0.78556
 Alpha virt. eigenvalues --    0.79433   0.79802   0.80072   0.80323   0.80903
 Alpha virt. eigenvalues --    0.81110   0.82043   0.82589   0.82834   0.83268
 Alpha virt. eigenvalues --    0.85534   0.87035   0.88331   0.88925   0.90415
 Alpha virt. eigenvalues --    0.91828   0.93084   0.93800   0.95470   0.95967
 Alpha virt. eigenvalues --    0.96329   0.96746   0.98074   0.98892   1.00152
 Alpha virt. eigenvalues --    1.00611   1.03346   1.04270   1.05412   1.05732
 Alpha virt. eigenvalues --    1.06265   1.07184   1.07781   1.08992   1.10702
 Alpha virt. eigenvalues --    1.11739   1.13326   1.14225   1.14954   1.15111
 Alpha virt. eigenvalues --    1.16477   1.17135   1.17265   1.18804   1.19161
 Alpha virt. eigenvalues --    1.19969   1.22216   1.23122   1.24031   1.24663
 Alpha virt. eigenvalues --    1.25185   1.27523   1.27879   1.29341   1.30381
 Alpha virt. eigenvalues --    1.31309   1.32577   1.35615   1.37220   1.39239
 Alpha virt. eigenvalues --    1.39409   1.39809   1.40575   1.41824   1.43248
 Alpha virt. eigenvalues --    1.43437   1.45032   1.45918   1.46918   1.47910
 Alpha virt. eigenvalues --    1.48319   1.48873   1.49532   1.50129   1.50804
 Alpha virt. eigenvalues --    1.51096   1.51607   1.52180   1.53057   1.53197
 Alpha virt. eigenvalues --    1.54014   1.55223   1.55286   1.56168   1.57226
 Alpha virt. eigenvalues --    1.57738   1.57953   1.58860   1.59120   1.60016
 Alpha virt. eigenvalues --    1.60052   1.60950   1.61895   1.62444   1.62873
 Alpha virt. eigenvalues --    1.62931   1.63710   1.64323   1.64702   1.65661
 Alpha virt. eigenvalues --    1.67291   1.68441   1.70306   1.71127   1.74007
 Alpha virt. eigenvalues --    1.76017   1.76883   1.77258   1.78519   1.78875
 Alpha virt. eigenvalues --    1.79314   1.79549   1.80741   1.80967   1.81655
 Alpha virt. eigenvalues --    1.82517   1.83740   1.84627   1.85706   1.86094
 Alpha virt. eigenvalues --    1.88320   1.88896   1.89371   1.90930   1.91452
 Alpha virt. eigenvalues --    1.92776   1.96453   1.97071   1.97566   2.00187
 Alpha virt. eigenvalues --    2.00783   2.01914   2.03879   2.04170   2.05173
 Alpha virt. eigenvalues --    2.05407   2.10212   2.11214   2.12105   2.12424
 Alpha virt. eigenvalues --    2.15087   2.16888   2.17701   2.17854   2.18557
 Alpha virt. eigenvalues --    2.21623   2.23430   2.25467   2.26753   2.28960
 Alpha virt. eigenvalues --    2.34174   2.36293   2.38018   2.40648   2.41365
 Alpha virt. eigenvalues --    2.43135   2.43606   2.46716   2.50600   2.54568
 Alpha virt. eigenvalues --    2.56079   2.56409   2.57127   2.57444   2.59431
 Alpha virt. eigenvalues --    2.60456   2.60625   2.61248   2.62266   2.63570
 Alpha virt. eigenvalues --    2.66377   2.67207   2.68497   2.70516   2.72907
 Alpha virt. eigenvalues --    2.74151   2.75183   2.82021   2.83246   2.85832
 Alpha virt. eigenvalues --    2.86740   2.87969   2.90354   2.91735   2.93318
 Alpha virt. eigenvalues --    2.95618   2.97271   2.97788   2.98185   2.99089
 Alpha virt. eigenvalues --    2.99430   3.00567   3.01170   3.02731   3.05131
 Alpha virt. eigenvalues --    3.05334   3.06340   3.08593   3.09494   3.10132
 Alpha virt. eigenvalues --    3.11805   3.14682   3.15041   3.16717   3.18771
 Alpha virt. eigenvalues --    3.21598   3.25412   3.25519   3.26692   3.27641
 Alpha virt. eigenvalues --    3.30720   3.31554   3.31678   3.35264   3.36956
 Alpha virt. eigenvalues --    3.38861   3.40142   3.40537   3.41036   3.41822
 Alpha virt. eigenvalues --    3.43383   3.45178   3.45829   3.49994   3.54310
 Alpha virt. eigenvalues --    3.60416   3.62499   3.70127   3.71983   3.72268
 Alpha virt. eigenvalues --    3.75697   3.80091   3.80269   3.80620   3.82835
 Alpha virt. eigenvalues --    3.83906   3.84086   3.84770   3.85147   3.85796
 Alpha virt. eigenvalues --    3.86001   3.87234   3.88078   3.88479   3.88747
 Alpha virt. eigenvalues --    3.89020   3.90972   3.94579   3.99315   4.00523
 Alpha virt. eigenvalues --    4.00778   4.00903   4.01175   4.01858   4.05537
 Alpha virt. eigenvalues --    4.05780   4.08355   4.12318   4.14250   4.20744
 Alpha virt. eigenvalues --    4.21412   4.22574   4.22811   4.27061   4.27939
 Alpha virt. eigenvalues --    4.30049   4.31875   4.63997   4.67311   4.73967
 Alpha virt. eigenvalues --    4.79919   4.82511   4.92913   4.98880   4.98989
 Alpha virt. eigenvalues --    5.01732   5.02883   5.18728   5.19760   5.20732
 Alpha virt. eigenvalues --    5.23886   5.39505   5.41800   5.43886   5.74875
 Alpha virt. eigenvalues --    5.90142   6.01919   6.46940   6.48376   6.49930
 Alpha virt. eigenvalues --    6.50283   6.51192   6.53418   6.54053   6.55188
 Alpha virt. eigenvalues --    6.55841   6.56331   6.58519   6.62878   6.63280
 Alpha virt. eigenvalues --    6.64075   6.87659   6.88892   6.89285   6.91128
 Alpha virt. eigenvalues --   23.47112  23.61520  23.63670  23.64908  23.66313
 Alpha virt. eigenvalues --   23.76352  23.81759  23.83318  23.93874  23.94296
 Alpha virt. eigenvalues --   23.95678  23.99318  24.09111  24.13609  24.21013
 Alpha virt. eigenvalues --   35.64742  35.74253  50.06613  50.15008  50.15464
 Alpha virt. eigenvalues --   66.89651  66.89916  66.90774  66.91338  66.95980
 Alpha virt. eigenvalues --   66.98393
          Condensed to atoms (all electrons):
               1          2          3          4          5          6
     1  C   33.531236  -0.246533  -0.373913  -0.043010  -0.201524  -0.485897
     2  N   -0.246533   8.020718   0.431394  -0.129335  -0.511802  -0.510698
     3  C   -0.373913   0.431394   8.512699   0.635166   0.271054  -1.324867
     4  O   -0.043010  -0.129335   0.635166   8.306791  -0.163214  -0.124992
     5  N   -0.201524  -0.511802   0.271054  -0.163214   7.831027   0.501965
     6  C   -0.485897  -0.510698  -1.324867  -0.124992   0.501965   8.898453
     7  C   -0.018332   0.051551   0.298891   0.025832  -0.059078  -1.095499
     8  C   -0.017533  -0.019911  -0.282735  -0.002376  -0.044202   0.437021
     9  C   -4.708503   0.157408  -0.488962   0.066759  -0.077920  -0.270822
    10  C   -6.977199   0.092327  -0.199642   0.014577   0.067958  -0.027574
    11  C   -2.116123  -0.041227  -1.478806  -0.035010  -0.020983  -0.107889
    12  C   -2.203407   0.061423   0.525883   0.002374  -0.065158   0.023982
    13  C   -3.013172  -0.113738  -0.703896  -0.020070  -0.127802  -0.105182
    14  H    0.031371   0.141889  -0.019202  -0.003851   0.037830   0.024006
    15  H   -0.029953   0.045882  -0.018477  -0.008320   0.152239  -0.009091
    16  H   -0.000793   0.014537   0.094357   0.001670  -0.059449   0.301748
    17  H    0.012063  -0.002477  -0.014550  -0.001339  -0.051575   0.460514
    18  H   -0.000322   0.000154   0.013604  -0.000167   0.008636  -0.081750
    19  H    0.000425  -0.001598  -0.006628  -0.000321   0.009948  -0.060752
    20  H   -0.000034  -0.000020  -0.000425  -0.000024   0.000358  -0.043913
    21  H    0.000144   0.000013   0.006710   0.000014  -0.001591   0.087090
    22  H   -0.000107  -0.000038  -0.004036  -0.000038   0.000431  -0.036975
    23  H    0.063993  -0.016612   0.050971  -0.004303   0.001808   0.004981
    24  H    0.042693  -0.026917  -0.004766  -0.000017   0.000136  -0.000333
    25  C    0.545956   0.004650  -0.224217  -0.003999   0.003705  -0.003487
    26  C   -6.883779   0.026376   0.126817   0.017483   0.011797   0.009153
    27  H    0.018343  -0.002118   0.001608  -0.000014  -0.000044   0.000013
    28  F    0.001653   0.000175   0.001720  -0.000001   0.000005   0.000012
    29  F    0.011141  -0.000016  -0.000296   0.000000   0.000001  -0.000003
    30  F   -0.018811  -0.000046  -0.001156  -0.000002   0.000002  -0.000002
    31  F    0.347597  -0.000875   0.005194  -0.000297  -0.000168  -0.000125
    32  F    0.029970   0.000452  -0.001346   0.000095  -0.000014  -0.000073
    33  F    0.033130   0.000471  -0.000883  -0.000037   0.000012   0.000006
    34  O   -0.190690   0.019846  -0.018520  -0.001285  -0.039074  -0.003544
    35  O    0.004354  -0.029444  -0.031113  -0.000355  -0.014462   0.037033
    36  C    0.204158  -0.001452  -0.000815  -0.000613   0.018585   0.012538
    37  C   -0.145712  -0.020782  -0.032448  -0.000794  -0.042483   0.038282
    38  C    0.008732  -0.001400   0.000995   0.000028   0.007261  -0.009423
    39  H   -0.000367   0.000373  -0.000506   0.000000   0.000246  -0.000034
    40  H    0.001801   0.000144   0.000296   0.000000  -0.000008  -0.000478
    41  H   -0.000198  -0.000005  -0.000106  -0.000000   0.000017  -0.000170
    42  H    0.000055   0.000011   0.000085   0.000000  -0.000045  -0.000010
    43  H    0.000016   0.000067  -0.000160  -0.000000   0.000048   0.000482
               7          8          9         10         11         12
     1  C   -0.018332  -0.017533  -4.708503  -6.977199  -2.116123  -2.203407
     2  N    0.051551  -0.019911   0.157408   0.092327  -0.041227   0.061423
     3  C    0.298891  -0.282735  -0.488962  -0.199642  -1.478806   0.525883
     4  O    0.025832  -0.002376   0.066759   0.014577  -0.035010   0.002374
     5  N   -0.059078  -0.044202  -0.077920   0.067958  -0.020983  -0.065158
     6  C   -1.095499   0.437021  -0.270822  -0.027574  -0.107889   0.023982
     7  C    6.653792  -0.495421   0.007087  -0.004028  -0.001349   0.000351
     8  C   -0.495421   6.655941   0.002572   0.002513  -0.000983  -0.001097
     9  C    0.007087   0.002572  22.617617   7.343457 -11.219675  -2.819868
    10  C   -0.004028   0.002513   7.343457  47.442028 -20.797862  -3.359759
    11  C   -0.001349  -0.000983 -11.219675 -20.797862  55.578174  -4.720789
    12  C    0.000351  -0.001097  -2.819868  -3.359759  -4.720789  26.103492
    13  C    0.010832  -0.007772  -4.895356 -10.000451  -1.203315  -6.816565
    14  H   -0.004756   0.000069  -0.010475  -0.007322   0.021890  -0.004229
    15  H   -0.031921   0.006214  -0.011182  -0.003558  -0.000677   0.000956
    16  H   -0.008008  -0.024759   0.014801   0.001163   0.000503  -0.000390
    17  H   -0.044212  -0.014923  -0.017716  -0.000528  -0.000095   0.000228
    18  H    0.458756  -0.071638   0.001185   0.000027   0.000035  -0.000036
    19  H    0.451230  -0.063744  -0.001851  -0.000083  -0.000009   0.000083
    20  H    0.044978   0.343188  -0.000074  -0.000011  -0.000000   0.000002
    21  H   -0.160157   0.418234   0.000021   0.000001   0.000000  -0.000001
    22  H    0.026965   0.357740  -0.000034  -0.000004   0.000000   0.000001
    23  H   -0.000241   0.000045   0.353885  -0.071050  -0.010050  -0.013918
    24  H    0.000021  -0.000001  -0.018166   0.033887  -0.003887   0.008523
    25  C   -0.000233  -0.000028  -2.422457   3.937597  -6.491613  -3.229268
    26  C    0.000024   0.000362   2.235852 -10.113449  -0.454810   2.155764
    27  H    0.000001   0.000000   0.003562  -0.015515  -0.050374   0.275708
    28  F   -0.000000   0.000000   0.062369  -0.438203   0.219487   0.160603
    29  F    0.000000  -0.000000  -0.006338  -0.042761  -0.187628   0.065094
    30  F   -0.000000  -0.000000  -0.020987  -0.107243   0.182715  -0.082502
    31  F    0.000004  -0.000001   0.245204  -0.478622  -0.083309   0.013421
    32  F   -0.000001  -0.000000  -0.055101   0.298774  -0.165299  -0.007967
    33  F   -0.000000   0.000000   0.011144   0.193353  -0.267408  -0.004594
    34  O   -0.003803   0.000107  -0.010666  -0.002114  -0.005445   0.021975
    35  O   -0.001382   0.010869  -0.010349  -0.000801  -0.000359  -0.002558
    36  C   -0.003325  -0.015179  -0.007536  -0.010679  -0.018334  -0.152264
    37  C   -0.023351   0.005562  -0.065542  -0.020923   0.024103   0.098415
    38  C    0.006595  -0.004652   0.002260   0.000613  -0.000953  -0.003957
    39  H   -0.000225  -0.000028   0.000011  -0.000012   0.000048   0.000057
    40  H    0.000710   0.000049   0.000189   0.000034  -0.000091  -0.000842
    41  H    0.000689   0.000307  -0.000030  -0.000003   0.000001   0.000009
    42  H   -0.000066   0.000003   0.000005   0.000000  -0.000001  -0.000015
    43  H   -0.000263  -0.000092  -0.000006  -0.000001   0.000002   0.000002
              13         14         15         16         17         18
     1  C   -3.013172   0.031371  -0.029953  -0.000793   0.012063  -0.000322
     2  N   -0.113738   0.141889   0.045882   0.014537  -0.002477   0.000154
     3  C   -0.703896  -0.019202  -0.018477   0.094357  -0.014550   0.013604
     4  O   -0.020070  -0.003851  -0.008320   0.001670  -0.001339  -0.000167
     5  N   -0.127802   0.037830   0.152239  -0.059449  -0.051575   0.008636
     6  C   -0.105182   0.024006  -0.009091   0.301748   0.460514  -0.081750
     7  C    0.010832  -0.004756  -0.031921  -0.008008  -0.044212   0.458756
     8  C   -0.007772   0.000069   0.006214  -0.024759  -0.014923  -0.071638
     9  C   -4.895356  -0.010475  -0.011182   0.014801  -0.017716   0.001185
    10  C  -10.000451  -0.007322  -0.003558   0.001163  -0.000528   0.000027
    11  C   -1.203315   0.021890  -0.000677   0.000503  -0.000095   0.000035
    12  C   -6.816565  -0.004229   0.000956  -0.000390   0.000228  -0.000036
    13  C   33.338869  -0.063702   0.010261  -0.002375   0.002917  -0.000295
    14  H   -0.063702   0.278469   0.017471  -0.000269   0.000170   0.000043
    15  H    0.010261   0.017471   0.309290   0.002747   0.000523   0.001729
    16  H   -0.002375  -0.000269   0.002747   0.442171  -0.047850   0.005665
    17  H    0.002917   0.000170   0.000523  -0.047850   0.444075  -0.008404
    18  H   -0.000295   0.000043   0.001729   0.005665  -0.008404   0.444938
    19  H    0.000945   0.000051   0.000866  -0.008708   0.005865  -0.040000
    20  H    0.000027   0.000000  -0.000046  -0.000663   0.003140  -0.007954
    21  H   -0.000008   0.000000  -0.000035  -0.000046  -0.000017  -0.003923
    22  H    0.000015   0.000000  -0.000024   0.002875  -0.000768   0.006502
    23  H   -0.038183  -0.000230   0.000043  -0.000028   0.000027  -0.000000
    24  H    0.259343   0.010364  -0.000096   0.000001  -0.000000  -0.000000
    25  C   -3.120050   0.002316  -0.000107   0.000011  -0.000004   0.000001
    26  C    1.943723  -0.004551  -0.000186  -0.000113   0.000079  -0.000004
    27  H    0.113706  -0.000051   0.000001  -0.000000  -0.000000   0.000000
    28  F    0.086127   0.000002  -0.000000  -0.000000   0.000000   0.000000
    29  F    0.216869  -0.000001  -0.000000   0.000000  -0.000000   0.000000
    30  F   -0.003570   0.000002  -0.000000   0.000000  -0.000000   0.000000
    31  F   -0.006128  -0.000003  -0.000000   0.000000  -0.000001   0.000000
    32  F   -0.015432  -0.000003  -0.000000   0.000000  -0.000000  -0.000000
    33  F    0.005511   0.000000   0.000000  -0.000000   0.000000  -0.000000
    34  O    0.230343   0.048512   0.019599  -0.000022  -0.000040   0.000158
    35  O    0.006568   0.011545   0.053426  -0.000269  -0.000158  -0.001929
    36  C   -0.058270  -0.007449  -0.003483  -0.000299   0.000238   0.002446
    37  C    0.098804   0.017946   0.026812  -0.000296  -0.000033  -0.000833
    38  C   -0.003892  -0.000518  -0.003614   0.000059   0.000016   0.000945
    39  H    0.001262  -0.000314  -0.000083   0.000000   0.000000   0.000002
    40  H   -0.001620  -0.000036   0.000009   0.000000   0.000000  -0.000000
    41  H    0.000108   0.000006  -0.000111  -0.000000   0.000000  -0.000040
    42  H   -0.000076  -0.000002   0.000030  -0.000000  -0.000000   0.000000
    43  H    0.000056  -0.000016  -0.000161  -0.000000  -0.000000  -0.000017
              19         20         21         22         23         24
     1  C    0.000425  -0.000034   0.000144  -0.000107   0.063993   0.042693
     2  N   -0.001598  -0.000020   0.000013  -0.000038  -0.016612  -0.026917
     3  C   -0.006628  -0.000425   0.006710  -0.004036   0.050971  -0.004766
     4  O   -0.000321  -0.000024   0.000014  -0.000038  -0.004303  -0.000017
     5  N    0.009948   0.000358  -0.001591   0.000431   0.001808   0.000136
     6  C   -0.060752  -0.043913   0.087090  -0.036975   0.004981  -0.000333
     7  C    0.451230   0.044978  -0.160157   0.026965  -0.000241   0.000021
     8  C   -0.063744   0.343188   0.418234   0.357740   0.000045  -0.000001
     9  C   -0.001851  -0.000074   0.000021  -0.000034   0.353885  -0.018166
    10  C   -0.000083  -0.000011   0.000001  -0.000004  -0.071050   0.033887
    11  C   -0.000009  -0.000000   0.000000   0.000000  -0.010050  -0.003887
    12  C    0.000083   0.000002  -0.000001   0.000001  -0.013918   0.008523
    13  C    0.000945   0.000027  -0.000008   0.000015  -0.038183   0.259343
    14  H    0.000051   0.000000   0.000000   0.000000  -0.000230   0.010364
    15  H    0.000866  -0.000046  -0.000035  -0.000024   0.000043  -0.000096
    16  H   -0.008708  -0.000663  -0.000046   0.002875  -0.000028   0.000001
    17  H    0.005865   0.003140  -0.000017  -0.000768   0.000027  -0.000000
    18  H   -0.040000  -0.007954  -0.003923   0.006502  -0.000000  -0.000000
    19  H    0.444006   0.006532  -0.003984  -0.007588   0.000000  -0.000000
    20  H    0.006532   0.446580  -0.024140  -0.036688  -0.000000   0.000000
    21  H   -0.003984  -0.024140   0.426003  -0.024119   0.000000   0.000000
    22  H   -0.007588  -0.036688  -0.024119   0.446948  -0.000000  -0.000000
    23  H    0.000000  -0.000000   0.000000  -0.000000   0.344626  -0.000037
    24  H   -0.000000   0.000000   0.000000  -0.000000  -0.000037   0.353224
    25  C   -0.000000   0.000000   0.000000   0.000000   0.009589   0.010303
    26  C   -0.000001  -0.000001   0.000000  -0.000000  -0.018626   0.001406
    27  H   -0.000000  -0.000000  -0.000000   0.000000   0.000042  -0.002998
    28  F    0.000000   0.000000   0.000000  -0.000000   0.000002   0.000021
    29  F   -0.000000  -0.000000   0.000000  -0.000000   0.000010   0.000008
    30  F   -0.000000  -0.000000  -0.000000   0.000000   0.000005   0.000039
    31  F   -0.000000  -0.000000  -0.000000   0.000000   0.013081  -0.000003
    32  F   -0.000000  -0.000000   0.000000  -0.000000  -0.000529  -0.000002
    33  F    0.000000   0.000000  -0.000000  -0.000000   0.000745  -0.000003
    34  O   -0.000092   0.000000  -0.000001  -0.000001   0.000020   0.003974
    35  O   -0.002646   0.000027  -0.000067  -0.000007   0.000003   0.000382
    36  C    0.002704   0.000079  -0.000184   0.000145   0.000081   0.005030
    37  C   -0.000702  -0.000033   0.000158  -0.000022   0.000027  -0.003090
    38  C    0.001002   0.000018  -0.000074   0.000026   0.000000  -0.000028
    39  H    0.000001   0.000000  -0.000000   0.000000   0.000000  -0.000023
    40  H    0.000002   0.000000  -0.000000   0.000000  -0.000000   0.000007
    41  H   -0.000011  -0.000000   0.000000  -0.000000   0.000000  -0.000000
    42  H    0.000000  -0.000000  -0.000000  -0.000000  -0.000000  -0.000000
    43  H   -0.000032  -0.000000   0.000001  -0.000000   0.000000  -0.000000
              25         26         27         28         29         30
     1  C    0.545956  -6.883779   0.018343   0.001653   0.011141  -0.018811
     2  N    0.004650   0.026376  -0.002118   0.000175  -0.000016  -0.000046
     3  C   -0.224217   0.126817   0.001608   0.001720  -0.000296  -0.001156
     4  O   -0.003999   0.017483  -0.000014  -0.000001   0.000000  -0.000002
     5  N    0.003705   0.011797  -0.000044   0.000005   0.000001   0.000002
     6  C   -0.003487   0.009153   0.000013   0.000012  -0.000003  -0.000002
     7  C   -0.000233   0.000024   0.000001  -0.000000   0.000000  -0.000000
     8  C   -0.000028   0.000362   0.000000   0.000000  -0.000000  -0.000000
     9  C   -2.422457   2.235852   0.003562   0.062369  -0.006338  -0.020987
    10  C    3.937597 -10.113449  -0.015515  -0.438203  -0.042761  -0.107243
    11  C   -6.491613  -0.454810  -0.050374   0.219487  -0.187628   0.182715
    12  C   -3.229268   2.155764   0.275708   0.160603   0.065094  -0.082502
    13  C   -3.120050   1.943723   0.113706   0.086127   0.216869  -0.003570
    14  H    0.002316  -0.004551  -0.000051   0.000002  -0.000001   0.000002
    15  H   -0.000107  -0.000186   0.000001  -0.000000  -0.000000  -0.000000
    16  H    0.000011  -0.000113  -0.000000  -0.000000   0.000000   0.000000
    17  H   -0.000004   0.000079  -0.000000   0.000000  -0.000000  -0.000000
    18  H    0.000001  -0.000004   0.000000   0.000000   0.000000   0.000000
    19  H   -0.000000  -0.000001  -0.000000   0.000000  -0.000000  -0.000000
    20  H    0.000000  -0.000001  -0.000000   0.000000  -0.000000  -0.000000
    21  H    0.000000   0.000000  -0.000000   0.000000   0.000000  -0.000000
    22  H    0.000000  -0.000000   0.000000  -0.000000  -0.000000   0.000000
    23  H    0.009589  -0.018626   0.000042   0.000002   0.000010   0.000005
    24  H    0.010303   0.001406  -0.002998   0.000021   0.000008   0.000039
    25  C   23.671576  -7.916072  -0.041826  -0.227664   0.049444   0.199915
    26  C   -7.916072  23.357781   0.013401   0.289544   0.039851   0.009896
    27  H   -0.041826   0.013401   0.357973   0.000618   0.008224  -0.000810
    28  F   -0.227664   0.289544   0.000618   9.000170  -0.022129  -0.038108
    29  F    0.049444   0.039851   0.008224  -0.022129   9.032031  -0.041580
    30  F    0.199915   0.009896  -0.000810  -0.038108  -0.041580   8.978654
    31  F    0.019654   0.089140   0.000006   0.001551   0.000079   0.000164
    32  F   -0.003338   0.096274   0.000001   0.003439   0.000127  -0.000814
[...]
 195,0.00000101,-0.00000068,0.00000184,-0.00000019,0.00000090,0.0000004
 8,-0.00000024,-0.00000008,0.00000019,-0.00000045,-0.00000034,0.0000008
 6,-0.00000055,0.00000049,0.00096090,-0.00108337,0.00051807,0.00000993,
 0.00000464,-0.00057024,0.00081370,0.00272739,-0.00032670,-0.12973517,-
 0.02865966,-0.15235255,0.00878560,0.00213454,0.00714218,0.14021190,0.0
 3055615,0.16290131,0.00003054,0.00000497,0.00000247,0.00001868,0.00007
 868,0.00002547,-0.00011053,0.00001321,0.00000907,0.00002892,-0.0000125
 3,-0.00000663,0.00002426,-0.00013558,-0.00000502,0.00001914,-0.0000033
 7,0.00000213,-0.00000257,0.00000098,0.00000536,0.00000080,-0.00000027,
 -0.00000217,-0.00000797,0.00000385,-0.00000348,0.00000183,0.00000276,0
 .00000031,-0.00000335,0.00000078,-0.00000253,0.00000202,-0.00000077,0.
 00000099,-0.00000273,-0.00000767,-0.00000201,-0.00001075,-0.00018073,-
 0.00004175,-0.00000329,0.00018111,-0.00001195,-0.00000335,-0.00000326,
 -0.00000110,-0.00000381,-0.00000215,0.00000036,0.00000105,0.00000272,-
 0.00000249,-0.00000181,0.00000134,0.00000115,-0.00000027,-0.00000023,0
 .00000011,-0.00000043,-0.00000014,0.00000036,-0.00000064,-0.00000084,-
 0.00000051,-0.00000006,-0.00000014,0.00000030,0.00000302,-0.00000122,0
 .00000030,0.00000534,-0.00000044,0.00000126,-0.00000026,-0.00000331,0.
 00000169,-0.00000021,0.00000062,0.00000031,-0.00000099,0.00000052,0.,-
 0.00000140,-0.00000039,0.00000034,-0.00000186,0.00000039,-0.00000111,0
 .00000040,0.00000074,-0.00000061,-0.00000011,0.00000095,0.00000003,-0.
 00000086,0.00000101,-0.00000089,-0.00025395,0.00237725,-0.00076129,-0.
 00044373,-0.00222872,-0.00136802,-0.00465199,-0.00370458,0.00744003,-0
 .07130344,-0.02280507,0.07934646,-0.00897740,-0.00724502,0.02426487,0.
 00826990,0.00810812,-0.02208054,0.07900241,-0.00004725,0.00002526,0.00
 000031,0.00006726,-0.00000468,0.00004748,-0.00017827,0.00010071,0.0000
 3159,0.00003486,-0.00012325,-0.00002579,0.00006491,-0.00037582,0.00001
 841,0.00007134,-0.00000056,0.00000493,-0.00001175,-0.00000054,-0.00001
 217,0.00000394,-0.00000016,0.00000326,0.00000991,-0.00001328,-0.000001
 84,-0.00000555,-0.00000057,0.00000094,0.00001036,-0.00000385,-0.000003
 53,-0.00000468,0.00000267,0.00000025,0.00001420,-0.00000027,-0.0000023
 6,-0.00002862,0.00012531,-0.00008785,0.00001934,0.00062196,-0.00006132
 ,-0.00001459,-0.00000902,-0.00000288,-0.00001512,-0.00001143,0.0000023
 7,0.00000171,0.00000390,-0.00000581,-0.00000423,0.00000038,0.00000986,
 -0.00000206,-0.00000229,0.00000097,-0.00000361,0.00000016,0.,-0.000001
 90,-0.00000177,-0.00000134,-0.00000092,0.00000223,0.00000022,-0.000007
 45,0.00000406,0.00000145,-0.00001084,0.00000318,0.00000258,-0.00000027
 ,0.00000662,0.00000182,0.00000113,-0.00000013,0.00000022,0.00000227,-0
 .00000282,-0.00000116,0.00000279,0.00000104,-0.00000125,0.00000366,-0.
 00000104,0.00000134,-0.00000041,-0.00000173,0.00000021,0.00000012,-0.0
 0000248,-0.00000200,0.00000110,-0.00000179,0.00000079,-0.00016455,0.00
 007144,-0.00374818,-0.00372707,-0.00545236,-0.00375697,-0.00776429,-0.
 00692726,0.03407740,-0.02271391,-0.06873478,0.07169199,0.00642593,0.00
 493461,-0.01879825,0.00236501,0.00134466,-0.00560653,0.02358813,0.0748
 4322,0.00000989,-0.00000817,-0.00000334,-0.00001369,0.00002152,-0.0000
 0656,0.00003844,-0.00001294,-0.00000495,-0.00000666,0.00001687,0.00000
 225,0.00000031,0.00004880,0.00001814,-0.00001044,0.00000395,-0.0000006
 5,0.00000038,0.00000369,-0.00000510,-0.00000047,-0.00000102,0.00000172
 ,-0.00000230,0.00000394,0.00000120,0.00000164,0.00000169,0.00000043,-0
 .00000200,-0.00000102,0.00000184,0.00000239,0.00000034,0.00000141,-0.0
 0000531,0.00000035,-0.00000189,0.00000535,0.00000674,0.00001725,-0.000
 01705,-0.00005837,-0.00003306,0.00000233,0.00000233,0.00000097,0.00000
 225,0.00000190,-0.00000023,0.00000074,0.00000004,0.00000270,0.00000033
 ,-0.00000100,-0.00000196,0.00000065,0.00000009,-0.00000032,0.00000014,
 0.00000005,-0.00000035,0.00000096,0.00000078,0.00000066,0.00000026,-0.
 00000059,-0.00000028,-0.00000052,0.00000274,-0.00000032,0.00000093,0.0
 0000061,-0.00000225,0.00000154,-0.00000026,-0.00000208,-0.00000100,0.0
 0000032,-0.00000014,-0.00000022,-0.00000011,0.00000017,-0.00000099,-0.
 00000086,0.00000084,-0.00000017,-0.00000017,0.00000059,-0.00000035,-0.
 00000014,0.00000061,-0.00000023,0.00000026,0.00000095,-0.00000054,0.00
 000016,0.00000002,-0.00043065,-0.00027637,0.00105334,-0.00079388,0.000
 49682,-0.00048659,0.00035864,-0.00184205,0.00119020,0.07840670,0.06912
 263,-0.26392859,0.00205205,0.00119356,-0.00626557,0.00624436,0.0063229
 3,-0.01885010,-0.08714967,-0.07355898,0.28530750,0.00001775,-0.0000003
 6,0.00000119,-0.00000487,0.00004426,-0.00000304,-0.00000429,-0.0000098
 8,-0.00000042,0.00000341,0.00001604,0.00000069,0.00000002,0.00002442,-
 0.00000345,-0.00000579,-0.00000166,0.00000169,0.00000107,0.00000132,-0
 .00000344,-0.00000116,0.00000026,0.00000062,-0.00000394,0.00000306,-0.
 00000060,0.00000068,0.00000076,-0.00000114,-0.00000342,0.00000214,0.00
 000013,0.00000129,-0.00000126,-0.00000073,-0.00000391,-0.00000508,0.00
 000028,-0.00000001,-0.00007492,0.00000361,-0.00000847,-0.00004523,0.00
 000082,0.00000087,0.00000101,0.00000030,0.00000150,0.00000175,-0.00000
 031,0.00000114,0.00000096,0.00000175,0.00000104,0.00000101,-0.00000002
 ,0.00000043,0.00000003,-0.00000040,0.00000016,0.00000016,-0.00000011,0
 .00000016,-0.00000023,0.00000064,0.00000004,-0.00000009,0.00000063,0.0
 0000212,0.00000045,0.00000121,0.00000369,-0.00000120,0.00000168,-0.000
 00009,-0.00000194,0.00000229,-0.00000010,-0.00000008,0.00000042,-0.000
 00066,0.00000063,-0.00000014,-0.00000062,0.00000007,-0.00000027,-0.000
 00141,0.00000039,-0.00000142,0.00000029,0.00000066,-0.00000068,-0.0000
 0007,0.00000048,-0.00000040,-0.00000056,0.00000058,-0.00000075,0.00001
 211,0.00049924,-0.00020853,0.00080422,0.00028711,-0.00045208,-0.000108
 11,-0.00176982,-0.00008884,-0.00904127,-0.00736815,0.02551254,-0.07460
 920,-0.02231273,0.07670458,0.00094764,-0.00088874,-0.00049305,-0.00368
 019,0.00364532,0.00126235,0.08009837,0.00000273,-0.00000114,-0.0000030
 8,-0.00000332,-0.00000053,-0.00000272,0.00001244,-0.00000911,-0.000000
 67,-0.00000208,0.00000804,0.00000128,-0.00000175,0.00002477,0.00000213
 ,-0.00000308,0.00000184,-0.00000074,-0.00000004,0.00000318,-0.00000245
 ,0.00000021,0.00000075,-0.00000131,0.00000015,0.00000096,0.00000224,-0
 .00000073,-0.00000024,-0.00000116,-0.00000026,0.00000114,0.00000029,0.
 00000049,-0.00000095,0.00000031,-0.00000132,0.00000032,0.00000158,0.00
 000048,-0.00000264,0.00000662,-0.00000290,-0.00004008,-0.00000222,-0.0
 0000073,0.00000135,0.00000119,0.00000004,0.00000034,-0.00000083,0.0000
 0058,0.00000164,0.00000406,-0.00000218,-0.00000313,-0.00000055,0.00000
 033,-0.00000025,-0.00000011,-0.00000013,-0.00000024,0.00000028,0.00000
 068,-0.00000014,0.00000076,0.00000006,-0.00000031,-0.00000034,-0.00000
 059,-0.00000041,-0.00000053,0.00000105,-0.00000031,-0.00000042,0.00000
 050,-0.00000063,-0.00000013,-0.00000007,0.00000014,-0.00000017,-0.0000
 0021,0.00000012,0.00000008,-0.00000028,0.00000003,0.00000010,-0.000000
 29,0.00000017,0.00000006,-0.00000018,0.00000012,0.00000026,-0.00000004
 ,0.00000012,0.00000021,-0.00000016,0.00000009,0.00000004,0.00012224,0.
 00002140,0.00029368,0.00032040,-0.00034073,-0.00037431,-0.00075922,0.0
 0044792,-0.00054858,0.00564410,0.00485856,-0.01837351,-0.02303778,-0.0
 6595236,0.06642038,-0.00080251,0.00067690,0.00049760,0.00304779,-0.001
 73854,-0.00114274,0.02203656,0.06860500,-0.00001094,-0.00000467,0.0000
 0199,-0.00000731,-0.00004054,0.00000437,0.00002649,-0.00000116,-0.0000
 0303,-0.00000729,-0.00000442,0.00000096,-0.00000355,0.00000730,0.00000
 761,0.00000334,0.00000183,-0.00000098,-0.00000328,-0.00000303,-0.00000
 859,0.00000136,-0.00000010,0.00000195,0.00000193,-0.00000106,0.0000002
 2,0.00000052,-0.00000056,0.00000005,0.00000298,-0.00000327,0.00000112,
 -0.00000106,0.00000223,0.00000072,0.00000275,0.00000452,-0.00000127,0.
 00000284,0.00006226,-0.00000619,-0.00000629,-0.00000978,-0.00000926,-0
 .00000100,0.00000184,0.00000054,-0.00000057,-0.00000026,0.00000026,0.0
 0000016,-0.00000119,0.00000419,-0.00000045,-0.00000046,-0.00000097,-0.
 00000034,-0.00000056,0.00000021,-0.00000215,0.00000079,-0.00000051,0.0
 0000063,0.00000114,0.00000071,0.00000008,-0.00000023,-0.00000060,-0.00
 000125,-0.00000056,-0.00000083,-0.00000245,0.00000176,-0.00000179,0.00
 000110,0.00000178,-0.00000253,0.00000012,0.00000024,-0.00000021,0.0000
 0037,-0.00000060,0.00000017,0.00000003,-0.00000048,0.00000046,0.000000
 81,-0.00000048,0.00000105,-0.00000028,-0.00000060,0.00000071,-0.000000
 06,-0.00000012,0.00000068,0.00000015,-0.00000044,0.00000043,-0.0002132
 9,-0.00061799,0.00002074,-0.00108512,0.00037947,0.00074966,0.00122249,
 0.00142352,-0.00014245,0.00216559,0.00125229,-0.00681979,0.07767036,0.
 06426980,-0.27511595,0.00020404,-0.00025539,0.00068563,0.00145639,-0.0
 0105543,0.00110028,-0.08679012,-0.07111793,0.29488163,0.00007970,-0.00
 000867,-0.00000668,0.00000526,0.00022491,-0.00001486,-0.00007754,-0.00
 002528,-0.00000591,0.00002830,0.00005354,0.00000560,0.00000883,0.00003
 307,0.00000469,-0.00001665,-0.00000440,0.00000080,0.00000249,0.0000046
 9,0.00000018,0.00000044,-0.00000112,-0.00000011,-0.00002068,0.00001467
 ,0.00000118,0.00000639,0.00000418,-0.00000213,-0.00001096,0.00000509,0
 .00000052,0.00000412,-0.00000100,-0.00000013,-0.00001687,-0.00001676,0
 .00000336,-0.00001847,-0.00035957,0.00003161,-0.00000774,-0.00006712,-
 0.00000240,0.00000394,0.00000167,-0.00000030,0.00000386,0.00000158,0.0
 0000011,0.00000017,0.00000004,-0.00000083,0.00000036,0.00000016,0.0000
 0071,0.00000024,-0.00000004,-0.00000003,0.00000176,0.00000010,-0.00000
 003,0.00000006,-0.00000016,-0.00000002,0.00000042,-0.00000126,0.000000
 33,0.00000712,0.00000356,-0.00000089,0.00001457,-0.00000406,-0.0000002
 4,-0.00000098,-0.00000951,0.00000167,-0.00000106,0.00000012,0.00000035
 ,-0.00000307,0.00000344,0.00000111,-0.00000376,-0.00000089,0.00000113,
 -0.00000514,0.00000150,-0.00000285,0.00000101,0.00000269,-0.00000122,-
 0.00000003,0.00000362,0.00000142,-0.00000164,0.00000283,-0.00000181,-0
 .00081064,0.00351202,0.00046692,0.00142870,-0.00022127,-0.00038127,-0.
 00525356,-0.00144715,0.00162368,0.00726880,0.02910485,0.00009087,-0.06
 316440,-0.06460983,-0.00151989,0.00111321,-0.00081112,-0.00060295,0.00
 109696,-0.00094415,-0.00013925,-0.00343459,-0.00870398,-0.00123744,0.0
 6712168,-0.00008895,0.00001487,0.00001008,0.00001771,-0.00020209,0.000
 00983,0.00002801,0.00005602,0.00001008,-0.00001849,-0.00008241,-0.0000
 0782,-0.00000909,-0.00011342,-0.00001110,0.00003069,0.00000334,-0.0000
 0070,-0.00000324,-0.00000308,0.00000007,0.00000154,0.00000173,0.000000
 19,0.00001986,-0.00001894,-0.00000169,-0.00000549,-0.00000891,0.000002
 08,0.00001533,-0.00000442,-0.00000218,-0.00000680,0.00000344,0.0000011
 0,0.00002093,0.00001629,-0.00000537,0.00000293,0.00037255,-0.00002639,
 0.00003843,0.00021777,0.00001500,-0.00000664,-0.00000454,-0.00000198,-
 0.00000694,-0.00000503,0.00000206,0.00000065,0.00000112,-0.00000338,0.
 00000064,0.00000159,0.00000299,-0.00000112,-0.00000097,0.00000100,-0.0
 0000164,0.00000039,0.00000007,-0.00000119,-0.00000084,-0.00000110,-0.0
 0000057,0.00000163,-0.00000033,-0.00000718,-0.00000188,0.00000104,-0.0
 0001934,0.00000628,0.00000005,-0.00000263,0.00001403,-0.00000164,0.000
 00123,-0.00000046,-0.00000037,0.00000386,-0.00000440,-0.00000125,0.000
 00489,0.00000097,-0.00000133,0.00000623,-0.00000193,0.00000348,-0.0000
 0083,-0.00000352,0.00000136,0.00000091,-0.00000489,-0.00000225,0.00000
 336,-0.00000413,0.00000266,0.00116549,-0.00299580,-0.00050753,-0.00000
 482,-0.00114688,-0.00012583,0.00243799,0.00301270,-0.00055590,-0.00551
 422,-0.01613402,0.00027267,-0.06284485,-0.30338239,-0.00397606,0.00001
 055,0.00056357,0.00047685,-0.00018495,0.00065385,-0.00033659,-0.001631
 50,-0.00670884,0.00011296,0.06746605,0.32824313,-0.00002941,0.00000250
 ,0.00000136,-0.00000088,-0.00008089,0.00000502,0.00002385,0.00001177,0
 .00000177,-0.00000958,-0.00002230,-0.00000232,-0.00000309,-0.00001937,
 0.00000482,0.00000705,0.00000137,-0.00000019,-0.00000106,-0.00000094,-
 0.00000260,-0.00000019,0.00000057,0.00000086,0.00000711,-0.00000529,0.
 00000017,-0.00000165,-0.00000180,0.00000162,0.00000463,-0.00000223,-0.
 00000086,-0.00000225,0.00000101,-0.00000013,0.00000639,0.00000654,-0.0
 0000104,0.00000636,0.00013447,-0.00000976,0.00000666,0.00003678,-0.000
 00398,-0.00000210,-0.00000064,-0.00000020,-0.00000122,-0.00000115,0.00
 000021,-0.00000020,0.00000063,-0.00000011,-0.00000034,0.00000017,0.000
 00106,-0.00000029,-0.00000019,0.00000019,-0.00000039,0.,-0.00000013,-0
 .00000007,0.00000014,-0.00000006,-0.00000005,0.00000048,-0.00000007,-0
 .00000230,-0.00000106,0.00000048,-0.00000554,0.00000181,0.00000068,0.0
 0000011,0.00000363,-0.00000060,0.00000044,-0.00000014,0.00000002,0.000
 00117,-0.00000138,-0.00000050,0.00000137,0.00000033,-0.00000056,0.0000
 0177,-0.00000063,0.00000078,-0.00000038,-0.00000100,0.00000034,0.00000
 013,-0.00000143,-0.00000065,0.00000064,-0.00000105,0.00000055,0.000361
 92,-0.00124838,-0.00008228,-0.00032492,-0.00006161,0.00028388,0.001887
 14,0.00056605,0.00037507,-0.00290196,-0.00939866,-0.00128148,-0.001347
 66,-0.00351415,-0.04866995,0.00000706,0.00044759,0.00019828,-0.0006130
 3,0.00013635,0.00013594,0.00667427,0.02921458,0.00242313,-0.00003492,0
 .00502366,0.04664879,0.00001795,-0.00000106,-0.00000564,-0.00000125,0.
 00005534,0.00000084,-0.00002051,-0.00000762,-0.00000361,0.00000684,0.0
 0001447,0.00000245,0.00000236,0.00001541,0.00000585,-0.00000621,-0.000
 00207,-0.00000042,0.00000173,0.00000306,-0.00000198,-0.00000141,0.0000
 0054,0.,-0.00000429,0.00000400,0.00000185,0.00000130,0.00000089,-0.000
 00063,-0.00000408,0.00000185,0.00000021,0.00000150,-0.00000048,-0.0000
 0037,-0.00000313,-0.00000380,0.00000469,0.00000170,-0.00008569,0.00000
 878,-0.00000591,-0.00003103,-0.00000946,0.00000176,0.00000113,0.000000
 43,0.00000147,0.00000034,0.00000004,0.00000107,0.00000265,0.00000023,0
 .00000006,0.00000271,-0.00000043,0.00000006,-0.00000049,-0.00000007,0.
 00000166,-0.00000035,-0.00000036,0.00000034,0.00000042,0.00000055,0.00
 000005,-0.00000032,-0.00000032,0.00000154,0.,-0.00000202,0.00000427,-0
 .00000262,-0.00000181,-0.00000052,-0.00000377,-0.00000130,-0.00000027,
 -0.00000039,-0.00000021,-0.00000089,0.00000189,0.00000091,-0.00000098,
 -0.00000008,0.00000070,-0.00000114,0.00000071,-0.00000008,0.00000016,0
 .00000105,0.00000010,0.,0.00000177,0.00000116,-0.00000018,0.00000099,-
 0.00000003,0.00025843,0.00072985,0.00018032,0.00151035,-0.00009116,0.0
 0003707,-0.00080240,-0.00218885,0.00002021,-0.02038037,-0.00323308,-0.
 01726013,-0.20109097,-0.02607895,-0.13156847,-0.00328189,0.00345543,0.
 00213731,0.00096267,-0.00068176,0.00018274,0.00901471,0.00213301,0.006
 60972,-0.00535064,-0.00091681,-0.00371461,0.21916506,0.00000556,-0.000
 00270,0.00000642,-0.00000501,0.00000309,-0.00000066,0.00001665,-0.0000
 0923,-0.00000005,-0.00000228,0.00000916,-0.00000030,-0.00000548,0.0000
 2793,0.00000263,-0.00000162,-0.00000005,0.00000074,-0.00000110,-0.0000
 0489,0.00000745,-0.00000083,0.00000232,-0.00000172,-0.00000170,0.00000
 035,-0.00000375,0.00000066,-0.00000014,-0.00000058,0.00000018,0.000000
 23,0.00000142,0.00000048,0.00000019,0.00000098,-0.00000176,-0.00000045
 ,-0.00000389,-0.00000383,-0.00000377,-0.00000190,-0.00000399,-0.000044
 10,-0.00001561,-0.00000010,0.00000021,0.00000104,-0.00000039,0.0000019
 3,-0.00000120,-0.00000021,0.00000121,0.00000128,0.00000160,0.00000391,
 -0.00000504,0.00000105,0.00000102,-0.00000064,-0.00000017,-0.00000029,
 -0.00000007,0.00000056,0.00000036,0.00000030,0.00000005,-0.00000011,0.
 00000010,-0.00000010,0.00000005,0.00000082,0.00000097,-0.00000006,0.00
 000007,0.00000031,-0.00000031,0.00000096,-0.00000019,0.00000024,0.0000
 0013,-0.00000019,-0.00000006,-0.00000005,-0.00000039,-0.00000007,-0.00
 000007,-0.00000056,0.00000009,-0.00000040,0.00000016,0.00000001,-0.000
 00014,-0.00000006,0.00000002,-0.00000009,-0.00000027,0.00000011,-0.000
 00024,-0.00009546,0.00000341,-0.00028706,0.00030940,-0.00035331,0.0000
 9696,-0.00017858,0.00038842,0.00087174,0.01425759,0.00206819,0.0130585
 2,-0.02762130,-0.05207312,-0.02338476,0.00298483,-0.00171650,-0.001110
 45,-0.00089458,0.00066518,-0.00001170,0.00754424,0.00014570,0.00559758
 ,-0.02320702,-0.00235145,-0.02122614,0.02690289,0.05323725,0.00000035,
 0.00000295,0.00000406,0.00000819,0.00001180,-0.00000080,-0.00001972,0.
 00000607,0.00000051,0.00000459,-0.00000468,-0.00000068,0.00000280,-0.0
 0001714,0.00000028,-0.00000033,-0.00000092,-0.00000037,0.00000238,0.00
 000326,0.00000092,-0.00000092,0.00000044,-0.00000014,-0.00000009,-0.00
 000053,-0.00000146,0.00000007,0.00000019,-0.00000058,0.00000017,0.0000
 0006,-0.00000015,-0.00000022,0.00000041,0.,0.00000068,-0.00000082,-0.0
 0000028,-0.00000316,-0.00001263,-0.00000180,0.00000727,0.00003086,-0.0
 0000718,-0.00000004,-0.00000129,-0.00000040,0.00000020,-0.00000126,0.0
 0000022,-0.00000187,-0.00000039,-0.00000403,0.00000075,0.00000395,0.00
 000242,-0.00000002,-0.00000080,0.00000028,0.00000231,-0.00000065,-0.00
 000013,-0.00000024,-0.00000060,-0.00000029,0.,0.00000005,-0.00000017,-
 0.00000035,0.00000024,0.00000031,-0.00000016,-0.00000061,-0.00000022,-
 0.00000071,-0.00000042,0.00000003,-0.00000020,-0.00000011,-0.00000007,
 0.00000001,0.00000037,0.00000020,0.00000002,0.00000011,0.00000002,0.00
 000006,0.00000015,-0.00000002,0.00000004,0.00000013,0.00000006,0.00000
 013,0.00000015,-0.00000001,0.00000021,0.00000011,0.00000013,0.00011160
 ,0.00026497,-0.00016846,0.00065804,-0.00059780,-0.00000723,-0.00099865
 ,-0.00024854,0.00043581,0.00866825,0.00209367,0.00733420,-0.13276670,-
 0.02189024,-0.16233962,0.00185627,-0.00149501,0.00067585,-0.00050498,0
 .00069889,0.00075531,-0.02212175,-0.00487323,-0.01777450,0.00171992,-0
 .00037851,-0.00002755,0.14337577,0.02640737,0.17112553\\0.00000314,-0.
 00000055,-0.00000121,-0.00000465,0.00000326,0.00000032,0.00000015,-0.0
 0000028,-0.00000403,0.00000160,-0.00000123,-0.00000430,0.00000283,-0.0
 0000036,-0.00000190,0.00000080,-0.00000163,-0.00000288,-0.00000073,-0.
 00000130,-0.00000283,-0.00000051,-0.00000165,-0.00000392,0.00000168,0.
 00000205,0.00000037,0.00000012,-0.00000001,-0.00000231,0.00000017,0.00
 000227,-0.00000219,0.00000156,0.00000185,0.00000240,-0.00000072,0.0000
 0057,-0.00000053,-0.00000232,0.00000151,0.00000295,0.00000130,0.000000
 98,-0.00000019,-0.00000007,0.00000069,-0.00000434,0.00000025,-0.000002
 33,-0.00000511,-0.00000082,-0.00000281,-0.00000081,0.00000012,0.000000
 16,-0.00000058,-0.00000054,-0.00000319,-0.00000501,-0.00000043,-0.0000
 0200,-0.00000272,0.00000077,0.,-0.00000479,-0.00000020,-0.00000057,-0.
 00000476,0.00000035,0.00000111,0.00000278,0.00000068,0.00000217,-0.000
 00109,0.00000092,0.00000034,-0.00000533,0.00000031,0.00000245,0.000002
 89,0.00000196,0.00000288,-0.00000249,0.00000168,0.00000310,0.00000169,
 -0.00000031,0.00000011,-0.00000034,0.00000099,-0.00000131,-0.00000702,
 0.00000176,0.00000249,-0.00000650,0.00000096,-0.00000015,-0.00000516,-
 0.00000276,-0.00000138,0.00000112,-0.00000020,-0.00000609,0.00000062,0
 .00000177,0.00000060,0.00001337,-0.00000202,0.00000137,0.00000575,-0.0
 0000132,-0.00000022,0.00000734,-0.00000189,-0.00000092,0.00000804,-0.0
 0000077,0.00000241,0.00000817,-0.00000239,-0.00000302,0.00000715,-0.00
 000227,-0.00000091,0.00001005,-0.00000097,-0.00000042,0.00000737\\\@


 IT PROBABLY IS NOT POSSIBLE FOR A SCIENTIST TO INTERROGATE NATURE 
 FROM A WHOLLY DISINTERESTED VIEWPOINT.
 EVEN IF HE HAS NO PARTICULAR AXE TO GRIND, HE IS LIKELY TO HAVE 
 A DISTINCTIVE WAY OF VIEWING NATURE.

                                                   -- JOHN LOSEE
 Job cpu time:       0 days 16 hours  8 minutes 40.9 seconds.
 File lengths (MBytes):  RWF=   1722 Int=      0 D2E=      0 Chk=     41 Scr=      1
 Normal termination of Gaussian 09 at Fri Nov 15 00:29:04 2019.
pbs_rusage has been removed.
Please contact help@nci.org.au if you require this functionality.
