 Entering Gaussian System, Link 0=/apps/gaussian/g16c01/g16/g16
 Initial command:
 /apps/gaussian/g16c01/g16/l1.exe "/jobfs/13164592.gadi-pbs/Gau-2997668.inp" -scrdir="/jobfs/13164592.gadi-pbs/"
 Entering Link 1 = /apps/gaussian/g16c01/g16/l1.exe PID=   2997669.
  
 Copyright (c) 1988-2019, Gaussian, Inc.  All Rights Reserved.
  
 This is part of the Gaussian(R) 16 program.  It is based on
 the Gaussian(R) 09 system (copyright 2009, Gaussian, Inc.),
 the Gaussian(R) 03 system (copyright 2003, Gaussian, Inc.),
 the Gaussian(R) 98 system (copyright 1998, Gaussian, Inc.),
 the Gaussian(R) 94 system (copyright 1995, Gaussian, Inc.),
 the Gaussian 92(TM) system (copyright 1992, Gaussian, Inc.),
 the Gaussian 90(TM) system (copyright 1990, Gaussian, Inc.),
 the Gaussian 88(TM) system (copyright 1988, Gaussian, Inc.),
 the Gaussian 86(TM) system (copyright 1986, Carnegie Mellon
 University), and the Gaussian 82(TM) system (copyright 1983,
 Carnegie Mellon University). Gaussian is a federally registered
 trademark of Gaussian, Inc.
  
 This software contains proprietary and confidential information,
 including trade secrets, belonging to Gaussian, Inc.
  
 This software is provided under written license and may be
 used, copied, transmitted, or stored only in accord with that
 written license.
  
 The following legend is applicable only to US Government
 contracts under FAR:
  
                    RESTRICTED RIGHTS LEGEND
  
 Use, reproduction and disclosure by the US Government is
 subject to restrictions as set forth in subparagraphs (a)
 and (c) of the Commercial Computer Software - Restricted
 Rights clause in FAR 52.227-19.
  
 Gaussian, Inc.
 340 Quinnipiac St., Bldg. 40, Wallingford CT 06492
  
  
 ---------------------------------------------------------------
 Warning -- This program may not be used in any manner that
 competes with the business of Gaussian, Inc. or will provide
 assistance to any competitor of Gaussian, Inc.  The licensee
 of this program is prohibited from giving any competitor of
 Gaussian, Inc. access to this program.  By using this program,
 the user acknowledges that Gaussian, Inc. is engaged in the
 business of creating and licensing software in the field of
 computational chemistry and represents and warrants to the
 licensee that it is not a competitor of Gaussian, Inc. and that
 it will not use this program in any manner prohibited above.
 ---------------------------------------------------------------
  

 Cite this work as:
 Gaussian 16, Revision C.01,
 M. J. Frisch, G. W. Trucks, H. B. Schlegel, G. E. Scuseria, 
 M. A. Robb, J. R. Cheeseman, G. Scalmani, V. Barone, 
 G. A. Petersson, H. Nakatsuji, X. Li, M. Caricato, A. V. Marenich, 
 J. Bloino, B. G. Janesko, R. Gomperts, B. Mennucci, H. P. Hratchian, 
 J. V. Ortiz, A. F. Izmaylov, J. L. Sonnenberg, D. Williams-Young, 
 F. Ding, F. Lipparini, F. Egidi, J. Goings, B. Peng, A. Petrone, 
 T. Henderson, D. Ranasinghe, V. G. Zakrzewski, J. Gao, N. Rega, 
 G. Zheng, W. Liang, M. Hada, M. Ehara, K. Toyota, R. Fukuda, 
 J. Hasegawa, M. Ishida, T. Nakajima, Y. Honda, O. Kitao, H. Nakai, 
 T. Vreven, K. Throssell, J. A. Montgomery, Jr., J. E. Peralta, 
 F. Ogliaro, M. J. Bearpark, J. J. Heyd, E. N. Brothers, K. N. Kudin, 
 V. N. Staroverov, T. A. Keith, R. Kobayashi, J. Normand, 
 K. Raghavachari, A. P. Rendell, J. C. Burant, S. S. Iyengar, 
 J. Tomasi, M. Cossi, J. M. Millam, M. Klene, C. Adamo, R. Cammi, 
 J. W. Ochterski, R. L. Martin, K. Morokuma, O. Farkas, 
 J. B. Foresman, and D. J. Fox, Gaussian, Inc., Wallingford CT, 2019.
 
 ******************************************
 Gaussian 16:  ES64L-G16RevC.01  3-Jul-2019
                 3-Nov-2020 
 ******************************************
 %NprocShared=32
 Will use up to   32 processors via shared memory.
 %Mem=1194000MB
 %chk=NM2_carboxy.DSDPBEP86_AUG-cc-PVTZ.chk
 ----------------------------------------------------------------------
 # DSDPBEP86/AUG-cc-PVTZ SCF=Tight INT(grid=ultrafine) Pop=NBO MaxDisk=
 1400000MB
 ----------------------------------------------------------------------
 1/38=1,172=1/1;
 2/12=2,17=6,18=5,40=1/2;
 3/5=16,6=1,7=10,11=9,25=1,30=1,74=-77,75=-5/1,2,3;
 4//1;
 5/5=2,32=2,38=5/2;
 8/10=1/1;
 9/16=-3/6;
 6/7=2,8=2,9=2,10=2,40=1/1,7;
 99/5=1,9=1/99;
 ---------------------------------
 NM2_carboxy.DSDPBEP86_AUG-cc-PVTZ
 ---------------------------------
 Symbolic Z-matrix:
 Charge = -1 Multiplicity = 1
 C                    -5.89264   1.08023   0.19465 
 N                    -4.65815   0.48737   0.1308 
 C                    -3.41651   1.11863   0.11647 
 O                    -3.26759   2.33461   0.15694 
 N                    -2.39291   0.23871   0.04534 
 C                    -1.02493   0.70415   0.08161 
 C                    -0.08311  -0.43229  -0.29581 
 C                     1.37783  -0.00024  -0.22327 
 C                    -6.11662   2.47066   0.22651 
 C                    -7.40712   2.97477   0.28892 
 C                    -8.51995   2.12026   0.33332 
 C                    -8.28779   0.74483   0.29117 
 C                    -7.01025   0.22653   0.22411 
 H                    -4.67242  -0.55247   0.10506 
 H                    -2.56247  -0.77746   0.09568 
 H                    -0.77194   1.08703   1.08015 
 H                    -0.91248   1.54568  -0.60915 
 H                    -0.33113  -0.77518  -1.30475 
 H                    -0.26546  -1.28577   0.3637 
 H                     1.57525   0.84172  -0.89334 
 H                     2.04995  -0.81411  -0.50453 
 H                     1.64548   0.31603   0.78899 
 H                    -5.26789   3.136     0.1962 
 H                    -6.84344  -0.84571   0.19649 
 C                    -9.94293   2.59136   0.37617 
 C                    -7.54394   4.47678   0.34978 
 H                    -9.13008   0.06498   0.31902 
 F                    -10.14145   3.61147   1.22666 
 F                    -10.77695   1.6081    0.77094 
 F                    -10.4041   2.99701  -0.8239 
 F                    -6.43226   5.10426  -0.05815 
 F                    -7.78654   4.91609   1.59794 
 F                    -8.54142   4.93514  -0.42509 
 O                    -4.94066  -2.25695   0.0976 
 O                    -2.72665  -2.56206   0.18878 
 C                    -3.90718  -2.97276   0.15593 
 C                    -4.14572  -4.48954   0.18821 
 C                    -2.8732   -5.32218   0.25529 
 H                    -4.73684  -4.73978  -0.6983 
 H                    -4.79806  -4.69325   1.04317 
 H                    -2.23218  -5.11762  -0.60381 
 H                    -3.09774  -6.39306   0.27486 
 H                    -2.29485  -5.07273   1.14639 
 
                          Input orientation:                          
 ---------------------------------------------------------------------
 Center     Atomic      Atomic             Coordinates (Angstroms)
 Number     Number       Type             X           Y           Z
 ---------------------------------------------------------------------
      1          6           0       -5.892637    1.080226    0.194653
      2          7           0       -4.658146    0.487368    0.130803
      3          6           0       -3.416513    1.118630    0.116472
      4          8           0       -3.267595    2.334607    0.156944
      5          7           0       -2.392909    0.238708    0.045342
      6          6           0       -1.024930    0.704155    0.081611
      7          6           0       -0.083111   -0.432288   -0.295808
      8          6           0        1.377829   -0.000240   -0.223273
      9          6           0       -6.116615    2.470660    0.226507
     10          6           0       -7.407118    2.974769    0.288921
     11          6           0       -8.519950    2.120263    0.333325
     12          6           0       -8.287785    0.744830    0.291169
     13          6           0       -7.010254    0.226530    0.224113
     14          1           0       -4.672421   -0.552475    0.105059
     15          1           0       -2.562471   -0.777464    0.095677
     16          1           0       -0.771939    1.087029    1.080149
     17          1           0       -0.912476    1.545680   -0.609150
     18          1           0       -0.331135   -0.775177   -1.304748
     19          1           0       -0.265462   -1.285769    0.363702
     20          1           0        1.575251    0.841720   -0.893338
     21          1           0        2.049954   -0.814108   -0.504534
     22          1           0        1.645475    0.316025    0.788990
     23          1           0       -5.267894    3.135997    0.196199
     24          1           0       -6.843437   -0.845713    0.196485
     25          6           0       -9.942930    2.591360    0.376174
     26          6           0       -7.543945    4.476782    0.349784
     27          1           0       -9.130084    0.064977    0.319018
     28          9           0      -10.141447    3.611471    1.226657
     29          9           0      -10.776948    1.608097    0.770938
     30          9           0      -10.404105    2.997011   -0.823901
     31          9           0       -6.432261    5.104260   -0.058154
     32          9           0       -7.786536    4.916092    1.597940
     33          9           0       -8.541424    4.935135   -0.425093
     34          8           0       -4.940656   -2.256945    0.097598
     35          8           0       -2.726649   -2.562061    0.188776
     36          6           0       -3.907176   -2.972758    0.155927
     37          6           0       -4.145723   -4.489536    0.188215
     38          6           0       -2.873204   -5.322178    0.255286
     39          1           0       -4.736836   -4.739775   -0.698302
     40          1           0       -4.798062   -4.693254    1.043173
     41          1           0       -2.232178   -5.117620   -0.603809
     42          1           0       -3.097739   -6.393065    0.274863
     43          1           0       -2.294847   -5.072734    1.146390
 ---------------------------------------------------------------------
                    Distance matrix (angstroms):
                    1          2          3          4          5
     1  C    0.000000
     2  N    1.370958   0.000000
     3  C    2.477656   1.392964   0.000000
     4  O    2.909595   2.312274   1.225730   0.000000
     5  N    3.602575   2.280447   1.351698   2.273834   0.000000
     6  C    4.883522   3.640011   2.427484   2.773733   1.445449
     7  C    6.023193   4.686013   3.699580   4.242833   2.429359
     8  C    7.362183   6.065981   4.934877   5.213063   3.787837
     9  C    1.408718   2.463684   3.021695   2.853116   4.345161
    10  C    2.427309   3.710662   4.404534   4.190809   5.717312
    11  C    2.829078   4.197725   5.205321   5.259686   6.415904
    12  C    2.420442   3.642291   4.888715   5.267610   5.921669
    13  C    1.406674   2.368365   3.704376   4.296045   4.620821
    14  H    2.040262   1.040259   2.090460   3.211148   2.413651
    15  H    3.814553   2.448037   2.079662   3.191542   1.031451
    16  H    5.196701   4.045177   2.814861   2.938886   2.101908
    17  H    5.066039   3.962019   2.641799   2.599209   2.080436
    18  H    6.051532   4.730524   3.889207   4.519966   2.664886
    19  H    6.106686   4.742777   3.971320   4.707725   2.636553
    20  H    7.550494   6.326900   5.100402   5.175418   4.122018
    21  H    8.195250   6.862660   5.831243   6.215166   4.598893
    22  H    7.600025   6.340206   5.169157   5.349057   4.107010
    23  H    2.148605   2.718696   2.739295   2.155218   4.084432
    24  H    2.147852   2.560648   3.950804   4.785671   4.583232
    25  C    4.326817   5.693499   6.695558   6.683867   7.915001
    26  C    3.779878   4.928612   5.326097   4.786781   6.677360
    27  H    3.395182   4.495783   5.813442   6.288583   6.744970
    28  F    5.052189   6.405271   7.257513   7.072801   8.532929
    29  F    4.946437   6.253442   7.405667   7.569359   8.526067
    30  F    5.006482   6.342382   7.296510   7.233990   8.517223
    31  F    4.067917   4.949634   5.001047   4.210980   6.324608
    32  F    4.502214   5.617198   5.975999   5.400127   7.306141
    33  F    4.718102   5.930557   6.412778   5.908874   7.751257
    34  O    3.471656   2.759016   3.703765   4.887229   3.566796
    35  O    4.825948   3.610133   3.745481   4.926560   2.824228
    36  C    4.513340   3.540771   4.120894   5.345764   3.552288
    37  C    5.837294   5.003543   5.655830   6.880480   5.044706
    38  C    7.078943   6.078844   6.465173   7.667566   5.585537
    39  H    6.000472   5.293074   6.060365   7.275782   5.552684
    40  H    5.937268   5.262209   6.045283   7.246969   5.577157
    41  H    7.242224   6.151493   6.388448   7.562177   5.397915
    42  H    7.979221   7.056626   7.520124   8.730121   6.673071
    43  H    7.190884   6.126282   6.375880   7.536175   5.425250
                    6          7          8          9         10
     6  C    0.000000
     7  C    1.523473   0.000000
     8  C    2.522375   1.525212   0.000000
     9  C    5.391363   6.715884   7.904071   0.000000
    10  C    6.777241   8.098829   9.289150   1.386874   0.000000
    11  C    7.631779   8.836944  10.137670   2.431092   1.403761
    12  C    7.265992   8.309442   9.707928   2.774283   2.397542
    13  C    6.006042   6.977799   8.403066   2.415515   2.777502
    14  H    3.857960   4.608352   6.084265   3.352579   4.466970
    15  H    2.135282   2.533700   4.028867   4.816572   6.130840
    16  H    1.098942   2.162422   2.739081   5.586475   6.943717
    17  H    1.094514   2.167576   2.790030   5.351352   6.710380
    18  H    2.142841   1.094097   2.165796   6.808229   8.165257
    19  H    2.148526   1.093909   2.167378   6.954536   8.316311
    20  H    2.780357   2.174925   1.094010   7.941807   9.307555
    21  H    3.479023   2.176998   1.092356   8.832722  10.218678
    22  H    2.789640   2.173653   1.093771   8.075202   9.448197
    23  H    4.891803   6.313217   7.360542   1.078852   2.147294
    24  H    6.022484   6.790824   8.275279   3.395217   3.862948
    25  C    9.120254  10.334894  11.629071   3.831142   2.566117
    26  C    7.536723   8.954318   9.998508   2.465156   1.509460
    27  H    8.133784   9.081465  10.522099   3.857054   3.381776
    28  F    9.637142  10.947146  12.158966   4.301281   2.959948
    29  F    9.818052  10.938888  12.300967   4.770652   3.668226
    30  F    9.697735  10.888613  12.172026   4.445556   3.196998
    31  F    6.972782   8.427428   9.331703   2.667679   2.367602
    32  F    8.109191   9.567351  10.558064   3.263373   2.371966
    33  F    8.640349  10.018434  11.081076   3.518227   2.374764
    34  O    4.909306   5.203834   6.717063   4.873371   5.787130
    35  O    3.684495   3.429148   4.855868   6.068078   7.250745
    36  C    4.672532   4.613190   6.075437   5.875151   6.902200
    37  C    6.060127   5.761975   7.129707   7.233962   8.146329
    38  C    6.305789   5.656797   6.828128   8.440904   9.454990
    39  H    6.634975   6.354023   7.750998   7.399286   8.223090
    40  H    6.655310   6.494573   7.859383   7.329883   8.134780
    41  H    5.985008   5.163884   6.274117   8.565061   9.646955
    42  H    7.396243   6.704067   7.819658   9.363843  10.311511
    43  H    6.009899   5.339049   6.410516   8.506167   9.572506
                   11         12         13         14         15
    11  C    0.000000
    12  C    1.395527   0.000000
    13  C    2.424322   1.380296   0.000000
    14  H    4.690322   3.845581   2.467081   0.000000
    15  H    6.629092   5.927463   4.561499   2.121932   0.000000
    16  H    7.852197   7.564888   6.355299   4.341950   2.766139
    17  H    7.687136   7.473093   6.294234   4.364577   2.935347
    18  H    8.838753   8.256250   6.924700   4.569893   2.634399
    19  H    8.929645   8.275643   6.913664   4.475031   2.367797
    20  H   10.249510   9.934381   8.679749   6.478732   4.551994
    21  H   11.001610  10.484860   9.148838   6.755026   4.651459
    22  H   10.334349   9.954966   8.674603   6.413880   4.402637
    23  H    3.409749   3.853108   3.391401   3.737342   4.758634
    24  H    3.409756   2.150566   1.085494   2.192638   4.282696
    25  C    1.499546   2.481210   3.770428   6.142920   8.117809
    26  C    2.550694   3.805812   4.285471   5.796462   7.244774
    27  H    2.143985   1.082794   2.128094   4.505307   6.625189
    28  F    2.377182   3.539609   4.718823   6.964673   8.830783
    29  F    2.355389   2.677936   4.049163   6.509740   8.580472
    30  F    2.378633   3.285500   4.504678   6.805441   8.751200
    31  F    3.662777   4.750750   4.919959   5.926409   7.042273
    32  F    3.154965   4.399810   4.947929   6.467738   7.871736
    33  F    2.915332   4.258641   4.993687   6.735289   8.285703
    34  O    5.659228   4.500155   3.235257   1.725464   2.800827
    35  O    7.450328   6.470876   5.111434   2.798477   1.794550
    36  C    6.873720   5.747042   4.457487   2.538889   2.575107
    37  C    7.927444   6.675766   5.517980   3.973006   4.036672
    38  C    9.342471   8.131885   6.921294   5.099982   4.558120
    39  H    7.901667   6.608267   5.539266   4.264156   4.588918
    40  H    7.796176   6.505108   5.456091   4.247575   4.607497
    41  H    9.633341   8.475829   7.216329   5.224733   4.408552
    42  H   10.093590   8.825326   7.689564   6.051524   5.643898
    43  H    9.547366   8.395877   7.153171   5.212482   4.430007
                   16         17         18         19         20
    16  H    0.000000
    17  H    1.756087   0.000000
    18  H    3.057753   2.491624   0.000000
    19  H    2.529820   3.063033   1.746065   0.000000
    20  H    3.076382   2.600982   2.533361   3.081328   0.000000
    21  H    3.753482   3.788870   2.512258   2.517429   1.765864
    22  H    2.554038   3.163852   3.079196   2.529485   1.763948
    23  H    5.019288   4.706098   6.474699   6.678653   7.299276
    24  H    6.432685   6.445472   6.683469   6.594799   8.655024
    25  C    9.320175   9.144036  10.322096  10.425242  11.719274
    26  C    7.608148   7.313500   9.074425   9.283507   9.895390
    27  H    8.454732   8.401372   8.986879   8.967053  10.801728
    28  F    9.704738   9.633876  11.040513  11.057248  12.224847
    29  F   10.023339   9.960740  10.913454  10.910162  12.487352
    30  F   10.002602   9.604348  10.766863  11.069990  12.171896
    31  F    7.033713   6.590532   8.564199   8.890435   9.109721
    32  F    8.008395   7.967661   9.818307   9.826138  10.509521
    33  F    8.799919   8.350038  10.039438  10.383323  10.923480
    34  O    5.433762   5.584414   5.040823   4.782409   7.282906
    35  O    4.234536   4.560860   3.340967   2.777943   5.591336
    36  C    5.212079   5.474472   4.444210   4.018853   6.760784
    37  C    6.578453   6.893004   5.529601   5.035012   7.894402
    38  C    6.795120   7.194385   5.437927   4.806732   7.687765
    39  H    7.268765   7.358031   5.957854   5.749017   8.428141
    40  H    7.044339   7.533409   6.388858   5.711138   8.660550
    41  H    6.592851   6.792732   4.791878   4.414423   7.077717
    42  H    7.874620   8.281335   6.458323   5.840732   8.691584
    43  H    6.345574   6.985432   5.322897   4.367162   7.356555
                   21         22         23         24         25
    21  H    0.000000
    22  H    1.764656   0.000000
    23  H    8.345374   7.489881   0.000000
    24  H    8.921033   8.588500   4.282097   0.000000
    25  C   12.498085  11.816882   4.710093   4.631697   0.000000
    26  C   10.989371  10.097041   2.646072   5.370584   3.051335
    27  H   11.244745  10.788725   4.935865   2.464371   2.654543
    28  F   13.084840  12.246756   5.003942   5.639558   1.342892
    29  F   13.115766  12.489450   5.745822   4.671583   1.348418
    30  F   13.028055  12.449156   5.238376   5.337235   1.348115
    31  F   10.352502   9.428396   2.300978   5.969597   4.339136
    32  F   11.576361  10.525105   3.387797   6.004325   3.398106
    33  F   12.051448  11.250915   3.786674   6.057040   2.845967
    34  O    7.163308   7.104599   5.403761   2.371061   6.971830
    35  O    5.133416   5.268692   6.239059   4.460252   8.869474
    36  C    6.370508   6.484504   6.258600   3.625961   8.212079
    37  C    7.237064   7.549326   7.707664   4.533781   9.153252
    38  C    6.718446   7.245181   8.790834   5.983723  10.612244
    39  H    7.842763   8.276899   7.944177   4.516872   9.055576
    40  H    8.021129   8.165578   7.888935   4.438920   8.943163
    41  H    6.071798   6.819134   8.830504   6.336669  10.947348
    42  H    7.630922   8.232515   9.773371   6.693990  11.295432
    43  H    6.303867   6.685252   8.782092   6.281695  10.854710
                   26         27         28         29         30
    26  C    0.000000
    27  H    4.688370   0.000000
    28  F    2.874837   3.797932   0.000000
    29  F    4.342699   2.301654   2.150593   0.000000
    30  F    3.427503   3.395028   2.156697   2.147465   0.000000
    31  F    1.340143   5.728428   4.199669   5.637983   4.560966
    32  F    1.345265   5.193658   2.717626   4.535342   4.049673
    33  F    1.343684   4.961720   2.653382   4.182970   2.717527
    34  O    7.223835   4.794961   7.922203   7.032370   7.635606
    35  O    8.530977   6.922591   9.704067   9.084956   9.532687
    36  C    8.292124   6.044271   9.130426   8.279870   8.877404
    37  C    9.590040   6.753114  10.131800   9.027393   9.810204
    38  C   10.855615   8.256758  11.557725  10.524437  11.273332
    39  H    9.691402   6.589478  10.132058   8.884655   9.591224
    40  H    9.597408   6.475460   9.876937   8.690697   9.698137
    41  H   11.008032   8.677098  11.920746  10.960761  11.518510
    42  H   11.744273   8.837276  12.272346  11.101123  11.948380
    43  H   10.926155   8.590756  11.704315  10.803726  11.608742
                   31         32         33         34         35
    31  F    0.000000
    32  F    2.147584   0.000000
    33  F    2.147514   2.159370   0.000000
    34  O    7.512421   7.861458   8.060072   0.000000
    35  O    8.518510   9.138434   9.507702   2.236791   0.000000
    36  C    8.465229   8.908580   9.184151   1.258520   1.250357
    37  C    9.865590  10.183746  10.417426   2.371622   2.393518
    38  C   11.021603  11.435284  11.739000   3.700659   2.764805
    39  H   10.009459  10.383120  10.399684   2.615233   3.093573
    40  H    9.993738  10.078605  10.434292   2.617260   3.092366
    41  H   11.064595  11.677927  11.869980   4.001411   2.720951
    42  H   11.975742  12.313910  12.587762   4.531584   3.849897
    43  H   11.051711  11.407856  11.901543   4.003615   2.721572
                   36         37         38         39         40
    36  C    0.000000
    37  C    1.535761   0.000000
    38  C    2.568802   1.522201   0.000000
    39  H    2.130820   1.094507   2.172935   0.000000
    40  H    2.130960   1.094532   2.172876   1.743172   0.000000
    41  H    2.825464   2.164127   1.091239   2.534759   3.078376
    42  H    3.516793   2.174673   1.094348   2.523302   2.524036
    43  H    2.826750   2.164246   1.091232   3.078483   2.533919
                   41         42         43
    41  H    0.000000
    42  H    1.774265   0.000000
    43  H    1.751896   1.774111   0.000000
 Stoichiometry    C15H17F6N2O3(1-)
 Framework group  C1[X(C15H17F6N2O3)]
 Deg. of freedom   123
 Full point group                 C1      NOp   1
 Largest Abelian subgroup         C1      NOp   1
 Largest concise Abelian subgroup C1      NOp   1
                         Standard orientation:                         
 ---------------------------------------------------------------------
 Center     Atomic      Atomic             Coordinates (Angstroms)
 Number     Number       Type             X           Y           Z
 ---------------------------------------------------------------------
      1          6           0        0.271964    0.118092   -0.029188
      2          7           0       -1.073168   -0.146710   -0.034234
      3          6           0       -1.689603   -1.394865    0.015447
      4          8           0       -1.079581   -2.456709    0.068123
      5          7           0       -3.038026   -1.303907   -0.008460
      6          6           0       -3.852922   -2.493055    0.097348
      7          6           0       -5.300817   -2.157771   -0.237550
      8          6           0       -6.208745   -3.374519   -0.091054
      9          6           0        1.284496   -0.860975   -0.002878
     10          6           0        2.621290   -0.491647   -0.002396
     11          6           0        3.002168    0.859381   -0.016563
     12          6           0        1.991676    1.821200   -0.052697
     13          6           0        0.656599    1.470841   -0.058514
     14          1           0       -1.684991    0.694049   -0.064828
     15          1           0       -3.508572   -0.386820    0.029339
     16          1           0       -3.789058   -2.918184    1.108713
     17          1           0       -3.465049   -3.257126   -0.583616
     18          1           0       -5.345114   -1.767985   -1.258898
     19          1           0       -5.641070   -1.343380    0.408693
     20          1           0       -5.887840   -4.189032   -0.747139
     21          1           0       -7.244179   -3.133353   -0.341966
     22          1           0       -6.195960   -3.754592    0.934478
     23          1           0        1.002304   -1.902167    0.011535
     24          1           0       -0.119611    2.229284   -0.082156
     25          6           0        4.424497    1.333676   -0.042312
     26          6           0        3.631930   -1.611233    0.057650
     27          1           0        2.259950    2.870103   -0.069306
     28          9           0        5.225535    0.662960    0.801392
     29          9           0        4.518240    2.632756    0.306734
     30          9           0        4.991622    1.244859   -1.262105
     31          9           0        3.102562   -2.791628   -0.292238
     32          9           0        4.135480   -1.777242    1.294022
     33          9           0        4.675639   -1.407839   -0.763805
     34          8           0       -2.490630    2.219634   -0.092402
     35          8           0       -4.441693    1.144081    0.107031
     36          6           0       -3.743923    2.177464    0.014138
     37          6           0       -4.459517    3.536243    0.028488
     38          6           0       -5.973702    3.445120    0.155121
     39          1           0       -4.169234    4.060837   -0.887200
     40          1           0       -4.027512    4.117336    0.849282
     41          1           0       -6.396305    2.869980   -0.670361
     42          1           0       -6.434144    4.437881    0.159260
     43          1           0       -6.254082    2.928936    1.074756
 ---------------------------------------------------------------------
 Rotational constants (GHZ):           0.3031383           0.0863251           0.0690002
 Standard basis: Aug-CC-pVTZ (5D, 7F)
 There are  1855 symmetry adapted cartesian basis functions of A   symmetry.
 There are  1587 symmetry adapted basis functions of A   symmetry.
  1587 basis functions,  2331 primitive gaussians,  1855 cartesian basis functions
   100 alpha electrons      100 beta electrons
       nuclear repulsion energy      2471.7344425916 Hartrees.
 NAtoms=   43 NActive=   43 NUniq=   43 SFac= 1.00D+00 NAtFMM=   60 NAOKFM=F Big=F
 Integral buffers will be    131072 words long.
 Regular integral format.
 Two-electron integral symmetry is turned on.
 Nuclear repulsion after empirical dispersion term =     2471.7037878704 Hartrees.
 One-electron integrals computed using PRISM.
 NBasis=  1587 RedAO= T EigKep=  1.13D-06  NBF=  1587
 NBsUse=  1582 1.00D-06 EigRej=  8.76D-07 NBFU=  1582
 ExpMin= 2.53D-02 ExpMax= 1.95D+04 ExpMxC= 6.65D+02 IAcc=3 IRadAn=         5 AccDes= 0.00D+00
 Harris functional with IExCor= 1004 and IRadAn=       5 diagonalized for initial guess.
 HarFok:  IExCor= 1004 AccDes= 0.00D+00 IRadAn=         5 IDoV= 1 UseB2=F ITyADJ=14
 ICtDFT=  3500011 ScaDFX=  1.000000  1.000000  1.000000  1.000000
 FoFCou: FMM=F IPFlag=           0 FMFlag=      100000 FMFlg1=           0
         NFxFlg=           0 DoJE=T BraDBF=F KetDBF=T FulRan=T
         wScrn=  0.000000 ICntrl=       500 IOpCl=  0 I1Cent=   200000004 NGrid=           0
         NMat0=    1 NMatS0=      1 NMatT0=    0 NMatD0=    1 NMtDS0=    0 NMtDT0=    0
 Petite list used in FoFCou.
 Requested convergence on RMS density matrix=1.00D-08 within 128 cycles.
 Requested convergence on MAX density matrix=1.00D-06.
 Requested convergence on             energy=1.00D-06.
 No special actions if energy rises.
 SCF Done:  E(RDSDPBEP86) =  -1511.90130320     A.U. after   13 cycles
            NFock= 13  Conv=0.42D-08     -V/T= 2.0031
 DoSCS=T DFT=T ScalE2(SS,OS)=  0.220000  0.520000
 ExpMin= 2.53D-02 ExpMax= 1.95D+04 ExpMxC= 6.65D+02 IAcc=3 IRadAn=         5 AccDes= 0.00D+00
 HarFok:  IExCor=  205 AccDes= 0.00D+00 IRadAn=         5 IDoV=-2 UseB2=F ITyADJ=14
 ICtDFT= 12500011 ScaDFX=  1.000000  1.000000  1.000000  1.000000
 GSVD:  LWork=        -884 too small for GESVD, short by        3770 words or        3770 for optimal perf.
 Range of M.O.s used for correlation:    27  1582
 NBasis=  1587 NAE=   100 NBE=   100 NFC=    26 NFV=     0
 NROrb=   1556 NOA=    74 NOB=    74 NVA=  1482 NVB=  1482

 **** Warning!!: The largest alpha MO coefficient is  0.10277981D+03

 DoSCS=T DFT=T ScalE2(SS,OS)=  0.220000  0.520000
 Disk-based method using OVN memory for 25 occupieds at a time.
 Estimated scratch disk usage=179242881514 words.
 Actual    scratch disk usage=131445622762 words.
 JobTyp=1 Pass  1:  I=   1 to  25 NPSUse= 32 ParTrn=T ParDer=T DoDerP=F.
 (rs|ai) integrals will be sorted in core.
 JobTyp=1 Pass  2:  I=  26 to  50 NPSUse= 32 ParTrn=T ParDer=T DoDerP=F.
 (rs|ai) integrals will be sorted in core.
 JobTyp=1 Pass  3:  I=  51 to  74 NPSUse= 32 ParTrn=T ParDer=T DoDerP=F.
 (rs|ai) integrals will be sorted in core.
 Spin components of T(2) and E(2):
     alpha-alpha T2 =       0.2465697480D+00 E2=     -0.1666615039D+00
     alpha-beta  T2 =       0.1281198362D+01 E2=     -0.2230049750D+01
     beta-beta   T2 =       0.2465697480D+00 E2=     -0.1666615039D+00
 E2(DSDPBEP86) =    -0.2563372758D+01 E(DSDPBEP86) =    -0.15144646759535D+04

 **********************************************************************

            Population analysis using the SCF Density.

 **********************************************************************

 Orbital symmetries:
       Occupied  (A) (A) (A) (A) (A) (A) (A) (A) (A) (A) (A) (A)
                 (A) (A) (A) (A) (A) (A) (A) (A) (A) (A) (A) (A)
                 (A) (A) (A) (A) (A) (A) (A) (A) (A) (A) (A) (A)
                 (A) (A) (A) (A) (A) (A) (A) (A) (A) (A) (A) (A)
                 (A) (A) (A) (A) (A) (A) (A) (A) (A) (A) (A) (A)
                 (A) (A) (A) (A) (A) (A) (A) (A) (A) (A) (A) (A)
                 (A) (A) (A) (A) (A) (A) (A) (A) (A) (A) (A) (A)
                 (A) (A) (A) (A) (A) (A) (A) (A) (A) (A) (A) (A)
                 (A) (A) (A) (A)
       Virtual   (A) (A) (A) (A) (A) (A) (A) (A) (A) (A) (A) (A)
                 (A) (A) (A) (A) (A) (A) (A) (A) (A) (A) (A) (A)
                 (A) (A) (A) (A) (A) (A) (A) (A) (A) (A) (A) (A)
                 (A) (A) (A) (A) (A) (A) (A) (A) (A) (A) (A) (A)
                 (A) (A) (A) (A) (A) (A) (A) (A) (A) (A) (A) (A)
                 (A) (A) (A) (A) (A) (A) (A) (A) (A) (A) (A) (A)
                 (A) (A) (A) (A) (A) (A) (A) (A) (A) (A) (A) (A)
                 (A) (A) (A) (A) (A) (A) (A) (A) (A) (A) (A) (A)
                 (A) (A) (A) (A) (A) (A) (A) (A) (A) (A) (A) (A)
                 (A) (A) (A) (A) (A) (A) (A) (A) (A) (A) (A) (A)
                 (A) (A) (A) (A) (A) (A) (A) (A) (A) (A) (A) (A)
                 (A) (A) (A) (A) (A) (A) (A) (A) (A) (A) (A) (A)
                 (A) (A) (A) (A) (A) (A) (A) (A) (A) (A) (A) (A)
                 (A) (A) (A) (A) (A) (A) (A) (A) (A) (A) (A) (A)
                 (A) (A) (A) (A) (A) (A) (A) (A) (A) (A) (A) (A)
                 (A) (A) (A) (A) (A) (A) (A) (A) (A) (A) (A) (A)
                 (A) (A) (A) (A) (A) (A) (A) (A) (A) (A) (A) (A)
                 (A) (A) (A) (A) (A) (A) (A) (A) (A) (A) (A) (A)
                 (A) (A) (A) (A) (A) (A) (A) (A) (A) (A) (A) (A)
                 (A) (A) (A) (A) (A) (A) (A) (A) (A) (A) (A) (A)
                 (A) (A) (A) (A) (A) (A) (A) (A) (A) (A) (A) (A)
                 (A) (A) (A) (A) (A) (A) (A) (A) (A) (A) (A) (A)
                 (A) (A) (A) (A) (A) (A) (A) (A) (A) (A) (A) (A)
                 (A) (A) (A) (A) (A) (A) (A) (A) (A) (A) (A) (A)
                 (A) (A) (A) (A) (A) (A) (A) (A) (A) (A) (A) (A)
                 (A) (A) (A) (A) (A) (A) (A) (A) (A) (A) (A) (A)
                 (A) (A) (A) (A) (A) (A) (A) (A) (A) (A) (A) (A)
                 (A) (A) (A) (A) (A) (A) (A) (A) (A) (A) (A) (A)
                 (A) (A) (A) (A) (A) (A) (A) (A) (A) (A) (A) (A)
                 (A) (A) (A) (A) (A) (A) (A) (A) (A) (A) (A) (A)
                 (A) (A) (A) (A) (A) (A) (A) (A) (A) (A) (A) (A)
                 (A) (A) (A) (A) (A) (A) (A) (A) (A) (A) (A) (A)
                 (A) (A) (A) (A) (A) (A) (A) (A) (A) (A) (A) (A)
                 (A) (A) (A) (A) (A) (A) (A) (A) (A) (A) (A) (A)
                 (A) (A) (A) (A) (A) (A) (A) (A) (A) (A) (A) (A)
                 (A) (A) (A) (A) (A) (A) (A) (A) (A) (A) (A) (A)
                 (A) (A) (A) (A) (A) (A) (A) (A) (A) (A) (A) (A)
                 (A) (A) (A) (A) (A) (A) (A) (A) (A) (A) (A) (A)
                 (A) (A) (A) (A) (A) (A) (A) (A) (A) (A) (A) (A)
                 (A) (A) (A) (A) (A) (A) (A) (A) (A) (A) (A) (A)
                 (A) (A) (A) (A) (A) (A) (A) (A) (A) (A) (A) (A)
                 (A) (A) (A) (A) (A) (A) (A) (A) (A) (A) (A) (A)
                 (A) (A) (A) (A) (A) (A) (A) (A) (A) (A) (A) (A)
                 (A) (A) (A) (A) (A) (A) (A) (A) (A) (A) (A) (A)
                 (A) (A) (A) (A) (A) (A) (A) (A) (A) (A) (A) (A)
                 (A) (A) (A) (A) (A) (A) (A) (A) (A) (A) (A) (A)
                 (A) (A) (A) (A) (A) (A) (A) (A) (A) (A) (A) (A)
                 (A) (A) (A) (A) (A) (A) (A) (A) (A) (A) (A) (A)
                 (A) (A) (A) (A) (A) (A) (A) (A) (A) (A) (A) (A)
                 (A) (A) (A) (A) (A) (A) (A) (A) (A) (A) (A) (A)
                 (A) (A) (A) (A) (A) (A) (A) (A) (A) (A) (A) (A)
                 (A) (A) (A) (A) (A) (A) (A) (A) (A) (A) (A) (A)
                 (A) (A) (A) (A) (A) (A) (A) (A) (A) (A) (A) (A)
                 (A) (A) (A) (A) (A) (A) (A) (A) (A) (A) (A) (A)
                 (A) (A) (A) (A) (A) (A) (A) (A) (A) (A) (A) (A)
                 (A) (A) (A) (A) (A) (A) (A) (A) (A) (A) (A) (A)
                 (A) (A) (A) (A) (A) (A) (A) (A) (A) (A) (A) (A)
                 (A) (A) (A) (A) (A) (A) (A) (A) (A) (A) (A) (A)
                 (A) (A) (A) (A) (A) (A) (A) (A) (A) (A) (A) (A)
                 (A) (A) (A) (A) (A) (A) (A) (A) (A) (A) (A) (A)
                 (A) (A) (A) (A) (A) (A) (A) (A) (A) (A) (A) (A)
                 (A) (A) (A) (A) (A) (A) (A) (A) (A) (A) (A) (A)
                 (A) (A) (A) (A) (A) (A) (A) (A) (A) (A) (A) (A)
                 (A) (A) (A) (A) (A) (A) (A) (A) (A) (A) (A) (A)
                 (A) (A) (A) (A) (A) (A) (A) (A) (A) (A) (A) (A)
                 (A) (A) (A) (A) (A) (A) (A) (A) (A) (A) (A) (A)
                 (A) (A) (A) (A) (A) (A) (A) (A) (A) (A) (A) (A)
                 (A) (A) (A) (A) (A) (A) (A) (A) (A) (A) (A) (A)
                 (A) (A) (A) (A) (A) (A) (A) (A) (A) (A) (A) (A)
                 (A) (A) (A) (A) (A) (A) (A) (A) (A) (A) (A) (A)
                 (A) (A) (A) (A) (A) (A) (A) (A) (A) (A) (A) (A)
                 (A) (A) (A) (A) (A) (A) (A) (A) (A) (A) (A) (A)
                 (A) (A) (A) (A) (A) (A) (A) (A) (A) (A) (A) (A)
                 (A) (A) (A) (A) (A) (A) (A) (A) (A) (A) (A) (A)
                 (A) (A) (A) (A) (A) (A) (A) (A) (A) (A) (A) (A)
                 (A) (A) (A) (A) (A) (A) (A) (A) (A) (A) (A) (A)
                 (A) (A) (A) (A) (A) (A) (A) (A) (A) (A) (A) (A)
                 (A) (A) (A) (A) (A) (A) (A) (A) (A) (A) (A) (A)
                 (A) (A) (A) (A) (A) (A) (A) (A) (A) (A) (A) (A)
                 (A) (A) (A) (A) (A) (A) (A) (A) (A) (A) (A) (A)
                 (A) (A) (A) (A) (A) (A) (A) (A) (A) (A) (A) (A)
                 (A) (A) (A) (A) (A) (A) (A) (A) (A) (A) (A) (A)
                 (A) (A) (A) (A) (A) (A) (A) (A) (A) (A) (A) (A)
                 (A) (A) (A) (A) (A) (A) (A) (A) (A) (A) (A) (A)
                 (A) (A) (A) (A) (A) (A) (A) (A) (A) (A) (A) (A)
                 (A) (A) (A) (A) (A) (A) (A) (A) (A) (A) (A) (A)
                 (A) (A) (A) (A) (A) (A) (A) (A) (A) (A) (A) (A)
                 (A) (A) (A) (A) (A) (A) (A) (A) (A) (A) (A) (A)
                 (A) (A) (A) (A) (A) (A) (A) (A) (A) (A) (A) (A)
                 (A) (A) (A) (A) (A) (A) (A) (A) (A) (A) (A) (A)
                 (A) (A) (A) (A) (A) (A) (A) (A) (A) (A) (A) (A)
                 (A) (A) (A) (A) (A) (A) (A) (A) (A) (A) (A) (A)
                 (A) (A) (A) (A) (A) (A) (A) (A) (A) (A) (A) (A)
                 (A) (A) (A) (A) (A) (A) (A) (A) (A) (A) (A) (A)
                 (A) (A) (A) (A) (A) (A) (A) (A) (A) (A) (A) (A)
                 (A) (A) (A) (A) (A) (A) (A) (A) (A) (A) (A) (A)
                 (A) (A) (A) (A) (A) (A) (A) (A) (A) (A) (A) (A)
                 (A) (A) (A) (A) (A) (A) (A) (A) (A) (A) (A) (A)
                 (A) (A) (A) (A) (A) (A) (A) (A) (A) (A) (A) (A)
                 (A) (A) (A) (A) (A) (A) (A) (A) (A) (A) (A) (A)
                 (A) (A) (A) (A) (A) (A) (A) (A) (A) (A) (A) (A)
                 (A) (A) (A) (A) (A) (A) (A) (A) (A) (A) (A) (A)
                 (A) (A) (A) (A) (A) (A) (A) (A) (A) (A) (A) (A)
                 (A) (A) (A) (A) (A) (A) (A) (A) (A) (A) (A) (A)
                 (A) (A) (A) (A) (A) (A) (A) (A) (A) (A) (A) (A)
                 (A) (A) (A) (A) (A) (A) (A) (A) (A) (A) (A) (A)
                 (A) (A) (A) (A) (A) (A) (A) (A) (A) (A) (A) (A)
                 (A) (A) (A) (A) (A) (A) (A) (A) (A) (A) (A) (A)
                 (A) (A) (A) (A) (A) (A) (A) (A) (A) (A) (A) (A)
                 (A) (A) (A) (A) (A) (A) (A) (A) (A) (A) (A) (A)
                 (A) (A) (A) (A) (A) (A) (A) (A) (A) (A) (A) (A)
                 (A) (A) (A) (A) (A) (A) (A) (A) (A) (A) (A) (A)
                 (A) (A) (A) (A) (A) (A) (A) (A) (A) (A) (A) (A)
                 (A) (A) (A) (A) (A) (A) (A) (A) (A) (A) (A) (A)
                 (A) (A) (A) (A) (A) (A) (A) (A) (A) (A) (A) (A)
                 (A) (A) (A) (A) (A) (A) (A) (A) (A) (A) (A) (A)
                 (A) (A) (A) (A) (A) (A) (A) (A) (A) (A) (A) (A)
                 (A) (A) (A) (A) (A) (A) (A) (A) (A) (A) (A) (A)
                 (A) (A) (A) (A) (A) (A) (A) (A) (A) (A) (A) (A)
                 (A) (A) (A) (A) (A) (A) (A) (A) (A) (A) (A) (A)
                 (A) (A) (A) (A) (A) (A) (A) (A) (A) (A) (A) (A)
                 (A) (A) (A) (A) (A) (A) (A) (A) (A) (A) (A) (A)
                 (A) (A) (A) (A) (A) (A) (A) (A) (A) (A) (A) (A)
                 (A) (A) (A) (A) (A) (A)
 The electronic state is 1-A.
 Alpha  occ. eigenvalues --  -25.62235 -25.61933 -25.61916 -25.61883 -25.61612
 Alpha  occ. eigenvalues --  -25.61581 -19.84801 -19.82451 -19.82194 -14.98666
 Alpha  occ. eigenvalues --  -14.96582 -10.99753 -10.99619 -10.83796 -10.79219
 Alpha  occ. eigenvalues --  -10.78551 -10.76983 -10.75714 -10.74824 -10.73976
 Alpha  occ. eigenvalues --  -10.73147 -10.72724 -10.72082 -10.71386 -10.69995
 Alpha  occ. eigenvalues --  -10.69868  -1.48739  -1.48287  -1.39337  -1.38982
 Alpha  occ. eigenvalues --   -1.38835  -1.38662  -1.15156  -1.12968  -1.03317
 Alpha  occ. eigenvalues --   -1.02731  -0.99563  -0.96584  -0.87062  -0.86607
 Alpha  occ. eigenvalues --   -0.84891  -0.82564  -0.78877  -0.76924  -0.74070
 Alpha  occ. eigenvalues --   -0.69567  -0.69096  -0.67636  -0.65282  -0.64873
 Alpha  occ. eigenvalues --   -0.64704  -0.64128  -0.63785  -0.63338  -0.61045
 Alpha  occ. eigenvalues --   -0.58666  -0.55879  -0.53657  -0.53411  -0.53023
 Alpha  occ. eigenvalues --   -0.52730  -0.52590  -0.51141  -0.49896  -0.49063
 Alpha  occ. eigenvalues --   -0.48926  -0.48827  -0.48119  -0.47598  -0.46797
 Alpha  occ. eigenvalues --   -0.46640  -0.46556  -0.46382  -0.45251  -0.45055
 Alpha  occ. eigenvalues --   -0.44340  -0.44049  -0.43408  -0.42222  -0.41583
 Alpha  occ. eigenvalues --   -0.40671  -0.39870  -0.38585  -0.37475  -0.37306
 Alpha  occ. eigenvalues --   -0.37274  -0.36024  -0.35709  -0.34339  -0.33585
 Alpha  occ. eigenvalues --   -0.32869  -0.31968  -0.30066  -0.26447  -0.23876
 Alpha  occ. eigenvalues --   -0.23071  -0.22761  -0.22491  -0.22306  -0.17617
 Alpha virt. eigenvalues --    0.08069   0.08720   0.09613   0.09943   0.10163
 Alpha virt. eigenvalues --    0.10812   0.10938   0.11258   0.11639   0.12466
 Alpha virt. eigenvalues --    0.12612   0.12868   0.13065   0.13200   0.13382
 Alpha virt. eigenvalues --    0.13706   0.13848   0.14363   0.14677   0.14887
 Alpha virt. eigenvalues --    0.15472   0.15782   0.16021   0.16365   0.16983
 Alpha virt. eigenvalues --    0.17135   0.17409   0.17721   0.18323   0.18446
 Alpha virt. eigenvalues --    0.18788   0.18887   0.19205   0.19350   0.19436
 Alpha virt. eigenvalues --    0.19760   0.20021   0.20367   0.20714   0.20851
 Alpha virt. eigenvalues --    0.21118   0.21580   0.21784   0.21977   0.22112
 Alpha virt. eigenvalues --    0.22382   0.22843   0.22935   0.23163   0.23370
 Alpha virt. eigenvalues --    0.23629   0.24026   0.24148   0.24597   0.24741
 Alpha virt. eigenvalues --    0.24918   0.25459   0.25780   0.26093   0.26405
 Alpha virt. eigenvalues --    0.26499   0.26945   0.27273   0.27460   0.27857
 Alpha virt. eigenvalues --    0.27925   0.28113   0.28595   0.28924   0.29237
 Alpha virt. eigenvalues --    0.29441   0.30007   0.30096   0.30313   0.30497
 Alpha virt. eigenvalues --    0.30984   0.31114   0.31346   0.31732   0.31778
 Alpha virt. eigenvalues --    0.32208   0.32540   0.32904   0.33071   0.33402
 Alpha virt. eigenvalues --    0.33554   0.33817   0.33941   0.34157   0.34570
 Alpha virt. eigenvalues --    0.34662   0.35028   0.35484   0.35549   0.35703
 Alpha virt. eigenvalues --    0.36052   0.36180   0.36514   0.36847   0.36920
 Alpha virt. eigenvalues --    0.37167   0.37271   0.37325   0.37646   0.37844
 Alpha virt. eigenvalues --    0.38015   0.38143   0.38315   0.38569   0.38823
 Alpha virt. eigenvalues --    0.39013   0.39271   0.39405   0.39495   0.39893
 Alpha virt. eigenvalues --    0.40086   0.40165   0.40321   0.40494   0.40630
 Alpha virt. eigenvalues --    0.40953   0.41046   0.41280   0.41915   0.42126
 Alpha virt. eigenvalues --    0.42221   0.42357   0.42415   0.42699   0.42939
 Alpha virt. eigenvalues --    0.43087   0.43756   0.43907   0.44167   0.44295
 Alpha virt. eigenvalues --    0.44408   0.44812   0.45077   0.45216   0.45416
 Alpha virt. eigenvalues --    0.45604   0.45853   0.45967   0.46105   0.46420
 Alpha virt. eigenvalues --    0.46568   0.46708   0.46914   0.47091   0.47411
 Alpha virt. eigenvalues --    0.47584   0.47837   0.48079   0.48248   0.48414
 Alpha virt. eigenvalues --    0.48831   0.48992   0.49322   0.49544   0.49877
 Alpha virt. eigenvalues --    0.50181   0.50237   0.50373   0.50682   0.50926
 Alpha virt. eigenvalues --    0.51187   0.51303   0.51357   0.51752   0.51845
 Alpha virt. eigenvalues --    0.52235   0.52284   0.52431   0.52630   0.53144
 Alpha virt. eigenvalues --    0.53327   0.53590   0.53839   0.53961   0.54043
 Alpha virt. eigenvalues --    0.54215   0.54415   0.54533   0.54953   0.55068
 Alpha virt. eigenvalues --    0.55254   0.55491   0.55877   0.56171   0.56396
 Alpha virt. eigenvalues --    0.56558   0.56843   0.57155   0.57206   0.57542
 Alpha virt. eigenvalues --    0.57627   0.57860   0.58007   0.58089   0.58374
 Alpha virt. eigenvalues --    0.58757   0.59002   0.59062   0.59461   0.59712
 Alpha virt. eigenvalues --    0.59833   0.60183   0.60514   0.60825   0.61325
 Alpha virt. eigenvalues --    0.61547   0.61675   0.62218   0.62404   0.62462
 Alpha virt. eigenvalues --    0.62751   0.62938   0.63201   0.63326   0.63560
 Alpha virt. eigenvalues --    0.63885   0.64253   0.64437   0.64539   0.64791
 Alpha virt. eigenvalues --    0.64992   0.65592   0.65704   0.66316   0.66699
 Alpha virt. eigenvalues --    0.66842   0.66951   0.67250   0.67356   0.67759
 Alpha virt. eigenvalues --    0.68183   0.68254   0.68670   0.68698   0.69254
 Alpha virt. eigenvalues --    0.69634   0.69978   0.70062   0.70533   0.70993
 Alpha virt. eigenvalues --    0.71288   0.71877   0.72102   0.72437   0.72524
 Alpha virt. eigenvalues --    0.72837   0.73516   0.73876   0.73917   0.74082
 Alpha virt. eigenvalues --    0.74491   0.74886   0.75260   0.75324   0.75605
 Alpha virt. eigenvalues --    0.75955   0.76269   0.76503   0.76950   0.77493
 Alpha virt. eigenvalues --    0.77666   0.78025   0.78505   0.78660   0.79479
 Alpha virt. eigenvalues --    0.79986   0.80560   0.80792   0.81023   0.81434
 Alpha virt. eigenvalues --    0.81840   0.82236   0.82703   0.82956   0.83231
 Alpha virt. eigenvalues --    0.83537   0.83814   0.84104   0.84451   0.84741
 Alpha virt. eigenvalues --    0.84892   0.85521   0.85649   0.86296   0.86504
 Alpha virt. eigenvalues --    0.86767   0.87163   0.87438   0.87832   0.88054
 Alpha virt. eigenvalues --    0.88267   0.88558   0.89054   0.89140   0.89659
 Alpha virt. eigenvalues --    0.90074   0.90287   0.90498   0.91175   0.91417
 Alpha virt. eigenvalues --    0.91800   0.91927   0.92175   0.92493   0.92707
 Alpha virt. eigenvalues --    0.92973   0.93331   0.93820   0.94039   0.94315
 Alpha virt. eigenvalues --    0.94474   0.94552   0.95069   0.95387   0.95509
 Alpha virt. eigenvalues --    0.95821   0.96159   0.96304   0.96446   0.96618
 Alpha virt. eigenvalues --    0.96915   0.97323   0.97365   0.98057   0.98100
 Alpha virt. eigenvalues --    0.98199   0.98320   0.98590   0.98866   0.99259
 Alpha virt. eigenvalues --    0.99615   0.99944   1.00288   1.00445   1.01008
 Alpha virt. eigenvalues --    1.01091   1.01373   1.01663   1.02033   1.02163
 Alpha virt. eigenvalues --    1.02490   1.03014   1.03110   1.03323   1.03762
 Alpha virt. eigenvalues --    1.04288   1.04381   1.04592   1.04986   1.05354
 Alpha virt. eigenvalues --    1.05548   1.05730   1.05857   1.06128   1.06527
 Alpha virt. eigenvalues --    1.06770   1.06988   1.07149   1.07684   1.07968
 Alpha virt. eigenvalues --    1.08764   1.08898   1.08948   1.09357   1.09476
 Alpha virt. eigenvalues --    1.09753   1.10104   1.10268   1.10539   1.10775
 Alpha virt. eigenvalues --    1.11530   1.11883   1.12202   1.12487   1.13146
 Alpha virt. eigenvalues --    1.13197   1.13354   1.13703   1.13888   1.13993
 Alpha virt. eigenvalues --    1.14248   1.14783   1.14979   1.15221   1.15358
 Alpha virt. eigenvalues --    1.15629   1.15849   1.16129   1.16295   1.16817
 Alpha virt. eigenvalues --    1.16949   1.17054   1.17230   1.17452   1.17645
 Alpha virt. eigenvalues --    1.17891   1.18253   1.18361   1.18825   1.19306
 Alpha virt. eigenvalues --    1.19460   1.19653   1.20026   1.20280   1.20482
 Alpha virt. eigenvalues --    1.20859   1.21032   1.21201   1.21596   1.22022
 Alpha virt. eigenvalues --    1.22773   1.22875   1.23315   1.23651   1.23794
 Alpha virt. eigenvalues --    1.24001   1.24172   1.24597   1.24980   1.25369
 Alpha virt. eigenvalues --    1.25752   1.25850   1.25980   1.26502   1.26794
 Alpha virt. eigenvalues --    1.27045   1.27628   1.27970   1.28304   1.28472
 Alpha virt. eigenvalues --    1.28900   1.29143   1.29248   1.29552   1.29667
 Alpha virt. eigenvalues --    1.29893   1.30121   1.30430   1.30990   1.31166
 Alpha virt. eigenvalues --    1.31502   1.32205   1.32542   1.32758   1.33163
 Alpha virt. eigenvalues --    1.33596   1.33720   1.33982   1.34072   1.34454
 Alpha virt. eigenvalues --    1.34838   1.35363   1.35567   1.35741   1.36146
 Alpha virt. eigenvalues --    1.36585   1.36842   1.37060   1.37328   1.37664
 Alpha virt. eigenvalues --    1.38111   1.38311   1.38603   1.38866   1.39193
 Alpha virt. eigenvalues --    1.39874   1.40118   1.40214   1.40355   1.41075
 Alpha virt. eigenvalues --    1.41263   1.41890   1.41993   1.42276   1.42799
 Alpha virt. eigenvalues --    1.43050   1.43604   1.43811   1.44115   1.44360
 Alpha virt. eigenvalues --    1.45010   1.45258   1.45644   1.46023   1.46264
 Alpha virt. eigenvalues --    1.46699   1.46942   1.47146   1.47419   1.47812
 Alpha virt. eigenvalues --    1.48031   1.48421   1.48648   1.48950   1.49582
 Alpha virt. eigenvalues --    1.49850   1.50286   1.50779   1.51172   1.51494
 Alpha virt. eigenvalues --    1.51702   1.52250   1.52680   1.52922   1.53146
 Alpha virt. eigenvalues --    1.53332   1.54100   1.54562   1.54969   1.55094
 Alpha virt. eigenvalues --    1.55333   1.55970   1.56561   1.56923   1.57202
 Alpha virt. eigenvalues --    1.57463   1.57933   1.58213   1.58228   1.58631
 Alpha virt. eigenvalues --    1.59224   1.59709   1.60182   1.60748   1.61163
 Alpha virt. eigenvalues --    1.61597   1.61756   1.62385   1.62497   1.62916
 Alpha virt. eigenvalues --    1.63172   1.63594   1.64154   1.64486   1.65045
 Alpha virt. eigenvalues --    1.65405   1.65737   1.65856   1.66604   1.67077
 Alpha virt. eigenvalues --    1.67183   1.67875   1.67972   1.68043   1.68349
 Alpha virt. eigenvalues --    1.68642   1.68820   1.69137   1.69734   1.69980
 Alpha virt. eigenvalues --    1.70304   1.70779   1.70961   1.71260   1.71535
 Alpha virt. eigenvalues --    1.71832   1.72375   1.72430   1.73330   1.73592
 Alpha virt. eigenvalues --    1.74060   1.74406   1.74485   1.74881   1.75107
 Alpha virt. eigenvalues --    1.75482   1.75670   1.75874   1.76252   1.76507
 Alpha virt. eigenvalues --    1.76943   1.77596   1.77908   1.78083   1.78693
 Alpha virt. eigenvalues --    1.79029   1.79361   1.79898   1.80041   1.80331
 Alpha virt. eigenvalues --    1.80657   1.81236   1.81371   1.81501   1.81786
 Alpha virt. eigenvalues --    1.82178   1.82754   1.82990   1.83567   1.83815
 Alpha virt. eigenvalues --    1.84352   1.84501   1.84857   1.85063   1.85365
 Alpha virt. eigenvalues --    1.85729   1.86066   1.86971   1.87121   1.87504
 Alpha virt. eigenvalues --    1.87832   1.88420   1.89387   1.89526   1.89975
 Alpha virt. eigenvalues --    1.90455   1.90627   1.91426   1.91611   1.92006
 Alpha virt. eigenvalues --    1.92400   1.92547   1.93076   1.93475   1.93647
 Alpha virt. eigenvalues --    1.94010   1.94256   1.94920   1.95122   1.95825
 Alpha virt. eigenvalues --    1.95994   1.96291   1.96653   1.96937   1.97337
 Alpha virt. eigenvalues --    1.97641   1.97812   1.98321   1.98817   1.99127
 Alpha virt. eigenvalues --    1.99490   2.00160   2.00384   2.00656   2.00846
 Alpha virt. eigenvalues --    2.01333   2.01899   2.02068   2.02737   2.03018
 Alpha virt. eigenvalues --    2.03273   2.03822   2.04052   2.04875   2.05069
 Alpha virt. eigenvalues --    2.05766   2.06019   2.06501   2.06678   2.07185
 Alpha virt. eigenvalues --    2.07880   2.08343   2.08582   2.08817   2.09374
 Alpha virt. eigenvalues --    2.09688   2.10153   2.10332   2.10534   2.11141
 Alpha virt. eigenvalues --    2.11283   2.11844   2.12742   2.13154   2.13549
 Alpha virt. eigenvalues --    2.14165   2.14468   2.14512   2.15121   2.15757
 Alpha virt. eigenvalues --    2.16094   2.16338   2.16587   2.17854   2.18564
 Alpha virt. eigenvalues --    2.19165   2.19766   2.20142   2.20507   2.21651
 Alpha virt. eigenvalues --    2.22021   2.22126   2.23047   2.23635   2.24421
 Alpha virt. eigenvalues --    2.24689   2.25011   2.25333   2.25457   2.26511
 Alpha virt. eigenvalues --    2.27188   2.27263   2.28591   2.29013   2.29306
 Alpha virt. eigenvalues --    2.29787   2.30237   2.30576   2.31371   2.31895
 Alpha virt. eigenvalues --    2.32417   2.33044   2.33159   2.34013   2.34182
 Alpha virt. eigenvalues --    2.34713   2.34993   2.36004   2.36754   2.37583
 Alpha virt. eigenvalues --    2.38278   2.38630   2.39228   2.39887   2.40774
 Alpha virt. eigenvalues --    2.41344   2.41798   2.41965   2.42882   2.43022
 Alpha virt. eigenvalues --    2.43791   2.44545   2.44818   2.45574   2.46334
 Alpha virt. eigenvalues --    2.47128   2.47623   2.47970   2.49407   2.50133
 Alpha virt. eigenvalues --    2.50662   2.51192   2.51885   2.52178   2.52891
 Alpha virt. eigenvalues --    2.53252   2.53507   2.54661   2.54944   2.55535
 Alpha virt. eigenvalues --    2.56262   2.56476   2.57239   2.57970   2.58557
 Alpha virt. eigenvalues --    2.59821   2.60357   2.60928   2.61371   2.61461
 Alpha virt. eigenvalues --    2.62773   2.63979   2.64103   2.64959   2.66515
 Alpha virt. eigenvalues --    2.67375   2.67719   2.68653   2.68745   2.70005
 Alpha virt. eigenvalues --    2.70428   2.71576   2.73098   2.73347   2.73870
 Alpha virt. eigenvalues --    2.74244   2.75111   2.75543   2.75941   2.77023
 Alpha virt. eigenvalues --    2.77822   2.78579   2.79514   2.79770   2.80461
 Alpha virt. eigenvalues --    2.81472   2.81668   2.82191   2.82297   2.82785
 Alpha virt. eigenvalues --    2.83536   2.84483   2.84641   2.85517   2.86040
 Alpha virt. eigenvalues --    2.86659   2.87285   2.87584   2.87952   2.88905
 Alpha virt. eigenvalues --    2.89311   2.89759   2.91146   2.91271   2.91571
 Alpha virt. eigenvalues --    2.92101   2.93344   2.94412   2.95105   2.95548
 Alpha virt. eigenvalues --    2.95775   2.96300   2.96780   2.97308   2.98212
 Alpha virt. eigenvalues --    2.99386   3.00254   3.00698   3.01240   3.01550
 Alpha virt. eigenvalues --    3.02220   3.02538   3.03229   3.03999   3.04577
 Alpha virt. eigenvalues --    3.05661   3.06441   3.06901   3.07125   3.07801
 Alpha virt. eigenvalues --    3.08325   3.09080   3.10068   3.10307   3.10609
 Alpha virt. eigenvalues --    3.11166   3.12197   3.12959   3.13257   3.13827
 Alpha virt. eigenvalues --    3.14093   3.14604   3.15488   3.16525   3.16800
 Alpha virt. eigenvalues --    3.17515   3.17868   3.18406   3.18843   3.19440
 Alpha virt. eigenvalues --    3.19690   3.20455   3.20854   3.21613   3.21763
 Alpha virt. eigenvalues --    3.23036   3.23494   3.24683   3.25480   3.25797
 Alpha virt. eigenvalues --    3.26552   3.28191   3.28394   3.29066   3.29831
 Alpha virt. eigenvalues --    3.30725   3.30860   3.31718   3.31973   3.33179
 Alpha virt. eigenvalues --    3.33990   3.34267   3.35345   3.36227   3.36571
 Alpha virt. eigenvalues --    3.36776   3.37923   3.38507   3.39257   3.39534
 Alpha virt. eigenvalues --    3.39883   3.40477   3.40782   3.41331   3.41671
 Alpha virt. eigenvalues --    3.41778   3.42747   3.43624   3.44183   3.44551
 Alpha virt. eigenvalues --    3.44775   3.45240   3.45382   3.45897   3.46723
 Alpha virt. eigenvalues --    3.47108   3.47589   3.48002   3.48823   3.49395
 Alpha virt. eigenvalues --    3.49816   3.49966   3.50509   3.51000   3.52085
 Alpha virt. eigenvalues --    3.52300   3.53589   3.53835   3.54128   3.54596
 Alpha virt. eigenvalues --    3.55455   3.55667   3.56429   3.57152   3.57391
 Alpha virt. eigenvalues --    3.57899   3.58818   3.59414   3.59741   3.60316
 Alpha virt. eigenvalues --    3.60705   3.61717   3.62159   3.62336   3.62599
 Alpha virt. eigenvalues --    3.63389   3.64498   3.65305   3.65395   3.66074
 Alpha virt. eigenvalues --    3.66119   3.66315   3.67079   3.67388   3.67491
 Alpha virt. eigenvalues --    3.68193   3.68208   3.69467   3.70256   3.70683
 Alpha virt. eigenvalues --    3.70933   3.71393   3.71778   3.72095   3.72743
 Alpha virt. eigenvalues --    3.72818   3.73683   3.73766   3.73990   3.74302
 Alpha virt. eigenvalues --    3.75021   3.75208   3.75750   3.76105   3.76443
 Alpha virt. eigenvalues --    3.76890   3.77280   3.77820   3.78013   3.78676
 Alpha virt. eigenvalues --    3.79094   3.79786   3.80130   3.80517   3.80849
 Alpha virt. eigenvalues --    3.81129   3.82248   3.82301   3.82710   3.83000
 Alpha virt. eigenvalues --    3.83677   3.84085   3.84216   3.84899   3.85406
 Alpha virt. eigenvalues --    3.85858   3.86278   3.86787   3.86936   3.87518
 Alpha virt. eigenvalues --    3.88459   3.89441   3.89581   3.90138   3.90608
 Alpha virt. eigenvalues --    3.90744   3.91418   3.91643   3.92031   3.92619
 Alpha virt. eigenvalues --    3.93356   3.93899   3.94087   3.94488   3.95374
 Alpha virt. eigenvalues --    3.95679   3.95888   3.96649   3.97892   3.98083
 Alpha virt. eigenvalues --    3.98554   3.98891   3.99390   3.99756   4.00102
 Alpha virt. eigenvalues --    4.00329   4.00514   4.01492   4.01624   4.01927
 Alpha virt. eigenvalues --    4.02836   4.03003   4.03289   4.04224   4.04414
 Alpha virt. eigenvalues --    4.05184   4.05642   4.05941   4.06940   4.07777
 Alpha virt. eigenvalues --    4.09157   4.09276   4.10013   4.10243   4.10974
 Alpha virt. eigenvalues --    4.11822   4.12381   4.12949   4.13682   4.14345
 Alpha virt. eigenvalues --    4.14559   4.14871   4.15397   4.15887   4.16932
 Alpha virt. eigenvalues --    4.17185   4.17697   4.18002   4.18697   4.19029
 Alpha virt. eigenvalues --    4.19476   4.19897   4.20381   4.20694   4.20939
 Alpha virt. eigenvalues --    4.21456   4.22105   4.22636   4.22888   4.23448
 Alpha virt. eigenvalues --    4.23711   4.23997   4.24569   4.24860   4.25375
 Alpha virt. eigenvalues --    4.26283   4.26795   4.27373   4.27906   4.28119
 Alpha virt. eigenvalues --    4.28779   4.29080   4.29787   4.30392   4.30593
 Alpha virt. eigenvalues --    4.31004   4.31089   4.32432   4.32634   4.33034
 Alpha virt. eigenvalues --    4.34077   4.34581   4.34860   4.35831   4.36202
 Alpha virt. eigenvalues --    4.37045   4.37523   4.37939   4.38741   4.39131
 Alpha virt. eigenvalues --    4.39635   4.40301   4.40917   4.41828   4.42228
 Alpha virt. eigenvalues --    4.43375   4.44000   4.44458   4.45463   4.46025
 Alpha virt. eigenvalues --    4.46767   4.47486   4.47932   4.48407   4.48836
 Alpha virt. eigenvalues --    4.49245   4.49985   4.50317   4.51559   4.52158
 Alpha virt. eigenvalues --    4.52670   4.53155   4.53892   4.54499   4.55355
 Alpha virt. eigenvalues --    4.56260   4.56882   4.57497   4.58676   4.59433
 Alpha virt. eigenvalues --    4.59512   4.59963   4.60270   4.61044   4.61991
 Alpha virt. eigenvalues --    4.62905   4.63349   4.64351   4.64817   4.65019
 Alpha virt. eigenvalues --    4.66488   4.66849   4.67169   4.67688   4.68782
 Alpha virt. eigenvalues --    4.69020   4.69538   4.70211   4.70265   4.71339
 Alpha virt. eigenvalues --    4.72164   4.72784   4.73240   4.73687   4.74725
 Alpha virt. eigenvalues --    4.74966   4.75469   4.76407   4.77035   4.77356
 Alpha virt. eigenvalues --    4.78743   4.79199   4.79277   4.80602   4.81119
 Alpha virt. eigenvalues --    4.81152   4.82319   4.82988   4.83152   4.83382
 Alpha virt. eigenvalues --    4.83622   4.85319   4.85393   4.85703   4.86853
 Alpha virt. eigenvalues --    4.88293   4.89451   4.89777   4.90981   4.91680
 Alpha virt. eigenvalues --    4.92045   4.92823   4.93088   4.93468   4.94634
 Alpha virt. eigenvalues --    4.94805   4.95618   4.96494   4.97130   4.97626
 Alpha virt. eigenvalues --    4.97924   4.98714   5.00256   5.00675   5.01954
 Alpha virt. eigenvalues --    5.02682   5.03590   5.04741   5.05625   5.05741
 Alpha virt. eigenvalues --    5.06834   5.07754   5.08152   5.08838   5.09894
 Alpha virt. eigenvalues --    5.09986   5.10524   5.11148   5.12141   5.13082
 Alpha virt. eigenvalues --    5.13368   5.13937   5.14570   5.14984   5.15616
 Alpha virt. eigenvalues --    5.16714   5.17274   5.17682   5.18577   5.19454
 Alpha virt. eigenvalues --    5.20230   5.20580   5.21190   5.21668   5.22713
 Alpha virt. eigenvalues --    5.24041   5.25082   5.25587   5.26037   5.26943
 Alpha virt. eigenvalues --    5.27641   5.28016   5.28437   5.28969   5.29922
 Alpha virt. eigenvalues --    5.30456   5.30664   5.31552   5.33041   5.34081
 Alpha virt. eigenvalues --    5.34337   5.35430   5.35784   5.36101   5.37209
 Alpha virt. eigenvalues --    5.38395   5.40207   5.41093   5.41196   5.43871
 Alpha virt. eigenvalues --    5.43992   5.45884   5.46655   5.48088   5.49657
 Alpha virt. eigenvalues --    5.50812   5.51596   5.52287   5.53711   5.55340
 Alpha virt. eigenvalues --    5.56227   5.57271   5.58009   5.58268   5.59197
 Alpha virt. eigenvalues --    5.59364   5.60508   5.62500   5.63070   5.63637
 Alpha virt. eigenvalues --    5.64839   5.65443   5.67332   5.68143   5.68852
 Alpha virt. eigenvalues --    5.70066   5.70933   5.71776   5.72514   5.73240
 Alpha virt. eigenvalues --    5.74007   5.75933   5.77517   5.78007   5.78939
 Alpha virt. eigenvalues --    5.80126   5.81504   5.82038   5.82524   5.83605
 Alpha virt. eigenvalues --    5.84141   5.84495   5.84733   5.87484   5.88143
 Alpha virt. eigenvalues --    5.89414   5.90781   5.92079   5.93121   5.94402
 Alpha virt. eigenvalues --    5.94981   5.96615   5.97772   5.98235   5.98485
 Alpha virt. eigenvalues --    5.99591   5.99854   6.01674   6.02739   6.05075
 Alpha virt. eigenvalues --    6.05911   6.07267   6.08395   6.10866   6.11986
 Alpha virt. eigenvalues --    6.12260   6.13858   6.14044   6.14734   6.15351
 Alpha virt. eigenvalues --    6.16345   6.17438   6.17884   6.18455   6.19400
 Alpha virt. eigenvalues --    6.20635   6.23053   6.24378   6.25538   6.26858
 Alpha virt. eigenvalues --    6.30894   6.33829   6.35906   6.36604   6.37280
 Alpha virt. eigenvalues --    6.40451   6.42291   6.43503   6.45750   6.46129
 Alpha virt. eigenvalues --    6.48972   6.53207   6.57876   6.62197   6.64695
 Alpha virt. eigenvalues --    6.68533   6.69955   6.71585   6.75100   6.76107
 Alpha virt. eigenvalues --    6.77963   6.78518   6.80078   6.80687   6.82097
 Alpha virt. eigenvalues --    6.82747   6.85582   6.89707   6.90265   6.92344
 Alpha virt. eigenvalues --    6.93152   6.94600   6.95971   6.98005   7.00573
 Alpha virt. eigenvalues --    7.00672   7.05404   7.07530   7.07725   7.08827
 Alpha virt. eigenvalues --    7.09226   7.10256   7.13194   7.16536   7.17457
 Alpha virt. eigenvalues --    7.17871   7.19281   7.23171   7.24792   7.25272
 Alpha virt. eigenvalues --    7.29157   7.29649   7.35920   7.36310   7.37137
 Alpha virt. eigenvalues --    7.37906   7.39410   7.39943   7.41788   7.44478
 Alpha virt. eigenvalues --    7.47438   7.48913   7.51922   7.65079   7.65885
 Alpha virt. eigenvalues --    7.67784   7.69617   7.72416   7.76855   7.79329
 Alpha virt. eigenvalues --    7.88652   7.95064   7.99621   8.02550   8.08208
 Alpha virt. eigenvalues --    8.09799   8.13974   8.32969   8.44711   8.80747
 Alpha virt. eigenvalues --    8.84764   8.85756   8.86224   8.87657   8.88924
 Alpha virt. eigenvalues --    8.89470   8.90996   8.91816   8.93012   8.94998
 Alpha virt. eigenvalues --    8.97507   9.02011   9.03941   9.06443   9.08562
 Alpha virt. eigenvalues --    9.16681   9.19128   9.19983   9.20259   9.21184
 Alpha virt. eigenvalues --    9.23006   9.24555   9.24771   9.25707   9.27588
 Alpha virt. eigenvalues --    9.28043   9.28529   9.30297   9.31133   9.32759
 Alpha virt. eigenvalues --    9.33467   9.34361   9.35408   9.36618   9.36889
 Alpha virt. eigenvalues --    9.37164   9.38344   9.39683   9.39904   9.40075
 Alpha virt. eigenvalues --    9.42498   9.42871   9.43930   9.44101   9.47088
 Alpha virt. eigenvalues --    9.48042   9.49551   9.50185   9.52067   9.53977
 Alpha virt. eigenvalues --    9.55772   9.56577   9.57275   9.59492   9.59574
 Alpha virt. eigenvalues --    9.61071   9.61838   9.63258   9.64931   9.68798
 Alpha virt. eigenvalues --    9.71960   9.82151   9.83448   9.84138   9.87046
 Alpha virt. eigenvalues --    9.89601   9.94026  10.04834  10.07106  10.10261
 Alpha virt. eigenvalues --   10.11449  15.29530  15.79602  15.97741  16.13940
 Alpha virt. eigenvalues --   16.23450  16.39794  16.53253  16.58176  16.69331
 Alpha virt. eigenvalues --   17.04527  17.20136  17.44001  17.78865  18.24348
 Alpha virt. eigenvalues --   18.27962  18.42166  18.64446  18.95896  19.34872
 Alpha virt. eigenvalues --   19.71015  20.45517  20.66834  21.00621  21.51405
 Alpha virt. eigenvalues --   21.84534  22.32288
          Condensed to atoms (all electrons):
               1          2          3          4          5          6
     1  C   11.787239  -0.517866  -0.886158   0.062249  -0.001025   0.026565
     2  N   -0.517866   9.634333   0.565482  -0.158836  -0.788438  -0.203968
     3  C   -0.886158   0.565482   7.441210   0.291682  -0.014136  -0.542269
     4  O    0.062249  -0.158836   0.291682   9.220811  -0.194572   0.026726
     5  N   -0.001025  -0.788438  -0.014136  -0.194572   8.757342   0.533159
     6  C    0.026565  -0.203968  -0.542269   0.026726   0.533159   6.565752
     7  C   -0.003777  -0.015453   0.026084  -0.003727   0.005105  -0.061466
     8  C    0.000722   0.000697   0.006288   0.000659  -0.025637  -0.007011
     9  C   -1.164833  -0.428693   0.062377  -0.143391  -0.180464  -0.049684
    10  C   -0.632008   0.228459  -0.084230   0.053982   0.005327  -0.002443
    11  C    0.038228  -0.042985   0.035992  -0.023616   0.011860   0.003984
    12  C   -0.790478   0.145965  -0.046360   0.018952   0.026986  -0.001384
    13  C   -1.449763  -0.280590  -0.023255   0.020110  -0.029880  -0.010231
    14  H   -0.398277  -0.740105  -0.508732  -0.003492   0.317060   0.002880
    15  H   -0.117265   0.245639  -0.179768  -0.079117  -0.784231  -0.425119
    16  H   -0.003208   0.000465  -0.051911   0.019496  -0.022576   0.407801
    17  H    0.003274   0.007538  -0.062163  -0.021111  -0.112226   0.365670
    18  H   -0.003071   0.000553   0.009885   0.003906  -0.033391  -0.016870
    19  H    0.000802  -0.001130   0.005500  -0.002282  -0.044894   0.004344
    20  H    0.000199  -0.000012   0.003541   0.000486   0.004729  -0.012274
    21  H   -0.000011  -0.000144   0.000885  -0.000035   0.001129  -0.005553
    22  H    0.000283   0.000165   0.002804  -0.000500   0.006012  -0.015054
    23  H   -0.951886  -0.057329   0.045248  -0.108932  -0.007932  -0.036761
    24  H    0.059982   0.028446  -0.029441   0.005391  -0.001228   0.003134
    25  C   -0.053328   0.025550  -0.002044  -0.000770   0.001794  -0.000274
    26  C    0.077034   0.013586   0.003707  -0.008387  -0.000661  -0.001909
    27  H    0.040333  -0.007733  -0.003972   0.000487   0.001420  -0.000196
    28  F   -0.008370   0.001796   0.000138  -0.000022   0.000026   0.000009
    29  F   -0.025103   0.004670   0.000215  -0.000017   0.000066   0.000008
    30  F   -0.008938  -0.002631  -0.000204  -0.000022  -0.000095  -0.000029
    31  F    0.006537   0.006248   0.000032  -0.007938  -0.000258  -0.000690
    32  F    0.021016  -0.001641   0.000805   0.001073   0.000391   0.000178
    33  F    0.003068  -0.000336   0.001248  -0.000041  -0.000016   0.000073
    34  O    0.009447  -0.110328  -0.004640  -0.000231  -0.017102  -0.017580
    35  O    0.023630  -0.008753  -0.015067  -0.003204  -0.038778  -0.043078
    36  C   -0.050374  -0.043369  -0.006585  -0.002658  -0.028466   0.004901
    37  C    0.004025  -0.019436  -0.015191  -0.000562   0.001885   0.009563
    38  C   -0.000154  -0.002483  -0.000452   0.000016  -0.000458  -0.002356
    39  H    0.002499  -0.003502  -0.001345  -0.000031   0.002245   0.000868
    40  H    0.002404  -0.003674  -0.001352  -0.000018   0.002538   0.000776
    41  H   -0.000324  -0.000001   0.000158   0.000004   0.000226  -0.000269
    42  H   -0.000007   0.000092   0.000214   0.000001  -0.000308  -0.000617
    43  H   -0.000337   0.000044   0.000064   0.000015  -0.001129   0.000401
               7          8          9         10         11         12
     1  C   -0.003777   0.000722  -1.164833  -0.632008   0.038228  -0.790478
     2  N   -0.015453   0.000697  -0.428693   0.228459  -0.042985   0.145965
     3  C    0.026084   0.006288   0.062377  -0.084230   0.035992  -0.046360
     4  O   -0.003727   0.000659  -0.143391   0.053982  -0.023616   0.018952
     5  N    0.005105  -0.025637  -0.180464   0.005327   0.011860   0.026986
     6  C   -0.061466  -0.007011  -0.049684  -0.002443   0.003984  -0.001384
     7  C    5.716138   0.035286   0.002615   0.000316   0.000604  -0.000268
     8  C    0.035286   5.880110   0.000275   0.000017   0.000062  -0.000136
     9  C    0.002615   0.000275  11.934671  -1.571877  -0.151111  -0.167747
    10  C    0.000316   0.000017  -1.571877  10.221533  -1.758532  -0.096873
    11  C    0.000604   0.000062  -0.151111  -1.758532   9.752178  -1.421472
    12  C   -0.000268  -0.000136  -0.167747  -0.096873  -1.421472  10.696281
    13  C    0.001340   0.000090  -0.340317   0.188766  -0.254343  -0.641754
    14  H    0.008945   0.000256  -0.056467  -0.058092   0.041572  -0.056398
    15  H   -0.001954   0.004032   0.031166   0.008478  -0.010920   0.001951
    16  H   -0.001973  -0.010098   0.006405  -0.001367   0.000557  -0.000361
    17  H   -0.026971  -0.014256  -0.001393   0.000320   0.000323  -0.000504
    18  H    0.402868  -0.039815   0.001812  -0.000135   0.000085   0.000027
    19  H    0.325099  -0.039859   0.000400  -0.000181   0.000304  -0.000147
    20  H    0.016483   0.392578   0.000117   0.000003  -0.000000   0.000007
    21  H   -0.028921   0.458602  -0.000075  -0.000001   0.000004  -0.000009
    22  H    0.026701   0.378247  -0.000019   0.000054  -0.000015   0.000009
    23  H   -0.001449  -0.000154  -0.183311  -0.323743  -0.042270   0.015499
    24  H   -0.002088  -0.000143  -0.114225  -0.037640   0.104488  -0.265862
    25  C    0.000019  -0.000000   0.026092  -0.143755  -0.595672  -0.519003
    26  C   -0.000035   0.000006  -0.390555  -0.544132   0.034367   0.056986
    27  H   -0.000030   0.000003   0.076398  -0.113786  -0.055633   0.033853
    28  F    0.000000   0.000000  -0.009164   0.017133   0.019155  -0.040620
    29  F   -0.000001   0.000000  -0.012087   0.027226  -0.010557   0.007126
    30  F    0.000001   0.000000  -0.000021  -0.016362   0.039315  -0.020305
    31  F    0.000009  -0.000002   0.048746  -0.056070   0.001841  -0.001509
    32  F    0.000003   0.000000   0.002358  -0.009051   0.021300   0.004550
    33  F   -0.000001   0.000000  -0.035431  -0.010659   0.040246   0.001130
    34  O    0.007238   0.001858  -0.032781   0.001751  -0.009271   0.060012
    35  O   -0.012298  -0.001576  -0.008986   0.004190  -0.001253   0.003244
    36  C   -0.003780  -0.001805  -0.000545   0.007861  -0.010807   0.019552
    37  C   -0.001143  -0.000260   0.002445  -0.002474   0.001763   0.004952
    38  C    0.002891  -0.000161  -0.000092   0.000262  -0.000046  -0.000180
    39  H   -0.000658  -0.000112   0.000163  -0.000333   0.000079   0.002496
    40  H   -0.000464  -0.000069  -0.000030  -0.000316   0.000083   0.002437
    41  H   -0.000422  -0.000083   0.000060  -0.000013   0.000022  -0.000171
    42  H    0.000260  -0.000028  -0.000051   0.000044  -0.000024  -0.000002
    43  H   -0.000179   0.000281   0.000112  -0.000019   0.000026  -0.000104
              13         14         15         16         17         18
     1  C   -1.449763  -0.398277  -0.117265  -0.003208   0.003274  -0.003071
     2  N   -0.280590  -0.740105   0.245639   0.000465   0.007538   0.000553
     3  C   -0.023255  -0.508732  -0.179768  -0.051911  -0.062163   0.009885
     4  O    0.020110  -0.003492  -0.079117   0.019496  -0.021111   0.003906
     5  N   -0.029880   0.317060  -0.784231  -0.022576  -0.112226  -0.033391
     6  C   -0.010231   0.002880  -0.425119   0.407801   0.365670  -0.016870
     7  C    0.001340   0.008945  -0.001954  -0.001973  -0.026971   0.402868
     8  C    0.000090   0.000256   0.004032  -0.010098  -0.014256  -0.039815
     9  C   -0.340317  -0.056467   0.031166   0.006405  -0.001393   0.001812
    10  C    0.188766  -0.058092   0.008478  -0.001367   0.000320  -0.000135
    11  C   -0.254343   0.041572  -0.010920   0.000557   0.000323   0.000085
    12  C   -0.641754  -0.056398   0.001951  -0.000361  -0.000504   0.000027
    13  C    9.969972  -0.141971   0.019922  -0.000916  -0.000183  -0.000267
    14  H   -0.141971   2.243761  -0.183483  -0.000160   0.007682   0.000381
    15  H    0.019922  -0.183483   1.737844  -0.023095   0.052983  -0.009562
    16  H   -0.000916  -0.000160  -0.023095   0.441081   0.006944   0.020873
    17  H   -0.000183   0.007682   0.052983   0.006944   0.454497  -0.017309
    18  H   -0.000267   0.000381  -0.009562   0.020873  -0.017309   0.450872
    19  H   -0.001188   0.005906   0.010001  -0.011481   0.018863   0.013208
    20  H   -0.000021  -0.000122  -0.001750  -0.005268  -0.011109   0.002157
    21  H    0.000023  -0.000334   0.002602  -0.000400  -0.001809  -0.006922
    22  H    0.000105  -0.000194   0.000732  -0.011522  -0.006683  -0.002075
    23  H   -0.046786  -0.089667   0.008498  -0.001767  -0.005691  -0.000050
    24  H   -0.118127  -0.072673   0.010692  -0.000282   0.000261  -0.000434
    25  C    0.120965   0.003183  -0.000996   0.000006  -0.000020   0.000002
    26  C   -0.049109  -0.002674   0.000239  -0.000094  -0.000131  -0.000018
    27  H   -0.262553  -0.018595   0.000793  -0.000031  -0.000070  -0.000002
    28  F    0.010847  -0.000032  -0.000025  -0.000000   0.000000  -0.000000
    29  F    0.026268   0.000218  -0.000001   0.000001   0.000000  -0.000000
    30  F    0.023545  -0.000802   0.000064  -0.000002   0.000000   0.000000
    31  F   -0.003579   0.003080  -0.000791   0.000002   0.000032  -0.000003
    32  F   -0.020247   0.000359  -0.000037   0.000001  -0.000031   0.000001
    33  F   -0.001659  -0.000340   0.000033   0.000007  -0.000009   0.000001
    34  O    0.052477  -0.154833  -0.077154  -0.001148  -0.000136   0.000625
    35  O    0.018278  -0.000938  -0.168195   0.000155   0.001631  -0.002017
    36  C   -0.000321   0.017706  -0.001099  -0.000536   0.001700  -0.001265
    37  C   -0.020645   0.014886   0.020646   0.000750   0.000584   0.001110
    38  C    0.000306   0.003491  -0.005945   0.000053  -0.000043   0.000015
    39  H   -0.009242   0.001450   0.003910   0.000100   0.000021   0.000173
    40  H   -0.008264  -0.000140   0.004205   0.000058   0.000049   0.000153
    41  H    0.000253   0.001083  -0.000871  -0.000048  -0.000013   0.000049
    42  H    0.000486  -0.000987   0.002114  -0.000020  -0.000013  -0.000039
    43  H    0.000110   0.002334  -0.003208  -0.000019   0.000006   0.000003
              19         20         21         22         23         24
     1  C    0.000802   0.000199  -0.000011   0.000283  -0.951886   0.059982
     2  N   -0.001130  -0.000012  -0.000144   0.000165  -0.057329   0.028446
     3  C    0.005500   0.003541   0.000885   0.002804   0.045248  -0.029441
     4  O   -0.002282   0.000486  -0.000035  -0.000500  -0.108932   0.005391
     5  N   -0.044894   0.004729   0.001129   0.006012  -0.007932  -0.001228
     6  C    0.004344  -0.012274  -0.005553  -0.015054  -0.036761   0.003134
     7  C    0.325099   0.016483  -0.028921   0.026701  -0.001449  -0.002088
     8  C   -0.039859   0.392578   0.458602   0.378247  -0.000154  -0.000143
     9  C    0.000400   0.000117  -0.000075  -0.000019  -0.183311  -0.114225
    10  C   -0.000181   0.000003  -0.000001   0.000054  -0.323743  -0.037640
    11  C    0.000304  -0.000000   0.000004  -0.000015  -0.042270   0.104488
    12  C   -0.000147   0.000007  -0.000009   0.000009   0.015499  -0.265862
    13  C   -0.001188  -0.000021   0.000023   0.000105  -0.046786  -0.118127
    14  H    0.005906  -0.000122  -0.000334  -0.000194  -0.089667  -0.072673
    15  H    0.010001  -0.001750   0.002602   0.000732   0.008498   0.010692
    16  H   -0.011481  -0.005268  -0.000400  -0.011522  -0.001767  -0.000282
    17  H    0.018863  -0.011109  -0.001809  -0.006683  -0.005691   0.000261
    18  H    0.013208   0.002157  -0.006922  -0.002075  -0.000050  -0.000434
    19  H    0.446413  -0.001806  -0.018814   0.005267  -0.000196  -0.000718
    20  H   -0.001806   0.321893   0.001876   0.018009   0.000175  -0.000004
    21  H   -0.018814   0.001876   0.333561  -0.005035  -0.000025  -0.000005
    22  H    0.005267   0.018009  -0.005035   0.333776   0.000044   0.000023
    23  H   -0.000196   0.000175  -0.000025   0.000044   2.606428  -0.062788
    24  H   -0.000718  -0.000004  -0.000005   0.000023  -0.062788   0.961884
    25  C    0.000007   0.000001  -0.000000   0.000000   0.010663  -0.016420
    26  C   -0.000007   0.000007  -0.000001   0.000003  -0.092884  -0.003424
    27  H   -0.000009   0.000001   0.000000   0.000000   0.018193  -0.013688
    28  F    0.000001   0.000000  -0.000000  -0.000000  -0.002585   0.000319
    29  F   -0.000000   0.000000   0.000000  -0.000000  -0.000993  -0.000860
    30  F   -0.000001  -0.000000  -0.000000   0.000000  -0.000331   0.001704
    31  F    0.000014   0.000001  -0.000001   0.000000  -0.063174  -0.000296
    32  F    0.000001   0.000000   0.000000  -0.000000   0.004799  -0.000655
    33  F   -0.000001  -0.000000  -0.000000   0.000000   0.005350  -0.000033
    34  O   -0.000147   0.000010   0.000206   0.000133  -0.005021  -0.056580
    35  O   -0.006674  -0.000479   0.000841   0.000099   0.000271  -0.001695
    36  C    0.001783  -0.000157  -0.000289  -0.000114  -0.001564   0.025760
    37  C    0.003797  -0.000016  -0.000220  -0.000092  -0.000415  -0.010474
    38  C   -0.000756  -0.000035   0.000075   0.000041   0.000022  -0.000059
    39  H    0.000129  -0.000002  -0.000023  -0.000022  -0.000001   0.001761
    40  H    0.000157  -0.000003  -0.000026  -0.000014  -0.000048   0.001433
    41  H    0.000443  -0.000001  -0.000020  -0.000006  -0.000005  -0.000090
    42  H   -0.000257  -0.000007   0.000024   0.000004   0.000006   0.000183
    43  H    0.000105   0.000019  -0.000026   0.000039  -0.000009  -0.000144
              25         26         27         28         29         30
     1  C   -0.053328   0.077034   0.040333  -0.008370  -0.025103  -0.008938
     2  N    0.025550   0.013586  -0.007733   0.001796   0.004670  -0.002631
     3  C   -0.002044   0.003707  -0.003972   0.000138   0.000215  -0.000204
     4  O   -0.000770  -0.008387   0.000487  -0.000022  -0.000017  -0.000022
     5  N    0.001794  -0.000661   0.001420   0.000026   0.000066  -0.000095
     6  C   -0.000274  -0.001909  -0.000196   0.000009   0.000008  -0.000029
     7  C    0.000019  -0.000035  -0.000030   0.000000  -0.000001   0.000001
     8  C   -0.000000   0.000006   0.000003   0.000000   0.000000   0.000000
     9  C    0.026092  -0.390555   0.076398  -0.009164  -0.012087  -0.000021
    10  C   -0.143755  -0.544132  -0.113786   0.017133   0.027226  -0.016362
    11  C   -0.595672   0.034367  -0.055633   0.019155  -0.010557   0.039315
    12  C   -0.519003   0.056986   0.033853  -0.040620   0.007126  -0.020305
    13  C    0.120965  -0.049109  -0.262553   0.010847   0.026268   0.023545
    14  H    0.003183  -0.002674  -0.018595  -0.000032   0.000218  -0.000802
    15  H   -0.000996   0.000239   0.000793  -0.000025  -0.000001   0.000064
    16  H    0.000006  -0.000094  -0.000031  -0.000000   0.000001  -0.000002
    17  H   -0.000020  -0.000131  -0.000070   0.000000   0.000000   0.000000
    18  H    0.000002  -0.000018  -0.000002  -0.000000  -0.000000   0.000000
    19  H    0.000007  -0.000007  -0.000009   0.000001  -0.000000  -0.000001
    20  H    0.000001   0.000007   0.000001   0.000000   0.000000  -0.000000
    21  H   -0.000000  -0.000001   0.000000  -0.000000   0.000000  -0.000000
    22  H    0.000000   0.000003   0.000000  -0.000000  -0.000000   0.000000
    23  H    0.010663  -0.092884   0.018193  -0.002585  -0.000993  -0.000331
    24  H   -0.016420  -0.003424  -0.013688   0.000319  -0.000860   0.001704
[...]
  1498. RY*(  11) H  42                  0.00000     3.35202   
  1499. RY*(  12) H  42                  0.00000     3.84456   
  1500. RY*(  13) H  42                  0.00001     2.27469   
  1501. RY*(  14) H  42                  0.00000     4.55732   
  1502. RY*(  15) H  42                  0.00000     1.79815   
  1503. RY*(  16) H  42                  0.00000     3.79545   
  1504. RY*(  17) H  42                  0.00000     1.86663   
  1505. RY*(  18) H  42                  0.00000     4.73107   
  1506. RY*(  19) H  42                  0.00000     2.21343   
  1507. RY*(  20) H  42                  0.00000     4.67726   
  1508. RY*(  21) H  42                  0.00000     2.18166   
  1509. RY*(  22) H  42                  0.00000     4.15016   
  1510. RY*(   1) H  43                  0.00083     0.95344   
  1511. RY*(   2) H  43                  0.00025     1.82666   
  1512. RY*(   3) H  43                  0.00021     2.45932   
  1513. RY*(   4) H  43                  0.00019     2.49062   
  1514. RY*(   5) H  43                  0.00008     2.20328   
  1515. RY*(   6) H  43                  0.00006     2.92057   
  1516. RY*(   7) H  43                  0.00001     1.88090   
  1517. RY*(   8) H  43                  0.00001     3.67925   
  1518. RY*(   9) H  43                  0.00001     5.69173   
  1519. RY*(  10) H  43                  0.00000     4.30975   
  1520. RY*(  11) H  43                  0.00000     5.69418   
  1521. RY*(  12) H  43                  0.00001     6.84002   
  1522. RY*(  13) H  43                  0.00001     3.15647   
  1523. RY*(  14) H  43                  0.00000     1.58290   
  1524. RY*(  15) H  43                  0.00001     4.79375   
  1525. RY*(  16) H  43                  0.00000     3.43550   
  1526. RY*(  17) H  43                  0.00000     2.45118   
  1527. RY*(  18) H  43                  0.00000     3.02467   
  1528. RY*(  19) H  43                  0.00001     4.45196   
  1529. RY*(  20) H  43                  0.00000     1.89271   
  1530. RY*(  21) H  43                  0.00000     3.53644   
  1531. RY*(  22) H  43                  0.00000     3.65386   
  1568. BD*(   1) O  34 - C  36          0.35352     6.76397  1570(g),1366(v),1569(g)
                                                    1411(r),1452(r),1521(r)
                                                    1522(r),1460(r),1419(r)
                                                    1290(v),1409(r),1436(r)
                                                    1286(v),1421(r),1519(r)
                                                    1523(r),1322(g),1515(r)
                                                    1395(r),1435(r),1402(r)
                                                    1512(r),1450(r),1353(v)
                                                    1417(r),1408(r),1387(r)
                                                    1535(r),1238(g),1494(r)
                                                    1398(r),1297(v),1278(v)
                                                    1281(v),243(r),1347(v)
                                                    1499(r),1351(v),1561(r)
                                                    1401(r),1348(v),1534(r)
                                                    1576(r),1303(g),1492(r)
                                                    1321(g),1439(r),1528(r)
                                                    1465(r),1307(g),1574(v)
                                                    1378(v),1530(r),1410(r)
                                                    1368(v),1458(r),1575(r)
                                                    1454(r),1279(v),1497(r)
                                                    1396(r),1489(r),1456(r)
                                                    1380(v),1478(r),1438(r)
                                                    1365(v),1406(r),1577(r)
                                                    1531(r),1466(r),1394(r)
                                                    1360(v),1514(r),1525(r)
                                                    1375(v),1333(g),1471(r)
                                                    1352(v),1500(r),1473(r)
                                                    1231(g),1263(v),1505(r)
                                                    1237(g),1495(r),1390(r)
                                                    1416(r),1524(r),1493(r)
                                                    665(r),1349(v),1447(r)
                                                    1490(r),1558(r),635(r)
                                                    1459(r),1370(v),1506(r)
                                                    1472(r),1328(g),625(r)
                                                    1520(r),1518(r),1571(g)
                                                    1407(r),1404(r),1462(r)
                                                    1341(v),667(r),1265(v)
                                                    1367(v),1344(v),664(r)
                                                    1269(v),661(r),1316(g)
                                                    1267(v),305(r),1451(r)
                                                    826(r),1266(v),1477(r)
                                                    1314(g),1313(g),1572(v)
                                                    1350(v),1339(g),1526(r)
                                                    1544(r),1510(r),1298(v)
                                                    299(r),1247(g),1384(r)
                                                    1503(r),1271(v),1391(r)
                                                    365(r),1382(r),1475(r)
                                                    1376(v),1248(g),1468(r)
                                                    633(r),1300(g),669(r)
                                                    1557(r),1479(r),1355(v)
                                                    1342(v),1388(r),1508(r)
                                                    1414(r),1385(r),1464(r)
                                                    1399(r),1324(g),1386(r)
                                                    1501(r),1234(g),1329(g)
                                                    1294(v),170(r),1336(g)
                                                    1429(r),1323(g),256(r)
                                                    1529(r),1543(r),1335(g)
                                                    1276(v),264(r),1369(v)
                                                    704(r),599(r),1284(v)
                                                    1258(v),660(r),1461(r)
                                                    858(r),1345(v),1257(g)
                                                    710(r),1412(r),1393(r)
                                                    1442(r),688(r),1315(g)
                                                    1274(v),298(r),631(r)
                                                    1372(v),1424(r),1334(g)
                                                    266(r),1392(r),1320(g)
                                                    1255(g),1289(v),1272(v)
                                                    1446(r),1374(v),1509(r)
                                                    1361(v),1405(r),1488(r)
                                                    1268(v),1474(r),1277(v)
                                                    1221(g),1389(r),757(r)
                                                    1326(g),1511(r),326(r)
                                                    105(r),726(r),1481(r),213(r)
                                                    1305(g),1332(g),1418(r)
                                                    662(r),1233(g),204(r)
                                                    1441(r),1325(g),1516(r)
                                                    1225(g),1343(v),253(r)
                                                    197(r),1428(r),1513(r)
                                                    1236(g),289(r),1551(r)
                                                    290(r),1553(r),1537(r)
                                                    1295(v),293(r),1485(r)
                                                    1283(v),1330(g),1246(g)
                                                    1426(r),1427(r),1440(r)
                                                    642(r),188(r),1496(r),291(r)
                                                    1260(v),210(r),619(r),262(r)
                                                    1554(r),1420(r),216(r)
                                                    325(r),142(r),132(r),1564(r)
                                                    1292(v),1545(r),670(r)
                                                    1373(v),1463(r),1455(r)
                                                    1377(v),1227(g),1541(r)
                                                    1560(r),621(r),745(r)
                                                    1224(g),331(r),650(r),648(r)
                                                    215(r),659(r),1346(v),209(r)
                                                    1282(v),1235(g),629(r)
                                                    1357(v),1430(r),627(r)
                                                    1415(r),1548(r),1280(v)
                                                    803(r),1362(v),1383(r)
                                                    112(r),296(r),281(r),1363(v)
                                                    161(r),1261(v),1293(v)
                                                    1538(r),246(r),655(r),657(r)
                                                    250(r),222(r),658(r),1425(r)
                                                    1310(g),1244(g),751(r)
                                                    372(r),624(r),1443(r),214(r)
                                                    377(r),1547(r),1397(r)
                                                    1371(v),122(r),1437(r)
                                                    1241(g),1585(r),196(r)
                                                    1381(r),292(r),1507(r)
                                                    1448(r),370(r),1291(v)
                                                    259(r),278(r),641(r),649(r)
                                                    1431(r),156(r),1445(r)
                                                    1449(r),1287(v),218(r)
                                                    363(r),733(r),1251(g)
                                                    1250(g),223(r),1340(v)
                                                    687(r),721(r),860(r),1457(r)
                                                    1486(r),602(r),322(r),155(r)
                                                    1228(g),125(r),636(r),283(r)
                                                    182(r),200(r),320(r),1470(r)
                                                    419(r),743(r),242(r),1317(g)
                                                    198(r),831(r),276(r),1308(g)
                                                    558(r),729(r),727(r),114(r)
                                                    645(r),611(r),596(r),551(r)
                                                    399(r),302(r),342(r),468(r)
                                                    228(r),1583(r),714(r),706(r)
                                                    270(r),1584(r),212(r),844(r)
                                                    452(r),836(r),646(r),789(r)
                                                    317(r),628(r),207(r),615(r)
                                                    870(r),647(r),623(r),668(r)
                                                    1540(r),1567(r),282(r)
                                                    734(r),110(r),847(r),839(r)
                                                    335(r),227(r),220(r),1533(r)
                                                    120(r),758(r),1580(r),702(r)
                                                    609(r),351(r),747(r),116(r)
                                                    221(r),588(r),366(r),244(r)
                                                    328(r),681(r),840(r),338(r)
                                                    622(r),722(r),682(r),397(r)
                                                    767(r),166(r),340(r),165(r)
                                                    728(r),108(r),336(r),752(r)
                                                    115(r),167(r),247(r),327(r)
                                                    748(r),753(r),395(r),379(r)
                                                    863(r),193(r),339(r),314(r)
                                                    707(r),413(r),578(r),268(r)
                                                    654(r),202(r),287(r),133(r)
                                                    1578(r),620(r),208(r),505(r)
                                                    232(r),509(r),825(r),575(r)
                                                    554(r),852(r),756(r),369(r)
                                                    725(r),237(r),869(r),233(r)
                                                    265(r),672(r),755(r),691(r)
                                                    348(r),638(r),285(r),448(r)
                                                    396(r),1552(r),117(r),398(r)
                                                    813(r),595(r),445(r),717(r)
                                                    577(r),865(r),566(r),279(r)
                                                    416(r),694(r),344(r),177(r)
                                                    124(r),846(r),359(r),234(r)
                                                    640(r),152(r),671(r),697(r)
                                                    192(r),373(r),837(r),258(r)
                                                    229(r),674(r),1546(r),746(r)
                                                    829(r),605(r),173(r),835(r)
                                                    457(r),127(r),740(r),284(r)
                                                    679(r),141(r),613(r),443(r)
                                                    598(r),271(r),562(r),249(r)
                                                    231(r),850(r),157(r),618(r)
                                                    749(r),361(r),842(r),1579(r)
                                                    529(r),1539(r),737(r),203(r)
                                                    590(r),154(r),140(r),1587(r)
                                                    371(r),574(r),501(r),323(r)
                                                    385(r),864(r),297(r),855(r)
                                                    703(r),643(r),401(r),959(r)
                                                    490(r),663(r),376(r),652(r)
                                                    960(r),300(r),1542(r),301(r)
                                                    806(r),724(r),355(r),632(r)
                                                    503(r),754(r),312(r),389(r)
                                                    308(r),239(r),824(r),1559(r)
                                                    288(r),762(r),469(r),1010(r)
                                                    206(r),1550(r),383(r),569(r)
                                                    217(r),129(r),630(r),367(r)
                                                    434(r),126(r),360(r),517(r)
                                                    135(r),739(r),391(r),474(r)
                                                    527(r),718(r),900(r),780(r)
                                                    653(r),199(r),507(r),675(r)
                                                    494(r),504(r),833(r),294(r)
                                                    131(r),164(r),306(r),500(r)
  1569. BD*(   2) O  34 - C  36          0.05046     7.07325   
  1570. BD*(   1) O  35 - C  36          0.04502     6.77967   
  1571. BD*(   1) C  36 - C  37          0.07846     8.98659   
  1572. BD*(   1) C  37 - C  38          0.00631     5.01997   
  1573. BD*(   1) C  37 - H  39          0.01149     9.01393   
  1574. BD*(   1) C  37 - H  40          0.01149     6.47988   
  1575. BD*(   1) C  38 - H  41          0.00758     7.15447   
  1576. BD*(   1) C  38 - H  42          0.00718     5.64451   
  1577. BD*(   1) C  38 - H  43          0.00758     9.48194   
       -------------------------------
              Total Lewis   39.24467  ( 98.3748%)
        Valence non-Lewis    0.57908  (  1.4516%)
        Rydberg non-Lewis    0.06927  (  0.1736%)
       -------------------------------
            Total unit  2   39.89302  (100.0000%)
           Charge unit  2   -0.89302
 Unable to Open any file for archive entry.
 1\1\GINC-GADI-HMEM-CLX-0020\SP\RDSDPBEP86-FC\Aug-CC-pVTZ\C15H17F6N2O3(
 1-)\HIO507\03-Nov-2020\0\\# DSDPBEP86/AUG-cc-PVTZ SCF=Tight INT(grid=u
 ltrafine) Pop=NBO MaxDisk=1400000MB\\NM2_carboxy.DSDPBEP86_AUG-cc-PVTZ
 \\-1,1\C,0,-5.8926372478,1.0802260539,0.1946534749\N,0,-4.658146294,0.
 4873677173,0.1308026982\C,0,-3.4165132616,1.1186298795,0.1164720131\O,
 0,-3.2675945085,2.3346068184,0.1569437351\N,0,-2.3929086327,0.23870793
 51,0.0453419118\C,0,-1.0249296666,0.7041549101,0.0816114981\C,0,-0.083
 110755,-0.4322880146,-0.2958081439\C,0,1.3778287137,-0.0002398712,-0.2
 232727983\C,0,-6.1166152911,2.4706595716,0.2265069646\C,0,-7.407118344
 7,2.9747686558,0.2889214256\C,0,-8.5199501982,2.1202633518,0.333324545
 1\C,0,-8.2877850285,0.7448299022,0.2911690886\C,0,-7.0102541892,0.2265
 299875,0.2241130699\H,0,-4.6724207221,-0.5524748602,0.1050594766\H,0,-
 2.5624714415,-0.7774642296,0.0956766812\H,0,-0.7719392894,1.087029087,
 1.0801491573\H,0,-0.9124763098,1.5456796644,-0.6091500704\H,0,-0.33113
 45083,-0.7751770048,-1.3047475237\H,0,-0.2654619434,-1.2857692281,0.36
 37021957\H,0,1.5752506126,0.8417196343,-0.893337666\H,0,2.0499543105,-
 0.8141078636,-0.5045340565\H,0,1.6454750226,0.3160254923,0.788990173\H
 ,0,-5.2678941112,3.1359973822,0.1961994693\H,0,-6.8434371582,-0.845713
 4133,0.1964850399\C,0,-9.9429296617,2.5913602014,0.3761736189\C,0,-7.5
 43944552,4.4767823939,0.3497838592\H,0,-9.1300843285,0.0649768212,0.31
 90179085\F,0,-10.1414465434,3.6114714189,1.2266572528\F,0,-10.77694762
 34,1.6080969711,0.7709383255\F,0,-10.4041048482,2.9970110441,-0.823901
 2347\F,0,-6.4322605699,5.1042595869,-0.0581543656\F,0,-7.7865359582,4.
 9160920713,1.5979397019\F,0,-8.541424034,4.9351352859,-0.4250930127\O,
 0,-4.9406562971,-2.2569450608,0.0975978266\O,0,-2.7266494773,-2.562061
 3243,0.1887762096\C,0,-3.9071756516,-2.9727582698,0.1559272275\C,0,-4.
 1457233611,-4.4895357285,0.1882147993\C,0,-2.8732044884,-5.3221784718,
 0.2552855476\H,0,-4.7368357391,-4.7397752365,-0.6983022181\H,0,-4.7980
 623783,-4.6932543458,1.0431727566\H,0,-2.2321781683,-5.1176204563,-0.6
 038089775\H,0,-3.0977389345,-6.3930648482,0.274862575\H,0,-2.294847143
 2,-5.0727336103,1.1463898402\\Version=ES64L-G16RevC.01\State=1-A\HF=-1
 511.9013032\MP2=-1514.464676\RMSD=4.157e-09\PG=C01 [X(C15H17F6N2O3)]\\
 @
 The archive entry for this job was punched.


 WE HAVE LEFT UNDONE THOSE THINGS WHICH WE OUGHT TO HAVE DONE,
 AND WE HAVE DONE THOSE THINGS WHICH WE OUGHT NOT TO HAVE DONE.
                   BOOK OF COMMON PRAYER                      
 Job cpu time:      10 days 16 hours 57 minutes 48.7 seconds.
 Elapsed time:       0 days  8 hours  3 minutes 17.1 seconds.
 File lengths (MBytes):  RWF=1004127 Int=      0 D2E=      0 Chk=    164 Scr=      1
 Normal termination of Gaussian 16 at Tue Nov  3 18:42:27 2020.
