 Entering Gaussian System, Link 0=/apps/gaussian/g09e01/g09/g09
 Initial command:
 /apps/gaussian/g09e01/g09/l1.exe "/jobfs/local/3595121.r-man2/Gau-7089.inp" -scrdir="/jobfs/local/3595121.r-man2/"
 Entering Link 1 = /apps/gaussian/g09e01/g09/l1.exe PID=      7090.
  
 Copyright (c) 1988,1990,1992,1993,1995,1998,2003,2009,2015,
            Gaussian, Inc.  All Rights Reserved.
  
 This is part of the Gaussian(R) 09 program.  It is based on
 the Gaussian(R) 03 system (copyright 2003, Gaussian, Inc.),
 the Gaussian(R) 98 system (copyright 1998, Gaussian, Inc.),
 the Gaussian(R) 94 system (copyright 1995, Gaussian, Inc.),
 the Gaussian 92(TM) system (copyright 1992, Gaussian, Inc.),
 the Gaussian 90(TM) system (copyright 1990, Gaussian, Inc.),
 the Gaussian 88(TM) system (copyright 1988, Gaussian, Inc.),
 the Gaussian 86(TM) system (copyright 1986, Carnegie Mellon
 University), and the Gaussian 82(TM) system (copyright 1983,
 Carnegie Mellon University). Gaussian is a federally registered
 trademark of Gaussian, Inc.
  
 This software contains proprietary and confidential information,
 including trade secrets, belonging to Gaussian, Inc.
  
 This software is provided under written license and may be
 used, copied, transmitted, or stored only in accord with that
 written license.
  
 The following legend is applicable only to US Government
 contracts under FAR:
  
                    RESTRICTED RIGHTS LEGEND
  
 Use, reproduction and disclosure by the US Government is
 subject to restrictions as set forth in subparagraphs (a)
 and (c) of the Commercial Computer Software - Restricted
 Rights clause in FAR 52.227-19.
  
 Gaussian, Inc.
 340 Quinnipiac St., Bldg. 40, Wallingford CT 06492
  
  
 ---------------------------------------------------------------
 Warning -- This program may not be used in any manner that
 competes with the business of Gaussian, Inc. or will provide
 assistance to any competitor of Gaussian, Inc.  The licensee
 of this program is prohibited from giving any competitor of
 Gaussian, Inc. access to this program.  By using this program,
 the user acknowledges that Gaussian, Inc. is engaged in the
 business of creating and licensing software in the field of
 computational chemistry and represents and warrants to the
 licensee that it is not a competitor of Gaussian, Inc. and that
 it will not use this program in any manner prohibited above.
 ---------------------------------------------------------------
  

 Cite this work as:
 Gaussian 09, Revision E.01,
 M. J. Frisch, G. W. Trucks, H. B. Schlegel, G. E. Scuseria, 
 M. A. Robb, J. R. Cheeseman, G. Scalmani, V. Barone, B. Mennucci, 
 G. A. Petersson, H. Nakatsuji, M. Caricato, X. Li, H. P. Hratchian, 
 A. F. Izmaylov, J. Bloino, G. Zheng, J. L. Sonnenberg, M. Hada, 
 M. Ehara, K. Toyota, R. Fukuda, J. Hasegawa, M. Ishida, T. Nakajima, 
 Y. Honda, O. Kitao, H. Nakai, T. Vreven, J. A. Montgomery, Jr., 
 J. E. Peralta, F. Ogliaro, M. Bearpark, J. J. Heyd, E. Brothers, 
 K. N. Kudin, V. N. Staroverov, T. Keith, R. Kobayashi, J. Normand, 
 K. Raghavachari, A. Rendell, J. C. Burant, S. S. Iyengar, J. Tomasi, 
 M. Cossi, N. Rega, J. M. Millam, M. Klene, J. E. Knox, J. B. Cross, 
 V. Bakken, C. Adamo, J. Jaramillo, R. Gomperts, R. E. Stratmann, 
 O. Yazyev, A. J. Austin, R. Cammi, C. Pomelli, J. W. Ochterski, 
 R. L. Martin, K. Morokuma, V. G. Zakrzewski, G. A. Voth, 
 P. Salvador, J. J. Dannenberg, S. Dapprich, A. D. Daniels, 
 O. Farkas, J. B. Foresman, J. V. Ortiz, J. Cioslowski, 
 and D. J. Fox, Gaussian, Inc., Wallingford CT, 2013.
 
 ******************************************
 Gaussian 09:  ES64L-G09RevE.01 30-Nov-2015
                14-Nov-2019 
 ******************************************
 %chk=NM2_c2_carboxy.M062X_6-311pGd_opt_water_GD3.chk
 %mem=196608000
 %nproc=8
 Will use up to    8 processors via shared memory.
 ----------------------------------------------------------------------
 # M062X/6-311+G* SCF=Tight INT(grid=ultrafine) OPT IOP(2/17=4) Empiric
 alDispersion=GD3 SCRF=(SMD,Solvent=h2o) maxdisk=3221225472
 ----------------------------------------------------------------------
 1/14=-1,18=20,19=15,26=4,38=1/1,3;
 2/9=110,12=2,17=4,18=5,40=1/2;
 3/5=4,6=6,7=11,11=2,16=1,25=1,30=1,70=32201,71=1,72=1,74=-55,75=-5,124=31/1,2,3;
 4//1;
 5/5=2,32=2,38=5,53=1/2;
 6/7=2,8=2,9=2,10=2,28=1/1;
 7//1,2,3,16;
 1/14=-1,18=20,19=15,26=4/3(2);
 2/9=110,17=4/2;
 99//99;
 2/9=110,17=4/2;
 3/5=4,6=6,7=11,11=2,16=1,25=1,30=1,70=32205,71=1,72=1,74=-55,75=-5,124=31/1,2,3;
 4/5=5,16=3,69=1/1;
 5/5=2,32=2,38=5,53=1/2;
 7//1,2,3,16;
 1/14=-1,18=20,19=15,26=4/3(-5);
 2/9=110,17=4/2;
 6/7=2,8=2,9=2,10=2,19=2,28=1/1;
 99/9=1/99;
 -------------------------------------------
 NM2_c2_carboxy.M062X_6-311pGd_opt_water_GD3
 -------------------------------------------
 Symbolic Z-matrix:
 Charge = -1 Multiplicity = 1
 C                    -5.82192   1.33578   0.16751 
 N                    -4.6206    0.65076   0.09773 
 C                    -3.34587   1.19119   0.11948 
 O                    -3.12249   2.4011    0.24841 
 N                    -2.36799   0.27639   0.0006 
 C                    -0.96701   0.67055   0.02314 
 C                    -0.07517  -0.55565  -0.0905 
 C                     1.39825  -0.1683   -0.06877 
 C                    -6.97522   0.55592   0.37276 
 C                    -8.22926   1.13038   0.44147 
 C                    -8.37856   2.52067   0.2981 
 C                    -7.23742   3.28629   0.09511 
 C                    -5.9725    2.71837   0.02482 
 H                    -4.68841  -0.37672   0.14157 
 H                    -2.59732  -0.70764  -0.16444 
 H                    -0.75195   1.2056    0.95302 
 H                    -0.76132   1.36107  -0.80122 
 H                    -0.30945  -1.08864  -1.0174 
 H                    -0.2967   -1.24059   0.73397 
 H                     1.64107   0.49867  -0.90015 
 H                     2.03841  -1.04885  -0.14928 
 H                     1.65499   0.34809   0.85992 
 H                    -6.86523  -0.51666   0.48027 
 H                    -5.11683   3.35142  -0.14647 
 C                    -9.69895   3.22899   0.38809 
 C                    -9.40007   0.19937   0.63697 
 H                    -7.32714   4.35916  -0.02018 
 F                    -10.68089   2.5923   -0.27348 
 F                    -9.63716   4.46612  -0.12638 
 F                    -10.12675   3.37574   1.65756 
 F                    -9.01891  -0.99964   1.0961 
 F                    -10.06315  -0.02942  -0.51026 
 F                    -10.29548   0.67628   1.51586 
 O                    -4.92227  -2.16842   0.34908 
 O                    -2.87652  -2.54552  -0.44806 
 C                    -3.96714  -2.93833   0.03867 
 C                    -4.18303  -4.42779   0.28127 
 C                    -3.00169  -5.31668  -0.07312 
 H                    -5.07238  -4.71682  -0.28721 
 H                    -4.45528  -4.54274   1.33478 
 H                    -2.74565  -5.23382  -1.13123 
 H                    -3.23368  -6.36353   0.13438 
 H                    -2.11583  -5.04858   0.50625 
 
 Add virtual bond connecting atoms O34        and H14        Dist= 3.44D+00.
 Add virtual bond connecting atoms O35        and H15        Dist= 3.55D+00.

 GradGradGradGradGradGradGradGradGradGradGradGradGradGradGradGradGradGrad
 Berny optimization.
 Initialization pass.
                           ----------------------------
                           !    Initial Parameters    !
                           ! (Angstroms and Degrees)  !
 --------------------------                            --------------------------
 ! Name  Definition              Value          Derivative Info.                !
 --------------------------------------------------------------------------------
 ! R1    R(1,2)                  1.3847         estimate D2E/DX2                !
 ! R2    R(1,9)                  1.4073         estimate D2E/DX2                !
 ! R3    R(1,13)                 1.3981         estimate D2E/DX2                !
 ! R4    R(2,3)                  1.3847         estimate D2E/DX2                !
 ! R5    R(2,14)                 1.0307         estimate D2E/DX2                !
 ! R6    R(3,4)                  1.2371         estimate D2E/DX2                !
 ! R7    R(3,5)                  1.3443         estimate D2E/DX2                !
 ! R8    R(5,6)                  1.4555         estimate D2E/DX2                !
 ! R9    R(5,15)                 1.0238         estimate D2E/DX2                !
 ! R10   R(6,7)                  1.5205         estimate D2E/DX2                !
 ! R11   R(6,16)                 1.0942         estimate D2E/DX2                !
 ! R12   R(6,17)                 1.0948         estimate D2E/DX2                !
 ! R13   R(7,8)                  1.5236         estimate D2E/DX2                !
 ! R14   R(7,18)                 1.0946         estimate D2E/DX2                !
 ! R15   R(7,19)                 1.0945         estimate D2E/DX2                !
 ! R16   R(8,20)                 1.0932         estimate D2E/DX2                !
 ! R17   R(8,21)                 1.0916         estimate D2E/DX2                !
 ! R18   R(8,22)                 1.0932         estimate D2E/DX2                !
 ! R19   R(9,10)                 1.3811         estimate D2E/DX2                !
 ! R20   R(9,23)                 1.0836         estimate D2E/DX2                !
 ! R21   R(10,11)                1.4056         estimate D2E/DX2                !
 ! R22   R(10,26)                1.5086         estimate D2E/DX2                !
 ! R23   R(11,12)                1.3891         estimate D2E/DX2                !
 ! R24   R(11,25)                1.5011         estimate D2E/DX2                !
 ! R25   R(12,13)                1.3883         estimate D2E/DX2                !
 ! R26   R(12,27)                1.0828         estimate D2E/DX2                !
 ! R27   R(13,24)                1.0781         estimate D2E/DX2                !
 ! R28   R(14,34)                1.8188         estimate D2E/DX2                !
 ! R29   R(15,35)                1.8805         estimate D2E/DX2                !
 ! R30   R(25,28)                1.3443         estimate D2E/DX2                !
 ! R31   R(25,29)                1.3413         estimate D2E/DX2                !
 ! R32   R(25,30)                1.3476         estimate D2E/DX2                !
 ! R33   R(26,31)                1.3393         estimate D2E/DX2                !
 ! R34   R(26,32)                1.3447         estimate D2E/DX2                !
 ! R35   R(26,33)                1.3423         estimate D2E/DX2                !
 ! R36   R(34,36)                1.2655         estimate D2E/DX2                !
 ! R37   R(35,36)                1.2572         estimate D2E/DX2                !
 ! R38   R(36,37)                1.5245         estimate D2E/DX2                !
 ! R39   R(37,38)                1.5203         estimate D2E/DX2                !
 ! R40   R(37,39)                1.0944         estimate D2E/DX2                !
 ! R41   R(37,40)                1.0942         estimate D2E/DX2                !
 ! R42   R(38,41)                1.0918         estimate D2E/DX2                !
 ! R43   R(38,42)                1.0921         estimate D2E/DX2                !
 ! R44   R(38,43)                1.0919         estimate D2E/DX2                !
 ! A1    A(2,1,9)              116.3728         estimate D2E/DX2                !
 ! A2    A(2,1,13)             125.2782         estimate D2E/DX2                !
 ! A3    A(9,1,13)             118.3362         estimate D2E/DX2                !
 ! A4    A(1,2,3)              127.2148         estimate D2E/DX2                !
 ! A5    A(1,2,14)             115.72           estimate D2E/DX2                !
 ! A6    A(3,2,14)             116.6779         estimate D2E/DX2                !
 ! A7    A(2,3,4)              123.3371         estimate D2E/DX2                !
 ! A8    A(2,3,5)              113.7446         estimate D2E/DX2                !
 ! A9    A(4,3,5)              122.9151         estimate D2E/DX2                !
 ! A10   A(3,5,6)              120.9633         estimate D2E/DX2                !
 ! A11   A(3,5,15)             120.3558         estimate D2E/DX2                !
 ! A12   A(6,5,15)             118.5804         estimate D2E/DX2                !
 ! A13   A(5,6,7)              110.1826         estimate D2E/DX2                !
 ! A14   A(5,6,16)             109.5587         estimate D2E/DX2                !
 ! A15   A(5,6,17)             109.8747         estimate D2E/DX2                !
 ! A16   A(7,6,16)             110.0341         estimate D2E/DX2                !
 ! A17   A(7,6,17)             110.0081         estimate D2E/DX2                !
 ! A18   A(16,6,17)            107.1311         estimate D2E/DX2                !
 ! A19   A(6,7,8)              111.1698         estimate D2E/DX2                !
 ! A20   A(6,7,18)             109.2955         estimate D2E/DX2                !
 ! A21   A(6,7,19)             109.248          estimate D2E/DX2                !
 ! A22   A(8,7,18)             110.0501         estimate D2E/DX2                !
 ! A23   A(8,7,19)             110.1254         estimate D2E/DX2                !
 ! A24   A(18,7,19)            106.8483         estimate D2E/DX2                !
 ! A25   A(7,8,20)             111.0434         estimate D2E/DX2                !
 ! A26   A(7,8,21)             111.1604         estimate D2E/DX2                !
 ! A27   A(7,8,22)             111.0581         estimate D2E/DX2                !
 ! A28   A(20,8,21)            107.8066         estimate D2E/DX2                !
 ! A29   A(20,8,22)            107.801          estimate D2E/DX2                !
 ! A30   A(21,8,22)            107.8162         estimate D2E/DX2                !
 ! A31   A(1,9,10)             121.3928         estimate D2E/DX2                !
 ! A32   A(1,9,23)             118.6752         estimate D2E/DX2                !
 ! A33   A(10,9,23)            119.9319         estimate D2E/DX2                !
 ! A34   A(9,10,11)            120.1846         estimate D2E/DX2                !
 ! A35   A(9,10,26)            117.0301         estimate D2E/DX2                !
 ! A36   A(11,10,26)           122.766          estimate D2E/DX2                !
 ! A37   A(10,11,12)           118.2168         estimate D2E/DX2                !
 ! A38   A(10,11,25)           123.6447         estimate D2E/DX2                !
 ! A39   A(12,11,25)           118.1182         estimate D2E/DX2                !
 ! A40   A(11,12,13)           122.033          estimate D2E/DX2                !
 ! A41   A(11,12,27)           119.5788         estimate D2E/DX2                !
 ! A42   A(13,12,27)           118.3868         estimate D2E/DX2                !
 ! A43   A(1,13,12)            119.8347         estimate D2E/DX2                !
 ! A44   A(1,13,24)            120.7588         estimate D2E/DX2                !
 ! A45   A(12,13,24)           119.4051         estimate D2E/DX2                !
 ! A46   A(11,25,28)           112.9242         estimate D2E/DX2                !
 ! A47   A(11,25,29)           111.8217         estimate D2E/DX2                !
 ! A48   A(11,25,30)           112.7736         estimate D2E/DX2                !
 ! A49   A(28,25,29)           106.3634         estimate D2E/DX2                !
 ! A50   A(28,25,30)           106.4557         estimate D2E/DX2                !
 ! A51   A(29,25,30)           105.9925         estimate D2E/DX2                !
 ! A52   A(10,26,31)           112.0895         estimate D2E/DX2                !
 ! A53   A(10,26,32)           112.1571         estimate D2E/DX2                !
 ! A54   A(10,26,33)           112.5384         estimate D2E/DX2                !
 ! A55   A(31,26,32)           106.2899         estimate D2E/DX2                !
 ! A56   A(31,26,33)           106.4676         estimate D2E/DX2                !
 ! A57   A(32,26,33)           106.8666         estimate D2E/DX2                !
 ! A58   A(14,34,36)           118.3142         estimate D2E/DX2                !
 ! A59   A(15,35,36)           112.0713         estimate D2E/DX2                !
 ! A60   A(34,36,35)           124.0295         estimate D2E/DX2                !
 ! A61   A(34,36,37)           116.6482         estimate D2E/DX2                !
 ! A62   A(35,36,37)           119.3223         estimate D2E/DX2                !
 ! A63   A(36,37,38)           115.0951         estimate D2E/DX2                !
 ! A64   A(36,37,39)           106.8858         estimate D2E/DX2                !
 ! A65   A(36,37,40)           106.9244         estimate D2E/DX2                !
 ! A66   A(38,37,39)           110.8526         estimate D2E/DX2                !
 ! A67   A(38,37,40)           110.8767         estimate D2E/DX2                !
 ! A68   A(39,37,40)           105.6765         estimate D2E/DX2                !
 ! A69   A(37,38,41)           111.3317         estimate D2E/DX2                !
 ! A70   A(37,38,42)           110.5539         estimate D2E/DX2                !
 ! A71   A(37,38,43)           111.2944         estimate D2E/DX2                !
 ! A72   A(41,38,42)           107.8602         estimate D2E/DX2                !
 ! A73   A(41,38,43)           107.7782         estimate D2E/DX2                !
 ! A74   A(42,38,43)           107.871          estimate D2E/DX2                !
 ! A75   L(2,14,34,7,-1)       183.8307         estimate D2E/DX2                !
 ! A76   L(5,15,35,7,-1)       175.5802         estimate D2E/DX2                !
 ! A77   L(2,14,34,7,-2)       176.0468         estimate D2E/DX2                !
 ! A78   L(5,15,35,7,-2)       179.3319         estimate D2E/DX2                !
 ! D1    D(9,1,2,3)           -168.74           estimate D2E/DX2                !
 ! D2    D(9,1,2,14)             3.8265         estimate D2E/DX2                !
 ! D3    D(13,1,2,3)            12.5867         estimate D2E/DX2                !
 ! D4    D(13,1,2,14)         -174.8468         estimate D2E/DX2                !
 ! D5    D(2,1,9,10)          -179.1512         estimate D2E/DX2                !
 ! D6    D(2,1,9,23)             0.9999         estimate D2E/DX2                !
 ! D7    D(13,1,9,10)           -0.3817         estimate D2E/DX2                !
 ! D8    D(13,1,9,23)          179.7694         estimate D2E/DX2                !
 ! D9    D(2,1,13,12)          179.011          estimate D2E/DX2                !
 ! D10   D(2,1,13,24)           -0.5685         estimate D2E/DX2                !
 ! D11   D(9,1,13,12)            0.3615         estimate D2E/DX2                !
 ! D12   D(9,1,13,24)         -179.218          estimate D2E/DX2                !
 ! D13   D(1,2,3,4)              2.2572         estimate D2E/DX2                !
 ! D14   D(1,2,3,5)           -178.3709         estimate D2E/DX2                !
 ! D15   D(14,2,3,4)          -170.2476         estimate D2E/DX2                !
 ! D16   D(14,2,3,5)             9.1243         estimate D2E/DX2                !
 ! D17   D(1,2,34,36)          165.712          estimate D2E/DX2                !
 ! D18   D(3,2,34,36)          -23.4576         estimate D2E/DX2                !
 ! D19   D(2,3,5,6)           -179.1319         estimate D2E/DX2                !
 ! D20   D(2,3,5,15)             4.5642         estimate D2E/DX2                !
 ! D21   D(4,3,5,6)              0.243          estimate D2E/DX2                !
 ! D22   D(4,3,5,15)          -176.0609         estimate D2E/DX2                !
 ! D23   D(3,5,6,7)            178.4393         estimate D2E/DX2                !
 ! D24   D(3,5,6,16)            57.2456         estimate D2E/DX2                !
 ! D25   D(3,5,6,17)           -60.1946         estimate D2E/DX2                !
 ! D26   D(15,5,6,7)            -5.1926         estimate D2E/DX2                !
 ! D27   D(15,5,6,16)         -126.3863         estimate D2E/DX2                !
 ! D28   D(15,5,6,17)          116.1735         estimate D2E/DX2                !
 ! D29   D(3,5,35,36)          -29.3572         estimate D2E/DX2                !
 ! D30   D(6,5,35,36)          153.7113         estimate D2E/DX2                !
 ! D31   D(5,6,7,8)           -179.985          estimate D2E/DX2                !
 ! D32   D(5,6,7,18)            58.3387         estimate D2E/DX2                !
 ! D33   D(5,6,7,19)           -58.2461         estimate D2E/DX2                !
 ! D34   D(16,6,7,8)           -59.0755         estimate D2E/DX2                !
 ! D35   D(16,6,7,18)          179.2481         estimate D2E/DX2                !
 ! D36   D(16,6,7,19)           62.6634         estimate D2E/DX2                !
 ! D37   D(17,6,7,8)            58.7285         estimate D2E/DX2                !
 ! D38   D(17,6,7,18)          -62.9478         estimate D2E/DX2                !
 ! D39   D(17,6,7,19)         -179.5326         estimate D2E/DX2                !
 ! D40   D(6,7,8,20)           -60.0439         estimate D2E/DX2                !
 ! D41   D(6,7,8,21)           179.9383         estimate D2E/DX2                !
 ! D42   D(6,7,8,22)            59.8986         estimate D2E/DX2                !
 ! D43   D(18,7,8,20)           61.1914         estimate D2E/DX2                !
 ! D44   D(18,7,8,21)          -58.8263         estimate D2E/DX2                !
 ! D45   D(18,7,8,22)         -178.866          estimate D2E/DX2                !
 ! D46   D(19,7,8,20)          178.7298         estimate D2E/DX2                !
 ! D47   D(19,7,8,21)           58.7121         estimate D2E/DX2                !
 ! D48   D(19,7,8,22)          -61.3276         estimate D2E/DX2                !
 ! D49   D(1,9,10,11)            0.3732         estimate D2E/DX2                !
 ! D50   D(1,9,10,26)          178.8197         estimate D2E/DX2                !
 ! D51   D(23,9,10,11)        -179.7798         estimate D2E/DX2                !
 ! D52   D(23,9,10,26)          -1.3333         estimate D2E/DX2                !
 ! D53   D(9,10,11,12)          -0.3353         estimate D2E/DX2                !
 ! D54   D(9,10,11,25)        -178.6632         estimate D2E/DX2                !
 ! D55   D(26,10,11,12)       -178.6895         estimate D2E/DX2                !
 ! D56   D(26,10,11,25)          2.9826         estimate D2E/DX2                !
 ! D57   D(9,10,26,31)          18.0746         estimate D2E/DX2                !
 ! D58   D(9,10,26,32)        -101.4056         estimate D2E/DX2                !
 ! D59   D(9,10,26,33)         138.0516         estimate D2E/DX2                !
 ! D60   D(11,10,26,31)       -163.5224         estimate D2E/DX2                !
 ! D61   D(11,10,26,32)         76.9974         estimate D2E/DX2                !
 ! D62   D(11,10,26,33)        -43.5454         estimate D2E/DX2                !
 ! D63   D(10,11,12,13)          0.3273         estimate D2E/DX2                !
 ! D64   D(10,11,12,27)        179.8756         estimate D2E/DX2                !
 ! D65   D(25,11,12,13)        178.7491         estimate D2E/DX2                !
 ! D66   D(25,11,12,27)         -1.7026         estimate D2E/DX2                !
 ! D67   D(10,11,25,28)        -43.4672         estimate D2E/DX2                !
 ! D68   D(10,11,25,29)       -163.3902         estimate D2E/DX2                !
 ! D69   D(10,11,25,30)         77.2712         estimate D2E/DX2                !
 ! D70   D(12,11,25,28)        138.2034         estimate D2E/DX2                !
 ! D71   D(12,11,25,29)         18.2803         estimate D2E/DX2                !
 ! D72   D(12,11,25,30)       -101.0583         estimate D2E/DX2                !
 ! D73   D(11,12,13,1)          -0.3479         estimate D2E/DX2                !
 ! D74   D(11,12,13,24)        179.2373         estimate D2E/DX2                !
 ! D75   D(27,12,13,1)        -179.9014         estimate D2E/DX2                !
 ! D76   D(27,12,13,24)         -0.3162         estimate D2E/DX2                !
 ! D77   D(14,34,36,35)         -2.4554         estimate D2E/DX2                !
 ! D78   D(14,34,36,37)        177.5671         estimate D2E/DX2                !
 ! D79   D(15,35,36,34)         18.1417         estimate D2E/DX2                !
 ! D80   D(15,35,36,37)       -161.8813         estimate D2E/DX2                !
 ! D81   D(34,36,37,38)       -178.6154         estimate D2E/DX2                !
 ! D82   D(34,36,37,39)         57.8154         estimate D2E/DX2                !
 ! D83   D(34,36,37,40)        -54.9856         estimate D2E/DX2                !
 ! D84   D(35,36,37,38)          1.406          estimate D2E/DX2                !
 ! D85   D(35,36,37,39)       -122.1632         estimate D2E/DX2                !
 ! D86   D(35,36,37,40)        125.0358         estimate D2E/DX2                !
 ! D87   D(36,37,38,41)        -60.462          estimate D2E/DX2                !
 ! D88   D(36,37,38,42)        179.6658         estimate D2E/DX2                !
 ! D89   D(36,37,38,43)         59.8046         estimate D2E/DX2                !
 ! D90   D(39,37,38,41)         60.9789         estimate D2E/DX2                !
 ! D91   D(39,37,38,42)        -58.8933         estimate D2E/DX2                !
 ! D92   D(39,37,38,43)       -178.7546         estimate D2E/DX2                !
 ! D93   D(40,37,38,41)        178.0272         estimate D2E/DX2                !
 ! D94   D(40,37,38,42)         58.155          estimate D2E/DX2                !
 ! D95   D(40,37,38,43)        -61.7063         estimate D2E/DX2                !
 --------------------------------------------------------------------------------
 Trust Radius=3.00D-01 FncErr=1.00D-07 GrdErr=1.00D-06
 Number of steps in this run=    227 maximum allowed number of steps=    258.
 GradGradGradGradGradGradGradGradGradGradGradGradGradGradGradGradGradGrad

                          Input orientation:                          
 ---------------------------------------------------------------------
 Center     Atomic      Atomic             Coordinates (Angstroms)
 Number     Number       Type             X           Y           Z
 ---------------------------------------------------------------------
      1          6           0       -5.821919    1.335781    0.167508
      2          7           0       -4.620600    0.650763    0.097731
      3          6           0       -3.345874    1.191185    0.119480
      4          8           0       -3.122488    2.401098    0.248413
      5          7           0       -2.367991    0.276385    0.000595
      6          6           0       -0.967014    0.670555    0.023140
      7          6           0       -0.075172   -0.555645   -0.090499
      8          6           0        1.398250   -0.168299   -0.068773
      9          6           0       -6.975216    0.555922    0.372757
     10          6           0       -8.229264    1.130385    0.441468
     11          6           0       -8.378558    2.520665    0.298095
     12          6           0       -7.237420    3.286285    0.095113
     13          6           0       -5.972505    2.718370    0.024819
     14          1           0       -4.688410   -0.376723    0.141569
     15          1           0       -2.597323   -0.707639   -0.164442
     16          1           0       -0.751948    1.205600    0.953025
     17          1           0       -0.761321    1.361066   -0.801219
     18          1           0       -0.309446   -1.088636   -1.017402
     19          1           0       -0.296699   -1.240587    0.733973
     20          1           0        1.641074    0.498669   -0.900146
     21          1           0        2.038410   -1.048848   -0.149276
     22          1           0        1.654985    0.348095    0.859921
     23          1           0       -6.865235   -0.516662    0.480271
     24          1           0       -5.116834    3.351420   -0.146468
     25          6           0       -9.698953    3.228990    0.388090
     26          6           0       -9.400071    0.199365    0.636968
     27          1           0       -7.327135    4.359163   -0.020179
     28          9           0      -10.680892    2.592300   -0.273475
     29          9           0       -9.637163    4.466118   -0.126379
     30          9           0      -10.126751    3.375735    1.657562
     31          9           0       -9.018910   -0.999637    1.096099
     32          9           0      -10.063152   -0.029423   -0.510261
     33          9           0      -10.295476    0.676285    1.515865
     34          8           0       -4.922275   -2.168421    0.349081
     35          8           0       -2.876520   -2.545523   -0.448062
     36          6           0       -3.967143   -2.938329    0.038672
     37          6           0       -4.183033   -4.427788    0.281270
     38          6           0       -3.001689   -5.316680   -0.073122
     39          1           0       -5.072382   -4.716819   -0.287212
     40          1           0       -4.455279   -4.542744    1.334781
     41          1           0       -2.745649   -5.233816   -1.131228
     42          1           0       -3.233681   -6.363526    0.134377
     43          1           0       -2.115831   -5.048575    0.506249
 ---------------------------------------------------------------------
                    Distance matrix (angstroms):
                    1          2          3          4          5
     1  C    0.000000
     2  N    1.384661   0.000000
     3  C    2.480728   1.384723   0.000000
     4  O    2.903167   2.308835   1.237098   0.000000
     5  N    3.616600   2.285573   1.344340   2.268277   0.000000
     6  C    4.902395   3.654401   2.437071   2.773372   1.455546
     7  C    6.055507   4.706567   3.713893   4.259498   2.440818
     8  C    7.378952   6.076606   4.938659   5.209556   3.793037
     9  C    1.407267   2.372519   3.693214   4.273599   4.630677
    10  C    2.431574   3.656590   4.894372   5.266037   5.939546
    11  C    2.820887   4.202253   5.208390   5.257665   6.422789
    12  C    2.411089   3.713991   4.419747   4.211855   5.725362
    13  C    1.398067   2.471429   3.039810   2.876327   4.353895
    14  H    2.053822   1.030653   2.064274   3.190582   2.414698
    15  H    3.831941   2.451048   2.060697   3.179699   1.023784
    16  H    5.132114   4.000730   2.724602   2.746844   2.093360
    17  H    5.152546   4.025752   2.748902   2.785409   2.097815
    18  H    6.137521   4.780698   3.963581   4.657653   2.671555
    19  H    6.122631   4.762156   3.948239   4.634945   2.670075
    20  H    7.585309   6.342512   5.137010   5.256419   4.115015
    21  H    8.220193   6.876926   5.837850   6.220542   4.603811
    22  H    7.573576   6.328942   5.125197   5.235743   4.114355
    23  H    2.148923   2.558828   3.928462   4.751340   4.591755
    24  H    2.158363   2.756707   2.806001   2.244206   4.127179
    25  C    4.320218   5.702739   6.677305   6.629842   7.912713
    26  C    3.783518   4.830930   6.156688   6.663832   7.061236
    27  H    3.382564   4.592545   5.089796   4.645990   6.423598
    28  F    5.038147   6.374519   7.477969   7.578812   8.633823
    29  F    4.943831   6.306589   7.096897   6.844397   8.391117
    30  F    4.991317   6.338473   7.288226   7.210778   8.517621
    31  F    4.066597   4.802675   6.159288   6.859400   6.860254
    32  F    4.506796   5.518485   6.856259   7.392959   7.718160
    33  F    4.718656   5.849442   7.107178   7.485531   8.080902
    34  O    3.622397   2.846398   3.718160   4.912217   3.552870
    35  O    4.911092   3.681840   3.808594   5.001463   2.902251
    36  C    4.660988   3.648572   4.176768   5.409890   3.590700
    37  C    5.993131   5.100670   5.683298   6.910826   5.049990
    38  C    7.229580   6.185502   6.519806   7.725417   5.629333
    39  H    6.115761   5.400298   6.168529   7.399576   5.685829
    40  H    6.147136   5.341360   5.965373   7.153563   5.418563
    41  H    7.369515   6.297146   6.573065   7.767710   5.637904
    42  H    8.122770   7.150184   7.555559   8.766070   6.697442
    43  H    7.389846   6.238846   6.371594   7.521799   5.354855
                    6          7          8          9         10
     6  C    0.000000
     7  C    1.520481   0.000000
     8  C    2.511294   1.523641   0.000000
     9  C    6.019457   7.004341   8.416316   0.000000
    10  C    7.288808   8.343555   9.728102   1.381074   0.000000
    11  C    7.643919   8.863459  10.146482   2.415607   1.405605
    12  C    6.794499   8.129740   9.302462   2.756940   2.398254
    13  C    5.408187   6.746185   7.916416   2.408874   2.790745
    14  H    3.867764   4.622535   6.093858   2.480475   3.859918
    15  H    2.143015   2.527809   4.032945   4.588149   5.955184
    16  H    1.094172   2.156143   2.748640   6.283936   7.495172
    17  H    1.094844   2.156317   2.745757   6.374870   7.574144
    18  H    2.147061   1.094583   2.159432   7.004969   8.353195
    19  H    2.146409   1.094520   2.160337   6.925353   8.284483
    20  H    2.772026   2.170854   1.093157   8.709995   9.981111
    21  H    3.466792   2.171159   1.091628   9.170238  10.513000
    22  H    2.771112   2.171057   1.093182   8.646438   9.923985
    23  H    6.033860   6.814122   8.289028   1.083555   2.138889
    24  H    4.943361   6.378609   7.405456   3.396761   3.868577
    25  C    9.106346  10.352278  11.614569   3.816316   2.562611
    26  C    8.468486   9.383656  10.827603   2.465130   1.508578
    27  H    7.352472   8.760779   9.830189   3.839646   3.384075
    28  F    9.906589  11.064553  12.392275   4.277439   2.942586
    29  F    9.465735  10.800512  11.969189   4.756546   3.664934
    30  F    9.689691  10.933696  12.180560   4.419756   3.181342
    31  F    8.292998   9.033028  10.515002   2.668272   2.364123
    32  F    9.138611  10.010637  11.470743   3.264613   2.369406
    33  F    9.447141  10.418861  11.830792   3.513590   2.372713
    34  O    4.879561   5.127249   6.642600   3.411330   4.671920
    35  O    3.769801   3.454709   4.905988   5.204999   6.554040
    36  C    4.693086   4.565228   6.039210   4.622760   5.906129
    37  C    6.033449   5.657405   7.029687   5.713320   6.876841
    38  C    6.324251   5.588583   6.772394   7.104588   8.316068
    39  H    6.780425   6.505857   7.912385   5.644301   6.684809
    40  H    6.408344   6.092103   7.441071   5.768185   6.872071
    41  H    6.273572   5.486333   6.630247   7.326136   8.546722
    42  H    7.391105   6.615000   7.738016   7.869858   9.011596
    43  H    5.853343   4.970595   6.041235   7.419018   8.692399
                   11         12         13         14         15
    11  C    0.000000
    12  C    1.389090   0.000000
    13  C    2.429580   1.388337   0.000000
    14  H    4.694311   4.462874   3.352929   0.000000
    15  H    6.637662   6.127748   4.813025   2.139109   0.000000
    16  H    7.766821   6.864882   5.514005   4.319483   2.883509
    17  H    7.783024   6.815405   5.448032   4.396679   2.838297
    18  H    8.936898   8.268884   6.902880   4.585341   2.471251
    19  H    8.924878   8.311096   6.956365   4.514901   2.526669
    20  H   10.291612   9.358900   7.984311   6.474091   4.467713
    21  H   11.020653  10.241783   8.854208   6.766568   4.648299
    22  H   10.281425   9.396423   8.030828   6.424955   4.499558
    23  H    3.398336   3.840478   3.386715   2.207458   4.320555
    24  H    3.395089   2.135296   1.078083   3.763717   4.777470
    25  C    1.501088   2.479569   3.778771   6.177983   8.138518
    26  C    2.558663   3.807853   4.297479   4.772531   6.909580
    27  H    2.141696   1.082777   2.128203   5.423804   6.932850
    28  F    2.373303   3.531993   4.719511   6.700537   8.731870
    29  F    2.355642   2.683250   4.062906   6.929290   8.736621
    30  F    2.373915   3.285952   4.511733   6.778992   8.757049
    31  F    3.665977   4.748138   4.924612   4.477989   6.550649
    32  F    3.161368   4.398314   4.956821   5.425252   7.504543
    33  F    2.925624   4.264076   5.008134   5.868280   8.000014
    34  O    5.825463   5.931123   5.008878   1.818774   2.793384
    35  O    7.516345   7.302224   6.125138   2.886919   1.880482
    36  C    7.023425   7.031623   6.001660   2.663201   2.625574
    37  C    8.116879   8.298847   7.371266   4.084857   4.068494
    38  C    9.511703   9.590658   8.567227   5.224394   4.627647
    39  H    7.978381   8.299593   7.495974   4.378096   4.713228
    40  H    8.146078   8.400641   7.532712   4.339796   4.517488
    41  H    9.690439   9.709379   8.659464   5.383835   4.630654
    42  H   10.267688  10.447503   9.486517   6.161014   5.699412
    43  H    9.826417   9.791302   8.685111   5.345779   4.418754
                   16         17         18         19         20
    16  H    0.000000
    17  H    1.761144   0.000000
    18  H    3.056454   2.500392   0.000000
    19  H    2.497813   3.056352   1.758001   0.000000
    20  H    3.108143   2.554411   2.517502   3.074138   0.000000
    21  H    3.752826   3.751161   2.503529   2.503922   1.765358
    22  H    2.556817   3.102262   3.073683   2.519691   1.766551
    23  H    6.368827   6.513512   6.748966   6.613176   8.677197
    24  H    4.986548   4.833291   6.601788   6.715312   7.373978
    25  C    9.190329   9.207870  10.429771  10.416292  11.735008
    26  C    8.712201   8.834361   9.329274   9.217064  11.151646
    27  H    7.356981   7.260064   8.939850   9.019589   9.803394
    28  F   10.100057  10.009612  11.030394  11.114740  12.514266
    29  F    9.525919   9.427478  10.892911  10.979570  11.980735
    30  F    9.648460   9.890186  11.111503  10.899237  12.381482
    31  F    8.557231   8.795482   8.962676   8.733050  10.948296
    32  F    9.506051   9.409685   9.824148   9.919609  11.722619
    33  F    9.574753   9.835544  10.452424  10.210842  12.179897
    34  O    5.398185   5.576200   4.930659   4.733389   7.193851
    35  O    4.532966   4.456481   3.006083   3.123386   5.466274
    36  C    5.324065   5.428398   4.232659   4.103404   6.644278
    37  C    6.630133   6.811074   5.276473   5.046462   7.719194
    38  C    6.975275   7.081078   5.100608   4.958115   7.487157
    39  H    7.435011   7.469279   6.031786   5.994510   8.523350
    40  H    6.848639   7.284421   5.886557   5.344062   8.220479
    41  H    7.055851   6.894848   4.809424   5.042044   7.222058
    42  H    8.007550   8.164387   6.140212   5.935476   8.480754
    43  H    6.416736   6.680394   4.611470   4.226331   6.845744
                   21         22         23         24         25
    21  H    0.000000
    22  H    1.765486   0.000000
    23  H    8.941725   8.572403   0.000000
    24  H    8.399993   7.475983   4.290893   0.000000
    25  C   12.504173  11.723229   4.697697   4.614819   0.000000
    26  C   11.533216  11.058305   2.638683   5.375439   3.054487
    27  H   10.815576   9.876322   4.923156   2.432473   2.658852
    28  F   13.230798  12.589476   4.979258   5.617039   1.344338
    29  F   12.912567  12.059996   5.734083   4.655784   1.341261
    30  F   13.070300  12.190658   5.212893   5.324883   1.347630
    31  F   11.127341  10.761236   2.291468   5.975104   4.341085
    32  F   12.149788  11.804010   3.383080   6.002375   3.399548
    33  F   12.564773  11.972948   3.776524   6.061191   2.853773
    34  O    7.067740   7.060748   2.553549   5.545455   7.207650
    35  O    5.146441   5.533388   4.570331   6.315371   8.977179
    36  C    6.298581   6.563791   3.802423   6.396641   8.426836
    37  C    7.092881   7.564810   4.746653   7.846721   9.437321
    38  C    6.604756   7.392216   6.186550   8.922734  10.867130
    39  H    8.002275   8.498631   4.630839   8.069589   9.219385
    40  H    7.521817   7.840990   4.769424   8.059130   9.422960
    41  H    6.431595   7.381598   6.466797   8.960946  11.057841
    42  H    7.491409   8.334946   6.891563   9.899764  11.570673
    43  H    5.803900   6.593041   6.564735   8.943824  11.226566
                   26         27         28         29         30
    26  C    0.000000
    27  H    4.693913   0.000000
    28  F    2.862786   3.799164   0.000000
    29  F    4.340977   2.314940   2.149930   0.000000
    30  F    3.414528   3.408782   2.156328   2.147341   0.000000
    31  F    1.339288   5.729303   4.188070   5.634817   4.548234
    32  F    1.344676   5.194772   2.703905   4.531967   4.037153
    33  F    1.342260   4.973336   2.649792   4.182484   2.708427
    34  O    5.073456   6.966280   7.497580   8.153118   7.715981
    35  O    7.160197   8.225919   9.345369   9.745403   9.594832
    36  C    6.302365   8.034077   8.704006   9.327497   8.968221
    37  C    6.982447   9.337385   9.581834  10.441038   9.905399
    38  C    8.477634  10.598784  11.025527  11.820976  11.371888
    39  H    6.614520   9.355675   9.212968  10.256189   9.737465
    40  H    6.886618   9.451318   9.604873  10.495070   9.745362
    41  H    8.770822  10.688764  11.178189  11.941164  11.678287
    42  H    9.019341  11.478515  11.654789  12.583869  12.028620
    43  H    8.978760  10.767560  11.504399  12.144959  11.682010
                   31         32         33         34         35
    31  F    0.000000
    32  F    2.147591   0.000000
    33  F    2.148148   2.158051   0.000000
    34  O    4.325102   5.634039   6.190721   0.000000
    35  O    6.519444   7.614611   8.323338   2.227724   0.000000
    36  C    5.513350   6.776754   7.436083   1.265460   1.257244
    37  C    5.983467   7.385657   8.058396   2.378196   2.404542
    38  C    7.497392   8.832351   9.572870   3.711932   2.799207
    39  H    5.595183   6.850490   7.721228   2.630919   3.092282
    40  H    5.782500   7.431183   7.834472   2.612871   3.108038
    41  H    7.889427   9.000953   9.946672   4.040503   2.776826
    42  H    7.947647   9.336921  10.066598   4.527290   3.878652
    43  H    8.024607   9.454368  10.034936   4.024440   2.784713
                   36         37         38         39         40
    36  C    0.000000
    37  C    1.524451   0.000000
    38  C    2.569271   1.520294   0.000000
    39  H    2.119146   1.094373   2.166434   0.000000
    40  H    2.119510   1.094175   2.166585   1.744127   0.000000
    41  H    2.851311   2.170462   1.091794   2.528505   3.079224
    42  H    3.504154   2.161001   1.092136   2.504037   2.499704
    43  H    2.845895   2.170096   1.091923   3.079096   2.532854
                   41         42         43
    41  H    0.000000
    42  H    1.765269   0.000000
    43  H    1.764176   1.765495   0.000000
 Stoichiometry    C15H17F6N2O3(1-)
 Framework group  C1[X(C15H17F6N2O3)]
 Deg. of freedom   123
 Full point group                 C1      NOp   1
 Largest Abelian subgroup         C1      NOp   1
 Largest concise Abelian subgroup C1      NOp   1
                         Standard orientation:                         
 ---------------------------------------------------------------------
 Center     Atomic      Atomic             Coordinates (Angstroms)
 Number     Number       Type             X           Y           Z
 ---------------------------------------------------------------------
      1          6           0        0.336399   -0.876926   -0.060964
      2          7           0       -1.043806   -0.766032   -0.056291
      3          6           0       -1.966073   -1.792432    0.059394
      4          8           0       -1.648164   -2.977440    0.217834
      5          7           0       -3.244417   -1.381105   -0.003012
      6          6           0       -4.342726   -2.328261    0.120384
      7          6           0       -5.674887   -1.598368    0.053575
      8          6           0       -6.841627   -2.569939    0.181048
      9          6           0        1.060437    0.324181    0.055267
     10          6           0        2.441423    0.335628    0.044587
     11          6           0        3.157095   -0.866399   -0.092045
     12          6           0        2.438148   -2.049389   -0.207021
     13          6           0        1.050022   -2.071414   -0.197095
     14          1           0       -1.415221    0.194999   -0.029515
     15          1           0       -3.463331   -0.399634   -0.195173
     16          1           0       -4.257389   -2.866518    1.069178
     17          1           0       -4.283300   -3.073382   -0.679582
     18          1           0       -5.741817   -1.053751   -0.893539
     19          1           0       -5.717634   -0.851607    0.852634
     20          1           0       -6.826143   -3.309679   -0.623649
     21          1           0       -7.797950   -2.045631    0.134152
     22          1           0       -6.801931   -3.108927    1.131292
     23          1           0        0.512826    1.253599    0.157232
     24          1           0        0.534809   -3.012631   -0.301639
     25          6           0        4.655979   -0.947362   -0.084446
     26          6           0        3.116705    1.680652    0.148082
     27          1           0        2.967118   -2.987932   -0.315350
     28          9           0        5.236215    0.017186   -0.819442
     29          9           0        5.094745   -2.114524   -0.578612
     30          9           0        5.177427   -0.849151    1.154324
     31          9           0        2.290475    2.624205    0.617914
     32          9           0        3.553704    2.121837   -1.044621
     33          9           0        4.178433    1.661481    0.969074
     34          8           0       -1.950865    1.924823    0.139989
     35          8           0       -4.005620    1.371550   -0.519272
     36          6           0       -3.158212    2.206865   -0.113304
     37          6           0       -3.580079    3.656744    0.096052
     38          6           0       -5.044845    3.949373   -0.187009
     39          1           0       -2.930969    4.271044   -0.535568
     40          1           0       -3.322450    3.917759    1.126934
     41          1           0       -5.301679    3.724078   -1.223972
     42          1           0       -5.266679    5.003733   -0.008475
     43          1           0       -5.699040    3.355934    0.454983
 ---------------------------------------------------------------------
 Rotational constants (GHZ):      0.3014666      0.0892664      0.0709405
 Standard basis: 6-311+G(d) (5D, 7F)
 There are   649 symmetry adapted cartesian basis functions of A   symmetry.
 There are   623 symmetry adapted basis functions of A   symmetry.
   623 basis functions,  1021 primitive gaussians,   649 cartesian basis functions
   100 alpha electrons      100 beta electrons
       nuclear repulsion energy      2475.6515278886 Hartrees.
 NAtoms=   43 NActive=   43 NUniq=   43 SFac= 1.00D+00 NAtFMM=   60 NAOKFM=F Big=F
 Integral buffers will be    131072 words long.
 Raffenetti 2 integral format.
 Two-electron integral symmetry is turned on.
 Nuclear repulsion after empirical dispersion term =     2475.6488507264 Hartrees.
 ------------------------------------------------------------------------------
 Polarizable Continuum Model (PCM)
 =================================
 Model                : PCM (using non-symmetric T matrix).
 Atomic radii         : SMD-Coulomb.
 Polarization charges : Total charges.
 Charge compensation  : None.
 Solution method      : On-the-fly selection.
 Cavity type          : VdW (van der Waals Surface) (Alpha=1.000).
 Cavity algorithm     : GePol (No added spheres)
                        Default sphere list used, NSphG=   43.
                        Lebedev-Laikov grids with approx.  5.0 points / Ang**2.
                        Smoothing algorithm: York/Karplus (Gamma=1.0000).
                        Polarization charges: spherical gaussians, with
                                              point-specific exponents (IZeta= 3).
                        Self-potential: point-specific (ISelfS= 7).
                        Self-field    : sphere-specific E.n sum rule (ISelfD= 2).
 1st derivatives      : Analytical E(r).r(x)/FMM algorithm (CHGder, D1EAlg=3).
                        Cavity 1st derivative terms included.
 Solvent              : Water, Eps=  78.355300 Eps(inf)=   1.777849
 ------------------------------------------------------------------------------
 ------------------------------------------------------------------------------
 Atomic radii for non-electrostatic terms: SMD-CDS.
 ------------------------------------------------------------------------------
 Nuclear repulsion after PCM non-electrostatic terms =     2475.6659019301 Hartrees.
 One-electron integrals computed using PRISM.
 NBasis=   623 RedAO= T EigKep=  1.46D-06  NBF=   623
 NBsUse=   620 1.00D-06 EigRej=  9.40D-07 NBFU=   620
 ExpMin= 4.38D-02 ExpMax= 1.14D+04 ExpMxC= 1.72D+03 IAcc=3 IRadAn=         5 AccDes= 0.00D+00
 Harris functional with IExCor= 1009 and IRadAn=       5 diagonalized for initial guess.
 HarFok:  IExCor= 1009 AccDes= 0.00D+00 IRadAn=         5 IDoV= 1 UseB2=F ITyADJ=14
 ICtDFT=  3500011 ScaDFX=  1.000000  1.000000  1.000000  1.000000
 FoFCou: FMM=F IPFlag=           0 FMFlag=      100000 FMFlg1=           0
         NFxFlg=           0 DoJE=T BraDBF=F KetDBF=T FulRan=T
         wScrn=  0.000000 ICntrl=     500 IOpCl=  0 I1Cent=   200000004 NGrid=           0
         NMat0=    1 NMatS0=      1 NMatT0=    0 NMatD0=    1 NMtDS0=    0 NMtDT0=    0
 Petite list used in FoFCou.
 Requested convergence on RMS density matrix=1.00D-08 within 128 cycles.
 Requested convergence on MAX density matrix=1.00D-06.
 Requested convergence on             energy=1.00D-06.
 No special actions if energy rises.
 Inv3:  Mode=1 IEnd=    30318123.
 Iteration    1 A*A^-1 deviation from unit magnitude is 6.88D-15 for   3175.
 Iteration    1 A*A^-1 deviation from orthogonality  is 4.29D-15 for   3157   2777.
 Iteration    1 A^-1*A deviation from unit magnitude is 6.88D-15 for   3175.
 Iteration    1 A^-1*A deviation from orthogonality  is 1.93D-09 for   1918   1854.
 Iteration    2 A*A^-1 deviation from unit magnitude is 4.66D-15 for    131.
 Iteration    2 A*A^-1 deviation from orthogonality  is 4.02D-15 for   2397     18.
 Iteration    2 A^-1*A deviation from unit magnitude is 1.33D-15 for   3114.
 Iteration    2 A^-1*A deviation from orthogonality  is 9.82D-16 for   3156    208.
 Error on total polarization charges =  0.05990
 SCF Done:  E(RM062X) =  -1516.19606072     A.U. after   15 cycles
            NFock= 15  Conv=0.17D-08     -V/T= 2.0031
 SMD-CDS (non-electrostatic) energy       (kcal/mol) =      10.70
 (included in total energy above)

 **********************************************************************

            Population analysis using the SCF density.

 **********************************************************************

 Orbital symmetries:
       Occupied  (A) (A) (A) (A) (A) (A) (A) (A) (A) (A) (A) (A)
                 (A) (A) (A) (A) (A) (A) (A) (A) (A) (A) (A) (A)
                 (A) (A) (A) (A) (A) (A) (A) (A) (A) (A) (A) (A)
                 (A) (A) (A) (A) (A) (A) (A) (A) (A) (A) (A) (A)
                 (A) (A) (A) (A) (A) (A) (A) (A) (A) (A) (A) (A)
                 (A) (A) (A) (A) (A) (A) (A) (A) (A) (A) (A) (A)
                 (A) (A) (A) (A) (A) (A) (A) (A) (A) (A) (A) (A)
                 (A) (A) (A) (A) (A) (A) (A) (A) (A) (A) (A) (A)
                 (A) (A) (A) (A)
       Virtual   (A) (A) (A) (A) (A) (A) (A) (A) (A) (A) (A) (A)
                 (A) (A) (A) (A) (A) (A) (A) (A) (A) (A) (A) (A)
                 (A) (A) (A) (A) (A) (A) (A) (A) (A) (A) (A) (A)
                 (A) (A) (A) (A) (A) (A) (A) (A) (A) (A) (A) (A)
                 (A) (A) (A) (A) (A) (A) (A) (A) (A) (A) (A) (A)
                 (A) (A) (A) (A) (A) (A) (A) (A) (A) (A) (A) (A)
                 (A) (A) (A) (A) (A) (A) (A) (A) (A) (A) (A) (A)
                 (A) (A) (A) (A) (A) (A) (A) (A) (A) (A) (A) (A)
                 (A) (A) (A) (A) (A) (A) (A) (A) (A) (A) (A) (A)
                 (A) (A) (A) (A) (A) (A) (A) (A) (A) (A) (A) (A)
                 (A) (A) (A) (A) (A) (A) (A) (A) (A) (A) (A) (A)
                 (A) (A) (A) (A) (A) (A) (A) (A) (A) (A) (A) (A)
                 (A) (A) (A) (A) (A) (A) (A) (A) (A) (A) (A) (A)
                 (A) (A) (A) (A) (A) (A) (A) (A) (A) (A) (A) (A)
                 (A) (A) (A) (A) (A) (A) (A) (A) (A) (A) (A) (A)
                 (A) (A) (A) (A) (A) (A) (A) (A) (A) (A) (A) (A)
                 (A) (A) (A) (A) (A) (A) (A) (A) (A) (A) (A) (A)
                 (A) (A) (A) (A) (A) (A) (A) (A) (A) (A) (A) (A)
                 (A) (A) (A) (A) (A) (A) (A) (A) (A) (A) (A) (A)
                 (A) (A) (A) (A) (A) (A) (A) (A) (A) (A) (A) (A)
                 (A) (A) (A) (A) (A) (A) (A) (A) (A) (A) (A) (A)
                 (A) (A) (A) (A) (A) (A) (A) (A) (A) (A) (A) (A)
                 (A) (A) (A) (A) (A) (A) (A) (A) (A) (A) (A) (A)
                 (A) (A) (A) (A) (A) (A) (A) (A) (A) (A) (A) (A)
                 (A) (A) (A) (A) (A) (A) (A) (A) (A) (A) (A) (A)
                 (A) (A) (A) (A) (A) (A) (A) (A) (A) (A) (A) (A)
                 (A) (A) (A) (A) (A) (A) (A) (A) (A) (A) (A) (A)
                 (A) (A) (A) (A) (A) (A) (A) (A) (A) (A) (A) (A)
                 (A) (A) (A) (A) (A) (A) (A) (A) (A) (A) (A) (A)
                 (A) (A) (A) (A) (A) (A) (A) (A) (A) (A) (A) (A)
                 (A) (A) (A) (A) (A) (A) (A) (A) (A) (A) (A) (A)
                 (A) (A) (A) (A) (A) (A) (A) (A) (A) (A) (A) (A)
                 (A) (A) (A) (A) (A) (A) (A) (A) (A) (A) (A) (A)
                 (A) (A) (A) (A) (A) (A) (A) (A) (A) (A) (A) (A)
                 (A) (A) (A) (A) (A) (A) (A) (A) (A) (A) (A) (A)
                 (A) (A) (A) (A) (A) (A) (A) (A) (A) (A) (A) (A)
                 (A) (A) (A) (A) (A) (A) (A) (A) (A) (A) (A) (A)
                 (A) (A) (A) (A) (A) (A) (A) (A) (A) (A) (A) (A)
                 (A) (A) (A) (A) (A) (A) (A) (A) (A) (A) (A) (A)
                 (A) (A) (A) (A) (A) (A) (A) (A) (A) (A) (A) (A)
                 (A) (A) (A) (A) (A) (A) (A) (A) (A) (A) (A) (A)
                 (A) (A) (A) (A) (A) (A) (A) (A) (A) (A) (A) (A)
                 (A) (A) (A) (A) (A) (A) (A) (A) (A) (A) (A) (A)
                 (A) (A) (A) (A)
 The electronic state is 1-A.
 Alpha  occ. eigenvalues --  -25.28720 -25.28649 -25.28499 -25.28401 -25.28357
 Alpha  occ. eigenvalues --  -25.28037 -19.59438 -19.57933 -19.57660 -14.77539
 Alpha  occ. eigenvalues --  -14.75636 -10.81459 -10.81187 -10.67695 -10.63891
 Alpha  occ. eigenvalues --  -10.61273 -10.59399 -10.58329 -10.56716 -10.56521
 Alpha  occ. eigenvalues --  -10.56150 -10.55399 -10.52703 -10.52468 -10.51555
 Alpha  occ. eigenvalues --  -10.51351  -1.48224  -1.47665  -1.38793  -1.38416
 Alpha  occ. eigenvalues --   -1.38277  -1.37957  -1.17974  -1.16712  -1.06890
 Alpha  occ. eigenvalues --   -1.06042  -1.02687  -0.99173  -0.90188  -0.89755
 Alpha  occ. eigenvalues --   -0.87301  -0.85749  -0.83072  -0.81098  -0.77735
 Alpha  occ. eigenvalues --   -0.74708  -0.73613  -0.72236  -0.70578  -0.70555
 Alpha  occ. eigenvalues --   -0.70272  -0.69787  -0.69420  -0.68143  -0.67633
 Alpha  occ. eigenvalues --   -0.63989  -0.62959  -0.59777  -0.58976  -0.58946
 Alpha  occ. eigenvalues --   -0.58792  -0.58119  -0.58015  -0.55940  -0.55551
 Alpha  occ. eigenvalues --   -0.54967  -0.54620  -0.54261  -0.53600  -0.53293
 Alpha  occ. eigenvalues --   -0.53051  -0.52898  -0.52581  -0.52197  -0.51974
 Alpha  occ. eigenvalues --   -0.51948  -0.51123  -0.50322  -0.49970  -0.48966
 Alpha  occ. eigenvalues --   -0.47498  -0.46590  -0.46181  -0.45061  -0.45010
 Alpha  occ. eigenvalues --   -0.44328  -0.43174  -0.41790  -0.41466  -0.39793
 Alpha  occ. eigenvalues --   -0.39545  -0.39451  -0.38704  -0.35912  -0.34022
 Alpha  occ. eigenvalues --   -0.33642  -0.32947  -0.32538  -0.32398  -0.27950
 Alpha virt. eigenvalues --   -0.01516  -0.00096   0.01388   0.02320   0.02648
 Alpha virt. eigenvalues --    0.03196   0.03340   0.03619   0.04260   0.04647
 Alpha virt. eigenvalues --    0.04776   0.04943   0.05449   0.05684   0.06483
 Alpha virt. eigenvalues --    0.06802   0.06936   0.06999   0.07322   0.07755
 Alpha virt. eigenvalues --    0.08058   0.08517   0.08921   0.09289   0.09397
 Alpha virt. eigenvalues --    0.09479   0.09894   0.10098   0.10535   0.11135
 Alpha virt. eigenvalues --    0.11809   0.12224   0.12480   0.12640   0.12961
 Alpha virt. eigenvalues --    0.13308   0.13567   0.14005   0.14402   0.14982
 Alpha virt. eigenvalues --    0.15221   0.15867   0.16325   0.16540   0.16998
 Alpha virt. eigenvalues --    0.17483   0.17720   0.18179   0.18490   0.18941
 Alpha virt. eigenvalues --    0.19233   0.19577   0.20100   0.20294   0.20521
 Alpha virt. eigenvalues --    0.20817   0.21132   0.21632   0.21790   0.22148
 Alpha virt. eigenvalues --    0.22626   0.22662   0.23031   0.23455   0.23573
 Alpha virt. eigenvalues --    0.23850   0.24403   0.24528   0.24796   0.25114
 Alpha virt. eigenvalues --    0.25477   0.25932   0.26103   0.26425   0.26544
 Alpha virt. eigenvalues --    0.26643   0.26824   0.27037   0.27311   0.27516
 Alpha virt. eigenvalues --    0.28012   0.28355   0.28373   0.28573   0.29075
 Alpha virt. eigenvalues --    0.29509   0.29696   0.29863   0.30160   0.30642
 Alpha virt. eigenvalues --    0.31166   0.31485   0.31847   0.31976   0.32230
 Alpha virt. eigenvalues --    0.32657   0.32957   0.33188   0.33439   0.33607
 Alpha virt. eigenvalues --    0.34162   0.34459   0.34618   0.35077   0.35609
 Alpha virt. eigenvalues --    0.35651   0.36187   0.36691   0.37180   0.37479
 Alpha virt. eigenvalues --    0.37684   0.37780   0.38223   0.38273   0.38785
 Alpha virt. eigenvalues --    0.38963   0.39518   0.40361   0.40570   0.40929
 Alpha virt. eigenvalues --    0.41348   0.41689   0.42577   0.42702   0.43134
 Alpha virt. eigenvalues --    0.43733   0.44253   0.44483   0.44855   0.45059
 Alpha virt. eigenvalues --    0.45315   0.45759   0.46435   0.47197   0.47998
 Alpha virt. eigenvalues --    0.48264   0.48681   0.49341   0.49643   0.49959
 Alpha virt. eigenvalues --    0.50707   0.51152   0.51632   0.52459   0.52831
 Alpha virt. eigenvalues --    0.53836   0.54859   0.55239   0.55746   0.56147
 Alpha virt. eigenvalues --    0.56586   0.56870   0.57861   0.57925   0.58636
 Alpha virt. eigenvalues --    0.59416   0.60243   0.60883   0.61987   0.62110
 Alpha virt. eigenvalues --    0.63373   0.63652   0.64294   0.65239   0.65783
 Alpha virt. eigenvalues --    0.66304   0.67856   0.68062   0.68476   0.69116
 Alpha virt. eigenvalues --    0.70033   0.70453   0.70925   0.71452   0.71774
 Alpha virt. eigenvalues --    0.72553   0.72997   0.73160   0.73565   0.73882
 Alpha virt. eigenvalues --    0.74519   0.74858   0.75167   0.75687   0.76578
 Alpha virt. eigenvalues --    0.76746   0.77287   0.77762   0.78055   0.79006
 Alpha virt. eigenvalues --    0.79410   0.79999   0.80386   0.80690   0.81429
 Alpha virt. eigenvalues --    0.81525   0.81824   0.82415   0.83003   0.84962
 Alpha virt. eigenvalues --    0.86218   0.87890   0.88859   0.89539   0.91285
 Alpha virt. eigenvalues --    0.92269   0.93361   0.94476   0.96191   0.96734
 Alpha virt. eigenvalues --    0.97282   0.98052   0.98649   0.99675   1.00916
 Alpha virt. eigenvalues --    1.03102   1.04682   1.04913   1.05832   1.06478
 Alpha virt. eigenvalues --    1.07302   1.08119   1.09469   1.10688   1.12138
 Alpha virt. eigenvalues --    1.12862   1.14181   1.15162   1.15413   1.15984
 Alpha virt. eigenvalues --    1.17250   1.17508   1.18982   1.19571   1.20701
 Alpha virt. eigenvalues --    1.21524   1.23132   1.23849   1.24335   1.25864
 Alpha virt. eigenvalues --    1.27186   1.27868   1.29080   1.29698   1.31513
 Alpha virt. eigenvalues --    1.32755   1.35816   1.36605   1.38523   1.39173
 Alpha virt. eigenvalues --    1.40149   1.40617   1.41578   1.42617   1.44141
 Alpha virt. eigenvalues --    1.44732   1.45350   1.46755   1.47555   1.48577
 Alpha virt. eigenvalues --    1.49121   1.49391   1.49750   1.50390   1.50878
 Alpha virt. eigenvalues --    1.51478   1.52102   1.52861   1.53687   1.54201
 Alpha virt. eigenvalues --    1.55196   1.55408   1.56335   1.57288   1.57538
 Alpha virt. eigenvalues --    1.58033   1.58616   1.59476   1.59913   1.60607
 Alpha virt. eigenvalues --    1.61685   1.61966   1.62650   1.62893   1.62990
 Alpha virt. eigenvalues --    1.63699   1.63975   1.64505   1.65687   1.66787
 Alpha virt. eigenvalues --    1.67829   1.69692   1.70677   1.73652   1.75578
 Alpha virt. eigenvalues --    1.76732   1.76907   1.77476   1.79004   1.79170
 Alpha virt. eigenvalues --    1.79493   1.80151   1.80941   1.81853   1.83170
 Alpha virt. eigenvalues --    1.83544   1.85056   1.85687   1.87040   1.88687
 Alpha virt. eigenvalues --    1.89261   1.89473   1.89884   1.90383   1.93254
 Alpha virt. eigenvalues --    1.94991   1.96572   1.97811   1.99488   2.00514
 Alpha virt. eigenvalues --    2.00862   2.02034   2.03082   2.04931   2.05972
 Alpha virt. eigenvalues --    2.10531   2.11447   2.11878   2.13342   2.15709
 Alpha virt. eigenvalues --    2.16824   2.17190   2.17527   2.18182   2.22025
 Alpha virt. eigenvalues --    2.23715   2.26205   2.26804   2.28487   2.33341
 Alpha virt. eigenvalues --    2.36017   2.38697   2.39929   2.41109   2.42750
 Alpha virt. eigenvalues --    2.43675   2.47409   2.49992   2.54961   2.55937
 Alpha virt. eigenvalues --    2.56430   2.56992   2.57612   2.59080   2.60012
 Alpha virt. eigenvalues --    2.60705   2.61077   2.62564   2.64041   2.66298
 Alpha virt. eigenvalues --    2.66840   2.68251   2.70361   2.72553   2.73737
 Alpha virt. eigenvalues --    2.77130   2.82056   2.82570   2.85569   2.86542
 Alpha virt. eigenvalues --    2.87194   2.90957   2.92516   2.93904   2.94586
 Alpha virt. eigenvalues --    2.95584   2.98270   2.98788   2.99403   2.99673
 Alpha virt. eigenvalues --    3.00838   3.01474   3.02634   3.04742   3.05189
 Alpha virt. eigenvalues --    3.06336   3.08389   3.09582   3.10142   3.11264
 Alpha virt. eigenvalues --    3.14089   3.15009   3.16197   3.18736   3.21754
 Alpha virt. eigenvalues --    3.25490   3.25812   3.26758   3.27715   3.30115
 Alpha virt. eigenvalues --    3.31340   3.31552   3.34061   3.36786   3.39282
 Alpha virt. eigenvalues --    3.39903   3.40325   3.41283   3.41902   3.44150
 Alpha virt. eigenvalues --    3.45361   3.46065   3.49467   3.55616   3.60556
 Alpha virt. eigenvalues --    3.62535   3.69883   3.71329   3.73042   3.75519
 Alpha virt. eigenvalues --    3.80005   3.80318   3.80521   3.82483   3.83865
 Alpha virt. eigenvalues --    3.84029   3.84299   3.85148   3.85647   3.85990
 Alpha virt. eigenvalues --    3.87166   3.87292   3.88313   3.88760   3.89108
 Alpha virt. eigenvalues --    3.90833   3.95409   3.99021   4.00574   4.00851
 Alpha virt. eigenvalues --    4.00978   4.01185   4.01484   4.05464   4.05991
 Alpha virt. eigenvalues --    4.08279   4.12429   4.13836   4.20653   4.21389
 Alpha virt. eigenvalues --    4.21494   4.22864   4.27029   4.27928   4.30259
 Alpha virt. eigenvalues --    4.31956   4.63691   4.67829   4.73779   4.79951
 Alpha virt. eigenvalues --    4.82769   4.93020   4.98916   4.98965   5.01961
 Alpha virt. eigenvalues --    5.03038   5.19245   5.20292   5.21377   5.24058
 Alpha virt. eigenvalues --    5.38965   5.41072   5.43178   5.74274   5.89711
 Alpha virt. eigenvalues --    6.01605   6.46081   6.48186   6.50241   6.50294
 Alpha virt. eigenvalues --    6.51237   6.53233   6.53716   6.55014   6.55297
 Alpha virt. eigenvalues --    6.56257   6.58674   6.62508   6.63253   6.63763
 Alpha virt. eigenvalues --    6.87471   6.88674   6.89556   6.91313  23.47200
 Alpha virt. eigenvalues --   23.61426  23.63493  23.65028  23.66410  23.76251
 Alpha virt. eigenvalues --   23.81855  23.83175  23.93432  23.94255  23.95455
 Alpha virt. eigenvalues --   23.99196  24.09069  24.14062  24.20951  35.64543
 Alpha virt. eigenvalues --   35.74238  50.06439  50.14866  50.15430  66.89274
 Alpha virt. eigenvalues --   66.89787  66.90539  66.91285  66.96115  66.98339
          Condensed to atoms (all electrons):
               1          2          3          4          5          6
     1  C   28.345986  -0.139631  -1.034078  -0.026065  -0.155667  -0.706341
     2  N   -0.139631   8.077648   0.508078  -0.137969  -0.544915  -0.459151
     3  C   -1.034078   0.508078   8.842798   0.620538   0.137198  -1.217456
     4  O   -0.026065  -0.137969   0.620538   8.312912  -0.165547  -0.130586
     5  N   -0.155667  -0.544915   0.137198  -0.165547   7.877294   0.511511
     6  C   -0.706341  -0.459151  -1.217456  -0.130586   0.511511   8.806132
     7  C   -0.036817   0.047604   0.270117   0.023432  -0.070413  -1.054989
     8  C   -0.014350  -0.016486  -0.254009  -0.001643  -0.046053   0.398880
     9  C   -4.151597   0.132394  -0.000791  -0.106020  -0.230429  -0.137879
    10  C   -9.534163   0.060422  -0.983077  -0.046512  -0.031021  -0.085465
    11  C    1.888333  -0.013894  -0.499515   0.016389   0.036559  -0.030156
    12  C   -0.821015  -0.009681   0.311183   0.086541   0.060067   0.064781
    13  C   -2.062912  -0.202523  -0.796733   0.106317   0.023108  -0.108983
    14  H   -0.082202   0.133633  -0.024523  -0.005158   0.036821   0.021602
    15  H   -0.031460   0.054581  -0.001763  -0.007153   0.149885  -0.020468
    16  H    0.003848   0.013841   0.085016   0.002602  -0.059166   0.317900
    17  H    0.012606  -0.001256  -0.001148  -0.001406  -0.055744   0.437993
    18  H   -0.000856   0.000071   0.006133  -0.000136   0.008718  -0.073940
    19  H    0.000682  -0.001565  -0.000562  -0.000310   0.010200  -0.067974
    20  H   -0.000136  -0.000021  -0.000151  -0.000028   0.000291  -0.043316
    21  H    0.000176   0.000001   0.007039   0.000015  -0.001826   0.088232
    22  H   -0.000166  -0.000045  -0.005607  -0.000037   0.000528  -0.038533
    23  H    0.047916  -0.029249  -0.006584   0.000014  -0.000844  -0.000837
    24  H   -0.040587  -0.014027   0.065177  -0.004756   0.001200   0.007851
    25  C   -0.205587   0.018619  -0.143920   0.002872   0.009125  -0.002241
    26  C   -4.845400  -0.016671  -0.066070  -0.005526  -0.002869  -0.000172
    27  H   -0.002909  -0.001406   0.001820   0.000103   0.000014  -0.000005
    28  F   -0.016664   0.000043  -0.001265   0.000002   0.000003  -0.000007
    29  F   -0.000076   0.000025  -0.000818  -0.000003   0.000004  -0.000003
    30  F    0.009665  -0.000075   0.000271  -0.000001   0.000001   0.000000
    31  F    0.246288   0.002461   0.003307  -0.000002   0.000052   0.000070
    32  F    0.014325   0.000609  -0.000569  -0.000004  -0.000003   0.000004
    33  F    0.027782   0.000632  -0.001329   0.000002   0.000013  -0.000009
    34  O   -0.124673   0.014556   0.010227  -0.001082  -0.038428  -0.007488
    35  O    0.018482  -0.036966  -0.048026  -0.000325  -0.006823   0.057022
    36  C    0.146923   0.000551  -0.012050  -0.000422   0.023433   0.013341
    37  C   -0.072645  -0.015694  -0.008454  -0.000666  -0.046247   0.033142
    38  C   -0.000614   0.001070   0.003727   0.000005   0.005393  -0.011393
    39  H   -0.000773   0.000080  -0.000685  -0.000001   0.000347   0.000584
    40  H    0.000879   0.000456   0.000984   0.000002  -0.000207  -0.001210
    41  H   -0.000018   0.000009   0.000204   0.000000   0.000182  -0.000470
    42  H    0.000062   0.000012   0.000066  -0.000000  -0.000059  -0.000002
    43  H   -0.000057  -0.000002  -0.000814  -0.000001  -0.000020   0.001615
               7          8          9         10         11         12
     1  C   -0.036817  -0.014350  -4.151597  -9.534163   1.888333  -0.821015
     2  N    0.047604  -0.016486   0.132394   0.060422  -0.013894  -0.009681
     3  C    0.270117  -0.254009  -0.000791  -0.983077  -0.499515   0.311183
     4  O    0.023432  -0.001643  -0.106020  -0.046512   0.016389   0.086541
     5  N   -0.070413  -0.046053  -0.230429  -0.031021   0.036559   0.060067
     6  C   -1.054989   0.398880  -0.137879  -0.085465  -0.030156   0.064781
     7  C    6.654650  -0.501567   0.022790   0.000761  -0.001263  -0.004529
     8  C   -0.501567   6.661146  -0.005468  -0.000734  -0.000303   0.000950
     9  C    0.022790  -0.005468  14.381691   1.344389  -1.235434  -2.896452
    10  C    0.000761  -0.000734   1.344389  27.884786  -1.239804  -7.360877
    11  C   -0.001263  -0.000303  -1.235434  -1.239804  25.832333  -1.841542
    12  C   -0.004529   0.000950  -2.896452  -7.360877  -1.841542  22.914734
    13  C   -0.009411  -0.000366  -0.781870   2.751430 -10.723769  -2.681056
    14  H   -0.003569   0.000338  -0.017205  -0.004181  -0.011607   0.012000
    15  H   -0.023388   0.009874  -0.005666  -0.004950  -0.002999   0.002022
    16  H   -0.014756  -0.023799  -0.001830   0.000162  -0.000038   0.001094
    17  H   -0.039073  -0.014186   0.005211   0.000526  -0.000042  -0.002739
    18  H    0.461216  -0.072543  -0.000347  -0.000031   0.000004   0.000085
    19  H    0.455187  -0.066099   0.000794   0.000051   0.000004  -0.000082
    20  H    0.043647   0.343575   0.000008  -0.000001   0.000000   0.000001
    21  H   -0.159084   0.415836  -0.000009   0.000000   0.000000   0.000000
    22  H    0.030907   0.356980   0.000020   0.000000  -0.000001  -0.000002
    23  H    0.000086   0.000007   0.296370  -0.082797   0.019798  -0.004684
    24  H   -0.000184   0.000064  -0.050239  -0.046296   0.034973   0.062095
    25  C   -0.000171   0.000003  -2.267570   0.637641  -3.085272  -1.556726
    26  C   -0.000063   0.000003   1.736983  -6.642940  -2.331210  -0.206621
    27  H    0.000002  -0.000000   0.005682   0.071923  -0.092620   0.265724
    28  F   -0.000000  -0.000000   0.070386  -0.236042  -0.014666   0.102237
    29  F   -0.000000   0.000000   0.012601   0.035856  -0.187074   0.053764
    30  F    0.000000   0.000000   0.025820   0.009239   0.071948  -0.078248
    31  F   -0.000001   0.000000   0.184961  -0.450216   0.050282   0.031076
    32  F    0.000000   0.000000  -0.055010   0.147770   0.015924   0.018919
    33  F   -0.000000  -0.000000   0.005509   0.014454  -0.123106   0.026440
    34  O    0.000639   0.000509   0.153064   0.008509   0.003370   0.002701
    35  O   -0.001927   0.009122  -0.014384  -0.003309   0.000367  -0.000083
    36  C   -0.003424  -0.016518  -0.115496  -0.052672  -0.017085   0.008142
    37  C   -0.015968   0.008438   0.049594   0.012123  -0.001228  -0.004956
    38  C    0.006986  -0.004605   0.000238   0.001906   0.000174   0.000243
    39  H   -0.000661  -0.000056   0.001087  -0.000003  -0.000020  -0.000014
    40  H    0.001209   0.000100  -0.000676  -0.000225   0.000020   0.000015
    41  H    0.000655   0.000359   0.000038  -0.000006   0.000001  -0.000001
    42  H   -0.000065  -0.000007  -0.000093  -0.000013  -0.000001   0.000001
    43  H   -0.000908  -0.000389   0.000083   0.000006  -0.000001  -0.000002
              13         14         15         16         17         18
     1  C   -2.062912  -0.082202  -0.031460   0.003848   0.012606  -0.000856
     2  N   -0.202523   0.133633   0.054581   0.013841  -0.001256   0.000071
     3  C   -0.796733  -0.024523  -0.001763   0.085016  -0.001148   0.006133
     4  O    0.106317  -0.005158  -0.007153   0.002602  -0.001406  -0.000136
     5  N    0.023108   0.036821   0.149885  -0.059166  -0.055744   0.008718
     6  C   -0.108983   0.021602  -0.020468   0.317900   0.437993  -0.073940
     7  C   -0.009411  -0.003569  -0.023388  -0.014756  -0.039073   0.461216
     8  C   -0.000366   0.000338   0.009874  -0.023799  -0.014186  -0.072543
     9  C   -0.781870  -0.017205  -0.005666  -0.001830   0.005211  -0.000347
    10  C    2.751430  -0.004181  -0.004950   0.000162   0.000526  -0.000031
    11  C  -10.723769  -0.011607  -0.002999  -0.000038  -0.000042   0.000004
    12  C   -2.681056   0.012000   0.002022   0.001094  -0.002739   0.000085
    13  C   20.239562   0.060741  -0.002949   0.008560  -0.013779   0.000616
    14  H    0.060741   0.286715   0.016952  -0.000254   0.000241   0.000038
    15  H   -0.002949   0.016952   0.313380   0.003272   0.000034   0.002119
    16  H    0.008560  -0.000254   0.003272   0.440762  -0.047472   0.005528
    17  H   -0.013779   0.000241   0.000034  -0.047472   0.446532  -0.008701
    18  H    0.000616   0.000038   0.002119   0.005528  -0.008701   0.442513
    19  H   -0.000972   0.000027  -0.000782  -0.008436   0.005940  -0.039692
    20  H    0.000033   0.000000  -0.000048  -0.000645   0.003142  -0.008016
    21  H    0.000018   0.000000  -0.000053  -0.000017   0.000010  -0.003878
    22  H   -0.000064   0.000000  -0.000033   0.002753  -0.000754   0.006534
    23  H    0.002283   0.011219   0.000000   0.000000   0.000000  -0.000000
    24  H    0.304106  -0.000337   0.000038  -0.000015  -0.000001  -0.000000
    25  C   -2.534154   0.000250  -0.000191  -0.000003   0.000005  -0.000000
    26  C    2.363286   0.013698  -0.000086   0.000013   0.000009   0.000000
    27  H    0.066461   0.000006  -0.000000   0.000000  -0.000000  -0.000000
    28  F    0.067122  -0.000001  -0.000000   0.000000  -0.000000   0.000000
    29  F    0.186746   0.000002  -0.000000  -0.000000   0.000000   0.000000
    30  F   -0.010194  -0.000000  -0.000000  -0.000000   0.000000  -0.000000
    31  F   -0.017924  -0.000144  -0.000001  -0.000000   0.000000  -0.000000
    32  F   -0.009333   0.000028   0.000000  -0.000000   0.000000   0.000000
    33  F    0.000011   0.000001  -0.000000   0.000000  -0.000000   0.000000
    34  O   -0.010694   0.052074   0.016454   0.000008  -0.000039   0.000214
    35  O   -0.005588   0.013707   0.042271  -0.000325  -0.000023  -0.001778
    36  C   -0.007195  -0.007628  -0.006046   0.000092  -0.000238   0.003070
    37  C   -0.016542   0.014926   0.026863  -0.000518   0.000076  -0.000491
    38  C    0.001251  -0.000889  -0.003137   0.000075   0.000013   0.000371
    39  H   -0.000059  -0.000135  -0.000154  -0.000000  -0.000000   0.000002
    40  H    0.000105  -0.000189   0.000097   0.000000   0.000000  -0.000001
    41  H   -0.000012  -0.000007  -0.000039   0.000000   0.000000  -0.000021
    42  H    0.000004  -0.000002   0.000028  -0.000000  -0.000000   0.000000
    43  H   -0.000024  -0.000004  -0.000249  -0.000001  -0.000000  -0.000000
              19         20         21         22         23         24
     1  C    0.000682  -0.000136   0.000176  -0.000166   0.047916  -0.040587
     2  N   -0.001565  -0.000021   0.000001  -0.000045  -0.029249  -0.014027
     3  C   -0.000562  -0.000151   0.007039  -0.005607  -0.006584   0.065177
     4  O   -0.000310  -0.000028   0.000015  -0.000037   0.000014  -0.004756
     5  N    0.010200   0.000291  -0.001826   0.000528  -0.000844   0.001200
     6  C   -0.067974  -0.043316   0.088232  -0.038533  -0.000837   0.007851
     7  C    0.455187   0.043647  -0.159084   0.030907   0.000086  -0.000184
     8  C   -0.066099   0.343575   0.415836   0.356980   0.000007   0.000064
     9  C    0.000794   0.000008  -0.000009   0.000020   0.296370  -0.050239
    10  C    0.000051  -0.000001   0.000000   0.000000  -0.082797  -0.046296
    11  C    0.000004   0.000000   0.000000  -0.000001   0.019798   0.034973
    12  C   -0.000082   0.000001   0.000000  -0.000002  -0.004684   0.062095
    13  C   -0.000972   0.000033   0.000018  -0.000064   0.002283   0.304106
    14  H    0.000027   0.000000   0.000000   0.000000   0.011219  -0.000337
    15  H   -0.000782  -0.000048  -0.000053  -0.000033   0.000000   0.000038
    16  H   -0.008436  -0.000645  -0.000017   0.002753   0.000000  -0.000015
    17  H    0.005940   0.003142   0.000010  -0.000754   0.000000  -0.000001
    18  H   -0.039692  -0.008016  -0.003878   0.006534  -0.000000  -0.000000
    19  H    0.442943   0.006495  -0.003965  -0.007635  -0.000001  -0.000000
    20  H    0.006495   0.446902  -0.024269  -0.036629  -0.000000  -0.000000
    21  H   -0.003965  -0.024269   0.425861  -0.024038   0.000000   0.000000
    22  H   -0.007635  -0.036629  -0.024038   0.446416  -0.000000  -0.000000
    23  H   -0.000001  -0.000000   0.000000  -0.000000   0.330827  -0.000042
    24  H   -0.000000  -0.000000   0.000000  -0.000000  -0.000042   0.363089
    25  C    0.000000   0.000000   0.000000  -0.000000   0.008571   0.006976
    26  C   -0.000000  -0.000000  -0.000000   0.000000   0.025185  -0.002015
    27  H   -0.000000   0.000000  -0.000000   0.000000   0.000033  -0.003201
    28  F   -0.000000  -0.000000   0.000000  -0.000000  -0.000003   0.000011
    29  F   -0.000000  -0.000000   0.000000  -0.000000   0.000010   0.000011
    30  F    0.000000   0.000000   0.000000  -0.000000   0.000006   0.000029
    31  F    0.000000   0.000000  -0.000000   0.000000   0.011622  -0.000006
    32  F    0.000000   0.000000  -0.000000   0.000000  -0.000643   0.000001
    33  F   -0.000000  -0.000000   0.000000  -0.000000   0.000733  -0.000003
    34  O   -0.000242   0.000000  -0.000001  -0.000000   0.004856   0.000026
    35  O   -0.001827   0.000036  -0.000037  -0.000006   0.000482   0.000007
    36  C    0.002207   0.000042  -0.000191   0.000192   0.005105   0.000008
    37  C   -0.001396  -0.000011   0.000137  -0.000060  -0.001822   0.000007
    38  C    0.001467   0.000009  -0.000097   0.000042  -0.000052   0.000000
    39  H    0.000001   0.000000  -0.000000   0.000000  -0.000080   0.000000
    40  H   -0.000001  -0.000000  -0.000000   0.000000   0.000022  -0.000000
    41  H   -0.000009  -0.000000   0.000001  -0.000000   0.000000  -0.000000
    42  H   -0.000000  -0.000000  -0.000000  -0.000000  -0.000000  -0.000000
    43  H   -0.000052   0.000000   0.000001  -0.000000  -0.000000   0.000000
              25         26         27         28         29         30
     1  C   -0.205587  -4.845400  -0.002909  -0.016664  -0.000076   0.009665
     2  N    0.018619  -0.016671  -0.001406   0.000043   0.000025  -0.000075
     3  C   -0.143920  -0.066070   0.001820  -0.001265  -0.000818   0.000271
     4  O    0.002872  -0.005526   0.000103   0.000002  -0.000003  -0.000001
     5  N    0.009125  -0.002869   0.000014   0.000003   0.000004   0.000001
     6  C   -0.002241  -0.000172  -0.000005  -0.000007  -0.000003   0.000000
     7  C   -0.000171  -0.000063   0.000002  -0.000000  -0.000000   0.000000
     8  C    0.000003   0.000003  -0.000000  -0.000000   0.000000   0.000000
     9  C   -2.267570   1.736983   0.005682   0.070386   0.012601   0.025820
    10  C    0.637641  -6.642940   0.071923  -0.236042   0.035856   0.009239
    11  C   -3.085272  -2.331210  -0.092620  -0.014666  -0.187074   0.071948
    12  C   -1.556726  -0.206621   0.265724   0.102237   0.053764  -0.078248
    13  C   -2.534154   2.363286   0.066461   0.067122   0.186746  -0.010194
    14  H    0.000250   0.013698   0.000006  -0.000001   0.000002  -0.000000
    15  H   -0.000191  -0.000086  -0.000000  -0.000000  -0.000000  -0.000000
    16  H   -0.000003   0.000013   0.000000   0.000000  -0.000000  -0.000000
    17  H    0.000005   0.000009  -0.000000  -0.000000   0.000000   0.000000
    18  H   -0.000000   0.000000  -0.000000   0.000000   0.000000  -0.000000
    19  H    0.000000  -0.000000  -0.000000  -0.000000  -0.000000   0.000000
    20  H    0.000000  -0.000000   0.000000  -0.000000  -0.000000   0.000000
    21  H    0.000000  -0.000000  -0.000000   0.000000   0.000000   0.000000
    22  H   -0.000000   0.000000   0.000000  -0.000000  -0.000000  -0.000000
    23  H    0.008571   0.025185   0.000033  -0.000003   0.000010   0.000006
    24  H    0.006976  -0.002015  -0.003201   0.000011   0.000011   0.000029
    25  C   20.353782  -6.475291  -0.011160  -0.102796   0.012050   0.142614
    26  C   -6.475291  21.000991   0.014862   0.277519   0.038746  -0.016446
    27  H   -0.011160   0.014862   0.359030   0.000730   0.009369  -0.000405
    28  F   -0.102796   0.277519   0.000730   9.009837  -0.025870  -0.038558
    29  F    0.012050   0.038746   0.009369  -0.025870   9.033881  -0.040036
[...]
 07,-0.00000438,0.00000049,0.00000032,0.00000036,-0.00001210,0.00000294
 ,0.00000062,-0.00000047,0.00000007,0.00000169,0.00000060,0.00000009,0.
 00000062,-0.00000025,-0.00000019,0.00000167,-0.00000044,-0.00000131,-0
 .00000058,0.00000594,-0.00000174,0.00000054,0.00000208,-0.00000049,-0.
 00000002,0.00000231,0.00000022,0.00049706,-0.00125070,-0.00005973,0.00
 010653,0.00107012,-0.00174489,0.00635469,0.00385783,0.00358062,-0.1141
 4032,-0.03948833,-0.11755254,0.00799618,0.00303247,0.00483517,0.123614
 60,0.04228152,0.12603044,0.00002278,0.00000091,-0.00000538,0.00002595,
 0.00006539,0.00001721,-0.00010577,0.00001969,0.00000600,0.00002629,-0.
 00001824,-0.00000429,0.00000914,-0.00013327,-0.00002494,0.00002164,-0.
 00000603,-0.00000197,-0.00000235,-0.00000087,0.00001135,0.00000039,0.0
 0000074,-0.00000381,-0.00000194,-0.00000657,0.00000548,0.00000112,0.00
 000037,0.00000111,-0.00000319,0.00000082,-0.00000096,0.00000170,0.0000
 0104,-0.00000164,-0.00000527,0.00000278,0.00000174,-0.00002745,-0.0001
 6150,-0.00002499,0.00001737,0.00017409,0.00002501,-0.00000496,-0.00000
 375,-0.00000127,-0.00000412,-0.00000129,0.00000058,-0.00000002,0.00000
 241,-0.00000230,-0.00000020,0.00000337,-0.00000056,0.00000010,-0.00000
 007,-0.00000004,-0.00000062,-0.00000019,0.00000049,-0.00000064,-0.0000
 0100,-0.00000044,0.00000934,-0.00000309,-0.00000290,0.00000027,0.00000
 032,0.00000009,0.00000359,-0.00000069,0.00000009,0.00000273,0.00000746
 ,-0.00000162,-0.00000054,0.00000041,0.00000023,-0.00000148,-0.00000023
 ,-0.00000034,-0.00000064,0.00000063,-0.00000005,-0.00000097,-0.0000000
 5,0.00000058,0.00000096,-0.00000506,0.00000131,-0.00000097,-0.00000180
 ,-0.00000056,-0.00000104,-0.00000127,0.00000021,-0.00036955,0.00228637
 ,-0.00099453,-0.00050110,-0.00233978,-0.00076780,-0.00383099,-0.002436
 85,0.00781343,-0.05863376,-0.00503347,0.06270432,-0.00655053,-0.002698
 45,0.02550055,0.00655022,0.00411379,-0.02535954,0.06490242,-0.00006189
 ,0.00003068,0.00000071,0.00007525,-0.00004173,0.00005212,-0.00020180,0
 .00012499,0.00002737,0.00003058,-0.00014655,-0.00003074,0.00004542,-0.
 00041776,-0.00003690,0.00008667,-0.00000994,0.00000042,-0.00001231,-0.
 00000482,-0.00000412,0.00000427,0.00000217,0.00000023,0.00001808,-0.00
 000073,0.00000122,-0.00000244,0.00000351,-0.00000452,0.00001166,-0.000
 00561,0.00000086,-0.00000786,-0.00000039,-0.00000196,0.00001447,-0.000
 01625,0.00000160,-0.00002833,0.00015156,-0.00009733,0.00009011,0.00069
 201,0.00003533,-0.00002084,-0.00001212,-0.00000335,-0.00001854,-0.0000
 1044,0.00000265,0.00000146,0.00000389,-0.00000671,-0.00000518,0.000001
 96,0.00000550,-0.00000185,-0.00000169,0.00000062,-0.00000445,0.0000001
 4,0.00000023,-0.00000211,-0.00000195,-0.00000135,-0.00001455,0.0000100
 2,0.00000096,-0.00000045,0.00000231,0.00000014,-0.00001244,0.00000729,
 0.00000361,-0.00000659,-0.00000667,0.00000517,0.00000099,-0.00000079,0
 .00000065,0.00000397,-0.00000020,0.00000035,0.00000178,-0.00000326,0.0
 0000004,0.00000418,-0.00000192,-0.00000397,-0.00000069,0.00000495,-0.0
 0000175,0.00000161,0.00000175,-0.00000023,0.00000320,0.00000024,-0.000
 00238,-0.00068912,-0.00043084,-0.00317333,-0.00424853,-0.00613404,-0.0
 0210708,-0.00445752,-0.00093111,0.03482602,-0.00471175,-0.05004618,0.0
 3168635,0.00487722,0.00131344,-0.02073236,0.00268319,0.00077967,-0.009
 58596,0.00427629,0.05575368,0.00002038,-0.00000982,-0.00000572,-0.0000
 2486,0.00002562,-0.00001203,0.00007693,-0.00004166,-0.00001257,-0.0000
 1156,0.00004645,0.00000893,-0.00000998,0.00011240,0.00002174,-0.000025
 80,0.00000823,-0.00000076,0.00000220,0.00000279,-0.00000070,-0.0000020
 3,-0.00000132,0.00000076,-0.00000574,-0.00000132,0.00000071,0.00000205
 ,0.00000070,0.00000424,-0.00000506,0.00000036,-0.00000073,0.00000274,0
 .,-0.00000102,-0.00000534,0.00000675,0.00000276,0.00001302,-0.00000772
 ,0.00002537,-0.00003994,-0.00017302,-0.00003331,0.00000633,0.00000438,
 0.00000161,0.00000596,0.00000383,0.00000003,0.00000023,-0.00000208,0.0
 0000478,0.00000280,0.00000019,-0.00000384,0.00000109,0.00000049,-0.000
 00041,0.00000116,-0.00000033,-0.00000036,0.00000156,0.00000122,0.00000
 085,0.00000022,0.00000203,0.00000063,0.00000027,-0.00000084,-0.0000003
 3,0.00000344,-0.00000195,-0.00000211,-0.00000128,0.00000616,-0.0000070
 9,-0.00000020,-0.00000009,-0.00000040,-0.00000085,0.00000011,0.0000005
 0,-0.00000049,0.00000062,0.00000051,-0.00000173,0.00000063,0.00000145,
 -0.00000013,-0.00000378,0.00000212,0.00000023,-0.00000080,0.00000199,-
 0.00000075,-0.00000072,0.00000091,-0.00021059,-0.00030451,0.00191352,-
 0.00001331,0.00176606,0.00003037,0.00169795,-0.00147867,-0.00577038,0.
 06174392,0.02984092,-0.29548156,0.00116575,-0.00004832,-0.00495263,0.0
 0353140,0.00232372,-0.01658862,-0.06917348,-0.03094379,0.31874555,0.00
 001652,-0.00000248,-0.00000073,-0.00000299,0.00004090,-0.00000298,-0.0
 0000402,-0.00000897,0.00000009,0.00000424,0.00001450,0.00000157,0.0000
 0007,0.00001956,-0.00000007,-0.00000560,-0.00000156,0.00000070,0.00000
 110,-0.00000023,-0.00000227,-0.00000113,0.00000053,0.00000113,-0.00000
 474,-0.00000390,-0.00000060,0.00000150,-0.00000014,0.00000153,-0.00000
 298,0.00000199,-0.00000098,0.00000150,0.00000083,-0.00000166,-0.000003
 74,0.00000304,0.00000122,-0.00000517,-0.00006666,0.00000304,-0.0000110
 5,-0.00003832,-0.00000452,0.00000110,0.00000098,0.00000021,0.00000171,
 0.00000159,-0.00000002,0.00000171,0.00000117,0.00000129,0.00000195,0.0
 0000244,0.00000002,0.00000017,-0.00000046,-0.00000080,0.00000017,0.000
 00047,-0.00000020,0.00000027,-0.00000027,0.00000060,0.00000511,-0.0000
 0057,0.00000137,0.00000015,-0.00000010,0.00000046,0.00000333,-0.000001
 78,0.00000160,0.00000305,-0.00000009,0.00000303,-0.00000036,0.00000042
 ,0.00000014,-0.00000138,-0.00000016,-0.00000065,-0.00000062,0.00000099
 ,-0.00000039,-0.00000108,0.00000048,0.00000010,-0.00000066,0.00000047,
 -0.00000118,-0.00000148,-0.00000080,-0.00000222,-0.00000067,-0.0000000
 9,-0.00000036,-0.00001958,0.00040893,-0.00028567,0.00066532,0.00022279
 ,-0.00053610,0.00001598,-0.00157926,0.00024105,-0.00649078,-0.00250445
 ,0.02688108,-0.06134037,-0.00540687,0.05797654,0.00098909,-0.00099111,
 -0.00033832,-0.00353332,0.00379252,0.00099497,0.06526941,0.00000177,-0
 .00000179,-0.00000484,-0.00000427,-0.00000429,0.00000190,0.00001330,-0
 .00000914,-0.00000320,-0.00000181,0.00000595,0.00000158,-0.00000206,0.
 00002218,0.00000533,-0.00000197,0.00000244,0.00000066,0.00000023,0.000
 00512,-0.00000421,0.00000169,0.00000078,0.00000078,0.00000019,0.000001
 16,0.00000102,0.00000070,0.00000087,0.00000177,-0.00000073,-0.00000155
 ,-0.00000230,0.00000044,-0.00000045,-0.00000213,-0.00000004,0.00000184
 ,0.00000682,-0.00000012,0.00000491,0.00000477,-0.00000989,-0.00003044,
 -0.00001364,-0.00000059,0.00000145,0.00000068,0.00000006,0.00000104,-0
 .00000023,-0.00000137,-0.00000098,0.00000330,-0.00000201,-0.00000234,-
 0.00000108,0.00000013,-0.00000072,-0.00000052,-0.00000067,0.00000021,-
 0.00000011,0.00000044,-0.00000034,0.00000061,-0.00000137,-0.00000048,-
 0.00000037,0.00000013,-0.00000016,-0.00000028,0.00000022,0.00000043,0.
 00000014,-0.00000082,0.00000096,-0.00000239,0.00000004,-0.00000021,-0.
 00000015,-0.00000008,0.00000002,0.00000034,-0.00000002,-0.00000007,0.0
 0000025,-0.00000025,0.00000025,0.00000039,-0.00000002,-0.00000098,0.00
 000071,0.00000021,-0.00000020,0.00000090,-0.00000026,-0.00000003,0.000
 00045,0.00009650,-0.00003701,0.00029240,0.00017870,-0.00049909,-0.0002
 2904,-0.00062449,0.00053934,-0.00061951,0.00405774,0.00134192,-0.02034
 949,-0.00576878,-0.04925627,0.02310862,-0.00071466,0.00074111,0.000558
 56,0.00319258,-0.00204453,-0.00080541,0.00296673,0.05040583,-0.0000131
 0,0.00000061,0.00000199,-0.00000694,-0.00004355,0.00000500,0.00002317,
 0.00000073,-0.00000366,-0.00000722,-0.00000670,-0.00000035,-0.00000040
 ,0.00000087,0.00001030,0.00000379,0.00000187,-0.00000020,-0.00000332,-
 0.00000293,-0.00000628,0.00000108,-0.00000079,0.00000123,0.00000312,0.
 00000437,0.00000017,-0.00000185,-0.00000290,-0.00000402,0.00000297,-0.
 00000080,0.00000412,-0.00000059,-0.00000188,0.00000074,0.00000317,-0.0
 0000140,-0.00000061,0.00000816,0.00006442,-0.00000721,-0.00000531,-0.0
 0000123,-0.00000260,-0.00000025,0.00000162,0.00000041,-0.00000128,-0.0
 0000054,0.00000031,0.00000044,-0.00000148,0.00000384,-0.00000019,0.000
 00053,-0.00000103,-0.00000059,-0.00000032,0.00000064,-0.00000162,0.000
 00074,-0.00000063,0.00000072,0.00000121,0.00000041,-0.00000357,0.00000
 036,-0.00000123,-0.00000018,-0.00000038,-0.00000041,-0.00000207,0.0000
 0221,-0.00000346,-0.00000320,0.00000348,-0.00000270,0.00000021,-0.0000
 0024,-0.00000018,0.00000078,-0.00000016,0.00000031,0.00000062,-0.00000
 136,0.00000047,0.00000063,-0.00000064,0.00000083,0.00000126,-0.0000021
 2,0.00000142,0.00000160,0.00000007,0.00000212,0.00000110,-0.00000061,0
 .00000067,-0.00022594,-0.00063867,0.00013629,-0.00110353,0.00057547,0.
 00081262,0.00132190,0.00140000,-0.00050920,0.00139834,-0.00009361,-0.0
 0582399,0.05905144,0.02090770,-0.30471745,0.00030829,-0.00016686,0.000
 66427,0.00129054,-0.00079618,0.00124858,-0.06622107,-0.02387302,0.3277
 2732,0.00008094,-0.00000987,-0.00000627,0.00002183,0.00022699,-0.00001
 619,-0.00007869,-0.00002249,-0.00000692,0.00003221,0.00005326,0.000008
 64,0.00001021,0.00002902,0.00000472,-0.00001802,-0.00000353,-0.0000002
 2,0.00000381,0.00000547,-0.00000045,-0.00000010,-0.00000139,-0.0000000
 2,-0.00002111,-0.00001652,0.00000240,0.00000552,-0.00000176,0.00000082
 ,-0.00001294,0.00000570,-0.00000105,0.00000730,0.00000375,-0.00000259,
 -0.00002013,0.00001611,0.00000205,-0.00004516,-0.00035873,0.00003404,-
 0.00001940,-0.00007672,-0.00000235,0.00000415,0.00000141,0.00000044,0.
 00000470,0.00000149,-0.00000025,-0.00000031,0.00000021,-0.00000105,0.0
 0000066,0.00000158,0.00000095,0.00000009,-0.00000013,0.00000007,0.0000
 0190,0.00000001,-0.00000004,0.00000002,-0.00000002,-0.00000004,0.00002
 108,-0.00000122,-0.00000014,0.00000033,-0.00000082,0.00000015,0.000014
 68,-0.00000694,-0.00000134,0.00000951,0.00000560,-0.00000120,-0.000001
 62,0.00000078,0.00000012,-0.00000491,-0.00000009,-0.00000091,-0.000002
 36,0.00000394,-0.00000055,-0.00000473,0.00000221,0.00000362,-0.0000017
 8,-0.00000273,0.00000097,-0.00000338,-0.00000216,-0.00000219,-0.000004
 02,-0.00000059,0.00000241,-0.00077787,0.00348631,0.00001909,0.00136326
 ,-0.00022861,-0.00039704,-0.00493276,-0.00109078,0.00232498,0.00647551
 ,0.02794027,-0.00616522,-0.06098330,-0.05855765,0.01129201,0.00107047,
 -0.00087961,-0.00053697,0.00105470,-0.00095317,-0.00002516,-0.00275278
 ,-0.00599912,0.00039246,0.06446155,-0.00009418,0.00001412,0.00000776,-
 0.00000204,-0.00021985,0.00001187,0.00003839,0.00005695,0.00001118,-0.
 00002685,-0.00008442,-0.00001182,-0.00000988,-0.00009816,-0.00001929,0
 .00003116,0.00000157,-0.00000003,-0.00000338,-0.00000299,0.00000015,0.
 00000188,0.00000079,-0.00000020,0.00002461,0.00001814,-0.00000250,-0.0
 0000562,0.00000546,-0.00000699,0.00001665,-0.00000764,0.00000723,-0.00
 000858,-0.00000464,0.00000189,0.00002324,-0.00001849,-0.00000314,0.000
 03318,0.00039043,-0.00003157,0.00005954,0.00021341,0.00002534,-0.00000
 722,-0.00000422,-0.00000197,-0.00000738,-0.00000458,0.00000145,0.00000
 087,0.00000176,-0.00000290,-0.00000045,0.00000072,0.00000288,-0.000001
 35,-0.00000081,0.00000099,-0.00000204,0.00000090,0.00000010,-0.0000012
 4,-0.00000080,-0.00000122,-0.00002234,0.00000229,0.00000210,-0.0000007
 5,0.00000093,-0.00000033,-0.00001949,0.00000954,0.00000144,-0.00001426
 ,-0.00000832,0.00000369,0.00000187,-0.00000161,-0.00000003,0.00000607,
 -0.00000005,0.00000041,0.00000324,-0.00000515,0.00000019,0.00000667,-0
 .00000313,-0.00000507,0.00000278,0.00000256,-0.00000066,0.00000480,0.0
 0000272,0.00000216,0.00000562,0.00000064,-0.00000274,0.00117764,-0.003
 21392,-0.00015565,-0.00006601,-0.00109577,0.00015584,0.00267486,0.0029
 1575,-0.00120292,-0.00553926,-0.01725328,0.00394144,-0.05683453,-0.295
 95677,0.04978145,0.00004180,0.00070458,0.00037425,-0.00033808,0.000616
 24,-0.00039367,-0.00025164,-0.00084668,0.00077226,0.06062839,0.3202562
 5,-0.00001938,0.00000214,0.00000125,-0.00000836,-0.00005982,0.00000602
 ,0.00002484,0.00000113,0.00000189,-0.00000857,-0.00001014,-0.00000203,
 -0.00000190,-0.00000050,0.00000486,0.00000218,0.00000073,-0.00000084,-
 0.00000036,0.00000073,-0.00000146,-0.00000054,0.00000041,0.00000053,0.
 00000536,0.00000368,-0.00000286,-0.00000115,0.00000142,0.00000058,0.00
 000313,-0.00000267,0.00000065,-0.00000162,-0.00000076,-0.00000042,0.00
 000450,-0.00000306,0.00000006,0.00001405,0.00009178,-0.00000540,-0.000
 00110,0.00000217,-0.00001184,-0.00000109,-0.00000003,0.00000002,-0.000
 00033,-0.00000020,-0.00000005,-0.00000049,0.00000062,0.00000047,0.0000
 0010,0.00000121,0.00000019,-0.00000010,-0.00000002,0.00000006,0.,-0.00
 000011,-0.00000017,0.00000015,0.00000024,0.00000012,-0.00000503,-0.000
 00009,0.00000129,-0.00000013,0.00000014,-0.00000004,-0.00000329,0.0000
 0201,0.00000017,-0.00000202,-0.00000189,0.00000041,0.00000051,-0.00000
 057,0.00000003,0.00000118,0.00000005,0.00000030,0.00000049,-0.00000075
 ,0.00000022,0.00000114,-0.00000059,-0.00000097,0.00000030,0.00000101,-
 0.00000022,0.00000058,0.00000057,0.00000058,0.00000056,0.00000034,-0.0
 0000045,0.00019683,-0.00096645,0.00010073,-0.00043425,0.00022092,0.000
 33858,0.00195580,0.00018198,0.00008271,-0.00231836,-0.00898166,0.00064
 448,0.01109319,0.05048080,-0.05866601,-0.00008977,0.00043223,0.0000776
 0,-0.00064703,0.00013670,0.00025178,0.00670223,0.03057076,-0.00409070,
 -0.01388387,-0.05427934,0.05763321,0.00001962,-0.00000107,-0.00000369,
 0.00000471,0.00006107,-0.00000082,-0.00002516,-0.00000573,-0.00000356,
 0.00000847,0.00001525,0.00000420,0.00000356,0.00001541,0.00000652,-0.0
 0000533,-0.00000010,-0.00000189,0.00000071,0.00000568,-0.00000225,-0.0
 0000090,0.00000110,0.00000013,-0.00000501,-0.00000480,0.00000111,0.000
 00289,0.00000043,0.00000353,-0.00000325,0.00000199,-0.00000255,0.00000
 129,0.00000183,-0.00000026,-0.00000484,0.00000303,0.00000108,-0.000006
 33,-0.00009306,0.00000970,-0.00001192,-0.00002847,-0.00001629,0.000002
 11,0.00000126,0.00000023,0.00000195,0.00000047,0.00000073,0.00000071,0
 .00000318,0.00000083,0.00000063,0.00001006,-0.00000459,0.00000025,-0.0
 0000077,-0.00000011,0.00000205,-0.00000045,-0.00000026,0.00000020,0.00
 000052,0.00000080,0.00000552,-0.00000130,-0.00000212,0.00000020,0.,-0.
 00000024,0.00000327,-0.00000356,-0.00000092,0.00000276,-0.00000413,-0.
 00000321,-0.00000047,0.00000048,-0.00000020,-0.00000090,0.00000049,0.0
 0000029,-0.00000070,0.00000150,0.00000019,-0.00000160,0.00000102,0.000
 00141,-0.00000070,0.00000195,0.00000034,-0.00000075,0.00000057,0.00000
 029,-0.00000189,0.00000111,0.00000154,0.00023507,0.00075126,0.00001538
 ,0.00155329,-0.00007444,-0.00008536,-0.00076605,-0.00219220,0.00057472
 ,-0.02115141,-0.00620377,-0.01400613,-0.22329449,-0.05486898,-0.117065
 24,-0.00302904,0.00367424,0.00182114,0.00093071,-0.00056051,0.00028368
 ,0.00720103,0.00262361,0.00378646,-0.00495905,-0.00152668,-0.00257842,
 0.24328882,0.00000448,-0.00000364,0.00000066,-0.00000497,0.00000399,0.
 00000421,0.00001445,-0.00000943,0.00000001,-0.00000164,0.00000791,-0.0
 0000033,-0.00000608,0.00002509,0.00000829,0.00000081,0.00000053,-0.000
 00170,-0.00000286,-0.00000963,0.00001511,-0.00000170,0.00000521,-0.000
 00471,-0.00000165,0.00000039,-0.00000050,0.00000165,0.00000272,0.00000
 308,-0.00000108,-0.00000145,-0.00000281,0.00000160,-0.00000007,0.00000
 072,-0.00000135,0.00000139,-0.00000079,-0.00000446,-0.00000296,-0.0000
 0744,-0.00000611,-0.00002387,-0.00002497,-0.00000036,0.00000158,0.0000
 0044,-0.00000060,0.00000157,-0.00000179,0.00000057,0.00000354,0.000001
 47,0.00000311,0.00000906,-0.00001090,0.00000187,0.00000130,-0.00000040
 ,0.00000081,-0.00000059,0.00000019,0.00000105,0.00000052,0.00000070,-0
 .00000023,-0.00000063,-0.00000068,0.00000012,-0.00000009,0.00000019,0.
 00000032,0.00000020,0.00000085,-0.00000119,0.00000054,0.,-0.00000003,-
 0.00000011,0.00000001,-0.00000046,-0.00000004,-0.00000023,-0.00000015,
 0.00000017,0.00000008,-0.00000030,0.00000021,-0.00000014,0.00000040,-0
 .00000088,-0.00000028,-0.00000006,-0.00000062,-0.00000024,0.00000007,-
 0.00000008,-0.00000005,-0.00007991,0.00001551,-0.00031692,0.00039307,-
 0.00035407,0.00011307,-0.00024651,0.00053377,0.00093081,0.01678047,0.0
 0508583,0.01194014,-0.05669978,-0.06478175,-0.03767848,0.00324121,-0.0
 0208982,-0.00086452,-0.00095784,0.00076901,0.00006616,0.00337858,-0.00
 034005,0.00189981,-0.02419787,-0.00638447,-0.01782510,0.05839252,0.067
 53421,-0.00000202,0.00000147,0.00000007,0.00000928,0.00000675,-0.00000
 187,-0.00002053,0.00000902,0.00000091,0.00000382,-0.00000677,-0.000000
 45,0.00000507,-0.00001910,-0.00000580,-0.00000071,-0.00000052,-0.00000
 068,0.00000327,0.00000474,0.00000256,-0.00000054,0.00000032,-0.0000004
 8,0.00000148,0.00000015,0.00000185,0.00000002,0.00000178,0.00000010,0.
 00000023,-0.00000053,-0.00000068,-0.00000062,0.00000074,0.00000030,0.0
 0000061,-0.00000081,-0.00000017,-0.00000389,-0.00000660,-0.00000018,0.
 00000872,0.00003738,0.00000195,-0.00000006,-0.00000171,-0.00000058,0.0
 0000039,-0.00000147,0.00000065,-0.00000192,0.00000058,-0.00000592,0.00
 000051,0.00000681,0.00000163,-0.00000024,-0.00000112,0.00000030,0.0000
 0225,-0.00000063,-0.00000010,-0.00000069,-0.00000076,-0.00000045,-0.00
 000079,0.00000027,0.00000037,0.00000003,0.00000024,-0.00000007,-0.0000
 0073,-0.00000071,0.00000037,0.00000025,-0.00000244,0.00000020,0.000000
 08,-0.00000009,0.00000006,0.00000042,0.00000029,0.00000013,0.00000004,
 0.00000029,-0.00000011,0.00000022,0.00000006,-0.00000047,-0.00000038,0
 .00000117,-0.00000037,-0.00000019,0.00000043,0.00000005,-0.00000038,0.
 00000054,-0.00000017,0.00008641,0.00018114,-0.00017750,0.00047691,-0.0
 0044446,0.00006343,-0.00082224,-0.00005681,0.00038574,0.00812183,0.003
 08325,0.00505812,-0.11793417,-0.03637607,-0.12737518,0.00161544,-0.001
 28413,0.00079686,-0.00035985,0.00074516,0.00060490,-0.02541318,-0.0086
 5082,-0.01544815,0.00696206,0.00101597,0.00363465,0.12726380,0.0417570
 0,0.13246417\\0.00000572,0.00000194,-0.00000179,0.00000449,0.00000930,
 -0.00000503,0.00000192,-0.00000111,0.00000372,0.00000377,-0.00000317,0
 .00000184,-0.00000716,0.00000417,-0.00000110,-0.00000174,-0.00000188,-
 0.00000146,-0.00000033,-0.00000407,0.00000127,0.00000055,-0.00000486,0
 .00000091,-0.00000167,0.00000155,-0.00000350,0.00000239,0.00000310,0.0
 0000179,0.00000050,0.00000292,-0.00000302,0.00000287,0.00000234,0.0000
 0194,0.00000060,0.00000115,0.00000119,-0.00000420,-0.00000391,0.000004
 45,0.00000809,-0.00001189,0.00000143,0.00000080,-0.00000263,0.00000040
 ,0.00000245,-0.00000366,0.00000076,-0.00000037,-0.00000346,0.00000143,
 -0.00000104,-0.00000335,0.00000029,0.00000083,-0.00000560,0.00000170,-
 0.00000090,-0.00000520,0.00000138,0.00000021,-0.00000554,0.00000074,-0
 .00000113,0.00000038,-0.00000093,0.00000191,0.00000102,-0.00000141,0.0
 0000195,0.00000150,-0.00000124,0.00000019,0.00000484,-0.00000128,0.000
 00350,0.00000264,-0.00000107,0.00000337,0.00000812,-0.00000682,0.00000
 512,0.00000497,-0.00000179,0.00000395,0.00000720,0.00000229,-0.0000002
 0,0.00000614,-0.00000017,0.00000035,0.00000543,-0.00000167,0.00000110,
 -0.00000058,0.00000222,0.00000657,-0.00001128,-0.00000121,0.00000034,0
 .00000847,0.00000157,-0.00000536,-0.00000499,-0.00000404,-0.00001084,0
 .00000358,0.00000676,-0.00000464,0.00000366,-0.00000256,-0.00000429,-0
 .00000073,-0.00000087,-0.00000528,-0.00000271,0.00000099,-0.00000404,-
 0.00000093,-0.00000030,-0.00000646,-0.00000144,0.00000099,-0.00000387,
 -0.00000144,0.00000120\\\@


 ERROR IS THE FORCE THAT WELDS MEN TOGETHER....
 TRUTH IS COMMUNICATED TO MEN ONLY BY DEEDS OF TRUTH.
           TOLSTOI,MY RELIGION
 Job cpu time:       0 days 17 hours 32 minutes 33.0 seconds.
 File lengths (MBytes):  RWF=   1719 Int=      0 D2E=      0 Chk=     41 Scr=      1
 Normal termination of Gaussian 09 at Fri Nov 15 00:35:24 2019.
pbs_rusage has been removed.
Please contact help@nci.org.au if you require this functionality.
