 Entering Gaussian System, Link 0=/apps/gaussian/g09e01/g09/g09
 Initial command:
 /apps/gaussian/g09e01/g09/l1.exe "/jobfs/local/3595046.r-man2/Gau-41278.inp" -scrdir="/jobfs/local/3595046.r-man2/"
 Entering Link 1 = /apps/gaussian/g09e01/g09/l1.exe PID=     41279.
  
 Copyright (c) 1988,1990,1992,1993,1995,1998,2003,2009,2015,
            Gaussian, Inc.  All Rights Reserved.
  
 This is part of the Gaussian(R) 09 program.  It is based on
 the Gaussian(R) 03 system (copyright 2003, Gaussian, Inc.),
 the Gaussian(R) 98 system (copyright 1998, Gaussian, Inc.),
 the Gaussian(R) 94 system (copyright 1995, Gaussian, Inc.),
 the Gaussian 92(TM) system (copyright 1992, Gaussian, Inc.),
 the Gaussian 90(TM) system (copyright 1990, Gaussian, Inc.),
 the Gaussian 88(TM) system (copyright 1988, Gaussian, Inc.),
 the Gaussian 86(TM) system (copyright 1986, Carnegie Mellon
 University), and the Gaussian 82(TM) system (copyright 1983,
 Carnegie Mellon University). Gaussian is a federally registered
 trademark of Gaussian, Inc.
  
 This software contains proprietary and confidential information,
 including trade secrets, belonging to Gaussian, Inc.
  
 This software is provided under written license and may be
 used, copied, transmitted, or stored only in accord with that
 written license.
  
 The following legend is applicable only to US Government
 contracts under FAR:
  
                    RESTRICTED RIGHTS LEGEND
  
 Use, reproduction and disclosure by the US Government is
 subject to restrictions as set forth in subparagraphs (a)
 and (c) of the Commercial Computer Software - Restricted
 Rights clause in FAR 52.227-19.
  
 Gaussian, Inc.
 340 Quinnipiac St., Bldg. 40, Wallingford CT 06492
  
  
 ---------------------------------------------------------------
 Warning -- This program may not be used in any manner that
 competes with the business of Gaussian, Inc. or will provide
 assistance to any competitor of Gaussian, Inc.  The licensee
 of this program is prohibited from giving any competitor of
 Gaussian, Inc. access to this program.  By using this program,
 the user acknowledges that Gaussian, Inc. is engaged in the
 business of creating and licensing software in the field of
 computational chemistry and represents and warrants to the
 licensee that it is not a competitor of Gaussian, Inc. and that
 it will not use this program in any manner prohibited above.
 ---------------------------------------------------------------
  

 Cite this work as:
 Gaussian 09, Revision E.01,
 M. J. Frisch, G. W. Trucks, H. B. Schlegel, G. E. Scuseria, 
 M. A. Robb, J. R. Cheeseman, G. Scalmani, V. Barone, B. Mennucci, 
 G. A. Petersson, H. Nakatsuji, M. Caricato, X. Li, H. P. Hratchian, 
 A. F. Izmaylov, J. Bloino, G. Zheng, J. L. Sonnenberg, M. Hada, 
 M. Ehara, K. Toyota, R. Fukuda, J. Hasegawa, M. Ishida, T. Nakajima, 
 Y. Honda, O. Kitao, H. Nakai, T. Vreven, J. A. Montgomery, Jr., 
 J. E. Peralta, F. Ogliaro, M. Bearpark, J. J. Heyd, E. Brothers, 
 K. N. Kudin, V. N. Staroverov, T. Keith, R. Kobayashi, J. Normand, 
 K. Raghavachari, A. Rendell, J. C. Burant, S. S. Iyengar, J. Tomasi, 
 M. Cossi, N. Rega, J. M. Millam, M. Klene, J. E. Knox, J. B. Cross, 
 V. Bakken, C. Adamo, J. Jaramillo, R. Gomperts, R. E. Stratmann, 
 O. Yazyev, A. J. Austin, R. Cammi, C. Pomelli, J. W. Ochterski, 
 R. L. Martin, K. Morokuma, V. G. Zakrzewski, G. A. Voth, 
 P. Salvador, J. J. Dannenberg, S. Dapprich, A. D. Daniels, 
 O. Farkas, J. B. Foresman, J. V. Ortiz, J. Cioslowski, 
 and D. J. Fox, Gaussian, Inc., Wallingford CT, 2013.
 
 ******************************************
 Gaussian 09:  ES64L-G09RevE.01 30-Nov-2015
                14-Nov-2019 
 ******************************************
 %chk=CP21_carboxy.M062X_6-311pGd_opt_GD3.chk
 %mem=196608000
 %nproc=8
 Will use up to    8 processors via shared memory.
 ----------------------------------------------------------------------
 # M062X/6-311+G* SCF=Tight INT(grid=ultrafine) OPT IOP(2/17=4) Empiric
 alDispersion=GD3 maxdisk=3221225472
 ----------------------------------------------------------------------
 1/14=-1,18=20,19=15,26=4,38=1/1,3;
 2/9=110,12=2,17=4,18=5,40=1/2;
 3/5=4,6=6,7=11,11=2,16=1,25=1,30=1,71=1,74=-55,75=-5,124=31/1,2,3;
 4//1;
 5/5=2,32=2,38=5/2;
 6/7=2,8=2,9=2,10=2,28=1/1;
 7//1,2,3,16;
 1/14=-1,18=20,19=15,26=4/3(2);
 2/9=110,17=4/2;
 99//99;
 2/9=110,17=4/2;
 3/5=4,6=6,7=11,11=2,16=1,25=1,30=1,71=1,74=-55,75=-5,124=31/1,2,3;
 4/5=5,16=3,69=1/1;
 5/5=2,32=2,38=5/2;
 7//1,2,3,16;
 1/14=-1,18=20,19=15,26=4/3(-5);
 2/9=110,17=4/2;
 6/7=2,8=2,9=2,10=2,19=2,28=1/1;
 99/9=1/99;
 -----------------------------------
 CP21_carboxy.M062X_6-311pGd_opt_GD3
 -----------------------------------
 Symbolic Z-matrix:
 Charge = -1 Multiplicity = 1
 C                    -6.21115   1.26559   0.27476 
 N                    -5.00891   0.63773   0.11862 
 C                    -3.74      1.22297   0.10461 
 O                    -3.53885   2.4246    0.23357 
 N                    -2.75807   0.31421  -0.06899 
 C                    -1.37589   0.73734  -0.10732 
 C                    -0.47629  -0.46565  -0.3589 
 C                     0.99503  -0.06686  -0.40357 
 C                    -6.37499   2.65776   0.4585 
 C                    -7.64164   3.18738   0.60845 
 C                    -8.75961   2.35075   0.58078 
 C                    -8.61909   0.96904   0.39685 
 C                    -7.36074   0.43502   0.24802 
 H                    -5.06034  -0.39646  -0.00049 
 H                    -2.96481  -0.69283  -0.16435 
 H                    -1.10499   1.22602   0.83695 
 H                    -1.23828   1.4897   -0.89312 
 H                    -0.77337  -0.94424  -1.29652 
 H                    -0.64904  -1.21263   0.42113 
 H                     1.18325   0.66191  -1.19736 
 H                     1.63724  -0.9311   -0.58716 
 H                     1.31042   0.38703   0.54039 
 H                    -5.50284   3.29216   0.48582 
 C                    -10.78335   3.42211  -1.07526 
 H                    -9.49733   0.33377   0.38513 
 H                    -7.21844  -0.63257   0.1136 
 F                    -10.77974   2.31323  -1.80596 
 F                    -11.99695   3.96178  -1.12509 
 F                    -9.91425   4.28015  -1.59779 
 S                    -10.34686   3.0428    0.69967 
 O                    -10.3009   4.34987   1.33075 
 O                    -11.32372   2.04262   1.09161 
 H                    -7.7744    4.25289   0.75907 
 O                    -5.3652   -2.07141  -0.16972 
 O                    -3.16889  -2.45572  -0.34074 
 C                    -4.36396  -2.82188  -0.30786 
 C                    -4.66594  -4.32062  -0.44479 
 C                    -3.4325   -5.19336  -0.62881 
 H                    -5.36051  -4.43288  -1.28302 
 H                    -5.23044  -4.61552   0.44538 
 H                    -2.88022  -4.89851  -1.52263 
 H                    -3.702    -6.25001  -0.71957 
 H                    -2.75001  -5.08053   0.21507 
 
 Add virtual bond connecting atoms O34        and H14        Dist= 3.23D+00.
 Add virtual bond connecting atoms O35        and H15        Dist= 3.37D+00.

 GradGradGradGradGradGradGradGradGradGradGradGradGradGradGradGradGradGrad
 Berny optimization.
 Initialization pass.
                           ----------------------------
                           !    Initial Parameters    !
                           ! (Angstroms and Degrees)  !
 --------------------------                            --------------------------
 ! Name  Definition              Value          Derivative Info.                !
 --------------------------------------------------------------------------------
 ! R1    R(1,2)                  1.3653         estimate D2E/DX2                !
 ! R2    R(1,9)                  1.4138         estimate D2E/DX2                !
 ! R3    R(1,13)                 1.4185         estimate D2E/DX2                !
 ! R4    R(2,3)                  1.3974         estimate D2E/DX2                !
 ! R5    R(2,14)                 1.0423         estimate D2E/DX2                !
 ! R6    R(3,4)                  1.2251         estimate D2E/DX2                !
 ! R7    R(3,5)                  1.3491         estimate D2E/DX2                !
 ! R8    R(5,6)                  1.446          estimate D2E/DX2                !
 ! R9    R(5,15)                 1.0325         estimate D2E/DX2                !
 ! R10   R(6,7)                  1.5231         estimate D2E/DX2                !
 ! R11   R(6,16)                 1.0972         estimate D2E/DX2                !
 ! R12   R(6,17)                 1.0966         estimate D2E/DX2                !
 ! R13   R(7,8)                  1.5251         estimate D2E/DX2                !
 ! R14   R(7,18)                 1.0938         estimate D2E/DX2                !
 ! R15   R(7,19)                 1.0938         estimate D2E/DX2                !
 ! R16   R(8,20)                 1.0939         estimate D2E/DX2                !
 ! R17   R(8,21)                 1.0923         estimate D2E/DX2                !
 ! R18   R(8,22)                 1.0939         estimate D2E/DX2                !
 ! R19   R(9,10)                 1.3811         estimate D2E/DX2                !
 ! R20   R(9,23)                 1.0788         estimate D2E/DX2                !
 ! R21   R(10,11)                1.3966         estimate D2E/DX2                !
 ! R22   R(10,33)                1.0843         estimate D2E/DX2                !
 ! R23   R(11,12)                1.401          estimate D2E/DX2                !
 ! R24   R(11,30)                1.7356         estimate D2E/DX2                !
 ! R25   R(12,13)                1.3751         estimate D2E/DX2                !
 ! R26   R(12,25)                1.084          estimate D2E/DX2                !
 ! R27   R(13,26)                1.0854         estimate D2E/DX2                !
 ! R28   R(14,34)                1.7109         estimate D2E/DX2                !
 ! R29   R(15,35)                1.7834         estimate D2E/DX2                !
 ! R30   R(24,27)                1.328          estimate D2E/DX2                !
 ! R31   R(24,28)                1.3291         estimate D2E/DX2                !
 ! R32   R(24,29)                1.3284         estimate D2E/DX2                !
 ! R33   R(24,30)                1.8668         estimate D2E/DX2                !
 ! R34   R(30,31)                1.4522         estimate D2E/DX2                !
 ! R35   R(30,32)                1.452          estimate D2E/DX2                !
 ! R36   R(34,36)                1.2589         estimate D2E/DX2                !
 ! R37   R(35,36)                1.2503         estimate D2E/DX2                !
 ! R38   R(36,37)                1.535          estimate D2E/DX2                !
 ! R39   R(37,38)                1.5221         estimate D2E/DX2                !
 ! R40   R(37,39)                1.0944         estimate D2E/DX2                !
 ! R41   R(37,40)                1.0945         estimate D2E/DX2                !
 ! R42   R(38,41)                1.0913         estimate D2E/DX2                !
 ! R43   R(38,42)                1.0942         estimate D2E/DX2                !
 ! R44   R(38,43)                1.0912         estimate D2E/DX2                !
 ! A1    A(2,1,9)              124.7337         estimate D2E/DX2                !
 ! A2    A(2,1,13)             116.2459         estimate D2E/DX2                !
 ! A3    A(9,1,13)             119.0204         estimate D2E/DX2                !
 ! A4    A(1,2,3)              127.4557         estimate D2E/DX2                !
 ! A5    A(1,2,14)             115.2085         estimate D2E/DX2                !
 ! A6    A(3,2,14)             117.3357         estimate D2E/DX2                !
 ! A7    A(2,3,4)              123.9716         estimate D2E/DX2                !
 ! A8    A(2,3,5)              112.3384         estimate D2E/DX2                !
 ! A9    A(4,3,5)              123.69           estimate D2E/DX2                !
 ! A10   A(3,5,6)              120.1325         estimate D2E/DX2                !
 ! A11   A(3,5,15)             121.5433         estimate D2E/DX2                !
 ! A12   A(6,5,15)             118.3189         estimate D2E/DX2                !
 ! A13   A(5,6,7)              109.7445         estimate D2E/DX2                !
 ! A14   A(5,6,16)             110.0914         estimate D2E/DX2                !
 ! A15   A(5,6,17)             109.8596         estimate D2E/DX2                !
 ! A16   A(7,6,16)             110.3719         estimate D2E/DX2                !
 ! A17   A(7,6,17)             110.4521         estimate D2E/DX2                !
 ! A18   A(16,6,17)            106.2697         estimate D2E/DX2                !
 ! A19   A(6,7,8)              111.6005         estimate D2E/DX2                !
 ! A20   A(6,7,18)             109.0727         estimate D2E/DX2                !
 ! A21   A(6,7,19)             109.1684         estimate D2E/DX2                !
 ! A22   A(8,7,18)             110.5693         estimate D2E/DX2                !
 ! A23   A(8,7,19)             110.6002         estimate D2E/DX2                !
 ! A24   A(18,7,19)            105.6409         estimate D2E/DX2                !
 ! A25   A(7,8,20)             111.1895         estimate D2E/DX2                !
 ! A26   A(7,8,21)             111.4239         estimate D2E/DX2                !
 ! A27   A(7,8,22)             111.1859         estimate D2E/DX2                !
 ! A28   A(20,8,21)            107.6974         estimate D2E/DX2                !
 ! A29   A(20,8,22)            107.4671         estimate D2E/DX2                !
 ! A30   A(21,8,22)            107.6885         estimate D2E/DX2                !
 ! A31   A(1,9,10)             119.8687         estimate D2E/DX2                !
 ! A32   A(1,9,23)             119.2531         estimate D2E/DX2                !
 ! A33   A(10,9,23)            120.877          estimate D2E/DX2                !
 ! A34   A(9,10,11)            120.1516         estimate D2E/DX2                !
 ! A35   A(9,10,33)            120.2798         estimate D2E/DX2                !
 ! A36   A(11,10,33)           119.5653         estimate D2E/DX2                !
 ! A37   A(10,11,12)           120.8709         estimate D2E/DX2                !
 ! A38   A(10,11,30)           119.4613         estimate D2E/DX2                !
 ! A39   A(12,11,30)           119.6022         estimate D2E/DX2                !
 ! A40   A(11,12,13)           119.2772         estimate D2E/DX2                !
 ! A41   A(11,12,25)           119.8774         estimate D2E/DX2                !
 ! A42   A(13,12,25)           120.8414         estimate D2E/DX2                !
 ! A43   A(1,13,12)            120.8107         estimate D2E/DX2                !
 ! A44   A(1,13,26)            118.1653         estimate D2E/DX2                !
 ! A45   A(12,13,26)           121.0229         estimate D2E/DX2                !
 ! A46   A(27,24,28)           108.717          estimate D2E/DX2                !
 ! A47   A(27,24,29)           108.732          estimate D2E/DX2                !
 ! A48   A(27,24,30)           110.6624         estimate D2E/DX2                !
 ! A49   A(28,24,29)           108.6859         estimate D2E/DX2                !
 ! A50   A(28,24,30)           109.3689         estimate D2E/DX2                !
 ! A51   A(29,24,30)           110.6264         estimate D2E/DX2                !
 ! A52   A(11,30,24)           103.2804         estimate D2E/DX2                !
 ! A53   A(11,30,31)           111.0827         estimate D2E/DX2                !
 ! A54   A(11,30,32)           111.0444         estimate D2E/DX2                !
 ! A55   A(24,30,31)           103.7512         estimate D2E/DX2                !
 ! A56   A(24,30,32)           103.8461         estimate D2E/DX2                !
 ! A57   A(31,30,32)           121.6008         estimate D2E/DX2                !
 ! A58   A(14,34,36)           116.9209         estimate D2E/DX2                !
 ! A59   A(15,35,36)           113.3436         estimate D2E/DX2                !
 ! A60   A(34,36,35)           126.0507         estimate D2E/DX2                !
 ! A61   A(34,36,37)           115.8101         estimate D2E/DX2                !
 ! A62   A(35,36,37)           118.1392         estimate D2E/DX2                !
 ! A63   A(36,37,38)           114.2803         estimate D2E/DX2                !
 ! A64   A(36,37,39)           107.0585         estimate D2E/DX2                !
 ! A65   A(36,37,40)           106.9765         estimate D2E/DX2                !
 ! A66   A(38,37,39)           111.277          estimate D2E/DX2                !
 ! A67   A(38,37,40)           111.2085         estimate D2E/DX2                !
 ! A68   A(39,37,40)           105.5424         estimate D2E/DX2                !
 ! A69   A(37,38,41)           110.7445         estimate D2E/DX2                !
 ! A70   A(37,38,42)           111.3531         estimate D2E/DX2                !
 ! A71   A(37,38,43)           110.7353         estimate D2E/DX2                !
 ! A72   A(41,38,42)           108.5188         estimate D2E/DX2                !
 ! A73   A(41,38,43)           106.7956         estimate D2E/DX2                !
 ! A74   A(42,38,43)           108.5449         estimate D2E/DX2                !
 ! A75   L(2,14,34,7,-1)       187.4746         estimate D2E/DX2                !
 ! A76   L(5,15,35,7,-1)       175.0121         estimate D2E/DX2                !
 ! A77   L(2,14,34,7,-2)       179.7733         estimate D2E/DX2                !
 ! A78   L(5,15,35,7,-2)       179.8536         estimate D2E/DX2                !
 ! D1    D(9,1,2,3)             -0.2232         estimate D2E/DX2                !
 ! D2    D(9,1,2,14)           179.6309         estimate D2E/DX2                !
 ! D3    D(13,1,2,3)           179.8602         estimate D2E/DX2                !
 ! D4    D(13,1,2,14)           -0.2858         estimate D2E/DX2                !
 ! D5    D(2,1,9,10)          -179.9126         estimate D2E/DX2                !
 ! D6    D(2,1,9,23)            -0.3068         estimate D2E/DX2                !
 ! D7    D(13,1,9,10)            0.0019         estimate D2E/DX2                !
 ! D8    D(13,1,9,23)          179.6077         estimate D2E/DX2                !
 ! D9    D(2,1,13,12)          179.9738         estimate D2E/DX2                !
 ! D10   D(2,1,13,26)            0.3711         estimate D2E/DX2                !
 ! D11   D(9,1,13,12)            0.0522         estimate D2E/DX2                !
 ! D12   D(9,1,13,26)         -179.5506         estimate D2E/DX2                !
 ! D13   D(1,2,3,4)             -0.1571         estimate D2E/DX2                !
 ! D14   D(1,2,3,5)            179.9194         estimate D2E/DX2                !
 ! D15   D(14,2,3,4)           179.9915         estimate D2E/DX2                !
 ! D16   D(14,2,3,5)             0.068          estimate D2E/DX2                !
 ! D17   D(1,2,34,36)         -179.0546         estimate D2E/DX2                !
 ! D18   D(3,2,34,36)            0.6308         estimate D2E/DX2                !
 ! D19   D(2,3,5,6)           -179.8843         estimate D2E/DX2                !
 ! D20   D(2,3,5,15)            -0.7312         estimate D2E/DX2                !
 ! D21   D(4,3,5,6)              0.1919         estimate D2E/DX2                !
 ! D22   D(4,3,5,15)           179.345          estimate D2E/DX2                !
 ! D23   D(3,5,6,7)           -178.1108         estimate D2E/DX2                !
 ! D24   D(3,5,6,16)            60.2135         estimate D2E/DX2                !
 ! D25   D(3,5,6,17)           -56.4849         estimate D2E/DX2                !
 ! D26   D(15,5,6,7)             2.7091         estimate D2E/DX2                !
 ! D27   D(15,5,6,16)         -118.9666         estimate D2E/DX2                !
 ! D28   D(15,5,6,17)          124.335          estimate D2E/DX2                !
 ! D29   D(3,5,35,36)            0.8762         estimate D2E/DX2                !
 ! D30   D(6,5,35,36)         -179.9888         estimate D2E/DX2                !
 ! D31   D(5,6,7,8)           -179.8384         estimate D2E/DX2                !
 ! D32   D(5,6,7,18)            57.701          estimate D2E/DX2                !
 ! D33   D(5,6,7,19)           -57.2726         estimate D2E/DX2                !
 ! D34   D(16,6,7,8)           -58.3308         estimate D2E/DX2                !
 ! D35   D(16,6,7,18)          179.2086         estimate D2E/DX2                !
 ! D36   D(16,6,7,19)           64.235          estimate D2E/DX2                !
 ! D37   D(17,6,7,8)            58.8913         estimate D2E/DX2                !
 ! D38   D(17,6,7,18)          -63.5694         estimate D2E/DX2                !
 ! D39   D(17,6,7,19)         -178.543          estimate D2E/DX2                !
 ! D40   D(6,7,8,20)           -59.6699         estimate D2E/DX2                !
 ! D41   D(6,7,8,21)          -179.8249         estimate D2E/DX2                !
 ! D42   D(6,7,8,22)            60.0337         estimate D2E/DX2                !
 ! D43   D(18,7,8,20)           61.9285         estimate D2E/DX2                !
 ! D44   D(18,7,8,21)          -58.2266         estimate D2E/DX2                !
 ! D45   D(18,7,8,22)         -178.3679         estimate D2E/DX2                !
 ! D46   D(19,7,8,20)          178.5882         estimate D2E/DX2                !
 ! D47   D(19,7,8,21)           58.4332         estimate D2E/DX2                !
 ! D48   D(19,7,8,22)          -61.7082         estimate D2E/DX2                !
 ! D49   D(1,9,10,11)            0.0881         estimate D2E/DX2                !
 ! D50   D(1,9,10,33)          179.424          estimate D2E/DX2                !
 ! D51   D(23,9,10,11)        -179.5111         estimate D2E/DX2                !
 ! D52   D(23,9,10,33)          -0.1753         estimate D2E/DX2                !
 ! D53   D(9,10,11,12)          -0.2335         estimate D2E/DX2                !
 ! D54   D(9,10,11,30)        -177.2768         estimate D2E/DX2                !
 ! D55   D(33,10,11,12)       -179.5741         estimate D2E/DX2                !
 ! D56   D(33,10,11,30)          3.3826         estimate D2E/DX2                !
 ! D57   D(10,11,12,13)          0.2849         estimate D2E/DX2                !
 ! D58   D(10,11,12,25)        179.5624         estimate D2E/DX2                !
 ! D59   D(30,11,12,13)        177.3241         estimate D2E/DX2                !
 ! D60   D(30,11,12,25)         -3.3983         estimate D2E/DX2                !
 ! D61   D(10,11,30,24)         88.0597         estimate D2E/DX2                !
 ! D62   D(10,11,30,31)        -22.5962         estimate D2E/DX2                !
 ! D63   D(10,11,30,32)       -161.1913         estimate D2E/DX2                !
 ! D64   D(12,11,30,24)        -89.0216         estimate D2E/DX2                !
 ! D65   D(12,11,30,31)        160.3225         estimate D2E/DX2                !
 ! D66   D(12,11,30,32)         21.7274         estimate D2E/DX2                !
 ! D67   D(11,12,13,1)          -0.1931         estimate D2E/DX2                !
 ! D68   D(11,12,13,26)        179.3982         estimate D2E/DX2                !
 ! D69   D(25,12,13,1)        -179.4635         estimate D2E/DX2                !
 ! D70   D(25,12,13,26)          0.1278         estimate D2E/DX2                !
 ! D71   D(27,24,30,11)         60.0835         estimate D2E/DX2                !
 ! D72   D(27,24,30,31)        176.0769         estimate D2E/DX2                !
 ! D73   D(27,24,30,32)        -55.904          estimate D2E/DX2                !
 ! D74   D(28,24,30,11)        179.8261         estimate D2E/DX2                !
 ! D75   D(28,24,30,31)        -64.1805         estimate D2E/DX2                !
 ! D76   D(28,24,30,32)         63.8386         estimate D2E/DX2                !
 ! D77   D(29,24,30,11)        -60.4921         estimate D2E/DX2                !
 ! D78   D(29,24,30,31)         55.5013         estimate D2E/DX2                !
 ! D79   D(29,24,30,32)       -176.4796         estimate D2E/DX2                !
 ! D80   D(14,34,36,35)         -0.4543         estimate D2E/DX2                !
 ! D81   D(14,34,36,37)        179.4694         estimate D2E/DX2                !
 ! D82   D(15,35,36,34)          0.144          estimate D2E/DX2                !
 ! D83   D(15,35,36,37)       -179.7781         estimate D2E/DX2                !
 ! D84   D(34,36,37,38)        179.2128         estimate D2E/DX2                !
 ! D85   D(34,36,37,39)         55.5137         estimate D2E/DX2                !
 ! D86   D(34,36,37,40)        -57.2373         estimate D2E/DX2                !
 ! D87   D(35,36,37,38)         -0.8571         estimate D2E/DX2                !
 ! D88   D(35,36,37,39)       -124.5562         estimate D2E/DX2                !
 ! D89   D(35,36,37,40)        122.6928         estimate D2E/DX2                !
 ! D90   D(36,37,38,41)        -59.2418         estimate D2E/DX2                !
 ! D91   D(36,37,38,42)        179.9115         estimate D2E/DX2                !
 ! D92   D(36,37,38,43)         59.038          estimate D2E/DX2                !
 ! D93   D(39,37,38,41)         62.1592         estimate D2E/DX2                !
 ! D94   D(39,37,38,42)        -58.6876         estimate D2E/DX2                !
 ! D95   D(39,37,38,43)       -179.5611         estimate D2E/DX2                !
 ! D96   D(40,37,38,41)        179.5177         estimate D2E/DX2                !
 ! D97   D(40,37,38,42)         58.671          estimate D2E/DX2                !
 ! D98   D(40,37,38,43)        -62.2026         estimate D2E/DX2                !
 --------------------------------------------------------------------------------
 Trust Radius=3.00D-01 FncErr=1.00D-07 GrdErr=1.00D-06
 Number of steps in this run=    230 maximum allowed number of steps=    258.
 GradGradGradGradGradGradGradGradGradGradGradGradGradGradGradGradGradGrad

                          Input orientation:                          
 ---------------------------------------------------------------------
 Center     Atomic      Atomic             Coordinates (Angstroms)
 Number     Number       Type             X           Y           Z
 ---------------------------------------------------------------------
      1          6           0       -6.211151    1.265592    0.274763
      2          7           0       -5.008906    0.637733    0.118621
      3          6           0       -3.740000    1.222973    0.104614
      4          8           0       -3.538851    2.424597    0.233571
      5          7           0       -2.758066    0.314211   -0.068989
      6          6           0       -1.375886    0.737344   -0.107321
      7          6           0       -0.476292   -0.465645   -0.358903
      8          6           0        0.995030   -0.066857   -0.403565
      9          6           0       -6.374987    2.657761    0.458496
     10          6           0       -7.641643    3.187376    0.608452
     11          6           0       -8.759615    2.350751    0.580777
     12          6           0       -8.619086    0.969043    0.396848
     13          6           0       -7.360740    0.435017    0.248023
     14          1           0       -5.060343   -0.396463   -0.000489
     15          1           0       -2.964814   -0.692829   -0.164352
     16          1           0       -1.104988    1.226018    0.836950
     17          1           0       -1.238276    1.489703   -0.893122
     18          1           0       -0.773371   -0.944242   -1.296518
     19          1           0       -0.649036   -1.212635    0.421134
     20          1           0        1.183247    0.661912   -1.197356
     21          1           0        1.637244   -0.931100   -0.587163
     22          1           0        1.310419    0.387031    0.540395
     23          1           0       -5.502836    3.292155    0.485821
     24          6           0      -10.783350    3.422111   -1.075263
     25          1           0       -9.497331    0.333772    0.385127
     26          1           0       -7.218442   -0.632571    0.113599
     27          9           0      -10.779743    2.313227   -1.805965
     28          9           0      -11.996954    3.961779   -1.125092
     29          9           0       -9.914248    4.280146   -1.597785
     30         16           0      -10.346862    3.042797    0.699673
     31          8           0      -10.300904    4.349866    1.330748
     32          8           0      -11.323718    2.042617    1.091611
     33          1           0       -7.774400    4.252892    0.759070
     34          8           0       -5.365199   -2.071414   -0.169716
     35          8           0       -3.168885   -2.455719   -0.340743
     36          6           0       -4.363963   -2.821875   -0.307856
     37          6           0       -4.665936   -4.320617   -0.444788
     38          6           0       -3.432499   -5.193361   -0.628806
     39          1           0       -5.360507   -4.432884   -1.283017
     40          1           0       -5.230443   -4.615521    0.445378
     41          1           0       -2.880219   -4.898508   -1.522627
     42          1           0       -3.702004   -6.250011   -0.719570
     43          1           0       -2.750011   -5.080530    0.215065
 ---------------------------------------------------------------------
                    Distance matrix (angstroms):
                    1          2          3          4          5
     1  C    0.000000
     2  N    1.365277   0.000000
     3  C    2.477369   1.397435   0.000000
     4  O    2.913105   2.316713   1.225150   0.000000
     5  N    3.598206   2.281697   1.349140   2.270439   0.000000
     6  C    4.879018   3.641401   2.422764   2.764316   1.446005
     7  C    6.023896   4.689356   3.703791   4.252504   2.428728
     8  C    7.359660   6.067650   4.933803   5.212424   3.787200
     9  C    1.413766   2.462155   3.021094   2.854580   4.341956
    10  C    2.418866   3.697556   4.397221   4.189902   5.706429
    11  C    2.786733   4.149198   5.166735   5.232818   6.370893
    12  C    2.429196   3.636011   4.894422   5.287162   5.915857
    13  C    1.418493   2.364099   3.708261   4.308767   4.615159
    14  H    2.040233   1.042302   2.092110   3.213736   2.410442
    15  H    3.816666   2.455357   2.084119   3.194715   1.032458
    16  H    5.137171   4.012811   2.734888   2.779271   2.093987
    17  H    5.113088   3.995889   2.706519   2.726923   2.090631
    18  H    6.076326   4.737617   3.932032   4.619321   2.651329
    19  H    6.090990   4.745928   3.947965   4.649265   2.649432
    20  H    7.563642   6.330492   5.123307   5.239543   4.114371
    21  H    8.195466   6.865178   5.833809   6.223043   4.597613
    22  H    7.577364   6.338344   5.137649   5.268893   4.114513
    23  H    2.157131   2.724842   2.744891   2.161834   4.087753
    24  C    5.232414   6.520915   7.472423   7.429055   8.664688
    25  H    3.417521   4.506593   5.832343   6.316487   6.754576
    26  H    2.154908   2.548676   3.942421   4.785401   4.563408
    27  F    5.128255   6.309823   7.375429   7.523472   8.447511
    28  F    6.534870   7.837660   8.785814   8.703355   9.988851
    29  F    5.129026   6.346307   7.096888   6.887860   8.323269
    30  S    4.521406   5.883514   6.878698   6.851893   8.100978
    31  O    5.230099   6.576811   7.370640   7.115886   8.668344
    32  O    5.235394   6.541962   7.691473   7.841320   8.815031
    33  H    3.406210   4.596467   5.087741   4.643134   6.431368
    34  O    3.471138   2.747646   3.683682   4.869528   3.535321
    35  O    4.845862   3.628517   3.749305   4.927900   2.813386
    36  C    4.523155   3.544957   4.113424   5.338486   3.531431
    37  C    5.840477   5.002029   5.647175   6.872293   5.026214
    38  C    7.089106   6.086490   6.465431   7.667353   5.576882
    39  H    5.968492   5.272510   6.044855   7.255585   5.548106
    40  H    5.964761   5.268066   6.035358   7.243590   5.538906
    41  H    7.233384   6.154264   6.392157   7.559491   5.412987
    42  H    7.985537   7.060565   7.518392   8.728341   6.663580
    43  H    7.228853   6.149019   6.381726   7.546492   5.402220
                    6          7          8          9         10
     6  C    0.000000
     7  C    1.523072   0.000000
     8  C    2.521060   1.525063   0.000000
     9  C    5.385086   6.724463   7.904672   0.000000
    10  C    6.765700   8.100778   9.284737   1.381086   0.000000
    11  C    7.589203   8.799348  10.097864   2.407417   1.396627
    12  C    7.264421   8.302685   9.702833   2.809190   2.433346
    13  C    6.003011   6.969589   8.396150   2.440614   2.790035
    14  H    3.856443   4.598561   6.077718   3.356671   4.458455
    15  H    2.138537   2.506432   4.016146   4.821169   6.125843
    16  H    1.097194   2.164958   2.760521   5.474122   6.828397
    17  H    1.096570   2.165502   2.765900   5.438477   6.792638
    18  H    2.145914   1.093816   2.166660   6.887133   8.238467
    19  H    2.147090   1.093751   2.167000   6.911430   8.263882
    20  H    2.782630   2.174502   1.093908   7.990754   9.355084
    21  H    3.477486   2.176186   1.092274   8.841333  10.221990
    22  H    2.785407   2.174426   1.093867   8.014261   9.380084
    23  H    4.889845   6.332516   7.368598   1.078819   2.144881
    24  C    9.830832  11.039170  12.302615   4.729727   3.572159
    25  H    8.146364   9.086902  10.529586   3.892986   3.411232
    26  H    6.005075   6.760747   8.249158   3.414184   3.875045
    27  F    9.685108  10.769272  12.094495   4.964712   4.054777
    28  F   11.146296  12.365871  13.621386   5.984540   4.751168
    29  F    9.363576  10.636371  11.804023   4.403044   3.350577
    30  S    9.297567  10.528908  11.812095   3.997775   2.710614
    31  O    9.735210  11.071002  12.252078   4.363127   2.990780
    32  O   10.104480  11.227734  12.587175   5.026845   3.886076
    33  H    7.351917   8.762239   9.844535   2.143163   1.084267
    34  O    4.879306   5.149339   6.672739   4.876414   5.782959
    35  O    3.669467   3.348251   4.800917   6.088148   7.262992
    36  C    4.651544   4.546253   6.026450   5.887098   6.906078
    37  C    6.043284   5.693970   7.081152   7.241170   8.144576
    38  C    6.298799   5.582410   6.777521   8.454619   9.459623
    39  H    6.632550   6.359915   7.760701   7.371518   8.176160
    40  H    6.619384   6.361626   7.756775   7.362796   8.168578
    41  H    6.002412   5.175268   6.294022   8.557771   9.622587
    42  H    7.389777   6.632812   7.771319   9.374491  10.312550
    43  H    5.986636   5.176524   6.288478   8.548734   9.614629
                   11         12         13         14         15
    11  C    0.000000
    12  C    1.400963   0.000000
    13  C    2.395332   1.375052   0.000000
    14  H    4.644316   3.832380   2.458647   0.000000
    15  H    6.587740   5.920097   4.557000   2.122716   0.000000
    16  H    7.741057   7.531361   6.333005   4.356441   2.853687
    17  H    7.712608   7.510757   6.316577   4.354608   2.876715
    18  H    8.840888   8.251265   6.905171   4.511970   2.479401
    19  H    8.860287   8.263292   6.913153   4.505944   2.444549
    20  H   10.240822   9.935871   8.668351   6.444770   4.484287
    21  H   10.964912  10.477171   9.139339   6.744456   4.627578
    22  H   10.259796   9.947583   8.676219   6.441508   4.465466
    23  H    3.391440   3.887902   3.416372   3.746759   4.769107
    24  C    2.825914   3.587297   4.731605   6.963438   8.882117
    25  H    2.156550   1.083984   2.143378   4.513182   6.635482
    26  H    3.390233   2.146439   1.085386   2.173972   4.263125
    27  F    3.127117   3.365658   4.408642   6.581314   8.532548
    28  F    3.998220   4.762642   5.984812   8.268952  10.206270
    29  F    3.130795   4.076691   4.971160   6.926935   8.664863
    30  S    1.735631   2.716131   3.990167   6.345551   8.318418
    31  O    2.633342   3.889814   5.014271   7.194673   9.026756
    32  O    2.632589   2.991704   4.359038   6.809674   8.884333
    33  H    2.149552   3.410039   3.874075   5.436869   6.960243
    34  O    5.625019   4.489226   3.230926   1.710858   2.768099
    35  O    7.430183   6.479021   5.125880   2.816721   1.783407
    36  C    6.845983   5.742276   4.460607   2.542055   2.551676
    37  C    7.894121   6.657045   5.509810   3.968872   4.016629
    38  C    9.314231   8.119598   6.919433   5.104399   4.548543
    39  H    7.813154   6.528483   5.481010   4.245900   4.580258
    40  H    7.810399   6.532427   5.484983   4.245960   4.570815
    41  H    9.567830   8.428946   7.187263   5.228600   4.420386
    42  H   10.061981   8.805614   7.681939   6.051958   5.633293
    43  H    9.564153   8.430683   7.188961   5.227292   4.409310
                   16         17         18         19         20
    16  H    0.000000
    17  H    1.755120   0.000000
    18  H    3.061320   2.510568   0.000000
    19  H    2.515516   3.062206   1.742935   0.000000
    20  H    3.113299   2.577124   2.533361   3.080697   0.000000
    21  H    3.768433   3.771275   2.512851   2.514557   1.765258
    22  H    2.574108   3.125173   3.080376   2.532315   1.763947
    23  H    4.871682   4.830816   6.594818   6.622438   7.379360
    24  C   10.106933   9.740422  10.923080  11.243861  12.281411
    25  H    8.451726   8.436948   8.976008   8.982483  10.802161
    26  H    6.430545   6.424945   6.604885   6.602132   8.601317
    27  F   10.088008   9.620346  10.535564  10.955496  12.091748
    28  F   11.400391  11.041472  12.250193  12.567442  13.587201
    29  F    9.636322   9.140876  10.532835  10.958596  11.679313
    30  S    9.419754   9.376323  10.560917  10.594060  11.925214
    31  O    9.724564   9.759988  11.211779  11.177092  12.323881
    32  O   10.254469  10.293737  11.222045  11.180118  12.789444
    33  H    7.324554   7.286005   8.958239   8.986490   9.846937
    34  O    5.480495   5.498760   4.860564   4.829989   7.170025
    35  O    4.381988   4.427046   2.989407   2.911247   5.421666
    36  C    5.321366   5.357441   4.170769   4.113608   6.610562
    37  C    6.714787   6.760894   5.222778   5.152170   7.720421
    38  C    6.983851   7.039022   5.056858   4.969529   7.477472
    39  H    7.390999   7.226468   5.763039   5.955845   8.293672
    40  H    7.162142   7.416383   6.031416   5.706970   8.466716
    41  H    6.799181   6.625821   4.486219   4.726738   6.894624
    42  H    8.065870   8.124239   6.087770   5.999748   8.477538
    43  H    6.547166   6.832378   4.827097   4.406492   7.102189
                   21         22         23         24         25
    21  H    0.000000
    22  H    1.765126   0.000000
    23  H    8.364682   7.406967   0.000000
    24  C   13.170416  12.573039   5.507968   0.000000
    25  H   11.248289  10.808997   4.971736   3.650263   0.000000
    26  H    8.888383   8.600187   4.299457   5.528328   2.490157
    27  F   12.891574  12.465458   5.835780   1.327992   3.219270
    28  F   14.495550  13.879439   6.724359   1.329119   4.657392
    29  F   12.712805  12.071508   4.977761   1.328379   4.436172
    30  S   12.691201  11.957034   4.855152   1.866762   2.856477
    31  O   13.194179  12.294371   4.985390   2.623428   4.203444
    32  O   13.403275  12.754067   5.984229   2.624947   2.599030
    33  H   10.828904   9.875558   2.481468   3.620602   4.297421
    34  O    7.106953   7.149271   5.405233   7.768861   4.813241
    35  O    5.048174   5.377899   6.258482   9.647201   6.953947
    36  C    6.298216   6.573829   6.269635   8.988037   6.065460
    37  C    7.158154   7.671333   7.714969   9.887877   6.759770
    38  C    6.623511   7.416406   8.805264  11.334051   8.267978
    39  H    7.855903   8.429571   7.926239   9.547321   6.528172
    40  H    7.861693   8.235133   7.912469   9.886893   6.534942
    41  H    6.084644   7.053683   8.831701  11.484438   8.648841
    42  H    7.537633   8.412029   9.785137  11.992579   8.840384
    43  H    6.091744   6.818149   8.817778  11.768364   8.652741
                   26         27         28         29         30
    26  H    0.000000
    27  F    5.004529   0.000000
    28  F    6.743633   2.159378   0.000000
    29  F    5.859266   2.158979   2.159272   0.000000
    30  S    4.861978   2.645351   2.626233   2.645090   0.000000
    31  O    5.983954   3.770432   3.009708   2.954771   1.452170
    32  O    4.996642   2.960589   3.008355   3.771736   1.451973
    33  H    4.959181   4.401567   4.633009   3.183467   2.843486
    34  O    2.363270   7.156792   9.016226   7.942011   7.192215
    35  O    4.464214   9.100267  10.942316   9.615194   9.101620
    36  C    3.621978   8.353193  10.244431   9.105399   8.438280
    37  C    4.519820   9.123559  11.081729  10.141366   9.370303
    38  C    5.973721  10.569605  12.546425  11.519520  10.835478
    39  H    4.454754   8.669002  10.702230   9.836286   9.202206
    40  H    4.463867   9.158101  11.037305  10.258919   9.213699
    41  H    6.300447  10.700087  12.719181  11.564208  11.124464
    42  H    6.679457  11.162602  13.162496  12.257547  11.511936
    43  H    6.305673  11.100846  13.002512  11.926230  11.132629
                   31         32         33         34         35
    31  O    0.000000
    32  O    2.535100   0.000000
    33  H    2.592189   4.194467   0.000000
    34  O    8.236833   7.349839   6.831086   0.000000
    35  O    9.998779   9.422736   8.211323   2.236232   0.000000
    36  C    9.453368   8.605811   7.926017   1.258868   1.250345
    37  C   10.492030   9.336880   9.198744   2.371403   2.393706
    38  C   11.920069  10.843918  10.488566   3.700358   2.765349
    39  H   10.410379   9.117612   9.243360   2.610748   3.098429
    40  H   10.337873   9.048559   9.231406   2.620874   3.087515
    41  H   12.195932  11.238600  10.625784   3.999745   2.728992
    42  H   12.653328  11.407830  11.361416   4.530920   3.850244
    43  H   12.132317  11.181056  10.613821   4.005252   2.715513
                   36         37         38         39         40
    36  C    0.000000
    37  C    1.534980   0.000000
    38  C    2.567992   1.522140   0.000000
    39  H    2.130583   1.094377   2.173369   0.000000
    40  H    2.129627   1.094546   2.172642   1.742878   0.000000
    41  H    2.826583   2.164366   1.091268   2.534965   3.078421
    42  H    3.515653   2.174220   1.094249   2.523897   2.522854
    43  H    2.824856   2.164172   1.091164   3.078699   2.534131
                   41         42         43
    41  H    0.000000
    42  H    1.773920   0.000000
    43  H    1.752045   1.774126   0.000000
 Stoichiometry    C14H18F3N2O5S(1-)
 Framework group  C1[X(C14H18F3N2O5S)]
 Deg. of freedom   123
 Full point group                 C1      NOp   1
 Largest Abelian subgroup         C1      NOp   1
 Largest concise Abelian subgroup C1      NOp   1
                         Standard orientation:                         
 ---------------------------------------------------------------------
 Center     Atomic      Atomic             Coordinates (Angstroms)
 Number     Number       Type             X           Y           Z
 ---------------------------------------------------------------------
      1          6           0        0.013625   -0.416324   -0.343375
      2          7           0        1.370900   -0.463674   -0.203575
      3          6           0        2.177305   -1.601797   -0.118657
      4          8           0        1.748825   -2.748900   -0.158044
      5          7           0        3.484500   -1.295334    0.013631
      6          6           0        4.470398   -2.348353    0.114068
      7          6           0        5.854550   -1.741111    0.301498
      8          6           0        6.929904   -2.817193    0.408631
      9          6           0       -0.826982   -1.549532   -0.432561
     10          6           0       -2.190824   -1.384749   -0.574612
     11          6           0       -2.740233   -0.102012   -0.632094
     12          6           0       -1.925035    1.033825   -0.542524
     13          6           0       -0.566201    0.876918   -0.402106
     14          1           0        1.845168    0.463391   -0.158719
     15          1           0        3.810351   -0.315838    0.033066
     16          1           0        4.446638   -2.974100   -0.786882
     17          1           0        4.225097   -3.009469    0.953841
     18          1           0        5.850502   -1.111466    1.195904
     19          1           0        6.066828   -1.066658   -0.532973
     20          1           0        6.740337   -3.482650    1.255900
     21          1           0        7.920817   -2.378703    0.546037
     22          1           0        6.962065   -3.435118   -0.493411
     23          1           0       -0.389327   -2.534864   -0.394722
     24          6           0       -5.003661    0.104550    1.047195
     25          1           0       -2.367761    2.021824   -0.596128
     26          1           0        0.092751    1.737128   -0.339777
     27          9           0       -4.435301    1.113005    1.698001
     28          9           0       -6.323620    0.248661    1.106332
     29          9           0       -4.672285   -1.032369    1.649021
     30         16           0       -4.462429    0.084988   -0.739278
     31          8           0       -5.085471   -1.112066   -1.275632
     32          8           0       -4.814107    1.407927   -1.223405
     33          1           0       -2.840718   -2.249113   -0.653013
     34          8           0        2.421080    2.073807   -0.114890
     35          8           0        4.517607    1.320654    0.080224
     36          6           0        3.665321    2.231408   -0.006383
     37          6           0        4.155156    3.685934    0.017698
     38          6           0        5.662283    3.836409    0.168810
     39          1           0        3.622287    4.190738    0.829415
     40          1           0        3.800541    4.157878   -0.904012
     41          1           0        6.006389    3.370883    1.093874
     42          1           0        5.958525    4.889749    0.178698
     43          1           0        6.184323    3.336745   -0.648778
 ---------------------------------------------------------------------
 Rotational constants (GHZ):      0.3512686      0.0738898      0.0648490
 Standard basis: 6-311+G(d) (5D, 7F)
 There are   637 symmetry adapted cartesian basis functions of A   symmetry.
 There are   612 symmetry adapted basis functions of A   symmetry.
   612 basis functions,  1004 primitive gaussians,   637 cartesian basis functions
   100 alpha electrons      100 beta electrons
       nuclear repulsion energy      2437.5034251996 Hartrees.
 NAtoms=   43 NActive=   43 NUniq=   43 SFac= 1.00D+00 NAtFMM=   60 NAOKFM=F Big=F
 Integral buffers will be    131072 words long.
 Raffenetti 2 integral format.
 Two-electron integral symmetry is turned on.
 Nuclear repulsion after empirical dispersion term =     2437.5007877391 Hartrees.
 One-electron integrals computed using PRISM.
 NBasis=   612 RedAO= T EigKep=  1.31D-06  NBF=   612
 NBsUse=   610 1.00D-06 EigRej=  4.91D-07 NBFU=   610
 ExpMin= 4.05D-02 ExpMax= 9.34D+04 ExpMxC= 3.17D+03 IAcc=3 IRadAn=         5 AccDes= 0.00D+00
 Harris functional with IExCor= 1009 and IRadAn=       5 diagonalized for initial guess.
 HarFok:  IExCor= 1009 AccDes= 0.00D+00 IRadAn=         5 IDoV= 1 UseB2=F ITyADJ=14
 ICtDFT=  3500011 ScaDFX=  1.000000  1.000000  1.000000  1.000000
 FoFCou: FMM=F IPFlag=           0 FMFlag=      100000 FMFlg1=           0
         NFxFlg=           0 DoJE=T BraDBF=F KetDBF=T FulRan=T
         wScrn=  0.000000 ICntrl=     500 IOpCl=  0 I1Cent=   200000004 NGrid=           0
         NMat0=    1 NMatS0=      1 NMatT0=    0 NMatD0=    1 NMtDS0=    0 NMtDT0=    0
 Petite list used in FoFCou.
 Requested convergence on RMS density matrix=1.00D-08 within 128 cycles.
 Requested convergence on MAX density matrix=1.00D-06.
 Requested convergence on             energy=1.00D-06.
 No special actions if energy rises.
 SCF Done:  E(RM062X) =  -1727.62086139     A.U. after   17 cycles
            NFock= 17  Conv=0.42D-08     -V/T= 2.0027

 **********************************************************************

            Population analysis using the SCF density.

 **********************************************************************

 Orbital symmetries:
       Occupied  (A) (A) (A) (A) (A) (A) (A) (A) (A) (A) (A) (A)
                 (A) (A) (A) (A) (A) (A) (A) (A) (A) (A) (A) (A)
                 (A) (A) (A) (A) (A) (A) (A) (A) (A) (A) (A) (A)
                 (A) (A) (A) (A) (A) (A) (A) (A) (A) (A) (A) (A)
                 (A) (A) (A) (A) (A) (A) (A) (A) (A) (A) (A) (A)
                 (A) (A) (A) (A) (A) (A) (A) (A) (A) (A) (A) (A)
                 (A) (A) (A) (A) (A) (A) (A) (A) (A) (A) (A) (A)
                 (A) (A) (A) (A) (A) (A) (A) (A) (A) (A) (A) (A)
                 (A) (A) (A) (A)
       Virtual   (A) (A) (A) (A) (A) (A) (A) (A) (A) (A) (A) (A)
                 (A) (A) (A) (A) (A) (A) (A) (A) (A) (A) (A) (A)
                 (A) (A) (A) (A) (A) (A) (A) (A) (A) (A) (A) (A)
                 (A) (A) (A) (A) (A) (A) (A) (A) (A) (A) (A) (A)
                 (A) (A) (A) (A) (A) (A) (A) (A) (A) (A) (A) (A)
                 (A) (A) (A) (A) (A) (A) (A) (A) (A) (A) (A) (A)
                 (A) (A) (A) (A) (A) (A) (A) (A) (A) (A) (A) (A)
                 (A) (A) (A) (A) (A) (A) (A) (A) (A) (A) (A) (A)
                 (A) (A) (A) (A) (A) (A) (A) (A) (A) (A) (A) (A)
                 (A) (A) (A) (A) (A) (A) (A) (A) (A) (A) (A) (A)
                 (A) (A) (A) (A) (A) (A) (A) (A) (A) (A) (A) (A)
                 (A) (A) (A) (A) (A) (A) (A) (A) (A) (A) (A) (A)
                 (A) (A) (A) (A) (A) (A) (A) (A) (A) (A) (A) (A)
                 (A) (A) (A) (A) (A) (A) (A) (A) (A) (A) (A) (A)
                 (A) (A) (A) (A) (A) (A) (A) (A) (A) (A) (A) (A)
                 (A) (A) (A) (A) (A) (A) (A) (A) (A) (A) (A) (A)
                 (A) (A) (A) (A) (A) (A) (A) (A) (A) (A) (A) (A)
                 (A) (A) (A) (A) (A) (A) (A) (A) (A) (A) (A) (A)
                 (A) (A) (A) (A) (A) (A) (A) (A) (A) (A) (A) (A)
                 (A) (A) (A) (A) (A) (A) (A) (A) (A) (A) (A) (A)
                 (A) (A) (A) (A) (A) (A) (A) (A) (A) (A) (A) (A)
                 (A) (A) (A) (A) (A) (A) (A) (A) (A) (A) (A) (A)
                 (A) (A) (A) (A) (A) (A) (A) (A) (A) (A) (A) (A)
                 (A) (A) (A) (A) (A) (A) (A) (A) (A) (A) (A) (A)
                 (A) (A) (A) (A) (A) (A) (A) (A) (A) (A) (A) (A)
                 (A) (A) (A) (A) (A) (A) (A) (A) (A) (A) (A) (A)
                 (A) (A) (A) (A) (A) (A) (A) (A) (A) (A) (A) (A)
                 (A) (A) (A) (A) (A) (A) (A) (A) (A) (A) (A) (A)
                 (A) (A) (A) (A) (A) (A) (A) (A) (A) (A) (A) (A)
                 (A) (A) (A) (A) (A) (A) (A) (A) (A) (A) (A) (A)
                 (A) (A) (A) (A) (A) (A) (A) (A) (A) (A) (A) (A)
                 (A) (A) (A) (A) (A) (A) (A) (A) (A) (A) (A) (A)
                 (A) (A) (A) (A) (A) (A) (A) (A) (A) (A) (A) (A)
                 (A) (A) (A) (A) (A) (A) (A) (A) (A) (A) (A) (A)
                 (A) (A) (A) (A) (A) (A) (A) (A) (A) (A) (A) (A)
                 (A) (A) (A) (A) (A) (A) (A) (A) (A) (A) (A) (A)
                 (A) (A) (A) (A) (A) (A) (A) (A) (A) (A) (A) (A)
                 (A) (A) (A) (A) (A) (A) (A) (A) (A) (A) (A) (A)
                 (A) (A) (A) (A) (A) (A) (A) (A) (A) (A) (A) (A)
                 (A) (A) (A) (A) (A) (A) (A) (A) (A) (A) (A) (A)
                 (A) (A) (A) (A) (A) (A) (A) (A) (A) (A) (A) (A)
                 (A) (A) (A) (A) (A) (A) (A) (A) (A) (A) (A) (A)
                 (A) (A) (A) (A) (A) (A)
 The electronic state is 1-A.
 Alpha  occ. eigenvalues --  -90.03275 -25.22332 -25.22301 -25.22293 -19.55082
 Alpha  occ. eigenvalues --  -19.55081 -19.47871 -19.45243 -19.45007 -14.66531
 Alpha  occ. eigenvalues --  -14.64341 -10.74292 -10.56211 -10.51430 -10.51383
 Alpha  occ. eigenvalues --  -10.48908 -10.47922 -10.47821 -10.46899 -10.45494
 Alpha  occ. eigenvalues --  -10.45290 -10.44686 -10.44154 -10.42333 -10.42201
 Alpha  occ. eigenvalues --   -8.37639  -6.29843  -6.29803  -6.29707  -1.41877
 Alpha  occ. eigenvalues --   -1.32422  -1.32417  -1.17102  -1.06753  -1.06372
 Alpha  occ. eigenvalues --   -1.04329  -0.95396  -0.94478  -0.91899  -0.88214
 Alpha  occ. eigenvalues --   -0.80318  -0.78949  -0.77211  -0.76258  -0.75617
 Alpha  occ. eigenvalues --   -0.70525  -0.67978  -0.64466  -0.64025  -0.63508
 Alpha  occ. eigenvalues --   -0.62828  -0.61891  -0.59320  -0.57802  -0.56289
 Alpha  occ. eigenvalues --   -0.53092  -0.52534  -0.51786  -0.51729  -0.50460
 Alpha  occ. eigenvalues --   -0.48128  -0.47775  -0.47570  -0.47080  -0.46518
 Alpha  occ. eigenvalues --   -0.46033  -0.45740  -0.44361  -0.43473  -0.42828
 Alpha  occ. eigenvalues --   -0.42268  -0.42027  -0.41979  -0.41194  -0.40079
 Alpha  occ. eigenvalues --   -0.39488  -0.38217  -0.37733  -0.37338  -0.35766
 Alpha  occ. eigenvalues --   -0.35006  -0.34452  -0.33785  -0.33651  -0.33480
 Alpha  occ. eigenvalues --   -0.32589  -0.31601  -0.31443  -0.31107  -0.30826
 Alpha  occ. eigenvalues --   -0.29452  -0.29125  -0.28821  -0.24024  -0.23472
 Alpha  occ. eigenvalues --   -0.21308  -0.20777  -0.20232  -0.20069  -0.17337
 Alpha virt. eigenvalues --    0.07041   0.08956   0.09687   0.10046   0.10170
 Alpha virt. eigenvalues --    0.10892   0.11242   0.11436   0.11613   0.11823
 Alpha virt. eigenvalues --    0.12193   0.12813   0.13389   0.13407   0.13938
 Alpha virt. eigenvalues --    0.14218   0.14666   0.15099   0.15187   0.15436
 Alpha virt. eigenvalues --    0.15622   0.16579   0.16757   0.16978   0.17106
 Alpha virt. eigenvalues --    0.17698   0.18158   0.18168   0.18570   0.19082
 Alpha virt. eigenvalues --    0.19216   0.19701   0.19891   0.20168   0.20341
 Alpha virt. eigenvalues --    0.20648   0.21055   0.21559   0.21605   0.22314
 Alpha virt. eigenvalues --    0.22619   0.22982   0.23476   0.24291   0.24424
 Alpha virt. eigenvalues --    0.24685   0.25319   0.25775   0.26445   0.26737
 Alpha virt. eigenvalues --    0.26909   0.27531   0.27902   0.28074   0.28447
 Alpha virt. eigenvalues --    0.29361   0.29493   0.29799   0.29944   0.30057
 Alpha virt. eigenvalues --    0.30291   0.30564   0.30925   0.31190   0.31454
 Alpha virt. eigenvalues --    0.31547   0.31768   0.32058   0.32406   0.32960
 Alpha virt. eigenvalues --    0.33242   0.33523   0.34014   0.34016   0.34278
 Alpha virt. eigenvalues --    0.34503   0.34798   0.34933   0.35372   0.35565
 Alpha virt. eigenvalues --    0.35809   0.35933   0.36353   0.36692   0.36809
 Alpha virt. eigenvalues --    0.37288   0.37501   0.37673   0.38252   0.38543
 Alpha virt. eigenvalues --    0.39291   0.39460   0.39627   0.39670   0.40291
 Alpha virt. eigenvalues --    0.40475   0.40652   0.41075   0.41514   0.41745
 Alpha virt. eigenvalues --    0.41993   0.42419   0.42605   0.42763   0.43331
 Alpha virt. eigenvalues --    0.43742   0.44025   0.44571   0.44750   0.45116
 Alpha virt. eigenvalues --    0.45455   0.45777   0.45899   0.46516   0.46706
 Alpha virt. eigenvalues --    0.47249   0.48186   0.48768   0.49048   0.49229
 Alpha virt. eigenvalues --    0.49471   0.49597   0.50046   0.50469   0.51343
 Alpha virt. eigenvalues --    0.51712   0.51846   0.52567   0.53344   0.53546
 Alpha virt. eigenvalues --    0.53706   0.54415   0.55041   0.55476   0.56005
 Alpha virt. eigenvalues --    0.57026   0.57161   0.57583   0.58579   0.58987
 Alpha virt. eigenvalues --    0.59657   0.61549   0.61946   0.62719   0.63007
 Alpha virt. eigenvalues --    0.63462   0.63659   0.63927   0.64654   0.65053
 Alpha virt. eigenvalues --    0.65947   0.66465   0.67020   0.67901   0.67961
 Alpha virt. eigenvalues --    0.68215   0.68735   0.70405   0.71024   0.71306
 Alpha virt. eigenvalues --    0.71743   0.72815   0.72984   0.74477   0.74825
 Alpha virt. eigenvalues --    0.75222   0.76761   0.76980   0.77670   0.78310
 Alpha virt. eigenvalues --    0.78590   0.78970   0.79319   0.80182   0.80498
 Alpha virt. eigenvalues --    0.81087   0.81704   0.81969   0.82465   0.82809
 Alpha virt. eigenvalues --    0.83159   0.83523   0.84357   0.85176   0.86196
 Alpha virt. eigenvalues --    0.86608   0.87208   0.87414   0.87854   0.88275
 Alpha virt. eigenvalues --    0.88672   0.89135   0.89476   0.89801   0.90473
 Alpha virt. eigenvalues --    0.91546   0.92600   0.92947   0.94047   0.95079
 Alpha virt. eigenvalues --    0.96767   0.98019   0.99207   0.99769   1.00793
 Alpha virt. eigenvalues --    1.01965   1.03190   1.03372   1.04621   1.05677
 Alpha virt. eigenvalues --    1.06962   1.07184   1.07953   1.09322   1.09895
 Alpha virt. eigenvalues --    1.10725   1.12720   1.13190   1.14128   1.14477
 Alpha virt. eigenvalues --    1.15454   1.16285   1.17443   1.18212   1.19522
 Alpha virt. eigenvalues --    1.20072   1.21078   1.23736   1.24217   1.25064
 Alpha virt. eigenvalues --    1.26382   1.27152   1.27627   1.28254   1.28782
 Alpha virt. eigenvalues --    1.29092   1.29817   1.31134   1.32009   1.32845
 Alpha virt. eigenvalues --    1.33316   1.33838   1.35157   1.35519   1.35656
 Alpha virt. eigenvalues --    1.36424   1.36930   1.37266   1.38125   1.38924
 Alpha virt. eigenvalues --    1.40606   1.40857   1.41796   1.42829   1.44600
 Alpha virt. eigenvalues --    1.44631   1.45583   1.49000   1.50056   1.50419
 Alpha virt. eigenvalues --    1.52545   1.52846   1.54781   1.54993   1.55687
 Alpha virt. eigenvalues --    1.55943   1.56542   1.58523   1.59388   1.60260
 Alpha virt. eigenvalues --    1.60733   1.60901   1.61959   1.62687   1.63041
 Alpha virt. eigenvalues --    1.63552   1.64838   1.65480   1.67263   1.68226
 Alpha virt. eigenvalues --    1.69325   1.69634   1.71193   1.72220   1.72471
 Alpha virt. eigenvalues --    1.72771   1.74129   1.76387   1.78677   1.79095
 Alpha virt. eigenvalues --    1.79984   1.81110   1.82428   1.83304   1.86258
 Alpha virt. eigenvalues --    1.86847   1.87319   1.87863   1.88394   1.88527
 Alpha virt. eigenvalues --    1.91167   1.91497   1.92115   1.92388   1.93461
 Alpha virt. eigenvalues --    1.93768   1.94874   1.95529   1.97671   1.98076
 Alpha virt. eigenvalues --    1.98362   1.99952   2.00857   2.00998   2.03338
 Alpha virt. eigenvalues --    2.05006   2.06018   2.06761   2.08798   2.10355
 Alpha virt. eigenvalues --    2.10552   2.11763   2.13502   2.14973   2.15911
 Alpha virt. eigenvalues --    2.16992   2.20827   2.21948   2.22403   2.24093
 Alpha virt. eigenvalues --    2.25859   2.27141   2.28818   2.32359   2.33203
 Alpha virt. eigenvalues --    2.36733   2.38229   2.40120   2.43483   2.47715
 Alpha virt. eigenvalues --    2.48860   2.50101   2.50243   2.52183   2.57575
 Alpha virt. eigenvalues --    2.58743   2.61502   2.63064   2.64158   2.64444
 Alpha virt. eigenvalues --    2.65345   2.67867   2.69984   2.70370   2.71217
 Alpha virt. eigenvalues --    2.71390   2.75350   2.75798   2.76528   2.78344
 Alpha virt. eigenvalues --    2.81718   2.82500   2.83681   2.86410   2.91246
 Alpha virt. eigenvalues --    2.91731   2.93103   2.96491   2.96928   2.97572
 Alpha virt. eigenvalues --    2.98013   2.99617   3.00992   3.01647   3.03514
 Alpha virt. eigenvalues --    3.04272   3.05532   3.06008   3.06506   3.07963
 Alpha virt. eigenvalues --    3.09059   3.10094   3.10495   3.10884   3.12198
 Alpha virt. eigenvalues --    3.14210   3.15014   3.16821   3.18169   3.19684
 Alpha virt. eigenvalues --    3.21025   3.22762   3.23154   3.25048   3.25700
 Alpha virt. eigenvalues --    3.28466   3.28567   3.30974   3.34818   3.35480
 Alpha virt. eigenvalues --    3.35600   3.36679   3.37964   3.38830   3.42873
 Alpha virt. eigenvalues --    3.43627   3.45773   3.50022   3.50275   3.51300
 Alpha virt. eigenvalues --    3.52351   3.52978   3.54301   3.54442   3.56084
 Alpha virt. eigenvalues --    3.58312   3.59299   3.65275   3.71674   3.73867
 Alpha virt. eigenvalues --    3.75374   3.81987   3.82625   3.84559   3.85028
 Alpha virt. eigenvalues --    3.86203   3.89684   3.89994   3.90494   3.91860
 Alpha virt. eigenvalues --    3.92102   3.93069   3.93281   3.96158   3.97616
 Alpha virt. eigenvalues --    4.01220   4.04010   4.04072   4.10630   4.11918
 Alpha virt. eigenvalues --    4.16731   4.17586   4.18479   4.20989   4.27926
 Alpha virt. eigenvalues --    4.32548   4.35588   4.35850   4.36086   4.52621
 Alpha virt. eigenvalues --    4.75641   4.81226   4.90759   5.04544   5.06438
 Alpha virt. eigenvalues --    5.07191   5.25962   5.26915   5.29719   5.31262
 Alpha virt. eigenvalues --    5.31479   5.31666   5.32994   5.34166   5.37700
 Alpha virt. eigenvalues --    5.51882   5.52790   5.55524   5.57850   5.90101
 Alpha virt. eigenvalues --    6.02732   6.16356   6.50168   6.52752   6.56540
 Alpha virt. eigenvalues --    6.58028   6.58766   6.60543   6.62544   6.96429
 Alpha virt. eigenvalues --    6.96724   8.42018  17.66758  17.71815  17.87855
 Alpha virt. eigenvalues --   23.60529  23.63358  23.69755  23.73300  23.85293
 Alpha virt. eigenvalues --   23.91201  23.92072  23.98820  24.06386  24.10150
 Alpha virt. eigenvalues --   24.10416  24.15696  24.24562  24.30778  35.76393
 Alpha virt. eigenvalues --   35.85703  50.07156  50.11305  50.20707  50.27957
 Alpha virt. eigenvalues --   50.28933  66.95214  66.95451  67.00323 189.68144
          Condensed to atoms (all electrons):
               1          2          3          4          5          6
     1  C   36.145183   0.107874   0.434349  -0.329634  -0.428653  -0.562637
     2  N    0.107874   8.259680   0.372465  -0.057765  -0.625201  -0.723920
     3  C    0.434349   0.372465  10.151989   0.660209   0.179976  -1.817315
     4  O   -0.329634  -0.057765   0.660209   8.104731  -0.195144  -0.167618
     5  N   -0.428653  -0.625201   0.179976  -0.195144   8.105261   0.677661
     6  C   -0.562637  -0.723920  -1.817315  -0.167618   0.677661   9.946153
     7  C    0.012429   0.095981   0.530132   0.033942  -0.083097  -1.538728
     8  C   -0.012736  -0.023841  -0.347480  -0.000372  -0.052604   0.554768
     9  C    7.155744  -0.190213  -0.194921   0.419061   0.181634  -0.402437
    10  C  -10.838802   0.156790  -0.973708   0.063996   0.122632  -0.130553
    11  C  -19.061144   0.073510  -1.744836  -0.028393   0.042047  -0.099122
    12  C  -10.779438   0.073147  -0.487198  -0.007157  -0.087081  -0.029629
    13  C    5.279304  -0.066263  -0.823756  -0.096965  -0.362471  -0.136409
    14  H   -0.136956   0.059931  -0.029285  -0.004041   0.027256   0.047292
    15  H   -0.016780   0.012053  -0.069533  -0.008550   0.108139   0.065452
    16  H    0.014344   0.005595   0.049196  -0.000812  -0.061796   0.384196
    17  H    0.005127   0.010021   0.052253  -0.000234  -0.064795   0.361614
    18  H    0.001150  -0.001742   0.003913  -0.000185   0.007098  -0.062848
    19  H   -0.001014  -0.001345  -0.004961  -0.000249   0.007806  -0.066716
    20  H   -0.000142  -0.000034  -0.004206  -0.000042   0.000426  -0.046677
    21  H    0.000178   0.000012   0.008593   0.000017  -0.002225   0.094131
    22  H   -0.000045  -0.000033  -0.002419  -0.000016   0.000113  -0.036477
    23  H    0.090299  -0.033822   0.100587   0.001702   0.009184   0.014112
    24  C    0.564495  -0.003127   0.018016   0.000243  -0.000500   0.000168
    25  H    0.054287  -0.003027   0.002974  -0.000018  -0.000093   0.000013
    26  H    0.042781  -0.027977   0.003385   0.000083   0.002097   0.000795
    27  F   -0.032508   0.000064  -0.000518   0.000001   0.000003  -0.000003
    28  F   -0.004268   0.000022   0.000028  -0.000000   0.000000   0.000000
    29  F   -0.045833   0.000040  -0.001257  -0.000005   0.000001  -0.000006
    30  S   -1.183943   0.001642  -0.106637  -0.000637   0.004599  -0.001894
    31  O   -0.166510  -0.000349  -0.008539  -0.000108   0.000002  -0.000051
    32  O    0.052139   0.000584   0.005167   0.000023   0.000014   0.000018
    33  H    0.008982  -0.001441   0.006663  -0.000012   0.000020   0.000080
    34  O   -0.169053   0.043149  -0.024216  -0.001147  -0.062380  -0.012638
    35  O    0.007507  -0.052067  -0.060335   0.000639   0.019785   0.056404
    36  C    0.494443   0.003410   0.031144  -0.001696   0.021335   0.021240
    37  C   -0.413712  -0.057616  -0.084028  -0.001091  -0.063640   0.128320
    38  C   -0.001106   0.002834   0.008494   0.000094   0.013335  -0.025093
    39  H    0.003042   0.000435   0.000270   0.000000  -0.000036  -0.000526
    40  H    0.002708   0.000318   0.000046   0.000000   0.000108  -0.000321
    41  H    0.000078   0.000013  -0.000317  -0.000000   0.000141   0.000407
    42  H    0.000199   0.000025   0.000221   0.000000  -0.000092  -0.000119
    43  H    0.000074   0.000024  -0.000226  -0.000000   0.000105   0.000174
               7          8          9         10         11         12
     1  C    0.012429  -0.012736   7.155744 -10.838802 -19.061144 -10.779438
     2  N    0.095981  -0.023841  -0.190213   0.156790   0.073510   0.073147
     3  C    0.530132  -0.347480  -0.194921  -0.973708  -1.744836  -0.487198
     4  O    0.033942  -0.000372   0.419061   0.063996  -0.028393  -0.007157
     5  N   -0.083097  -0.052604   0.181634   0.122632   0.042047  -0.087081
     6  C   -1.538728   0.554768  -0.402437  -0.130553  -0.099122  -0.029629
     7  C    7.008219  -0.602601  -0.007741  -0.003457  -0.002427  -0.001412
     8  C   -0.602601   6.665410  -0.004204   0.000894  -0.000468  -0.001386
     9  C   -0.007741  -0.004204  39.561916   4.829589 -20.160925 -11.925211
    10  C   -0.003457   0.000894   4.829589  40.080195   0.738682 -14.421918
    11  C   -0.002427  -0.000468 -20.160925   0.738682  61.068482   3.972490
    12  C   -0.001412  -0.001386 -11.925211 -14.421918   3.972490  35.314080
    13  C    0.016255  -0.009740 -12.955333 -12.531346 -15.076339   3.500400
    14  H   -0.012026   0.000169  -0.016109  -0.010834   0.023153   0.061105
    15  H   -0.055236   0.013905  -0.039859  -0.003041  -0.004204  -0.001368
    16  H   -0.033089  -0.026817  -0.004422  -0.000710   0.000134   0.000206
    17  H   -0.011431  -0.017567  -0.006345  -0.001033  -0.000160   0.000405
    18  H    0.442917  -0.062605  -0.000641  -0.000022   0.000009   0.000013
    19  H    0.452765  -0.056686  -0.000736  -0.000018  -0.000004   0.000041
    20  H    0.030776   0.365420  -0.000082  -0.000006  -0.000001   0.000001
    21  H   -0.183212   0.434013   0.000068   0.000003   0.000000  -0.000001
    22  H    0.039538   0.345405  -0.000076  -0.000006  -0.000000   0.000001
    23  H   -0.000645   0.000135   0.249819  -0.087804   0.014390  -0.017688
    24  C    0.000014  -0.000001   0.435337   1.378309  -2.098043   0.605699
    25  H    0.000001   0.000000  -0.014677  -0.030448   0.000805   0.356948
    26  H   -0.000011   0.000013  -0.010582   0.000988   0.089542  -0.017597
    27  F   -0.000000  -0.000000   0.039006   0.078919   0.178855  -0.163585
    28  F   -0.000000   0.000000  -0.005154  -0.026625   0.094686  -0.027754
    29  F   -0.000000  -0.000000  -0.124640  -0.231044   0.222193   0.097969
    30  S   -0.000113   0.000010   0.233380  -1.999648  -3.755845   0.778349
    31  O    0.000001   0.000000  -1.480724  -2.515282   0.934239   2.096084
    32  O   -0.000001  -0.000000   0.869671   2.407160   0.571622  -2.433774
    33  H    0.000004   0.000000  -0.034180   0.418792  -0.028536  -0.052830
    34  O   -0.005138  -0.000210   0.029874   0.023136  -0.037753  -0.084942
    35  O   -0.004966   0.014935  -0.007236   0.000790  -0.000028  -0.003415
    36  C   -0.003523  -0.018165  -0.000009  -0.009017  -0.100075  -0.340466
    37  C   -0.062466   0.014132  -0.157863  -0.031708   0.044311   0.284330
    38  C    0.018304  -0.006701   0.001686   0.000128  -0.000372   0.001858
    39  H    0.000373   0.000003   0.000418   0.000038  -0.000176  -0.001874
    40  H    0.000188  -0.000005   0.000369   0.000034  -0.000124  -0.001421
    41  H    0.000053   0.000161   0.000001   0.000001   0.000001  -0.000025
    42  H   -0.000053  -0.000008   0.000022   0.000001  -0.000003  -0.000051
    43  H    0.000231   0.000205   0.000006   0.000001   0.000000  -0.000033
              13         14         15         16         17         18
     1  C    5.279304  -0.136956  -0.016780   0.014344   0.005127   0.001150
     2  N   -0.066263   0.059931   0.012053   0.005595   0.010021  -0.001742
     3  C   -0.823756  -0.029285  -0.069533   0.049196   0.052253   0.003913
     4  O   -0.096965  -0.004041  -0.008550  -0.000812  -0.000234  -0.000185
     5  N   -0.362471   0.027256   0.108139  -0.061796  -0.064795   0.007098
     6  C   -0.136409   0.047292   0.065452   0.384196   0.361614  -0.062848
     7  C    0.016255  -0.012026  -0.055236  -0.033089  -0.011431   0.442917
     8  C   -0.009740   0.000169   0.013905  -0.026817  -0.017567  -0.062605
     9  C  -12.955333  -0.016109  -0.039859  -0.004422  -0.006345  -0.000641
    10  C  -12.531346  -0.010834  -0.003041  -0.000710  -0.001033  -0.000022
    11  C  -15.076339   0.023153  -0.004204   0.000134  -0.000160   0.000009
    12  C    3.500400   0.061105  -0.001368   0.000206   0.000405   0.000013
    13  C   37.989034   0.032067   0.017274   0.001593   0.002687   0.000387
    14  H    0.032067   0.319695   0.029410  -0.000085  -0.000161   0.000092
    15  H    0.017274   0.029410   0.337451   0.001624   0.002222   0.003273
    16  H    0.001593  -0.000085   0.001624   0.484355  -0.055610   0.006314
    17  H    0.002687  -0.000161   0.002222  -0.055610   0.485056  -0.008987
    18  H    0.000387   0.000092   0.003273   0.006314  -0.008987   0.438994
    19  H    0.000555   0.000074   0.004465  -0.008682   0.005935  -0.034875
    20  H    0.000028   0.000000  -0.000002  -0.000833   0.003516  -0.007879
    21  H   -0.000026   0.000000  -0.000065  -0.000083  -0.000108  -0.004394
    22  H    0.000029   0.000001  -0.000030   0.003372  -0.000840   0.006725
    23  H   -0.015300  -0.000552   0.000088  -0.000030  -0.000039   0.000000
    24  C    0.201094  -0.000049   0.000005  -0.000000  -0.000000  -0.000000
    25  H   -0.056163  -0.000092   0.000001  -0.000000  -0.000000  -0.000000
    26  H    0.197560   0.013875  -0.000243   0.000000   0.000000  -0.000000
    27  F   -0.106148   0.000002  -0.000000   0.000000  -0.000000   0.000000
    28  F   -0.009031  -0.000000  -0.000000  -0.000000   0.000000   0.000000
    29  F    0.045478   0.000001  -0.000000   0.000000  -0.000000   0.000000
    30  S    1.709922  -0.000241  -0.000115  -0.000000   0.000003  -0.000000
    31  O    0.870142  -0.000004   0.000000   0.000000  -0.000000   0.000000
    32  O   -1.400921   0.000013  -0.000000   0.000000   0.000000  -0.000000
    33  H   -0.026016   0.000013  -0.000000  -0.000000   0.000000  -0.000000
    34  O    0.301544   0.081961   0.014622  -0.000037  -0.000047  -0.000136
    35  O    0.001267   0.009838   0.072174  -0.000191  -0.000482  -0.005730
    36  C   -0.155785  -0.022307  -0.006820   0.000106  -0.000278   0.002052
    37  C    0.231585   0.057965   0.059475  -0.000245  -0.000363  -0.000250
    38  C    0.000606  -0.003895  -0.007421   0.000078   0.000100   0.001458
    39  H   -0.001448  -0.000388  -0.000055   0.000000   0.000000   0.000001
    40  H   -0.001388  -0.000354  -0.000082   0.000000   0.000000   0.000002
    41  H   -0.000016  -0.000018  -0.000374  -0.000000  -0.000000  -0.000024
    42  H   -0.000209  -0.000002   0.000064  -0.000000  -0.000000  -0.000000
    43  H   -0.000021  -0.000020  -0.000367  -0.000000  -0.000000  -0.000041
              19         20         21         22         23         24
     1  C   -0.001014  -0.000142   0.000178  -0.000045   0.090299   0.564495
     2  N   -0.001345  -0.000034   0.000012  -0.000033  -0.033822  -0.003127
     3  C   -0.004961  -0.004206   0.008593  -0.002419   0.100587   0.018016
     4  O   -0.000249  -0.000042   0.000017  -0.000016   0.001702   0.000243
     5  N    0.007806   0.000426  -0.002225   0.000113   0.009184  -0.000500
     6  C   -0.066716  -0.046677   0.094131  -0.036477   0.014112   0.000168
     7  C    0.452765   0.030776  -0.183212   0.039538  -0.000645   0.000014
     8  C   -0.056686   0.365420   0.434013   0.345405   0.000135  -0.000001
     9  C   -0.000736  -0.000082   0.000068  -0.000076   0.249819   0.435337
    10  C   -0.000018  -0.000006   0.000003  -0.000006  -0.087804   1.378309
    11  C   -0.000004  -0.000001   0.000000  -0.000000   0.014390  -2.098043
    12  C    0.000041   0.000001  -0.000001   0.000001  -0.017688   0.605699
    13  C    0.000555   0.000028  -0.000026   0.000029  -0.015300   0.201094
    14  H    0.000074   0.000000   0.000000   0.000001  -0.000552  -0.000049
    15  H    0.004465  -0.000002  -0.000065  -0.000030   0.000088   0.000005
    16  H   -0.008682  -0.000833  -0.000083   0.003372  -0.000030  -0.000000
    17  H    0.005935   0.003516  -0.000108  -0.000840  -0.000039  -0.000000
    18  H   -0.034875  -0.007879  -0.004394   0.006725   0.000000  -0.000000
    19  H    0.436164   0.006616  -0.004197  -0.007577   0.000000  -0.000000
    20  H    0.006616   0.477378  -0.027536  -0.041529  -0.000000   0.000000
    21  H   -0.004197  -0.027536   0.456977  -0.027652   0.000000  -0.000000
    22  H   -0.007577  -0.041529  -0.027652   0.476044  -0.000000   0.000000
    23  H    0.000000  -0.000000   0.000000  -0.000000   0.369606  -0.000372
    24  C   -0.000000   0.000000  -0.000000   0.000000  -0.000372   7.495550
    25  H   -0.000000   0.000000  -0.000000   0.000000   0.000075   0.001055
    26  H   -0.000000  -0.000000   0.000000  -0.000000  -0.000085  -0.000894
    27  F   -0.000000  -0.000000  -0.000000   0.000000  -0.000005   0.168892
    28  F    0.000000   0.000000  -0.000000   0.000000  -0.000000   0.217464
    29  F   -0.000000   0.000000  -0.000000   0.000000   0.000028   0.143235
    30  S    0.000000  -0.000000   0.000000  -0.000000   0.001828  -3.078619
    31  O    0.000000  -0.000000   0.000000  -0.000000   0.000616  -0.058409
    32  O   -0.000000  -0.000000   0.000000  -0.000000  -0.000090   0.004514
    33  H   -0.000000   0.000000  -0.000000   0.000000  -0.003191  -0.002216
    34  O   -0.000172  -0.000001  -0.000000  -0.000000   0.000058   0.000026
    35  O   -0.006687  -0.000051   0.000012  -0.000002  -0.000001  -0.000001
    36  C    0.002354   0.000084  -0.000298   0.000171   0.000573   0.000238
    37  C   -0.000640  -0.000045   0.000176  -0.000040   0.000063  -0.000001
    38  C    0.001897   0.000037  -0.000125   0.000040  -0.000001  -0.000004
    39  H    0.000002   0.000000  -0.000000   0.000000   0.000000   0.000000
    40  H    0.000003   0.000000  -0.000000   0.000000   0.000000   0.000000
    41  H   -0.000048  -0.000000   0.000001  -0.000000   0.000000  -0.000000
    42  H   -0.000001  -0.000000  -0.000000  -0.000000  -0.000000   0.000000
    43  H   -0.000036  -0.000000   0.000001  -0.000000   0.000000   0.000000
              25         26         27         28         29         30
     1  C    0.054287   0.042781  -0.032508  -0.004268  -0.045833  -1.183943
     2  N   -0.003027  -0.027977   0.000064   0.000022   0.000040   0.001642
     3  C    0.002974   0.003385  -0.000518   0.000028  -0.001257  -0.106637
     4  O   -0.000018   0.000083   0.000001  -0.000000  -0.000005  -0.000637
     5  N   -0.000093   0.002097   0.000003   0.000000   0.000001   0.004599
     6  C    0.000013   0.000795  -0.000003   0.000000  -0.000006  -0.001894
     7  C    0.000001  -0.000011  -0.000000  -0.000000  -0.000000  -0.000113
     8  C    0.000000   0.000013  -0.000000   0.000000  -0.000000   0.000010
     9  C   -0.014677  -0.010582   0.039006  -0.005154  -0.124640   0.233380
    10  C   -0.030448   0.000988   0.078919  -0.026625  -0.231044  -1.999648
    11  C    0.000805   0.089542   0.178855   0.094686   0.222193  -3.755845
    12  C    0.356948  -0.017597  -0.163585  -0.027754   0.097969   0.778349
    13  C   -0.056163   0.197560  -0.106148  -0.009031   0.045478   1.709922
    14  H   -0.000092   0.013875   0.000002  -0.000000   0.000001  -0.000241
    15  H    0.000001  -0.000243  -0.000000  -0.000000  -0.000000  -0.000115
    16  H   -0.000000   0.000000   0.000000  -0.000000   0.000000  -0.000000
    17  H   -0.000000   0.000000  -0.000000   0.000000  -0.000000   0.000003
    18  H   -0.000000  -0.000000   0.000000   0.000000   0.000000  -0.000000
    19  H   -0.000000  -0.000000  -0.000000   0.000000  -0.000000   0.000000
    20  H    0.000000  -0.000000  -0.000000   0.000000   0.000000  -0.000000
    21  H   -0.000000   0.000000  -0.000000  -0.000000  -0.000000   0.000000
    22  H    0.000000  -0.000000   0.000000   0.000000   0.000000  -0.000000
    23  H    0.000075  -0.000085  -0.000005  -0.000000   0.000028   0.001828
    24  C    0.001055  -0.000894   0.168892   0.217464   0.143235  -3.078619
    25  H    0.401768  -0.002756  -0.003036  -0.000184   0.000245   0.017770
    26  H   -0.002756   0.342008   0.000066  -0.000001  -0.000000   0.006508
    27  F   -0.003036   0.000066   8.952801  -0.041640  -0.038450   0.002504
    28  F   -0.000184  -0.000001  -0.041640   8.988859  -0.042213  -0.046759
    29  F    0.000245  -0.000000  -0.038450  -0.042213   8.956563   0.059970
    30  S    0.017770   0.006508   0.002504  -0.046759   0.059970  23.186748
    31  O    0.002159  -0.000138  -0.011557  -0.006496   0.022535  -0.120089
    32  O   -0.010138   0.000891   0.023681  -0.003082  -0.010772  -0.533394
    33  H   -0.000165   0.000064   0.000255  -0.000190  -0.002794   0.037787
    34  O    0.000180   0.005643  -0.000004  -0.000000   0.000001   0.000773
    35  O   -0.000001   0.000992  -0.000000  -0.000000   0.000000   0.000037
    36  C   -0.000086   0.006977  -0.000019  -0.000000  -0.000001  -0.000482
    37  C    0.000081  -0.001227   0.000004   0.000000  -0.000001  -0.000711
    38  C    0.000001   0.000118   0.000000  -0.000000   0.000000   0.000058
    39  H    0.000000  -0.000045  -0.000000   0.000000  -0.000000  -0.000001
    40  H    0.000000  -0.000039  -0.000000  -0.000000  -0.000000   0.000000
    41  H   -0.000000  -0.000000  -0.000000  -0.000000  -0.000000   0.000000
    42  H    0.000000  -0.000001   0.000000   0.000000   0.000000  -0.000000
    43  H   -0.000000  -0.000000  -0.000000   0.000000  -0.000000   0.000000
              31         32         33         34         35         36
     1  C   -0.166510   0.052139   0.008982  -0.169053   0.007507   0.494443
     2  N   -0.000349   0.000584  -0.001441   0.043149  -0.052067   0.003410
     3  C   -0.008539   0.005167   0.006663  -0.024216  -0.060335   0.031144
     4  O   -0.000108   0.000023  -0.000012  -0.001147   0.000639  -0.001696
     5  N    0.000002   0.000014   0.000020  -0.062380   0.019785   0.021335
     6  C   -0.000051   0.000018   0.000080  -0.012638   0.056404   0.021240
     7  C    0.000001  -0.000001   0.000004  -0.005138  -0.004966  -0.003523
     8  C    0.000000  -0.000000   0.000000  -0.000210   0.014935  -0.018165
     9  C   -1.480724   0.869671  -0.034180   0.029874  -0.007236  -0.000009
    10  C   -2.515282   2.407160   0.418792   0.023136   0.000790  -0.009017
    11  C    0.934239   0.571622  -0.028536  -0.037753  -0.000028  -0.100075
    12  C    2.096084  -2.433774  -0.052830  -0.084942  -0.003415  -0.340466
    13  C    0.870142  -1.400921  -0.026016   0.301544   0.001267  -0.155785
    14  H   -0.000004   0.000013   0.000013   0.081961   0.009838  -0.022307
    15  H    0.000000  -0.000000  -0.000000   0.014622   0.072174  -0.006820
    16  H    0.000000   0.000000  -0.000000  -0.000037  -0.000191   0.000106
    17  H   -0.000000   0.000000   0.000000  -0.000047  -0.000482  -0.000278
[...]
 .00003403,-0.00004185,0.00000990,-0.00000985,-0.00000703,-0.00004071,-
 0.00003100,-0.00002986,0.00000523,0.00002285,0.00002303,0.00001510,-0.
 00000159,0.00001488,0.00000812,0.00000832,0.00000410,-0.00010325,0.000
 00350,-0.00000637,0.00001944,0.00000119,0.00000884,0.00003484,0.000020
 85,0.00000453,0.00000058,-0.00000006,-0.00000109,0.00178466,-0.0009958
 0,0.00121537,0.00055337,-0.00084651,-0.00014226,-0.00229957,0.00283371
 ,-0.00208810,-0.12860802,-0.02341067,-0.20445098,0.00453087,0.00104991
 ,0.00535936,0.14048577,0.02463000,0.22009383,0.00003600,-0.00000422,0.
 00000753,0.00007747,0.00009695,0.00003680,-0.00025815,0.00004558,0.000
 04098,0.00006471,-0.00004122,-0.00002352,0.00006522,-0.00027349,-0.000
 03746,0.00000067,-0.00000379,0.00000959,0.00000218,0.00000899,0.000016
 93,0.00000435,-0.00000373,-0.00000348,-0.00000609,-0.00000146,-0.00000
 983,0.00000229,0.00000514,-0.00000061,-0.00001629,0.00000913,0.0000023
 4,0.00001516,-0.00000156,-0.00000275,-0.00001608,-0.00001161,-0.000002
 16,-0.00004964,-0.00021110,-0.00009641,0.00000381,0.00036444,-0.000010
 42,-0.00000063,-0.00001177,-0.00000550,-0.00000295,-0.00000536,-0.0000
 0063,0.00000350,0.00001884,-0.00002609,0.00000353,0.00000754,0.0000224
 6,-0.00000305,-0.00000236,0.00000176,0.00000765,0.00000063,0.00000302,
 -0.00000649,-0.00000790,-0.00000670,-0.00000282,0.00000148,0.00000347,
 0.00000383,0.00000015,0.00001309,-0.00000186,0.00000294,0.00000228,0.0
 0003011,0.00000135,-0.00000215,-0.00000159,-0.00000266,-0.00000545,-0.
 00000540,0.00000224,-0.00000460,-0.00000063,0.00000096,-0.00000366,0.0
 0002698,-0.00000446,0.00000585,-0.00000656,0.00000410,-0.00000324,-0.0
 0000918,-0.00000241,-0.00000338,-0.00000103,0.00000050,0.00000147,0.00
 045330,0.00193394,-0.00117452,-0.00029307,-0.00262960,-0.00181127,-0.0
 0681772,-0.00269079,0.00811766,-0.11275321,-0.03605872,0.11131339,-0.0
 1362506,-0.00749705,0.02209149,0.01089599,0.00659528,-0.01705158,0.124
 48881,-0.00021296,0.00011394,0.00002135,0.00024440,-0.00000763,0.00006
 071,-0.00043406,0.00019947,0.00009582,0.00008135,-0.00019433,-0.000056
 52,0.00011354,-0.00060708,-0.00000906,0.00010898,0.00001532,0.00001007
 ,-0.00001894,0.00002551,-0.00002011,0.00001199,-0.00001503,0.00000651,
 0.00004651,-0.00006229,-0.00001578,-0.00004763,0.00000663,0.00000247,0
 .00006801,-0.00001777,-0.00001176,-0.00002359,0.00002160,-0.00000292,0
 .00008787,0.00000533,-0.00002287,-0.00003362,0.00009513,-0.00014122,0.
 00006533,0.00091125,-0.00011615,-0.00001934,-0.00001553,-0.00001132,-0
 .00001957,-0.00002070,0.00000729,0.00002169,0.00000537,-0.00002105,0.0
 0003243,-0.00000108,0.00003186,-0.00000933,-0.00000801,0.00000329,-0.0
 0001219,0.00000614,0.00000131,-0.00000851,-0.00000591,-0.00000496,-0.0
 0001115,0.00000862,0.00000415,-0.00000454,-0.00000512,-0.00000562,0.00
 000870,-0.00000572,0.00000563,-0.00003890,-0.00001819,0.00003900,0.000
 00200,0.00000225,0.00000049,0.00001013,-0.00000377,0.00000523,0.000004
 36,0.00000358,-0.00000317,-0.00006873,0.00000504,0.00002222,0.00001032
 ,-0.00000498,-0.00000535,0.00002204,0.00001672,-0.00000844,0.00000043,
 -0.00000045,0.00000158,0.00150054,0.00027667,-0.00431629,-0.00262063,-
 0.00510636,-0.00438366,-0.01594790,-0.00619107,0.03173638,-0.03595312,
 -0.06673681,0.06368631,0.01098841,0.00529976,-0.01821986,0.00252851,0.
 00057466,-0.00384838,0.03758734,0.07242692,0.00019880,-0.00008591,-0.0
 0002989,-0.00017446,0.00010803,0.00004180,0.00020369,-0.00009577,-0.00
 002931,-0.00003770,0.00008330,0.00001581,-0.00006626,0.00015532,0.0000
 6319,-0.00000773,-0.00000290,-0.00000703,-0.00000290,-0.00001141,-0.00
 001741,-0.00000546,0.00000624,0.00000611,-0.00004553,0.00005111,0.0000
 0940,0.00004220,-0.00000555,-0.00000189,-0.00006695,0.00001704,0.00001
 257,0.00003394,-0.00002240,-0.00000095,-0.00007985,-0.00000822,0.00001
 221,0.00000243,-0.00011817,-0.00003597,-0.00003240,-0.00016415,-0.0000
 8279,0.00000120,0.00000818,0.00000784,-0.00000033,0.00000518,-0.000003
 11,-0.00000791,-0.00000839,0.00001966,-0.00000533,-0.00000410,-0.00001
 490,0.00000383,0.00000344,-0.00000438,-0.00000313,-0.00000242,-0.00000
 161,0.00000632,0.00000527,0.00000685,0.00000818,-0.00000688,-0.0000037
 2,0.00001362,0.00001510,0.00000456,-0.00000898,0.00000965,-0.00000306,
 0.00002539,0.00003401,-0.00002231,-0.00000417,-0.00000713,-0.00000221,
 -0.00001331,0.00000283,-0.00000529,-0.00000934,-0.00000886,0.00000692,
 0.00008556,0.00000796,-0.00002248,-0.00001500,-0.00000007,0.00000350,-
 0.00003231,-0.00002677,0.00000956,-0.00000058,0.00000003,-0.00000086,-
 0.00133981,0.00053781,0.00094902,-0.00108988,0.00017559,-0.00061170,-0
 .00044063,-0.00322899,0.00262097,0.10985949,0.06058388,-0.22218124,0.0
 0062900,0.00004543,-0.00151685,0.01301548,0.00801862,-0.02206611,-0.12
 109894,-0.06451766,0.24072837,0.00002679,-0.00000493,0.00000700,0.0000
 0283,0.00009708,-0.00000774,-0.00004266,-0.00002747,0.00001457,0.00001
 486,0.00003358,-0.00000403,0.00000587,0.00002359,-0.00002876,0.0000073
 1,-0.00000440,0.00000636,-0.00000891,0.00000233,0.00000404,-0.00000111
 ,-0.00000481,-0.00000031,-0.00000704,0.00001232,-0.00000357,0.00000459
 ,0.00000557,-0.00000014,-0.00001853,0.00001740,0.00000210,0.00000714,-
 0.00000548,-0.00000481,-0.00001054,-0.00001889,-0.00001471,-0.00001355
 ,-0.00014503,0.00000014,-0.00000993,-0.00004183,0.00002755,-0.00000170
 ,0.00000421,0.00000040,0.00000133,0.00000909,-0.00000090,0.00001094,-0
 .00001351,0.00001958,0.00000395,-0.00000164,-0.00002307,0.00000264,0.0
 0000699,-0.00000286,-0.00000837,-0.00000136,0.00000059,0.00000058,0.00
 000339,0.00000210,-0.00000018,0.00000075,0.00000247,0.00000536,-0.0000
 0586,0.00003004,0.00000302,-0.00000433,0.00000305,0.00001159,-0.000020
 72,0.00001390,-0.00000228,-0.00000226,-0.00001132,-0.00001109,0.000006
 12,-0.00001040,0.00000151,0.00000623,-0.00001100,0.00003978,-0.0000298
 0,0.00000940,-0.00001013,0.00001496,-0.00000181,-0.00001140,0.00000868
 ,-0.00000553,-0.00000027,0.00000106,0.00000118,0.00048519,0.00037749,-
 0.00032087,0.00123503,0.00014727,-0.00063001,-0.00117283,-0.00155382,0
 .00016117,-0.01479634,-0.00725282,0.02412786,-0.11354606,-0.03737090,0
 .11091120,0.00055563,-0.00091848,-0.00043451,-0.00392181,0.00385388,-0
 .00000890,0.12520886,0.00014509,-0.00006692,-0.00002300,-0.00013798,0.
 00007714,0.00002123,0.00018321,-0.00013427,-0.00002666,-0.00002696,0.0
 0011247,0.00001660,-0.00004111,0.00021873,0.00004369,-0.00002269,-0.00
 000820,0.00000037,-0.00000772,-0.00002243,-0.00004122,-0.00001531,0.00
 001791,0.00001440,-0.00003334,0.00004480,0.00000835,0.00003488,0.00000
 272,-0.00000451,-0.00005953,0.00002419,0.00001065,0.00002310,-0.000021
 85,-0.00000665,-0.00005656,-0.00001321,0.00000897,0.00000975,-0.000121
 22,-0.00002042,-0.00005307,-0.00030014,-0.00003412,0.00000171,0.000014
 88,0.00001192,0.00000207,0.00000963,-0.00000705,-0.00001854,-0.0000203
 4,0.00004213,-0.00001612,-0.00000525,-0.00002203,0.00000658,0.00000682
 ,-0.00000544,0.00000536,-0.00000783,-0.00000229,0.00001451,0.00000792,
 0.00000702,0.00000622,-0.00000450,-0.00000128,0.00001464,-0.00000367,0
 .00002712,-0.00000202,0.00000046,-0.00000010,0.00001935,-0.00000288,-0
 .00000667,-0.00000498,-0.00000211,-0.00000846,-0.00002008,0.00000930,-
 0.00001258,-0.00000418,0.00000213,-0.00000544,0.00008848,-0.00002962,-
 0.00000807,-0.00001812,0.00001847,0.00000257,-0.00002935,-0.00000553,0
 .00000093,-0.00000013,0.00000079,0.00000013,-0.00074769,0.00023609,0.0
 0032852,-0.00078336,-0.00029794,0.00050495,0.00154420,0.00050670,-0.00
 109227,0.00978449,0.00567708,-0.01756938,-0.03848914,-0.06781271,0.063
 45705,-0.00082858,0.00083719,0.00038346,0.00345757,-0.00231052,-0.0006
 9691,0.03825456,0.07107083,0.00006006,-0.00003868,-0.00001435,-0.00013
 468,-0.00006893,0.00001460,0.00022128,-0.00005718,-0.00003218,-0.00005
 907,0.00003043,0.00001418,-0.00009045,0.00010395,0.00005069,0.00006941
 ,0.00000275,-0.00000799,-0.00002402,-0.00000872,-0.00003883,-0.0000063
 3,0.00000141,0.00001099,-0.00001212,0.00001875,0.00000538,0.00001781,-
 0.00000397,-0.00000162,-0.00002274,-0.00000121,0.00000364,0.00000663,-
 0.00000734,-0.00000033,-0.00002362,0.00000685,0.00001052,0.00002856,0.
 00009809,-0.00000619,-0.00000819,-0.00009010,-0.00004349,-0.00001233,0
 .00001525,0.00000757,-0.00001043,0.00000442,0.00000102,0.00000677,-0.0
 0004255,0.00004957,0.00000674,-0.00001636,-0.00004241,0.00000361,0.000
 00629,-0.00000560,-0.00002467,-0.00000193,-0.00000423,0.00001054,0.000
 01414,0.00001267,0.00000577,-0.00000373,-0.00000275,0.00000159,0.00001
 233,-0.00000402,-0.00000348,0.00000300,-0.00000127,0.00000022,0.000007
 63,-0.00000611,-0.00000038,-0.00000486,-0.00000015,-0.00000008,-0.0000
 0207,0.00000079,-0.00000402,-0.00000632,0.00000540,0.00001853,0.000012
 82,-0.00000890,-0.00000198,-0.00000578,0.00000129,-0.00000774,-0.00001
 221,0.00000407,0.00000059,-0.00000022,-0.00000089,-0.00085308,-0.00050
 289,-0.00003708,-0.00200699,0.00028757,0.00092449,0.00264949,0.0015869
 3,-0.00010448,0.00123161,-0.00005985,-0.00248802,0.11108167,0.06119041
 ,-0.23217311,0.00023421,-0.00043621,0.00069576,0.00035293,-0.00041407,
 0.00153193,-0.12235888,-0.06849890,0.24876868,0.00007432,-0.00000122,-
 0.00000464,0.00010860,0.00031586,0.00003004,-0.00026492,0.00005061,0.0
 0002311,0.00007807,0.00000658,-0.00000452,0.00007727,-0.00010148,-0.00
 001504,-0.00005304,-0.00000980,0.00000489,0.00001644,0.00002593,-0.000
 00387,0.00001110,-0.00001172,-0.00000067,-0.00001799,0.00001121,0.0000
 0201,0.00000549,0.00000935,0.00000085,-0.00001893,0.00001377,0.0000037
 1,0.00001474,-0.00000083,-0.00000170,-0.00002877,-0.00003117,-0.000002
 15,-0.00010369,-0.00045813,-0.00004819,0.00000287,0.00009796,0.0000069
 9,0.00000986,-0.00000379,-0.00000507,0.00001015,-0.00000617,0.00000215
 ,-0.00000263,0.00001855,-0.00002322,0.00000315,0.00001434,0.00003081,-
 0.00000626,-0.00000781,0.00000573,0.00001187,0.00000397,-0.00000080,-0
 .00000611,-0.00000480,-0.00000648,-0.00000311,0.00000168,0.00000058,0.
 00000212,0.00000281,0.00001201,-0.00000130,0.00000070,0.00000018,0.000
 03354,-0.00000650,-0.00000299,-0.00000148,-0.00000362,-0.00000538,-0.0
 0000532,0.00000203,-0.00000472,-0.00000106,0.00000024,-0.00000256,0.00
 003349,-0.00000485,-0.00000098,-0.00000754,0.00000495,0.00000065,-0.00
 001087,-0.00000355,0.00000007,-0.00000174,0.00000083,0.00000032,-0.000
 03316,0.00319917,0.00032843,0.00230029,-0.00083453,-0.00020676,-0.0072
 8146,-0.00132787,0.00042332,0.00885237,0.02971462,0.00239330,-0.065268
 14,-0.06516265,-0.00571088,0.00101180,-0.00087430,-0.00057776,0.001045
 42,-0.00100253,0.00021578,-0.00495712,-0.01457646,-0.00345319,0.069743
 43,-0.00043980,0.00016208,0.00004855,0.00020554,-0.00057303,-0.0000805
 5,-0.00005937,0.00029934,0.00004029,-0.00004380,-0.00030554,-0.0000336
 4,-0.00001250,-0.00036988,-0.00004439,0.00011502,0.00003523,-0.0000004
 4,-0.00000327,0.00002365,0.00000321,0.00001703,-0.00001294,-0.00000261
 ,0.00010083,-0.00012740,-0.00002213,-0.00008768,-0.00002740,0.00000766
 ,0.00018775,-0.00009861,-0.00003825,-0.00008965,0.00006867,0.00002090,
 0.00017641,0.00008517,0.00000058,0.00007603,0.00091591,0.00010188,0.00
 014533,0.00058055,0.00005723,-0.00001978,-0.00002225,-0.00001914,-0.00
 001772,-0.00002709,0.00001324,0.00002358,0.00001961,-0.00004151,0.0000
 3222,0.00000705,0.00004123,-0.00001212,-0.00001514,0.00000943,-0.00001
 173,0.00001404,0.00000323,-0.00001306,-0.00001185,-0.00001193,-0.00001
 040,0.00000687,0.00000067,-0.00005471,0.00002918,-0.00009705,-0.000002
 05,0.00000301,0.00000001,-0.00009042,0.00004513,0.00000974,0.00001771,
 -0.00000059,0.00002693,0.00007629,-0.00003718,0.00004572,0.00001284,-0
 .00001266,0.00002289,-0.00031952,0.00012470,0.00003339,0.00006846,-0.0
 0007848,-0.00001391,0.00010665,0.00000890,-0.00000565,0.00000207,-0.00
 000446,-0.00000055,0.00148184,-0.00337660,-0.00044061,0.00040224,-0.00
 102422,-0.00019879,0.00223823,0.00252864,0.00000528,-0.00689499,-0.016
 77796,-0.00112607,-0.06494984,-0.29100160,-0.02038491,0.00018686,0.000
 30998,0.00068194,0.00013106,0.00051773,-0.00061613,-0.00186403,-0.0077
 6036,-0.00070326,0.06997624,0.31806549,-0.00005115,0.00001743,0.000009
 00,0.00001327,-0.00008388,-0.00001439,0.00001319,0.00002930,-0.0000013
 1,-0.00001060,-0.00003369,-0.00000379,-0.00000572,-0.00003709,0.000028
 92,0.00001733,0.00000353,0.00000491,-0.00000441,0.00000740,-0.00003838
 ,0.00000186,-0.00000230,0.00001185,0.00001252,-0.00001449,-0.00000316,
 -0.00000950,-0.00000474,0.00000032,0.00001864,-0.00000998,-0.00000533,
 -0.00001101,0.00000862,0.00000329,0.00002160,0.00001082,-0.00000762,0.
 00001561,0.00013291,0.00000969,0.00001397,0.00006093,-0.00002379,-0.00
 000470,0.00000212,-0.00000083,-0.00000108,-0.00000636,0.00000060,-0.00
 000126,-0.00000840,0.00000779,0.00000903,0.00000516,0.00000918,-0.0000
 0354,-0.00000374,0.00000109,-0.00000278,0.00000170,-0.00000255,0.00000
 217,0.00000183,0.00000005,-0.00000073,0.00000073,0.00000027,-0.0000056
 4,0.00000686,-0.00000374,-0.00000049,-0.00000005,0.00000192,-0.0000120
 5,0.00000485,0.00000457,0.00000157,-0.00000289,-0.00000080,0.00000838,
 -0.00000453,0.00000349,0.00000154,-0.00000143,0.00000049,-0.00003457,0
 .00001175,0.00000878,0.00000732,-0.00000834,-0.00000400,0.00001155,0.0
 0000190,-0.00000334,0.00000031,-0.00000034,0.00000060,0.00017741,-0.00
 060045,-0.00000713,-0.00005185,-0.00013934,0.00061820,0.00077434,0.000
 26401,0.00059629,-0.00149159,-0.00382111,-0.00162313,-0.00566307,-0.02
 034293,-0.05194839,0.00014525,0.00040735,0.00010265,-0.00027396,-0.000
 18426,-0.00012498,0.00559540,0.02688606,0.00417540,0.00561895,0.023182
 55,0.04915118,0.00001231,0.00000351,-0.00001063,0.00002687,0.00010190,
 0.00002963,-0.00007879,-0.00001481,-0.00001306,0.00002503,0.00002728,0
 .00000983,0.00002335,-0.00000240,0.00003309,-0.00000247,-0.00000368,-0
 .00001154,-0.00000622,0.00000351,0.00000155,-0.00000080,-0.00000490,-0
 .00000169,-0.00000498,0.00000831,0.00000602,0.00000055,0.00000732,0.00
 000202,-0.00000783,0.00001391,0.00000423,0.00000670,-0.00000694,0.0000
 0089,-0.00000569,-0.00002007,0.00001249,-0.00002015,-0.00015424,-0.000
 03315,-0.00001133,-0.00001561,-0.00003694,0.00000357,0.00000797,0.0000
 0357,-0.00000033,0.00000248,0.00000151,0.00000396,-0.00000332,0.000013
 80,0.00000844,-0.00000379,-0.00001883,-0.00000039,0.00000220,-0.000000
 25,-0.00000488,-0.00000097,0.00000020,0.00000270,0.00000507,0.00000350
 ,-0.00000171,0.00000152,-0.00000215,0.00000858,-0.00002161,-0.00000361
 ,0.00000388,-0.00000368,-0.00000474,0.00000878,-0.00001746,-0.00001956
 ,-0.00000203,0.00001141,0.00000737,-0.00001162,0.00000801,-0.00000268,
 -0.00000080,0.00000535,-0.00000029,0.00003270,-0.00002483,-0.00001685,
 -0.00000771,0.00001731,0.00000977,-0.00001076,0.00000464,0.00000671,-0
 .00000033,0.00000061,-0.00000107,0.00067660,0.00038051,0.00030966,0.00
 162998,-0.00011678,0.00057976,-0.00163487,-0.00170663,-0.00034890,-0.0
 1816793,-0.00220481,-0.02249442,-0.15005619,-0.01808692,-0.13112445,-0
 .00373334,0.00363302,0.00162496,0.00056833,-0.00091153,0.00025291,0.01
 091704,0.00239725,0.01311045,-0.00537172,-0.00078380,-0.00484150,0.165
 18350,0.00016085,-0.00007707,-0.00001337,-0.00016699,0.00006587,0.0000
 1360,0.00022796,-0.00014787,-0.00003267,-0.00003927,0.00012087,0.00001
 499,-0.00006120,0.00024751,0.00001160,-0.00000982,-0.00000596,-0.00000
 498,-0.00000611,-0.00004154,0.00005033,-0.00001827,0.00002189,-0.00001
 145,-0.00003606,0.00004920,0.00000662,0.00003738,0.00000219,-0.0000031
 7,-0.00006407,0.00002476,0.00001102,0.00002566,-0.00002501,-0.00000498
 ,-0.00006493,-0.00000981,-0.00000618,0.00001573,-0.00010727,-0.0000051
 0,-0.00005361,-0.00032525,-0.00001941,0.00000057,0.00000685,0.00001010
 ,-0.00000195,0.00002148,-0.00000676,-0.00000803,-0.00001306,0.00002256
 ,-0.00002903,-0.00001529,-0.00005277,0.00001613,0.00001378,-0.00000843
 ,0.00000103,-0.00000874,0.00000073,0.00000692,0.00000510,0.00000759,0.
 00000756,-0.00000552,0.00000007,0.00001312,-0.00000021,0.00002895,-0.0
 0000216,0.00000106,0.00000091,0.00002117,-0.00000305,0.00000470,-0.000
 00452,-0.00000397,-0.00000977,-0.00001976,0.00000873,-0.00001296,-0.00
 000408,0.00000127,-0.00000549,0.00009327,-0.00002980,-0.00000805,-0.00
 001888,0.00001735,0.00000208,-0.00003081,-0.00000622,0.00000094,-0.000
 00003,0.00000077,0.00000024,-0.00098426,0.00020056,-0.00015022,-0.0012
 6125,-0.00020240,-0.00055853,0.00223024,0.00057699,0.00095198,0.012149
 77,0.00190308,0.01649100,-0.01951495,-0.05007509,-0.02425684,0.0033697
 8,-0.00227941,-0.00064545,-0.00081092,0.00080068,-0.00023523,0.0064058
 0,0.00005523,0.00758432,-0.01903765,-0.00218569,-0.02573749,0.01746567
 ,0.05142302,-0.00003483,0.00002606,0.00000099,0.00010331,0.00006227,0.
 00000935,-0.00017026,0.00003496,0.00000741,0.00004953,-0.00001383,-0.0
 0000063,0.00007898,-0.00006691,0.00000583,-0.00007026,-0.00000517,0.00
 000989,0.00001743,0.00001551,-0.00004367,0.00000457,-0.00000037,0.0000
 1219,0.00000645,-0.00001108,-0.00000029,-0.00001119,0.00000229,0.00000
 147,0.00001412,0.00000294,-0.00000004,-0.00000364,0.00000435,-0.000000
 43,0.00001545,-0.00000795,0.00000576,-0.00002488,-0.00009021,-0.000020
 08,-0.00000233,0.00004318,-0.00001824,0.00000995,-0.00000263,-0.000000
 21,0.00001243,-0.00001301,-0.00000130,-0.00001382,0.00001866,-0.000024
 36,-0.00000568,0.00002813,0.00005195,-0.00000592,-0.00001620,0.0000078
 0,0.00002391,0.00000222,-0.00000928,-0.00000247,-0.00000183,-0.0000050
 6,-0.00000448,0.00000279,-0.00000053,0.00000221,-0.00001494,-0.0000104
 8,0.00000213,-0.00000196,-0.00000140,0.00000121,-0.00000378,-0.0000039
 6,-0.00000014,0.00000896,0.00000808,-0.00000187,0.00000294,0.00000207,
 0.00000107,0.00000387,0.00000113,-0.00000723,-0.00001083,-0.00000817,0
 .00000072,0.00000874,0.00000560,0.00000189,0.00000571,0.00000332,-0.00
 000065,0.00000019,-0.00000029,0.00058867,0.00049444,-0.00011106,0.0016
 8307,-0.00053681,0.00034053,-0.00206207,-0.00125090,0.00015021,0.00371
 964,0.00135887,0.00469327,-0.13159181,-0.02212555,-0.21361744,0.001177
 37,-0.00096915,0.00128778,-0.00038472,0.00059882,0.00073979,-0.0170559
 8,-0.00368268,-0.02126466,0.00097769,-0.00047504,-0.00093387,0.1429624
 2,0.02657495,0.22873105\\0.00000282,-0.00000112,-0.00000036,-0.0000043
 5,-0.00000102,-0.00000064,0.00000145,-0.00000165,-0.00000156,0.0000021
 5,-0.00000121,-0.00000139,-0.00000058,-0.00000011,-0.00000361,-0.00000
 179,0.00000134,0.00000064,-0.00000151,0.00000008,-0.00000160,-0.000000
 47,-0.00000020,-0.00000053,-0.00000012,0.00000090,-0.00000049,0.000000
 79,0.00000057,0.00000011,-0.00000074,0.00000129,-0.00000052,0.00000014
 ,-0.00000008,0.00000058,-0.00000022,0.00000068,0.00000040,0.00000054,0
 .00000240,0.00000264,-0.00000006,-0.00000122,0.00000376,0.00000084,0.0
 0000130,-0.00000122,0.00000072,0.00000035,-0.00000177,-0.00000046,-0.0
 0000200,0.00000076,-0.00000064,-0.00000075,-0.00000207,-0.00000026,-0.
 00000013,-0.00000126,-0.00000053,-0.00000018,-0.00000206,0.00000042,0.
 00000027,-0.00000151,0.00000022,0.00000010,-0.00000111,0.00000091,0.00
 000045,0.00000062,0.00000007,0.00000048,0.00000081,0.00000024,-0.00000
 020,0.00000053,-0.00000008,-0.00000082,0.00000047,-0.00000068,0.000000
 14,0.00000015,-0.00000041,-0.00000043,-0.00000011,0.00000209,0.0000012
 9,-0.00000067,0.00000176,0.00000150,-0.00000048,-0.00000172,-0.0000027
 8,0.00000171,0.00000031,0.00000008,-0.00000095,-0.00000106,-0.00000021
 ,-0.00000034,0.00000283,-0.00000189,-0.00000182,-0.00000108,0.00000350
 ,0.00000209,0.00000189,-0.00000016,0.00000089,-0.00000120,0.00000064,0
 .00000249,-0.00000135,-0.00000067,0.00000236,-0.00000055,0.00000013,0.
 00000177,-0.00000005,-0.00000047,0.00000148,-0.00000078,-0.00000053,0.
 00000169,0.00000050,0.00000035,0.00000011\\\@


 WOE UNTO THEM THAT CALL EVIL GOOD, AND GOOD EVIL      
 Job cpu time:       0 days 14 hours 14 minutes 24.4 seconds.
 File lengths (MBytes):  RWF=   1511 Int=      0 D2E=      0 Chk=     27 Scr=      1
 Normal termination of Gaussian 09 at Thu Nov 14 23:44:27 2019.
pbs_rusage has been removed.
Please contact help@nci.org.au if you require this functionality.
