 Entering Gaussian System, Link 0=/apps/gaussian/g09e01/g09/g09
 Initial command:
 /apps/gaussian/g09e01/g09/l1.exe "/jobfs/local/3595049.r-man2/Gau-32206.inp" -scrdir="/jobfs/local/3595049.r-man2/"
 Entering Link 1 = /apps/gaussian/g09e01/g09/l1.exe PID=     32207.
  
 Copyright (c) 1988,1990,1992,1993,1995,1998,2003,2009,2015,
            Gaussian, Inc.  All Rights Reserved.
  
 This is part of the Gaussian(R) 09 program.  It is based on
 the Gaussian(R) 03 system (copyright 2003, Gaussian, Inc.),
 the Gaussian(R) 98 system (copyright 1998, Gaussian, Inc.),
 the Gaussian(R) 94 system (copyright 1995, Gaussian, Inc.),
 the Gaussian 92(TM) system (copyright 1992, Gaussian, Inc.),
 the Gaussian 90(TM) system (copyright 1990, Gaussian, Inc.),
 the Gaussian 88(TM) system (copyright 1988, Gaussian, Inc.),
 the Gaussian 86(TM) system (copyright 1986, Carnegie Mellon
 University), and the Gaussian 82(TM) system (copyright 1983,
 Carnegie Mellon University). Gaussian is a federally registered
 trademark of Gaussian, Inc.
  
 This software contains proprietary and confidential information,
 including trade secrets, belonging to Gaussian, Inc.
  
 This software is provided under written license and may be
 used, copied, transmitted, or stored only in accord with that
 written license.
  
 The following legend is applicable only to US Government
 contracts under FAR:
  
                    RESTRICTED RIGHTS LEGEND
  
 Use, reproduction and disclosure by the US Government is
 subject to restrictions as set forth in subparagraphs (a)
 and (c) of the Commercial Computer Software - Restricted
 Rights clause in FAR 52.227-19.
  
 Gaussian, Inc.
 340 Quinnipiac St., Bldg. 40, Wallingford CT 06492
  
  
 ---------------------------------------------------------------
 Warning -- This program may not be used in any manner that
 competes with the business of Gaussian, Inc. or will provide
 assistance to any competitor of Gaussian, Inc.  The licensee
 of this program is prohibited from giving any competitor of
 Gaussian, Inc. access to this program.  By using this program,
 the user acknowledges that Gaussian, Inc. is engaged in the
 business of creating and licensing software in the field of
 computational chemistry and represents and warrants to the
 licensee that it is not a competitor of Gaussian, Inc. and that
 it will not use this program in any manner prohibited above.
 ---------------------------------------------------------------
  

 Cite this work as:
 Gaussian 09, Revision E.01,
 M. J. Frisch, G. W. Trucks, H. B. Schlegel, G. E. Scuseria, 
 M. A. Robb, J. R. Cheeseman, G. Scalmani, V. Barone, B. Mennucci, 
 G. A. Petersson, H. Nakatsuji, M. Caricato, X. Li, H. P. Hratchian, 
 A. F. Izmaylov, J. Bloino, G. Zheng, J. L. Sonnenberg, M. Hada, 
 M. Ehara, K. Toyota, R. Fukuda, J. Hasegawa, M. Ishida, T. Nakajima, 
 Y. Honda, O. Kitao, H. Nakai, T. Vreven, J. A. Montgomery, Jr., 
 J. E. Peralta, F. Ogliaro, M. Bearpark, J. J. Heyd, E. Brothers, 
 K. N. Kudin, V. N. Staroverov, T. Keith, R. Kobayashi, J. Normand, 
 K. Raghavachari, A. Rendell, J. C. Burant, S. S. Iyengar, J. Tomasi, 
 M. Cossi, N. Rega, J. M. Millam, M. Klene, J. E. Knox, J. B. Cross, 
 V. Bakken, C. Adamo, J. Jaramillo, R. Gomperts, R. E. Stratmann, 
 O. Yazyev, A. J. Austin, R. Cammi, C. Pomelli, J. W. Ochterski, 
 R. L. Martin, K. Morokuma, V. G. Zakrzewski, G. A. Voth, 
 P. Salvador, J. J. Dannenberg, S. Dapprich, A. D. Daniels, 
 O. Farkas, J. B. Foresman, J. V. Ortiz, J. Cioslowski, 
 and D. J. Fox, Gaussian, Inc., Wallingford CT, 2013.
 
 ******************************************
 Gaussian 09:  ES64L-G09RevE.01 30-Nov-2015
                14-Nov-2019 
 ******************************************
 %chk=CP21_carboxy.M062X_6-311pGd_opt_water_GD3.chk
 %mem=196608000
 %nproc=8
 Will use up to    8 processors via shared memory.
 ----------------------------------------------------------------------
 # M062X/6-311+G* SCF=Tight INT(grid=ultrafine) OPT IOP(2/17=4) Empiric
 alDispersion=GD3 SCRF=(SMD,Solvent=h2o) maxdisk=3221225472
 ----------------------------------------------------------------------
 1/14=-1,18=20,19=15,26=4,38=1/1,3;
 2/9=110,12=2,17=4,18=5,40=1/2;
 3/5=4,6=6,7=11,11=2,16=1,25=1,30=1,70=32201,71=1,72=1,74=-55,75=-5,124=31/1,2,3;
 4//1;
 5/5=2,32=2,38=5,53=1/2;
 6/7=2,8=2,9=2,10=2,28=1/1;
 7//1,2,3,16;
 1/14=-1,18=20,19=15,26=4/3(2);
 2/9=110,17=4/2;
 99//99;
 2/9=110,17=4/2;
 3/5=4,6=6,7=11,11=2,16=1,25=1,30=1,70=32205,71=1,72=1,74=-55,75=-5,124=31/1,2,3;
 4/5=5,16=3,69=1/1;
 5/5=2,32=2,38=5,53=1/2;
 7//1,2,3,16;
 1/14=-1,18=20,19=15,26=4/3(-5);
 2/9=110,17=4/2;
 6/7=2,8=2,9=2,10=2,19=2,28=1/1;
 99/9=1/99;
 -----------------------------------------
 CP21_carboxy.M062X_6-311pGd_opt_water_GD3
 -----------------------------------------
 Symbolic Z-matrix:
 Charge = -1 Multiplicity = 1
 C                    -6.21348   1.31658   0.3178 
 N                    -5.00445   0.66519   0.20033 
 C                    -3.73409   1.22629   0.18452 
 O                    -3.52146   2.43143   0.35624 
 N                    -2.75395   0.33047  -0.01897 
 C                    -1.36052   0.75033  -0.06567 
 C                    -0.4592   -0.44542  -0.32861 
 C                     1.00573  -0.02904  -0.37364 
 C                    -6.3766    2.71436   0.26265 
 C                    -7.63857   3.26767   0.37842 
 C                    -8.7441    2.43527   0.55206 
 C                    -8.61009   1.04409   0.59396 
 C                    -7.35197   0.497     0.48047 
 H                    -5.04834  -0.36511   0.20488 
 H                    -2.97867  -0.64332  -0.24596 
 H                    -1.08911   1.22396   0.88258 
 H                    -1.22562   1.5008   -0.85121 
 H                    -0.74619  -0.91293  -1.27576 
 H                    -0.61416  -1.19423   0.4545 
 H                     1.18083   0.70548  -1.16413 
 H                     1.65368  -0.88642  -0.56516 
 H                     1.31579   0.41958   0.57379 
 H                    -5.52454   3.36032   0.12786 
 C                    -10.87449   3.22492  -1.14406 
 H                    -9.47577   0.4052    0.72382 
 H                    -7.22655  -0.5788    0.52075 
 F                    -10.89174   2.01036  -1.66928 
 F                    -12.09072   3.74464  -1.19474 
 F                    -10.03991   3.98906  -1.83026 
 S                    -10.3323   3.13804   0.63868 
 O                    -10.26876   4.52901   1.06516 
 O                    -11.27673   2.22083   1.26139 
 H                    -7.75966   4.34408   0.33634 
 O                    -5.19011  -2.16698   0.32926 
 O                    -3.24003  -2.44055  -0.71165 
 C                    -4.30772  -2.88798  -0.22092 
 C                    -4.58816  -4.38552  -0.27442 
 C                    -3.50319  -5.22535  -0.92941 
 H                    -5.54361  -4.51057  -0.79302 
 H                    -4.76546  -4.71225   0.7547 
 H                    -3.34051  -4.92558  -1.96662 
 H                    -3.78149  -6.28139  -0.92587 
 H                    -2.55259  -5.12787  -0.40108 
 
 Add virtual bond connecting atoms O34        and H14        Dist= 3.42D+00.
 Add virtual bond connecting atoms O35        and H15        Dist= 3.54D+00.

 GradGradGradGradGradGradGradGradGradGradGradGradGradGradGradGradGradGrad
 Berny optimization.
 Initialization pass.
                           ----------------------------
                           !    Initial Parameters    !
                           ! (Angstroms and Degrees)  !
 --------------------------                            --------------------------
 ! Name  Definition              Value          Derivative Info.                !
 --------------------------------------------------------------------------------
 ! R1    R(1,2)                  1.3784         estimate D2E/DX2                !
 ! R2    R(1,9)                  1.4083         estimate D2E/DX2                !
 ! R3    R(1,13)                 1.4122         estimate D2E/DX2                !
 ! R4    R(2,3)                  1.3888         estimate D2E/DX2                !
 ! R5    R(2,14)                 1.0312         estimate D2E/DX2                !
 ! R6    R(3,4)                  1.2357         estimate D2E/DX2                !
 ! R7    R(3,5)                  1.3433         estimate D2E/DX2                !
 ! R8    R(5,6)                  1.4561         estimate D2E/DX2                !
 ! R9    R(5,15)                 1.0248         estimate D2E/DX2                !
 ! R10   R(6,7)                  1.5203         estimate D2E/DX2                !
 ! R11   R(6,16)                 1.0941         estimate D2E/DX2                !
 ! R12   R(6,17)                 1.0948         estimate D2E/DX2                !
 ! R13   R(7,8)                  1.5236         estimate D2E/DX2                !
 ! R14   R(7,18)                 1.0945         estimate D2E/DX2                !
 ! R15   R(7,19)                 1.0945         estimate D2E/DX2                !
 ! R16   R(8,20)                 1.0932         estimate D2E/DX2                !
 ! R17   R(8,21)                 1.0916         estimate D2E/DX2                !
 ! R18   R(8,22)                 1.0932         estimate D2E/DX2                !
 ! R19   R(9,10)                 1.3828         estimate D2E/DX2                !
 ! R20   R(9,23)                 1.0777         estimate D2E/DX2                !
 ! R21   R(10,11)                1.3947         estimate D2E/DX2                !
 ! R22   R(10,33)                1.084          estimate D2E/DX2                !
 ! R23   R(11,12)                1.3983         estimate D2E/DX2                !
 ! R24   R(11,30)                1.7389         estimate D2E/DX2                !
 ! R25   R(12,13)                1.3766         estimate D2E/DX2                !
 ! R26   R(12,25)                1.0837         estimate D2E/DX2                !
 ! R27   R(13,26)                1.0838         estimate D2E/DX2                !
 ! R28   R(14,34)                1.8117         estimate D2E/DX2                !
 ! R29   R(15,35)                1.8749         estimate D2E/DX2                !
 ! R30   R(24,27)                1.3234         estimate D2E/DX2                !
 ! R31   R(24,28)                1.3236         estimate D2E/DX2                !
 ! R32   R(24,29)                1.3234         estimate D2E/DX2                !
 ! R33   R(24,30)                1.8654         estimate D2E/DX2                !
 ! R34   R(30,31)                1.4563         estimate D2E/DX2                !
 ! R35   R(30,32)                1.4564         estimate D2E/DX2                !
 ! R36   R(34,36)                1.2654         estimate D2E/DX2                !
 ! R37   R(35,36)                1.2574         estimate D2E/DX2                !
 ! R38   R(36,37)                1.5245         estimate D2E/DX2                !
 ! R39   R(37,38)                1.5204         estimate D2E/DX2                !
 ! R40   R(37,39)                1.0943         estimate D2E/DX2                !
 ! R41   R(37,40)                1.0942         estimate D2E/DX2                !
 ! R42   R(38,41)                1.0918         estimate D2E/DX2                !
 ! R43   R(38,42)                1.0921         estimate D2E/DX2                !
 ! R44   R(38,43)                1.0919         estimate D2E/DX2                !
 ! A1    A(2,1,9)              124.5622         estimate D2E/DX2                !
 ! A2    A(2,1,13)             116.2758         estimate D2E/DX2                !
 ! A3    A(9,1,13)             119.1523         estimate D2E/DX2                !
 ! A4    A(1,2,3)              127.7608         estimate D2E/DX2                !
 ! A5    A(1,2,14)             115.7498         estimate D2E/DX2                !
 ! A6    A(3,2,14)             116.2708         estimate D2E/DX2                !
 ! A7    A(2,3,4)              123.3535         estimate D2E/DX2                !
 ! A8    A(2,3,5)              113.5588         estimate D2E/DX2                !
 ! A9    A(4,3,5)              123.0828         estimate D2E/DX2                !
 ! A10   A(3,5,6)              120.7177         estimate D2E/DX2                !
 ! A11   A(3,5,15)             120.4778         estimate D2E/DX2                !
 ! A12   A(6,5,15)             118.4722         estimate D2E/DX2                !
 ! A13   A(5,6,7)              110.2493         estimate D2E/DX2                !
 ! A14   A(5,6,16)             109.5371         estimate D2E/DX2                !
 ! A15   A(5,6,17)             109.7918         estimate D2E/DX2                !
 ! A16   A(7,6,16)             110.0776         estimate D2E/DX2                !
 ! A17   A(7,6,17)             109.9998         estimate D2E/DX2                !
 ! A18   A(16,6,17)            107.131          estimate D2E/DX2                !
 ! A19   A(6,7,8)              111.1118         estimate D2E/DX2                !
 ! A20   A(6,7,18)             109.2789         estimate D2E/DX2                !
 ! A21   A(6,7,19)             109.2937         estimate D2E/DX2                !
 ! A22   A(8,7,18)             110.075          estimate D2E/DX2                !
 ! A23   A(8,7,19)             110.1345         estimate D2E/DX2                !
 ! A24   A(18,7,19)            106.8457         estimate D2E/DX2                !
 ! A25   A(7,8,20)             111.0383         estimate D2E/DX2                !
 ! A26   A(7,8,21)             111.1767         estimate D2E/DX2                !
 ! A27   A(7,8,22)             111.0538         estimate D2E/DX2                !
 ! A28   A(20,8,21)            107.8059         estimate D2E/DX2                !
 ! A29   A(20,8,22)            107.7902         estimate D2E/DX2                !
 ! A30   A(21,8,22)            107.8204         estimate D2E/DX2                !
 ! A31   A(1,9,10)             119.9713         estimate D2E/DX2                !
 ! A32   A(1,9,23)             120.5444         estimate D2E/DX2                !
 ! A33   A(10,9,23)            119.4841         estimate D2E/DX2                !
 ! A34   A(9,10,11)            119.6699         estimate D2E/DX2                !
 ! A35   A(9,10,33)            119.7373         estimate D2E/DX2                !
 ! A36   A(11,10,33)           120.5926         estimate D2E/DX2                !
 ! A37   A(10,11,12)           121.4379         estimate D2E/DX2                !
 ! A38   A(10,11,30)           119.2721         estimate D2E/DX2                !
 ! A39   A(12,11,30)           119.2185         estimate D2E/DX2                !
 ! A40   A(11,12,13)           118.7196         estimate D2E/DX2                !
 ! A41   A(11,12,25)           120.9033         estimate D2E/DX2                !
 ! A42   A(13,12,25)           120.3739         estimate D2E/DX2                !
 ! A43   A(1,13,12)            121.0404         estimate D2E/DX2                !
 ! A44   A(1,13,26)            119.1463         estimate D2E/DX2                !
 ! A45   A(12,13,26)           119.8125         estimate D2E/DX2                !
 ! A46   A(27,24,28)           109.4631         estimate D2E/DX2                !
 ! A47   A(27,24,29)           109.4126         estimate D2E/DX2                !
 ! A48   A(27,24,30)           109.8979         estimate D2E/DX2                !
 ! A49   A(28,24,29)           109.4454         estimate D2E/DX2                !
 ! A50   A(28,24,30)           108.7815         estimate D2E/DX2                !
 ! A51   A(29,24,30)           109.8247         estimate D2E/DX2                !
 ! A52   A(11,30,24)           103.691          estimate D2E/DX2                !
 ! A53   A(11,30,31)           111.1468         estimate D2E/DX2                !
 ! A54   A(11,30,32)           111.0423         estimate D2E/DX2                !
 ! A55   A(24,30,31)           104.364          estimate D2E/DX2                !
 ! A56   A(24,30,32)           104.4467         estimate D2E/DX2                !
 ! A57   A(31,30,32)           120.3067         estimate D2E/DX2                !
 ! A58   A(14,34,36)           118.8351         estimate D2E/DX2                !
 ! A59   A(15,35,36)           111.2561         estimate D2E/DX2                !
 ! A60   A(34,36,35)           123.9918         estimate D2E/DX2                !
 ! A61   A(34,36,37)           116.5321         estimate D2E/DX2                !
 ! A62   A(35,36,37)           119.4762         estimate D2E/DX2                !
 ! A63   A(36,37,38)           115.2427         estimate D2E/DX2                !
 ! A64   A(36,37,39)           106.828          estimate D2E/DX2                !
 ! A65   A(36,37,40)           106.8653         estimate D2E/DX2                !
 ! A66   A(38,37,39)           110.8419         estimate D2E/DX2                !
 ! A67   A(38,37,40)           110.8474         estimate D2E/DX2                !
 ! A68   A(39,37,40)           105.6722         estimate D2E/DX2                !
 ! A69   A(37,38,41)           111.3419         estimate D2E/DX2                !
 ! A70   A(37,38,42)           110.5419         estimate D2E/DX2                !
 ! A71   A(37,38,43)           111.3153         estimate D2E/DX2                !
 ! A72   A(41,38,42)           107.8504         estimate D2E/DX2                !
 ! A73   A(41,38,43)           107.784          estimate D2E/DX2                !
 ! A74   A(42,38,43)           107.8546         estimate D2E/DX2                !
 ! A75   L(2,14,34,5,-1)       182.3645         estimate D2E/DX2                !
 ! A76   L(5,15,35,7,-1)       175.2807         estimate D2E/DX2                !
 ! A77   L(2,14,34,5,-2)       176.2705         estimate D2E/DX2                !
 ! A78   L(5,15,35,7,-2)       181.1745         estimate D2E/DX2                !
 ! D1    D(9,1,2,3)              9.0913         estimate D2E/DX2                !
 ! D2    D(9,1,2,14)          -176.5244         estimate D2E/DX2                !
 ! D3    D(13,1,2,3)          -172.0566         estimate D2E/DX2                !
 ! D4    D(13,1,2,14)            2.3276         estimate D2E/DX2                !
 ! D5    D(2,1,9,10)           179.3504         estimate D2E/DX2                !
 ! D6    D(2,1,9,23)            -0.4824         estimate D2E/DX2                !
 ! D7    D(13,1,9,10)            0.529          estimate D2E/DX2                !
 ! D8    D(13,1,9,23)         -179.3038         estimate D2E/DX2                !
 ! D9    D(2,1,13,12)         -179.3491         estimate D2E/DX2                !
 ! D10   D(2,1,13,26)            0.9511         estimate D2E/DX2                !
 ! D11   D(9,1,13,12)           -0.4316         estimate D2E/DX2                !
 ! D12   D(9,1,13,26)          179.8687         estimate D2E/DX2                !
 ! D13   D(1,2,3,4)              4.3315         estimate D2E/DX2                !
 ! D14   D(1,2,3,5)           -176.4564         estimate D2E/DX2                !
 ! D15   D(14,2,3,4)          -170.0277         estimate D2E/DX2                !
 ! D16   D(14,2,3,5)             9.1844         estimate D2E/DX2                !
 ! D17   D(1,2,34,36)          154.5441         estimate D2E/DX2                !
 ! D18   D(3,2,34,36)          -32.6215         estimate D2E/DX2                !
 ! D19   D(2,3,5,6)            179.9461         estimate D2E/DX2                !
 ! D20   D(2,3,5,15)             6.6663         estimate D2E/DX2                !
 ! D21   D(4,3,5,6)             -0.8394         estimate D2E/DX2                !
 ! D22   D(4,3,5,15)          -174.1193         estimate D2E/DX2                !
 ! D23   D(3,5,6,7)           -179.1068         estimate D2E/DX2                !
 ! D24   D(3,5,6,16)            59.6168         estimate D2E/DX2                !
 ! D25   D(3,5,6,17)           -57.762          estimate D2E/DX2                !
 ! D26   D(15,5,6,7)            -5.6947         estimate D2E/DX2                !
 ! D27   D(15,5,6,16)         -126.9712         estimate D2E/DX2                !
 ! D28   D(15,5,6,17)          115.6501         estimate D2E/DX2                !
 ! D29   D(3,5,35,36)          -31.3313         estimate D2E/DX2                !
 ! D30   D(6,5,35,36)          156.1038         estimate D2E/DX2                !
 ! D31   D(5,6,7,8)           -179.6811         estimate D2E/DX2                !
 ! D32   D(5,6,7,18)            58.6602         estimate D2E/DX2                !
 ! D33   D(5,6,7,19)           -57.9379         estimate D2E/DX2                !
 ! D34   D(16,6,7,8)           -58.7272         estimate D2E/DX2                !
 ! D35   D(16,6,7,18)          179.6141         estimate D2E/DX2                !
 ! D36   D(16,6,7,19)           63.016          estimate D2E/DX2                !
 ! D37   D(17,6,7,8)            59.0979         estimate D2E/DX2                !
 ! D38   D(17,6,7,18)          -62.5608         estimate D2E/DX2                !
 ! D39   D(17,6,7,19)         -179.1589         estimate D2E/DX2                !
 ! D40   D(6,7,8,20)           -59.8175         estimate D2E/DX2                !
 ! D41   D(6,7,8,21)          -179.8418         estimate D2E/DX2                !
 ! D42   D(6,7,8,22)            60.1051         estimate D2E/DX2                !
 ! D43   D(18,7,8,20)           61.3753         estimate D2E/DX2                !
 ! D44   D(18,7,8,21)          -58.649          estimate D2E/DX2                !
 ! D45   D(18,7,8,22)         -178.7021         estimate D2E/DX2                !
 ! D46   D(19,7,8,20)          178.9311         estimate D2E/DX2                !
 ! D47   D(19,7,8,21)           58.9067         estimate D2E/DX2                !
 ! D48   D(19,7,8,22)          -61.1464         estimate D2E/DX2                !
 ! D49   D(1,9,10,11)            0.1222         estimate D2E/DX2                !
 ! D50   D(1,9,10,33)          179.9448         estimate D2E/DX2                !
 ! D51   D(23,9,10,11)         179.9568         estimate D2E/DX2                !
 ! D52   D(23,9,10,33)          -0.2206         estimate D2E/DX2                !
 ! D53   D(9,10,11,12)          -0.8995         estimate D2E/DX2                !
 ! D54   D(9,10,11,30)        -177.7993         estimate D2E/DX2                !
 ! D55   D(33,10,11,12)        179.2795         estimate D2E/DX2                !
 ! D56   D(33,10,11,30)          2.3796         estimate D2E/DX2                !
 ! D57   D(10,11,12,13)          0.9919         estimate D2E/DX2                !
 ! D58   D(10,11,12,25)       -179.6596         estimate D2E/DX2                !
 ! D59   D(30,11,12,13)        177.8933         estimate D2E/DX2                !
 ! D60   D(30,11,12,25)         -2.7582         estimate D2E/DX2                !
 ! D61   D(10,11,30,24)         87.828          estimate D2E/DX2                !
 ! D62   D(10,11,30,31)        -23.7644         estimate D2E/DX2                !
 ! D63   D(10,11,30,32)       -160.5279         estimate D2E/DX2                !
 ! D64   D(12,11,30,24)        -89.1414         estimate D2E/DX2                !
 ! D65   D(12,11,30,31)        159.2662         estimate D2E/DX2                !
 ! D66   D(12,11,30,32)         22.5027         estimate D2E/DX2                !
 ! D67   D(11,12,13,1)          -0.3165         estimate D2E/DX2                !
 ! D68   D(11,12,13,26)        179.3812         estimate D2E/DX2                !
 ! D69   D(25,12,13,1)        -179.6685         estimate D2E/DX2                !
 ! D70   D(25,12,13,26)          0.0292         estimate D2E/DX2                !
 ! D71   D(27,24,30,11)         59.8156         estimate D2E/DX2                !
 ! D72   D(27,24,30,31)        176.2822         estimate D2E/DX2                !
 ! D73   D(27,24,30,32)        -56.5683         estimate D2E/DX2                !
 ! D74   D(28,24,30,11)        179.642          estimate D2E/DX2                !
 ! D75   D(28,24,30,31)        -63.8915         estimate D2E/DX2                !
 ! D76   D(28,24,30,32)         63.258          estimate D2E/DX2                !
 ! D77   D(29,24,30,11)        -60.5972         estimate D2E/DX2                !
 ! D78   D(29,24,30,31)         55.8694         estimate D2E/DX2                !
 ! D79   D(29,24,30,32)       -176.9811         estimate D2E/DX2                !
 ! D80   D(14,34,36,35)          9.2909         estimate D2E/DX2                !
 ! D81   D(14,34,36,37)       -170.7299         estimate D2E/DX2                !
 ! D82   D(15,35,36,34)         10.5405         estimate D2E/DX2                !
 ! D83   D(15,35,36,37)       -169.438          estimate D2E/DX2                !
 ! D84   D(34,36,37,38)       -179.4369         estimate D2E/DX2                !
 ! D85   D(34,36,37,39)         56.9524         estimate D2E/DX2                !
 ! D86   D(34,36,37,40)        -55.7904         estimate D2E/DX2                !
 ! D87   D(35,36,37,38)          0.5433         estimate D2E/DX2                !
 ! D88   D(35,36,37,39)       -123.0675         estimate D2E/DX2                !
 ! D89   D(35,36,37,40)        124.1897         estimate D2E/DX2                !
 ! D90   D(36,37,38,41)        -60.1787         estimate D2E/DX2                !
 ! D91   D(36,37,38,42)        179.9627         estimate D2E/DX2                !
 ! D92   D(36,37,38,43)         60.1163         estimate D2E/DX2                !
 ! D93   D(39,37,38,41)         61.2854         estimate D2E/DX2                !
 ! D94   D(39,37,38,42)        -58.5732         estimate D2E/DX2                !
 ! D95   D(39,37,38,43)       -178.4196         estimate D2E/DX2                !
 ! D96   D(40,37,38,41)        178.3034         estimate D2E/DX2                !
 ! D97   D(40,37,38,42)         58.4449         estimate D2E/DX2                !
 ! D98   D(40,37,38,43)        -61.4015         estimate D2E/DX2                !
 --------------------------------------------------------------------------------
 Trust Radius=3.00D-01 FncErr=1.00D-07 GrdErr=1.00D-06
 Number of steps in this run=    230 maximum allowed number of steps=    258.
 GradGradGradGradGradGradGradGradGradGradGradGradGradGradGradGradGradGrad

                          Input orientation:                          
 ---------------------------------------------------------------------
 Center     Atomic      Atomic             Coordinates (Angstroms)
 Number     Number       Type             X           Y           Z
 ---------------------------------------------------------------------
      1          6           0       -6.213479    1.316581    0.317799
      2          7           0       -5.004448    0.665190    0.200331
      3          6           0       -3.734087    1.226289    0.184520
      4          8           0       -3.521456    2.431432    0.356235
      5          7           0       -2.753952    0.330469   -0.018972
      6          6           0       -1.360522    0.750328   -0.065668
      7          6           0       -0.459201   -0.445420   -0.328611
      8          6           0        1.005733   -0.029042   -0.373636
      9          6           0       -6.376603    2.714361    0.262652
     10          6           0       -7.638572    3.267673    0.378417
     11          6           0       -8.744097    2.435272    0.552064
     12          6           0       -8.610095    1.044088    0.593963
     13          6           0       -7.351968    0.497001    0.480473
     14          1           0       -5.048341   -0.365112    0.204880
     15          1           0       -2.978675   -0.643317   -0.245959
     16          1           0       -1.089108    1.223958    0.882576
     17          1           0       -1.225625    1.500803   -0.851214
     18          1           0       -0.746186   -0.912933   -1.275764
     19          1           0       -0.614158   -1.194233    0.454505
     20          1           0        1.180834    0.705483   -1.164134
     21          1           0        1.653676   -0.886423   -0.565156
     22          1           0        1.315788    0.419581    0.573793
     23          1           0       -5.524536    3.360315    0.127862
     24          6           0      -10.874488    3.224915   -1.144058
     25          1           0       -9.475774    0.405201    0.723820
     26          1           0       -7.226549   -0.578800    0.520746
     27          9           0      -10.891736    2.010356   -1.669284
     28          9           0      -12.090725    3.744637   -1.194737
     29          9           0      -10.039907    3.989062   -1.830264
     30         16           0      -10.332299    3.138041    0.638680
     31          8           0      -10.268756    4.529011    1.065159
     32          8           0      -11.276730    2.220834    1.261393
     33          1           0       -7.759656    4.344083    0.336342
     34          8           0       -5.190106   -2.166976    0.329256
     35          8           0       -3.240029   -2.440554   -0.711645
     36          6           0       -4.307718   -2.887983   -0.220917
     37          6           0       -4.588162   -4.385521   -0.274416
     38          6           0       -3.503188   -5.225345   -0.929414
     39          1           0       -5.543614   -4.510570   -0.793021
     40          1           0       -4.765456   -4.712252    0.754701
     41          1           0       -3.340505   -4.925582   -1.966622
     42          1           0       -3.781489   -6.281389   -0.925871
     43          1           0       -2.552594   -5.127870   -0.401076
 ---------------------------------------------------------------------
                    Distance matrix (angstroms):
                    1          2          3          4          5
     1  C    0.000000
     2  N    1.378356   0.000000
     3  C    2.484613   1.388849   0.000000
     4  O    2.913993   2.311532   1.235746   0.000000
     5  N    3.613054   2.285796   1.343341   2.268014   0.000000
     6  C    4.900907   3.654614   2.433710   2.770154   1.456060
     7  C    6.052620   4.708769   3.712517   4.257076   2.442081
     8  C    7.376029   6.077308   4.934905   5.204045   3.793451
     9  C    1.408346   2.466940   3.033703   2.870656   4.345785
    10  C    2.416884   3.707188   4.410199   4.201242   5.713545
    11  C    2.776757   4.152335   5.166908   5.226313   6.374803
    12  C    2.427815   3.646806   4.896559   5.279723   5.931218
    13  C    1.412208   2.370151   3.702502   4.293050   4.628059
    14  H    2.048997   1.031247   2.064034   3.189818   2.407937
    15  H    3.824001   2.452575   2.061888   3.179832   1.024833
    16  H    5.156232   4.013423   2.735543   2.766106   2.093518
    17  H    5.126326   4.010424   2.727725   2.755875   2.097163
    18  H    6.115674   4.775157   3.954270   4.642233   2.675201
    19  H    6.138019   4.774590   3.958001   4.648385   2.669760
    20  H    7.566071   6.334122   5.123138   5.234688   4.115164
    21  H    8.217358   6.879251   5.835542   6.216037   4.605033
    22  H    7.586831   6.336022   5.128698   5.243454   4.113648
    23  H    2.165080   2.745805   2.786214   2.219754   4.108243
    24  C    5.244403   6.543465   7.532924   7.546361   8.694063
    25  H    3.411456   4.509367   5.825118   6.300367   6.763151
    26  H    2.158696   2.566692   3.945717   4.776638   4.595888
    27  F    5.129903   6.321794   7.435273   7.655132   8.471662
    28  F    6.536454   7.851402   8.836166   8.806951  10.010708
    29  F    5.137887   6.366104   7.173259   7.049623   8.351719
    30  S    4.515015   5.890088   6.884582   6.853222   8.108410
    31  O    5.227191   6.587107   7.374646   7.101301   8.676138
    32  O    5.229202   6.548848   7.683765   7.810758   8.823296
    33  H    3.399526   4.598252   5.094007   4.649835   6.425918
    34  O    3.630784   2.841171   3.695292   4.891878   3.506185
    35  O    4.900737   3.686533   3.806960   4.995580   2.897350
    36  C    4.647634   3.645260   4.173807   5.408095   3.579582
    37  C    5.958719   5.090025   5.694951   6.928667   5.066570
    38  C    7.190134   6.182921   6.551164   7.763985   5.679554
    39  H    5.969785   5.297730   6.094385   7.321291   5.640658
    40  H    6.215664   5.411222   6.054345   7.262130   5.483954
    41  H    7.241350   6.222630   6.528999   7.717128   5.635908
    42  H    8.074059   7.142753   7.589495   8.810485   6.752404
    43  H    7.446463   6.319242   6.489544   7.658672   5.475401
                    6          7          8          9         10
     6  C    0.000000
     7  C    1.520305   0.000000
     8  C    2.510264   1.523624   0.000000
     9  C    5.396878   6.734199   7.901266   0.000000
    10  C    6.778507   8.113588   9.282130   1.382795   0.000000
    11  C    7.598541   8.815525  10.098959   2.401391   1.394715
    12  C    7.285445   8.337076   9.723785   2.808570   2.436113
    13  C    6.021618   7.003785   8.417684   2.432173   2.787325
    14  H    3.862306   4.620742   6.090930   3.354217   4.465036
    15  H    2.143168   2.528585   4.033502   4.804019   6.115581
    16  H    1.094147   2.156520   2.745257   5.528400   6.879420
    17  H    1.094757   2.155992   2.747265   5.407956   6.764593
    18  H    2.146667   1.094545   2.159703   6.872087   8.229142
    19  H    2.146847   1.094533   2.160447   6.965607   8.322067
    20  H    2.768958   2.170804   1.093195   7.948972   9.312690
    21  H    3.466097   2.171333   1.091610   8.839473  10.222168
    22  H    2.771450   2.170978   1.093169   8.033411   9.398423
    23  H    4.918181   6.352133   7.374528   1.077703   2.130847
    24  C    9.889492  11.073143  12.341857   4.740302   3.576438
    25  H    8.160865   9.117551  10.547747   3.892268   3.418824
    26  H    6.043239   6.821744   8.298953   3.410855   3.871096
    27  F    9.746963  10.801204  12.140330   4.961293   4.044379
    28  F   11.197229  12.393510  13.654013   5.986371   4.745942
    29  F    9.430532  10.663466  11.843694   4.407376   3.341420
    30  S    9.310750  10.547744  11.815506   3.996052   2.709374
    31  O    9.742375  11.086700  12.245819   4.368734   2.996741
    32  O   10.112105  11.254153  12.593418   5.025167   3.887379
    33  H    7.350212   8.756606   9.821423   2.138753   1.084015
    34  O    4.830356   5.077204   6.591907   5.023909   5.960941
    35  O    3.759197   3.443876   4.894500   6.112324   7.288298
    36  C    4.684803   4.559473   6.035696   5.991693   7.024664
    37  C    6.069446   5.707508   7.090868   7.341340   8.264537
    38  C    6.406695   5.698641   6.902233   8.527395   9.536414
    39  H    6.760500   6.526284   7.946945   7.349010   8.140159
    40  H    6.488942   6.158186   7.517461   7.615279   8.489735
    41  H    6.304753   5.572867   6.738211   8.517997   9.544738
    42  H    7.486392   6.741873   7.893941   9.437728  10.380888
    43  H    6.007224   5.129609   6.217756   8.750095   9.846823
                   11         12         13         14         15
    11  C    0.000000
    12  C    1.398251   0.000000
    13  C    2.387477   1.376614   0.000000
    14  H    4.649872   3.850107   2.475054   0.000000
    15  H    6.584425   5.938492   4.577524   2.136392   0.000000
    16  H    7.757279   7.528671   6.317719   4.319715   2.886307
    17  H    7.705183   7.538403   6.349259   4.382936   2.834920
    18  H    8.861040   8.316662   6.979158   4.582679   2.473297
    19  H    8.903861   8.304489   6.946873   4.517935   2.526875
    20  H   10.219675   9.953283   8.692348   6.467069   4.468089
    21  H   10.972490  10.507874   9.171087   6.766221   4.649695
    22  H   10.259862   9.945529   8.668604   6.422925   4.499351
    23  H    3.376571   3.886236   3.415028   3.756528   4.759225
    24  C    2.835300   3.592242   4.742231   6.975093   8.838193
    25  H    2.164726   1.083715   2.139671   4.523809   6.652229
    26  H    3.374696   2.133852   1.083836   2.211340   4.316993
    27  F    3.118860   3.355867   4.409268   6.580319   8.466662
    28  F    3.995705   4.754703   5.984085   8.273097  10.157941
    29  F    3.125520   4.073588   4.975843   6.929385   8.592436
    30  S    1.738899   2.711573   3.985285   6.354564   8.316072
    31  O    2.640377   3.888171   5.010650   7.207306   9.034229
    32  O    2.638818   2.990174   4.357200   6.826139   8.906918
    33  H    2.158522   3.417540   3.871308   5.435534   6.933327
    34  O    5.819037   4.698651   3.434136   1.811706   2.746422
    35  O    7.460926   6.533372   5.192150   2.901288   1.874895
    36  C    6.972519   5.885207   4.606249   2.663589   2.608737
    37  C    8.029825   6.812538   5.661051   4.074945   4.073739
    38  C    9.399307   8.228425   7.038902   5.224556   4.662318
    39  H    7.765119   6.494710   5.474276   4.292543   4.672669
    40  H    8.182772   6.924054   5.822505   4.390894   4.555232
    41  H    9.472316   8.364337   7.175271   5.331980   4.629190
    42  H   10.138637   8.904377   7.789267   6.155147   5.735385
    43  H    9.820607   8.704969   7.446496   5.411081   4.507419
                   16         17         18         19         20
    16  H    0.000000
    17  H    1.761053   0.000000
    18  H    3.056523   2.497244   0.000000
    19  H    2.501293   3.056470   1.757950   0.000000
    20  H    3.100077   2.553722   2.518955   3.074232   0.000000
    21  H    3.751333   3.751140   2.502998   2.505499   1.765367
    22  H    2.554583   3.107807   3.073791   2.518593   1.766449
    23  H    4.980626   4.785082   6.562275   6.705402   7.326620
    24  C   10.191404   9.806063  10.941738  11.285328  12.315791
    25  H    8.428032   8.470303   9.052155   9.008827  10.826718
    26  H    6.406952   6.497546   6.733067   6.641300   8.670195
    27  F   10.159818   9.714040  10.565636  10.973079  12.153386
    28  F   11.476263  11.099693  12.263690  12.602540  13.615126
    29  F    9.753056   9.210947  10.521895  10.996884  11.710279
    30  S    9.442445   9.371865  10.581543  10.641654  11.904609
    31  O    9.758209   9.727320  11.214902  11.240093  12.275269
    32  O   10.243286  10.295935  11.276082  11.225159  12.781642
    33  H    7.384427   7.224133   8.912008   9.041297   9.768480
    34  O    5.350026   5.528401   4.888469   4.679874   7.146335
    35  O    4.538353   4.428499   2.978441   3.131840   5.444843
    36  C    5.337154   5.399817   4.206903   4.119147   6.627734
    37  C    6.711800   6.803540   5.274689   5.148626   7.745400
    38  C    7.120716   7.101724   5.130099   5.148941   7.561076
    39  H    7.452185   7.401691   6.015925   6.070746   8.518400
    40  H    6.983586   7.328808   5.891701   5.449758   8.269954
    41  H    7.141678   6.856769   4.827953   5.217068   7.266043
    42  H    8.176162   8.191491   6.177039   6.149519   8.573085
    43  H    6.643439   6.775159   4.668392   4.468004   6.967693
                   21         22         23         24         25
    21  H    0.000000
    22  H    1.765508   0.000000
    23  H    8.369097   7.459008   0.000000
    24  C   13.198224  12.626311   5.500736   0.000000
    25  H   11.278049  10.792614   4.969924   3.660076   0.000000
    26  H    8.951659   8.600645   4.309041   5.526959   2.463435
    27  F   12.922762  12.513416   5.818845   1.323372   3.210672
    28  F   14.517287  13.925454   6.709084   1.323598   4.655176
    29  F   12.732271  12.143825   4.961669   1.323377   4.436852
    30  S   12.700753  11.961278   4.839931   1.865387   2.865188
    31  O   13.195804  12.301647   4.975139   2.635946   4.213211
    32  O   13.423365  12.739263   5.972525   2.637455   2.613226
    33  H   10.806559   9.890490   2.450924   3.625782   4.313929
    34  O    7.019767   7.005478   5.541061   7.972160   5.013854
    35  O    5.136645   5.530659   6.290774   9.516800   7.003099
    36  C    6.297854   6.572318   6.375228   9.018990   6.200515
    37  C    7.161616   7.659313   7.812592   9.909233   6.916375
    38  C    6.749235   7.572803   8.883538  11.215571   8.373053
    39  H    8.061473   8.557217   7.924597   9.401020   6.475144
    40  H    7.588428   7.959269   8.132372  10.194321   6.955312
    41  H    6.574249   7.530308   8.821165  11.129605   8.561381
    42  H    7.666602   8.551855   9.854492  11.862885   8.936265
    43  H    5.975743   6.832932   9.008968  11.814184   8.933683
                   26         27         28         29         30
    26  H    0.000000
    27  F    4.993351   0.000000
    28  F    6.730171   2.161134   0.000000
    29  F    5.857269   2.160279   2.160901   0.000000
    30  S    4.845050   2.628943   2.611788   2.627816   0.000000
    31  O    5.970021   3.769470   3.006981   2.954216   1.456269
    32  O    4.979004   2.963340   3.002855   3.770240   1.456362
    33  H    4.955097   4.390756   4.632676   3.165401   2.857348
    34  O    2.589608   7.345260   9.213483   8.129016   7.394667
    35  O    4.569164   8.903723  10.808552   9.424947   9.123837
    36  C    3.794992   8.333113  10.272058   9.096249   8.564313
    37  C    4.699414   9.087790  11.101122  10.113151   9.509618
    38  C    6.128357  10.367904  12.420820  11.333382  10.910633
    39  H    4.474044   8.478957  10.543931   9.671415   9.136878
    40  H    4.816340   9.412782  11.356885  10.498321   9.624464
    41  H    6.338994  10.257520  12.342401  11.152195  10.986119
    42  H    6.817672  10.948118  13.024472  12.061007  11.579576
    43  H    6.587082  11.050063  13.050947  11.883639  11.398693
                   31         32         33         34         35
    31  O    0.000000
    32  O    2.526302   0.000000
    33  H    2.619342   4.211142   0.000000
    34  O    8.436260   7.561002   6.999752   0.000000
    35  O   10.056584   9.497894   8.219283   2.227357   0.000000
    36  C    9.602072   8.767234   8.033007   1.265366   1.257365
    37  C   10.655163   9.525733   9.307921   2.376699   2.406559
    38  C   12.037388  10.985135  10.549580   3.712623   2.805662
    39  H   10.367923   9.077502   9.197347   2.622386   3.098079
    40  H   10.760281   9.524763   9.547642   2.615294   3.104466
    41  H   12.107093  11.156837  10.524221   4.037572   2.785754
    42  H   12.763760  11.543420  11.415763   4.526360   3.884724
    43  H   12.447665  11.527264  10.833983   4.031965   2.791180
                   36         37         38         39         40
    36  C    0.000000
    37  C    1.524509   0.000000
    38  C    2.571478   1.520361   0.000000
    39  H    2.118379   1.094293   2.166298   0.000000
    40  H    2.118800   1.094198   2.166294   1.744032   0.000000
    41  H    2.852156   2.170685   1.091844   2.530467   3.079219
    42  H    3.505578   2.160886   1.092104   2.501705   2.500940
    43  H    2.851317   2.170406   1.091911   3.079104   2.530873
                   41         42         43
    41  H    0.000000
    42  H    1.765174   0.000000
    43  H    1.764273   1.765276   0.000000
 Stoichiometry    C14H18F3N2O5S(1-)
 Framework group  C1[X(C14H18F3N2O5S)]
 Deg. of freedom   123
 Full point group                 C1      NOp   1
 Largest Abelian subgroup         C1      NOp   1
 Largest concise Abelian subgroup C1      NOp   1
                         Standard orientation:                         
 ---------------------------------------------------------------------
 Center     Atomic      Atomic             Coordinates (Angstroms)
 Number     Number       Type             X           Y           Z
 ---------------------------------------------------------------------
      1          6           0       -0.012342   -0.479093   -0.374747
      2          7           0        1.361704   -0.502527   -0.268380
      3          6           0        2.187785   -1.614060   -0.163577
      4          8           0        1.774217   -2.776634   -0.230293
      5          7           0        3.484817   -1.305484    0.000902
      6          6           0        4.488048   -2.352928    0.129357
      7          6           0        5.865672   -1.740773    0.326196
      8          6           0        6.932733   -2.820669    0.455177
      9          6           0       -0.845496   -1.602977   -0.212953
     10          6           0       -2.216964   -1.468396   -0.327346
     11          6           0       -2.767082   -0.217308   -0.605518
     12          6           0       -1.962362    0.916408   -0.754591
     13          6           0       -0.597338    0.778141   -0.642095
     14          1           0        1.833579    0.410100   -0.357349
     15          1           0        3.773891   -0.332280    0.140880
     16          1           0        4.480031   -2.979266   -0.767746
     17          1           0        4.241468   -3.000451    0.976944
     18          1           0        5.857122   -1.112130    1.222167
     19          1           0        6.094025   -1.084568   -0.519530
     20          1           0        6.729027   -3.473821    1.307804
     21          1           0        7.922007   -2.382305    0.599346
     22          1           0        6.970675   -3.444389   -0.441791
     23          1           0       -0.423666   -2.570953    0.002748
     24          6           0       -4.992169    0.299455    1.074027
     25          1           0       -2.399468    1.885422   -0.965279
     26          1           0        0.043809    1.643391   -0.764462
     27          9           0       -4.400704    1.404433    1.498888
     28          9           0       -6.305634    0.454993    1.124315
     29          9           0       -4.638606   -0.714146    1.847934
     30         16           0       -4.495684   -0.048348   -0.690117
     31          8           0       -5.133287   -1.320216   -1.000814
     32          8           0       -4.868287    1.157456   -1.416889
     33          1           0       -2.854628   -2.336157   -0.202985
     34          8           0        2.601204    2.028141   -0.631163
     35          8           0        4.441144    1.392181    0.451101
     36          6           0        3.730190    2.263935   -0.110643
     37          6           0        4.228427    3.702675   -0.187565
     38          6           0        5.593276    3.950318    0.434814
     39          1           0        3.465343    4.327933    0.285969
     40          1           0        4.225993    3.983350   -1.245149
     41          1           0        5.596445    3.700895    1.497783
     42          1           0        5.874248    5.001087    0.336676
     43          1           0        6.365693    3.350469   -0.050802
 ---------------------------------------------------------------------
 Rotational constants (GHZ):      0.3411126      0.0734380      0.0644026
 Standard basis: 6-311+G(d) (5D, 7F)
 There are   637 symmetry adapted cartesian basis functions of A   symmetry.
 There are   612 symmetry adapted basis functions of A   symmetry.
   612 basis functions,  1004 primitive gaussians,   637 cartesian basis functions
   100 alpha electrons      100 beta electrons
       nuclear repulsion energy      2428.7534859069 Hartrees.
 NAtoms=   43 NActive=   43 NUniq=   43 SFac= 1.00D+00 NAtFMM=   60 NAOKFM=F Big=F
 Integral buffers will be    131072 words long.
 Raffenetti 2 integral format.
 Two-electron integral symmetry is turned on.
 Nuclear repulsion after empirical dispersion term =     2428.7508863693 Hartrees.
 ------------------------------------------------------------------------------
 Polarizable Continuum Model (PCM)
 =================================
 Model                : PCM (using non-symmetric T matrix).
 Atomic radii         : SMD-Coulomb.
 Polarization charges : Total charges.
 Charge compensation  : None.
 Solution method      : On-the-fly selection.
 Cavity type          : VdW (van der Waals Surface) (Alpha=1.000).
 Cavity algorithm     : GePol (No added spheres)
                        Default sphere list used, NSphG=   43.
                        Lebedev-Laikov grids with approx.  5.0 points / Ang**2.
                        Smoothing algorithm: York/Karplus (Gamma=1.0000).
                        Polarization charges: spherical gaussians, with
                                              point-specific exponents (IZeta= 3).
                        Self-potential: point-specific (ISelfS= 7).
                        Self-field    : sphere-specific E.n sum rule (ISelfD= 2).
 1st derivatives      : Analytical E(r).r(x)/FMM algorithm (CHGder, D1EAlg=3).
                        Cavity 1st derivative terms included.
 Solvent              : Water, Eps=  78.355300 Eps(inf)=   1.777849
 ------------------------------------------------------------------------------
 ------------------------------------------------------------------------------
 Atomic radii for non-electrostatic terms: SMD-CDS.
 ------------------------------------------------------------------------------
 Nuclear repulsion after PCM non-electrostatic terms =     2428.7657344887 Hartrees.
 One-electron integrals computed using PRISM.
 NBasis=   612 RedAO= T EigKep=  1.70D-06  NBF=   612
 NBsUse=   610 1.00D-06 EigRej=  6.19D-07 NBFU=   610
 ExpMin= 4.05D-02 ExpMax= 9.34D+04 ExpMxC= 3.17D+03 IAcc=3 IRadAn=         5 AccDes= 0.00D+00
 Harris functional with IExCor= 1009 and IRadAn=       5 diagonalized for initial guess.
 HarFok:  IExCor= 1009 AccDes= 0.00D+00 IRadAn=         5 IDoV= 1 UseB2=F ITyADJ=14
 ICtDFT=  3500011 ScaDFX=  1.000000  1.000000  1.000000  1.000000
 FoFCou: FMM=F IPFlag=           0 FMFlag=      100000 FMFlg1=           0
         NFxFlg=           0 DoJE=T BraDBF=F KetDBF=T FulRan=T
         wScrn=  0.000000 ICntrl=     500 IOpCl=  0 I1Cent=   200000004 NGrid=           0
         NMat0=    1 NMatS0=      1 NMatT0=    0 NMatD0=    1 NMtDS0=    0 NMtDT0=    0
 Petite list used in FoFCou.
 Requested convergence on RMS density matrix=1.00D-08 within 128 cycles.
 Requested convergence on MAX density matrix=1.00D-06.
 Requested convergence on             energy=1.00D-06.
 No special actions if energy rises.
 Inv3:  Mode=1 IEnd=    32000268.
 Iteration    1 A*A^-1 deviation from unit magnitude is 6.22D-15 for   1184.
 Iteration    1 A*A^-1 deviation from orthogonality  is 5.38D-15 for   3263   1182.
 Iteration    1 A^-1*A deviation from unit magnitude is 5.55D-15 for    370.
 Iteration    1 A^-1*A deviation from orthogonality  is 6.06D-12 for   2661   2594.
 Error on total polarization charges =  0.06825
 SCF Done:  E(RM062X) =  -1727.69546320     A.U. after   15 cycles
            NFock= 15  Conv=0.53D-08     -V/T= 2.0028
 SMD-CDS (non-electrostatic) energy       (kcal/mol) =       9.32
 (included in total energy above)

 **********************************************************************

            Population analysis using the SCF density.

 **********************************************************************

 Orbital symmetries:
       Occupied  (A) (A) (A) (A) (A) (A) (A) (A) (A) (A) (A) (A)
                 (A) (A) (A) (A) (A) (A) (A) (A) (A) (A) (A) (A)
                 (A) (A) (A) (A) (A) (A) (A) (A) (A) (A) (A) (A)
                 (A) (A) (A) (A) (A) (A) (A) (A) (A) (A) (A) (A)
                 (A) (A) (A) (A) (A) (A) (A) (A) (A) (A) (A) (A)
                 (A) (A) (A) (A) (A) (A) (A) (A) (A) (A) (A) (A)
                 (A) (A) (A) (A) (A) (A) (A) (A) (A) (A) (A) (A)
                 (A) (A) (A) (A) (A) (A) (A) (A) (A) (A) (A) (A)
                 (A) (A) (A) (A)
       Virtual   (A) (A) (A) (A) (A) (A) (A) (A) (A) (A) (A) (A)
                 (A) (A) (A) (A) (A) (A) (A) (A) (A) (A) (A) (A)
                 (A) (A) (A) (A) (A) (A) (A) (A) (A) (A) (A) (A)
                 (A) (A) (A) (A) (A) (A) (A) (A) (A) (A) (A) (A)
                 (A) (A) (A) (A) (A) (A) (A) (A) (A) (A) (A) (A)
                 (A) (A) (A) (A) (A) (A) (A) (A) (A) (A) (A) (A)
                 (A) (A) (A) (A) (A) (A) (A) (A) (A) (A) (A) (A)
                 (A) (A) (A) (A) (A) (A) (A) (A) (A) (A) (A) (A)
                 (A) (A) (A) (A) (A) (A) (A) (A) (A) (A) (A) (A)
                 (A) (A) (A) (A) (A) (A) (A) (A) (A) (A) (A) (A)
                 (A) (A) (A) (A) (A) (A) (A) (A) (A) (A) (A) (A)
                 (A) (A) (A) (A) (A) (A) (A) (A) (A) (A) (A) (A)
                 (A) (A) (A) (A) (A) (A) (A) (A) (A) (A) (A) (A)
                 (A) (A) (A) (A) (A) (A) (A) (A) (A) (A) (A) (A)
                 (A) (A) (A) (A) (A) (A) (A) (A) (A) (A) (A) (A)
                 (A) (A) (A) (A) (A) (A) (A) (A) (A) (A) (A) (A)
                 (A) (A) (A) (A) (A) (A) (A) (A) (A) (A) (A) (A)
                 (A) (A) (A) (A) (A) (A) (A) (A) (A) (A) (A) (A)
                 (A) (A) (A) (A) (A) (A) (A) (A) (A) (A) (A) (A)
                 (A) (A) (A) (A) (A) (A) (A) (A) (A) (A) (A) (A)
                 (A) (A) (A) (A) (A) (A) (A) (A) (A) (A) (A) (A)
                 (A) (A) (A) (A) (A) (A) (A) (A) (A) (A) (A) (A)
                 (A) (A) (A) (A) (A) (A) (A) (A) (A) (A) (A) (A)
                 (A) (A) (A) (A) (A) (A) (A) (A) (A) (A) (A) (A)
                 (A) (A) (A) (A) (A) (A) (A) (A) (A) (A) (A) (A)
                 (A) (A) (A) (A) (A) (A) (A) (A) (A) (A) (A) (A)
                 (A) (A) (A) (A) (A) (A) (A) (A) (A) (A) (A) (A)
                 (A) (A) (A) (A) (A) (A) (A) (A) (A) (A) (A) (A)
                 (A) (A) (A) (A) (A) (A) (A) (A) (A) (A) (A) (A)
                 (A) (A) (A) (A) (A) (A) (A) (A) (A) (A) (A) (A)
                 (A) (A) (A) (A) (A) (A) (A) (A) (A) (A) (A) (A)
                 (A) (A) (A) (A) (A) (A) (A) (A) (A) (A) (A) (A)
                 (A) (A) (A) (A) (A) (A) (A) (A) (A) (A) (A) (A)
                 (A) (A) (A) (A) (A) (A) (A) (A) (A) (A) (A) (A)
                 (A) (A) (A) (A) (A) (A) (A) (A) (A) (A) (A) (A)
                 (A) (A) (A) (A) (A) (A) (A) (A) (A) (A) (A) (A)
                 (A) (A) (A) (A) (A) (A) (A) (A) (A) (A) (A) (A)
                 (A) (A) (A) (A) (A) (A) (A) (A) (A) (A) (A) (A)
                 (A) (A) (A) (A) (A) (A) (A) (A) (A) (A) (A) (A)
                 (A) (A) (A) (A) (A) (A) (A) (A) (A) (A) (A) (A)
                 (A) (A) (A) (A) (A) (A) (A) (A) (A) (A) (A) (A)
                 (A) (A) (A) (A) (A) (A) (A) (A) (A) (A) (A) (A)
                 (A) (A) (A) (A) (A) (A)
 The electronic state is 1-A.
 Alpha  occ. eigenvalues --  -90.13538 -25.31470 -25.31455 -25.31451 -19.65531
 Alpha  occ. eigenvalues --  -19.65529 -19.59613 -19.57988 -19.57675 -14.77868
 Alpha  occ. eigenvalues --  -14.75792 -10.83982 -10.67875 -10.63924 -10.61742
 Alpha  occ. eigenvalues --  -10.59086 -10.57606 -10.57565 -10.56188 -10.55700
 Alpha  occ. eigenvalues --  -10.55426 -10.52717 -10.52488 -10.51563 -10.51367
 Alpha  occ. eigenvalues --   -8.47943  -6.40157  -6.40085  -6.40005  -1.51187
 Alpha  occ. eigenvalues --   -1.41738  -1.41727  -1.27395  -1.18178  -1.16761
 Alpha  occ. eigenvalues --   -1.16667  -1.06948  -1.06259  -1.02779  -0.98480
 Alpha  occ. eigenvalues --   -0.90401  -0.87911  -0.87158  -0.85915  -0.85765
 Alpha  occ. eigenvalues --   -0.80195  -0.77272  -0.73989  -0.73352  -0.73178
 Alpha  occ. eigenvalues --   -0.72794  -0.72132  -0.68507  -0.68080  -0.66613
 Alpha  occ. eigenvalues --   -0.63400  -0.63124  -0.61483  -0.60978  -0.60340
 Alpha  occ. eigenvalues --   -0.58922  -0.57921  -0.57281  -0.56979  -0.56738
 Alpha  occ. eigenvalues --   -0.55682  -0.54839  -0.54459  -0.54135  -0.53161
 Alpha  occ. eigenvalues --   -0.52947  -0.52859  -0.52062  -0.51738  -0.51003
 Alpha  occ. eigenvalues --   -0.50073  -0.48491  -0.47656  -0.46536  -0.46279
 Alpha  occ. eigenvalues --   -0.45186  -0.44392  -0.44325  -0.44108  -0.42860
 Alpha  occ. eigenvalues --   -0.41968  -0.41798  -0.41483  -0.40007  -0.39678
 Alpha  occ. eigenvalues --   -0.39497  -0.39258  -0.38805  -0.35947  -0.34041
 Alpha  occ. eigenvalues --   -0.33348  -0.32998  -0.32560  -0.32516  -0.28237
 Alpha virt. eigenvalues --   -0.02960   0.00212   0.01209   0.02081   0.02736
 Alpha virt. eigenvalues --    0.02972   0.03102   0.03500   0.03726   0.04283
 Alpha virt. eigenvalues --    0.04436   0.04743   0.05131   0.05737   0.05870
 Alpha virt. eigenvalues --    0.06434   0.06854   0.07073   0.07268   0.07376
 Alpha virt. eigenvalues --    0.07405   0.07835   0.08067   0.08725   0.08913
 Alpha virt. eigenvalues --    0.08993   0.09220   0.09714   0.09858   0.10147
 Alpha virt. eigenvalues --    0.10274   0.10427   0.10603   0.10993   0.11562
 Alpha virt. eigenvalues --    0.12015   0.12384   0.12800   0.13046   0.13744
 Alpha virt. eigenvalues --    0.13793   0.14322   0.15059   0.15169   0.15313
 Alpha virt. eigenvalues --    0.16048   0.16186   0.17067   0.17322   0.17831
 Alpha virt. eigenvalues --    0.18024   0.18353   0.18584   0.19283   0.19555
 Alpha virt. eigenvalues --    0.20120   0.20293   0.20555   0.20841   0.21218
 Alpha virt. eigenvalues --    0.21512   0.21755   0.21863   0.22296   0.22387
 Alpha virt. eigenvalues --    0.22819   0.23059   0.23358   0.23493   0.23721
 Alpha virt. eigenvalues --    0.23970   0.24282   0.24472   0.24781   0.24910
 Alpha virt. eigenvalues --    0.25679   0.25823   0.25915   0.26123   0.26260
 Alpha virt. eigenvalues --    0.26493   0.26819   0.27178   0.27406   0.27606
 Alpha virt. eigenvalues --    0.27775   0.28283   0.28646   0.29028   0.29323
 Alpha virt. eigenvalues --    0.29938   0.30082   0.30221   0.30592   0.30708
 Alpha virt. eigenvalues --    0.31004   0.31389   0.31597   0.31969   0.32126
 Alpha virt. eigenvalues --    0.32572   0.32688   0.32960   0.33332   0.33577
 Alpha virt. eigenvalues --    0.33843   0.34154   0.34244   0.34614   0.35120
 Alpha virt. eigenvalues --    0.35273   0.35812   0.36282   0.36902   0.37106
 Alpha virt. eigenvalues --    0.37455   0.37911   0.38024   0.38601   0.38931
 Alpha virt. eigenvalues --    0.39716   0.39973   0.40212   0.40591   0.41273
 Alpha virt. eigenvalues --    0.41722   0.42843   0.43127   0.43290   0.43827
 Alpha virt. eigenvalues --    0.44335   0.44838   0.45122   0.45318   0.46172
 Alpha virt. eigenvalues --    0.46634   0.46984   0.47579   0.48773   0.49119
 Alpha virt. eigenvalues --    0.49196   0.50177   0.50456   0.51343   0.51836
 Alpha virt. eigenvalues --    0.52301   0.53230   0.53544   0.54377   0.54580
 Alpha virt. eigenvalues --    0.55259   0.56209   0.56532   0.56949   0.57597
 Alpha virt. eigenvalues --    0.58488   0.58849   0.59239   0.60842   0.61690
 Alpha virt. eigenvalues --    0.62315   0.62640   0.63406   0.64112   0.64992
 Alpha virt. eigenvalues --    0.65646   0.67293   0.67492   0.67903   0.68640
 Alpha virt. eigenvalues --    0.69655   0.70103   0.70674   0.70980   0.71294
 Alpha virt. eigenvalues --    0.71615   0.72477   0.72881   0.73027   0.73658
 Alpha virt. eigenvalues --    0.73793   0.74352   0.75337   0.75468   0.76014
 Alpha virt. eigenvalues --    0.76216   0.77090   0.77484   0.78211   0.78477
 Alpha virt. eigenvalues --    0.78696   0.79184   0.79817   0.80049   0.80769
 Alpha virt. eigenvalues --    0.81252   0.82183   0.83183   0.83466   0.85491
 Alpha virt. eigenvalues --    0.85771   0.87446   0.88301   0.88902   0.89587
 Alpha virt. eigenvalues --    0.90549   0.91197   0.93106   0.93684   0.94449
 Alpha virt. eigenvalues --    0.95563   0.96297   0.97111   0.97891   0.99529
 Alpha virt. eigenvalues --    0.99864   1.00766   1.03232   1.03296   1.03710
 Alpha virt. eigenvalues --    1.04995   1.05327   1.05917   1.06236   1.07060
 Alpha virt. eigenvalues --    1.09071   1.10596   1.11379   1.12274   1.12806
 Alpha virt. eigenvalues --    1.14086   1.16043   1.16958   1.17428   1.17831
 Alpha virt. eigenvalues --    1.18769   1.19567   1.20228   1.21273   1.21921
 Alpha virt. eigenvalues --    1.22477   1.23236   1.23743   1.24834   1.25036
 Alpha virt. eigenvalues --    1.25427   1.25666   1.26735   1.27200   1.27534
 Alpha virt. eigenvalues --    1.28782   1.29272   1.30405   1.31911   1.32733
 Alpha virt. eigenvalues --    1.33229   1.34988   1.35989   1.37600   1.39183
 Alpha virt. eigenvalues --    1.40598   1.42446   1.43718   1.44077   1.46159
 Alpha virt. eigenvalues --    1.46673   1.46934   1.47822   1.49348   1.49726
 Alpha virt. eigenvalues --    1.50851   1.51317   1.51602   1.53348   1.53784
 Alpha virt. eigenvalues --    1.54032   1.54907   1.55858   1.57324   1.58077
 Alpha virt. eigenvalues --    1.58952   1.59854   1.60936   1.62063   1.62925
 Alpha virt. eigenvalues --    1.64150   1.64787   1.65744   1.67472   1.67929
 Alpha virt. eigenvalues --    1.69550   1.71006   1.71625   1.73554   1.75491
 Alpha virt. eigenvalues --    1.76308   1.76847   1.77553   1.78067   1.79009
 Alpha virt. eigenvalues --    1.79191   1.80690   1.80888   1.82164   1.82920
 Alpha virt. eigenvalues --    1.84366   1.85426   1.85843   1.87018   1.88145
 Alpha virt. eigenvalues --    1.88308   1.88730   1.89431   1.91820   1.92410
 Alpha virt. eigenvalues --    1.93720   1.96157   1.96391   1.97491   1.99668
 Alpha virt. eigenvalues --    2.00791   2.01063   2.01495   2.04332   2.05162
 Alpha virt. eigenvalues --    2.05622   2.09916   2.10557   2.11836   2.13391
 Alpha virt. eigenvalues --    2.15264   2.16876   2.17116   2.21343   2.23506
 Alpha virt. eigenvalues --    2.24399   2.27004   2.29385   2.33545   2.36611
 Alpha virt. eigenvalues --    2.37540   2.38609   2.40329   2.41772   2.47022
 Alpha virt. eigenvalues --    2.47961   2.51742   2.54876   2.56233   2.56529
 Alpha virt. eigenvalues --    2.57418   2.58638   2.59874   2.60476   2.60771
 Alpha virt. eigenvalues --    2.62508   2.65105   2.66172   2.67264   2.68212
 Alpha virt. eigenvalues --    2.71581   2.72641   2.74287   2.77495   2.81382
 Alpha virt. eigenvalues --    2.81494   2.82154   2.85545   2.86537   2.86692
 Alpha virt. eigenvalues --    2.87854   2.89733   2.89980   2.91041   2.92617
 Alpha virt. eigenvalues --    2.93587   2.94277   2.95404   2.96227   2.96617
 Alpha virt. eigenvalues --    2.98340   2.99475   2.99788   3.00682   3.01866
 Alpha virt. eigenvalues --    3.02197   3.02922   3.04723   3.08291   3.09024
 Alpha virt. eigenvalues --    3.09989   3.10857   3.11624   3.13158   3.16203
 Alpha virt. eigenvalues --    3.17862   3.18746   3.21627   3.24960   3.25352
 Alpha virt. eigenvalues --    3.26080   3.26579   3.29388   3.30440   3.31290
 Alpha virt. eigenvalues --    3.31996   3.33931   3.34783   3.39120   3.39326
 Alpha virt. eigenvalues --    3.40034   3.40490   3.41658   3.42622   3.44003
 Alpha virt. eigenvalues --    3.45397   3.47992   3.53805   3.59642   3.62143
 Alpha virt. eigenvalues --    3.62844   3.69492   3.71187   3.72843   3.74005
 Alpha virt. eigenvalues --    3.75326   3.77007   3.80879   3.81390   3.82208
 Alpha virt. eigenvalues --    3.82830   3.83816   3.84107   3.85184   3.88197
 Alpha virt. eigenvalues --    3.88469   3.95587   3.95669   4.00772   4.01000
 Alpha virt. eigenvalues --    4.04841   4.07499   4.08301   4.10205   4.18852
 Alpha virt. eigenvalues --    4.19415   4.21510   4.27797   4.28005   4.43644
 Alpha virt. eigenvalues --    4.63684   4.67683   4.80355   4.92337   4.97813
 Alpha virt. eigenvalues --    4.98581   5.15193   5.16470   5.18771   5.20252
 Alpha virt. eigenvalues --    5.20878   5.21177   5.21430   5.22650   5.26407
 Alpha virt. eigenvalues --    5.38851   5.40600   5.40951   5.42851   5.74025
 Alpha virt. eigenvalues --    5.89824   6.01533   6.41294   6.43975   6.47523
 Alpha virt. eigenvalues --    6.48681   6.49713   6.51724   6.53609   6.88470
 Alpha virt. eigenvalues --    6.88713   8.31106  17.56721  17.61354  17.76500
 Alpha virt. eigenvalues --   23.49201  23.54556  23.61533  23.63494  23.76209
 Alpha virt. eigenvalues --   23.81726  23.83211  23.89635  23.94057  23.94932
 Alpha virt. eigenvalues --   23.99603  24.06595  24.14387  24.21053  35.64307
 Alpha virt. eigenvalues --   35.73656  49.96469  50.00773  50.06199  50.14828
 Alpha virt. eigenvalues --   50.15265  66.86149  66.86314  66.91194 189.57165
          Condensed to atoms (all electrons):
               1          2          3          4          5          6
     1  C   24.814760   0.104488  -0.867584  -0.101937  -0.282432  -0.788228
     2  N    0.104488   7.985327   0.496811  -0.121101  -0.507428  -0.440257
     3  C   -0.867584   0.496811   9.394627   0.609289   0.155023  -1.223416
     4  O   -0.101937  -0.121101   0.609289   8.288719  -0.162060  -0.131320
     5  N   -0.282432  -0.507428   0.155023  -0.162060   7.836131   0.485955
     6  C   -0.788228  -0.440257  -1.223416  -0.131320   0.485955   8.999288
     7  C   -0.017259   0.047330   0.272848   0.023673  -0.062267  -1.076102
     8  C   -0.021801  -0.015708  -0.275081  -0.001926  -0.043991   0.405156
     9  C    6.556081  -0.290054   0.495951   0.207819   0.141027  -0.181767
    10  C   -6.857455   0.015988  -1.157604   0.035311   0.113560  -0.108345
    11  C  -11.428511  -0.007161  -1.351108  -0.026517   0.052766  -0.064698
    12  C   -6.668020   0.038223  -0.099473  -0.006650  -0.051744   0.011193
    13  C    2.621056  -0.020078  -0.770488  -0.069677  -0.262638  -0.061663
    14  H   -0.043088   0.131149  -0.013638  -0.003800   0.034930   0.023876
    15  H   -0.037644   0.051161  -0.020300  -0.008926   0.146612  -0.002623
    16  H    0.008940   0.009141   0.089411   0.002384  -0.055724   0.316272
    17  H    0.005695   0.002834  -0.004420  -0.000647  -0.057445   0.439628
    18  H    0.000066  -0.000444   0.009884  -0.000099   0.008833  -0.073872
    19  H    0.000238  -0.000974  -0.002604  -0.000349   0.009740  -0.066710
    20  H   -0.000072  -0.000018  -0.000419  -0.000051   0.000543  -0.043560
    21  H    0.000147   0.000008   0.007139   0.000017  -0.001717   0.088087
    22  H   -0.000133  -0.000059  -0.005204  -0.000026   0.000307  -0.037831
    23  H   -0.026302  -0.016525   0.042811  -0.003988   0.001611   0.005301
    24  C    0.420930  -0.003835   0.001967   0.000245  -0.000693  -0.000254
    25  H    0.028102  -0.001973   0.003738  -0.000017  -0.000055   0.000043
    26  H    0.081424  -0.028352   0.002417   0.000024   0.000486  -0.000190
    27  F   -0.027425   0.000075  -0.000297  -0.000000   0.000004   0.000001
    28  F   -0.004533   0.000015  -0.000029   0.000000   0.000000  -0.000000
    29  F   -0.039855   0.000062  -0.000620  -0.000004   0.000004   0.000004
    30  S   -1.111157   0.007048  -0.037852  -0.001936   0.005986   0.001311
    31  O   -0.080074  -0.000476  -0.005329  -0.000057   0.000015  -0.000017
    32  O    0.080547   0.000526   0.006177   0.000008   0.000012   0.000026
    33  H    0.030475  -0.000954   0.010626  -0.000062   0.000045   0.000204
    34  O   -0.135219   0.011089  -0.016545  -0.001358  -0.026654  -0.007440
    35  O    0.007194  -0.028272  -0.043532  -0.000348  -0.018172   0.052218
    36  C    0.204526   0.007606   0.002322  -0.001291   0.016868   0.016950
    37  C   -0.205976  -0.016526  -0.017433  -0.001120  -0.055518   0.045617
    38  C    0.004395   0.000729   0.002058   0.000019   0.006281  -0.011217
    39  H    0.001456   0.000242  -0.000601  -0.000000   0.000370   0.000442
    40  H    0.000340   0.000304   0.000707   0.000001  -0.000139  -0.001051
    41  H   -0.000255  -0.000001   0.000106   0.000000   0.000091  -0.000475
    42  H    0.000063   0.000010   0.000070  -0.000000  -0.000046   0.000004
    43  H    0.000076   0.000019  -0.000516  -0.000000   0.000004   0.001224
               7          8          9         10         11         12
     1  C   -0.017259  -0.021801   6.556081  -6.857455 -11.428511  -6.668020
     2  N    0.047330  -0.015708  -0.290054   0.015988  -0.007161   0.038223
     3  C    0.272848  -0.275081   0.495951  -1.157604  -1.351108  -0.099473
     4  O    0.023673  -0.001926   0.207819   0.035311  -0.026517  -0.006650
     5  N   -0.062267  -0.043991   0.141027   0.113560   0.052766  -0.051744
     6  C   -1.076102   0.405156  -0.181767  -0.108345  -0.064698   0.011193
     7  C    6.690170  -0.509015  -0.019064  -0.006062  -0.002715   0.000312
     8  C   -0.509015   6.699090  -0.001343   0.000108  -0.000281  -0.000155
     9  C   -0.019064  -0.001343  32.438529   0.582845 -15.769912  -7.756879
    10  C   -0.006062   0.000108   0.582845  30.758266   1.160482 -10.252861
    11  C   -0.002715  -0.000281 -15.769912   1.160482  45.496468   1.887635
    12  C    0.000312  -0.000155  -7.756879 -10.252861   1.887635  25.628267
    13  C    0.018287  -0.003681 -10.188616  -7.670505 -10.517966   2.660274
    14  H   -0.004181   0.000536   0.075538   0.021067   0.018369  -0.009991
    15  H   -0.028949   0.009473  -0.014495  -0.001837  -0.002805  -0.000736
    16  H   -0.021114  -0.024064   0.009015   0.001214   0.000244  -0.000141
    17  H   -0.032048  -0.012910  -0.013970  -0.002348  -0.000204   0.000477
    18  H    0.460021  -0.077212   0.000805   0.000087   0.000015  -0.000049
    19  H    0.454752  -0.065408  -0.000868  -0.000039   0.000002   0.000054
    20  H    0.045845   0.341681  -0.000004  -0.000003  -0.000000   0.000000
    21  H   -0.158608   0.415431   0.000034   0.000002   0.000000  -0.000000
    22  H    0.028843   0.357845  -0.000067  -0.000003  -0.000000   0.000000
    23  H   -0.000156   0.000062   0.317570  -0.009264   0.046847  -0.017846
    24  C    0.000018  -0.000001   0.322490   0.900007  -1.567337   0.672237
    25  H   -0.000000   0.000000  -0.012252  -0.023296   0.003465   0.386965
    26  H    0.000053   0.000009   0.012208   0.009335   0.069010  -0.076783
    27  F   -0.000000   0.000000   0.024129   0.043477   0.136481  -0.121842
    28  F    0.000000   0.000000  -0.009497  -0.033525   0.108949  -0.023086
    29  F   -0.000000   0.000000  -0.114924  -0.153545   0.182920   0.060539
    30  S   -0.000146   0.000022  -0.112173  -1.369528  -3.098930   0.531913
    31  O    0.000000   0.000000  -1.014139  -1.696446   0.428720   1.470917
    32  O   -0.000000   0.000000   0.714686   1.754799   0.384947  -1.870209
    33  H    0.000001   0.000000   0.034644   0.401340  -0.092665  -0.052556
    34  O   -0.001240   0.000429  -0.015604   0.005065  -0.017468  -0.022805
    35  O   -0.004770   0.009551  -0.004642   0.000229  -0.000142  -0.002744
    36  C   -0.001443  -0.016604  -0.003240  -0.001424  -0.044972  -0.152903
    37  C   -0.021524   0.006706  -0.056585  -0.017155   0.018039   0.123843
    38  C    0.006334  -0.004325   0.002477   0.000473  -0.000396  -0.000959
    39  H   -0.000615  -0.000051   0.000191   0.000025  -0.000087  -0.001396
    40  H    0.001216   0.000098   0.000083   0.000009  -0.000045  -0.000216
    41  H    0.000908   0.000359  -0.000045  -0.000003   0.000001   0.000028
    42  H   -0.000084  -0.000003   0.000005   0.000000  -0.000001  -0.000020
    43  H   -0.000905  -0.000362   0.000000   0.000000   0.000000  -0.000018
              13         14         15         16         17         18
     1  C    2.621056  -0.043088  -0.037644   0.008940   0.005695   0.000066
     2  N   -0.020078   0.131149   0.051161   0.009141   0.002834  -0.000444
     3  C   -0.770488  -0.013638  -0.020300   0.089411  -0.004420   0.009884
     4  O   -0.069677  -0.003800  -0.008926   0.002384  -0.000647  -0.000099
     5  N   -0.262638   0.034930   0.146612  -0.055724  -0.057445   0.008833
     6  C   -0.061663   0.023876  -0.002623   0.316272   0.439628  -0.073872
     7  C    0.018287  -0.004181  -0.028949  -0.021114  -0.032048   0.460021
     8  C   -0.003681   0.000536   0.009473  -0.024064  -0.012910  -0.077212
     9  C  -10.188616   0.075538  -0.014495   0.009015  -0.013970   0.000805
    10  C   -7.670505   0.021067  -0.001837   0.001214  -0.002348   0.000087
    11  C  -10.517966   0.018369  -0.002805   0.000244  -0.000204   0.000015
    12  C    2.660274  -0.009991  -0.000736  -0.000141   0.000477  -0.000049
    13  C   29.290908  -0.099793   0.010763  -0.002197   0.004106  -0.000348
    14  H   -0.099793   0.286191   0.018445  -0.000221   0.000176   0.000034
    15  H    0.010763   0.018445   0.317564   0.002517   0.000363   0.001695
    16  H   -0.002197  -0.000221   0.002517   0.441021  -0.047168   0.005733
    17  H    0.004106   0.000176   0.000363  -0.047168   0.443233  -0.008885
    18  H   -0.000348   0.000034   0.001695   0.005733  -0.008885   0.443785
    19  H    0.000625   0.000043   0.000251  -0.008267   0.005618  -0.039421
    20  H    0.000013   0.000000  -0.000019  -0.000767   0.002933  -0.007932
    21  H   -0.000012   0.000000  -0.000047  -0.000012  -0.000015  -0.003887
    22  H    0.000018   0.000000  -0.000048   0.002960  -0.000642   0.006514
    23  H   -0.018676  -0.000331   0.000037  -0.000014   0.000003  -0.000000
    24  C    0.212015  -0.000064   0.000004  -0.000000  -0.000000  -0.000000
    25  H   -0.075958  -0.000076   0.000001  -0.000000  -0.000000   0.000000
    26  H    0.223891   0.012467  -0.000048   0.000000   0.000001  -0.000000
    27  F   -0.066802   0.000003  -0.000000   0.000000  -0.000000   0.000000
    28  F   -0.006846  -0.000000   0.000000  -0.000000   0.000000   0.000000
    29  F    0.033720   0.000001   0.000000   0.000000  -0.000000   0.000000
    30  S    1.362518   0.000638  -0.000072  -0.000000   0.000002   0.000000
    31  O    0.628669  -0.000003   0.000000  -0.000000  -0.000000   0.000000
    32  O   -1.025504   0.000015  -0.000000   0.000000   0.000000   0.000000
    33  H   -0.030231   0.000018  -0.000000  -0.000000  -0.000000   0.000000
    34  O    0.228400   0.048329   0.014721   0.000023  -0.000025   0.000253
    35  O   -0.001323   0.010443   0.052585  -0.000416  -0.000069  -0.001592
    36  C   -0.061248  -0.009816  -0.003144  -0.000183  -0.000306   0.003042
    37  C    0.104053   0.019473   0.031328  -0.000433  -0.000057  -0.000734
    38  C   -0.001836  -0.000827  -0.003431   0.000056   0.000022   0.000507
    39  H    0.000435  -0.000370  -0.000134   0.000000  -0.000000   0.000002
    40  H   -0.000379  -0.000012   0.000047   0.000000   0.000000  -0.000001
    41  H    0.000188   0.000008  -0.000058   0.000000   0.000000  -0.000031
    42  H   -0.000077  -0.000001   0.000028  -0.000000  -0.000000   0.000001
    43  H   -0.000040  -0.000017  -0.000200  -0.000000  -0.000000  -0.000005
              19         20         21         22         23         24
     1  C    0.000238  -0.000072   0.000147  -0.000133  -0.026302   0.420930
     2  N   -0.000974  -0.000018   0.000008  -0.000059  -0.016525  -0.003835
     3  C   -0.002604  -0.000419   0.007139  -0.005204   0.042811   0.001967
     4  O   -0.000349  -0.000051   0.000017  -0.000026  -0.003988   0.000245
     5  N    0.009740   0.000543  -0.001717   0.000307   0.001611  -0.000693
     6  C   -0.066710  -0.043560   0.088087  -0.037831   0.005301  -0.000254
     7  C    0.454752   0.045845  -0.158608   0.028843  -0.000156   0.000018
     8  C   -0.065408   0.341681   0.415431   0.357845   0.000062  -0.000001
     9  C   -0.000868  -0.000004   0.000034  -0.000067   0.317570   0.322490
    10  C   -0.000039  -0.000003   0.000002  -0.000003  -0.009264   0.900007
    11  C    0.000002  -0.000000   0.000000  -0.000000   0.046847  -1.567337
    12  C    0.000054   0.000000  -0.000000   0.000000  -0.017846   0.672237
    13  C    0.000625   0.000013  -0.000012   0.000018  -0.018676   0.212015
    14  H    0.000043   0.000000   0.000000   0.000000  -0.000331  -0.000064
    15  H    0.000251  -0.000019  -0.000047  -0.000048   0.000037   0.000004
    16  H   -0.008267  -0.000767  -0.000012   0.002960  -0.000014  -0.000000
    17  H    0.005618   0.002933  -0.000015  -0.000642   0.000003  -0.000000
    18  H   -0.039421  -0.007932  -0.003887   0.006514  -0.000000  -0.000000
    19  H    0.441424   0.006530  -0.003914  -0.007665  -0.000000  -0.000000
    20  H    0.006530   0.446869  -0.024238  -0.036565  -0.000000   0.000000
    21  H   -0.003914  -0.024238   0.425640  -0.024138   0.000000  -0.000000
    22  H   -0.007665  -0.036565  -0.024138   0.446366  -0.000000   0.000000
    23  H   -0.000000  -0.000000   0.000000  -0.000000   0.358986  -0.000543
    24  C   -0.000000   0.000000  -0.000000   0.000000  -0.000543   7.206207
    25  H   -0.000000   0.000000  -0.000000   0.000000   0.000064  -0.001349
    26  H   -0.000000  -0.000000   0.000000  -0.000000  -0.000078  -0.000648
    27  F    0.000000  -0.000000  -0.000000   0.000000  -0.000000   0.161037
    28  F    0.000000  -0.000000  -0.000000   0.000000  -0.000001   0.223282
    29  F    0.000000   0.000000  -0.000000   0.000000   0.000038   0.137485
    30  S    0.000000  -0.000000   0.000000  -0.000000   0.004809  -2.591994
    31  O    0.000000  -0.000000   0.000000   0.000000   0.000473  -0.091294
    32  O   -0.000000  -0.000000   0.000000  -0.000000  -0.000044  -0.020132
    33  H   -0.000000   0.000000  -0.000000   0.000000  -0.002793  -0.001675
    34  O   -0.000283  -0.000000  -0.000000  -0.000001   0.000050   0.000002
    35  O   -0.001888   0.000038  -0.000041  -0.000012   0.000006  -0.000001
    36  C    0.002786   0.000081  -0.000196   0.000163   0.000069   0.000155
    37  C   -0.000784  -0.000023   0.000154  -0.000039  -0.000002   0.000005
    38  C    0.001089   0.000012  -0.000076   0.000030   0.000000  -0.000003
    39  H    0.000002   0.000000  -0.000000   0.000000   0.000000  -0.000000
    40  H   -0.000002   0.000000  -0.000000   0.000000  -0.000000   0.000000
    41  H   -0.000010  -0.000000   0.000000  -0.000000   0.000000   0.000000
    42  H    0.000000  -0.000000  -0.000000  -0.000000  -0.000000   0.000000
    43  H   -0.000024   0.000000   0.000001  -0.000000   0.000000  -0.000000
              25         26         27         28         29         30
     1  C    0.028102   0.081424  -0.027425  -0.004533  -0.039855  -1.111157
     2  N   -0.001973  -0.028352   0.000075   0.000015   0.000062   0.007048
     3  C    0.003738   0.002417  -0.000297  -0.000029  -0.000620  -0.037852
     4  O   -0.000017   0.000024  -0.000000   0.000000  -0.000004  -0.001936
     5  N   -0.000055   0.000486   0.000004   0.000000   0.000004   0.005986
     6  C    0.000043  -0.000190   0.000001  -0.000000   0.000004   0.001311
     7  C   -0.000000   0.000053  -0.000000   0.000000  -0.000000  -0.000146
     8  C    0.000000   0.000009   0.000000   0.000000   0.000000   0.000022
     9  C   -0.012252   0.012208   0.024129  -0.009497  -0.114924  -0.112173
    10  C   -0.023296   0.009335   0.043477  -0.033525  -0.153545  -1.369528
    11  C    0.003465   0.069010   0.136481   0.108949   0.182920  -3.098930
    12  C    0.386965  -0.076783  -0.121842  -0.023086   0.060539   0.531913
    13  C   -0.075958   0.223891  -0.066802  -0.006846   0.033720   1.362518
    14  H   -0.000076   0.012467   0.000003  -0.000000   0.000001   0.000638
    15  H    0.000001  -0.000048  -0.000000   0.000000   0.000000  -0.000072
    16  H   -0.000000   0.000000   0.000000  -0.000000   0.000000  -0.000000
    17  H   -0.000000   0.000001  -0.000000   0.000000  -0.000000   0.000002
    18  H    0.000000  -0.000000   0.000000   0.000000   0.000000   0.000000
    19  H   -0.000000  -0.000000   0.000000   0.000000   0.000000   0.000000
    20  H    0.000000  -0.000000  -0.000000  -0.000000   0.000000  -0.000000
    21  H   -0.000000   0.000000  -0.000000  -0.000000  -0.000000   0.000000
    22  H    0.000000  -0.000000   0.000000   0.000000   0.000000  -0.000000
    23  H    0.000064  -0.000078  -0.000000  -0.000001   0.000038   0.004809
    24  C   -0.001349  -0.000648   0.161037   0.223282   0.137485  -2.591994
    25  H    0.354858  -0.003345  -0.002860  -0.000124   0.000196   0.018111
    26  H   -0.003345   0.357016   0.000049  -0.000001   0.000002   0.005696
    27  F   -0.002860   0.000049   8.921936  -0.039221  -0.036467   0.033203
    28  F   -0.000124  -0.000001  -0.039221   8.956495  -0.039894  -0.052188
    29  F    0.000196   0.000002  -0.036467  -0.039894   8.924019   0.074570
    30  S    0.018111   0.005696   0.033203  -0.052188   0.074570  21.753198
    31  O    0.001213  -0.000079  -0.006637  -0.006118   0.015734   0.040681
    32  O   -0.005968   0.000629   0.015117  -0.004083  -0.006041  -0.359843
[...]
 029,-0.00000056,0.00000310,0.00000185,-0.00000164,0.00000040,-0.000000
 19,-0.00000017,0.00079770,-0.00152996,0.00011049,-0.00020847,0.0003271
 8,-0.00056733,0.00150769,0.00274378,-0.00048942,-0.11299120,-0.0177682
 3,-0.10666506,0.01458459,0.00217889,0.00784542,0.12125807,0.01941024,0
 .11390830,0.00003475,0.00000509,-0.00000637,0.00002687,0.00008739,0.00
 002765,-0.00011771,0.00002164,0.00001160,0.00003019,-0.00001783,-0.000
 00723,0.00001726,-0.00014734,-0.00003179,0.00002310,-0.00000448,-0.000
 00298,-0.00000159,-0.00000065,0.00000951,0.00000019,0.00000036,-0.0000
 0364,-0.00000897,0.00000526,0.00000190,0.00000288,0.00000105,-0.000000
 42,-0.00000817,0.00000440,-0.00000082,0.00000400,-0.00000305,-0.000000
 16,-0.00000755,-0.00000635,0.00000374,-0.00002794,-0.00018913,-0.00004
 392,0.00000534,0.00019923,0.00003182,-0.00000487,-0.00000324,-0.000001
 10,-0.00000414,-0.00000175,0.00000100,-0.00000061,0.00000205,-0.000002
 51,-0.00000117,0.00000240,0.00000055,-0.00000003,-0.00000014,0.0000001
 1,-0.00000068,-0.00000023,0.00000041,-0.00000058,-0.00000082,-0.000000
 42,0.00000019,-0.00000002,-0.00000004,0.00000061,0.00000040,0.00000145
 ,-0.00000067,0.00000050,0.00000025,0.00000670,-0.00000252,-0.00000232,
 -0.00000042,-0.00000034,-0.00000035,-0.00000125,0.00000019,-0.00000076
 ,-0.00000037,0.00000004,-0.00000004,0.00001019,-0.00000288,-0.00000071
 ,-0.00000189,0.00000181,-0.00000017,-0.00000316,-0.00000065,0.00000054
 ,-0.00000069,0.00000040,0.00000025,-0.00038783,0.00240385,-0.00047805,
 -0.00100688,-0.00226483,-0.00135637,-0.00315746,-0.00435232,0.00898828
 ,-0.04920660,-0.01090390,0.03978031,-0.00402291,-0.00730668,0.02308241
 ,0.00464187,0.00980469,-0.02641402,0.05427276,-0.00006296,0.00002461,0
 .00000081,0.00008975,0.00000224,0.00003969,-0.00021251,0.00012831,0.00
 004227,0.00003613,-0.00014257,-0.00003534,0.00005226,-0.00042127,-0.00
 006266,0.00008289,-0.00000619,-0.00000376,-0.00001152,-0.00000014,-0.0
 0000320,0.00000524,0.00000008,-0.00000064,0.00001326,-0.00001490,-0.00
 000303,-0.00000455,0.00000149,-0.00000142,0.00001248,-0.00001101,-0.00
 000312,-0.00000689,0.00000891,-0.00000229,0.00002336,-0.00000230,0.000
 00468,-0.00005124,0.00011683,-0.00006127,0.00006720,0.00068350,0.00008
 310,-0.00001913,-0.00001102,-0.00000336,-0.00001663,-0.00001145,0.0000
 0243,-0.00000076,0.00000346,-0.00000936,-0.00000518,-0.00000009,0.0000
 0843,-0.00000230,-0.00000235,0.00000111,-0.00000450,0.00000049,0.00000
 060,-0.00000282,-0.00000218,-0.00000173,-0.00000031,0.00000282,0.00000
 093,-0.00000088,0.00000122,-0.00000013,0.00000036,-0.00000058,-0.00000
 016,-0.00000520,0.00000679,0.00000132,0.00000054,-0.00000204,-0.000000
 54,0.00000319,-0.00000151,0.00000156,0.00000070,-0.00000020,-0.0000000
 9,-0.00001710,0.00001196,0.00000377,0.00000312,-0.00000263,-0.00000098
 ,0.00000309,-0.00000214,-0.00000148,0.00000032,0.,0.00000045,-0.000959
 32,0.00029421,-0.00349442,-0.00458508,-0.00553092,-0.00294674,-0.00124
 509,-0.00773649,0.03444920,-0.01022982,-0.07253442,0.07948464,0.002973
 53,0.00551807,-0.01981328,0.00114054,0.00107578,-0.00483071,0.01102757
 ,0.07899363,-0.00000023,-0.00000253,-0.00000467,-0.00001573,-0.0000000
 3,-0.00001050,0.00005370,-0.00001599,-0.00001104,-0.00001110,0.0000155
 5,0.00000398,0.00000068,0.00005193,0.00002196,-0.00001027,0.00000653,0
 .00000248,-0.00000045,0.00000278,-0.00000306,-0.00000107,-0.00000106,0
 .00000224,-0.00000035,0.,0.00000655,-0.00000180,0.00000014,-0.00000399
 ,0.00000793,-0.00000028,0.00000490,-0.00000193,-0.00000167,-0.00000552
 ,-0.00000179,0.00000079,0.00000540,0.00001444,0.00005589,0.00002984,-0
 .00002552,-0.00005741,-0.00003768,0.00000283,0.00000218,0.00000046,0.0
 0000241,0.00000240,0.00000019,0.00000094,-0.00000193,0.00000269,0.0000
 0046,-0.00000008,-0.00000301,0.00000075,0.00000057,-0.00000068,0.00000
 053,-0.00000038,-0.00000053,0.00000091,0.00000085,0.00000041,0.0000002
 6,-0.00000030,-0.00000038,0.00000126,0.00000023,-0.00000431,0.00000004
 ,0.00000068,-0.00000056,-0.00000543,0.00000421,0.00000035,-0.00000028,
 0.00000093,0.00000062,-0.00000068,0.00000030,0.00000043,-0.00000055,-0
 .00000039,0.00000080,-0.00000527,0.00000104,0.00000028,0.00000025,-0.0
 0000455,0.00000079,0.00000276,0.00000187,0.00000047,0.00000074,-0.0000
 0071,-0.00000002,-0.00019947,-0.00085409,0.00111223,-0.00081064,0.0007
 8901,-0.00011101,0.00106593,-0.00154242,0.00048714,0.03885259,0.077627
 97,-0.28239622,0.00176457,0.00291805,-0.01172170,0.00194941,0.00509250
 ,-0.01496048,-0.04457298,-0.08215852,0.30611325,0.00001849,-0.00000284
 ,0.00000167,-0.00000650,0.00004037,-0.00000133,0.00000128,-0.00001098,
 -0.00000179,0.00000282,0.00001570,0.00000222,0.00000005,0.00002530,0.0
 0000150,-0.00000593,-0.00000161,0.00000133,0.00000118,0.00000179,-0.00
 000415,-0.00000051,0.00000052,0.00000080,-0.00000437,0.00000413,0.0000
 0024,0.00000301,0.00000049,-0.00000179,-0.00000581,0.00000226,0.000001
 17,0.00000044,-0.00000056,-0.00000073,-0.00000389,-0.00000310,-0.00000
 106,0.00000039,-0.00007195,0.00000187,-0.00001409,-0.00004329,-0.00000
 864,0.00000106,0.00000144,0.00000045,0.00000159,0.00000154,-0.00000002
 ,0.00000167,0.00000057,0.00000216,0.00000063,0.00000052,0.00000008,0.0
 0000019,-0.00000052,-0.00000047,-0.00000024,0.00000057,-0.00000029,0.0
 0000035,-0.00000026,0.00000079,0.00000029,-0.00000011,0.00000029,-0.00
 000070,0.00000138,0.00000332,-0.00000050,0.,0.00000032,0.00000217,-0.0
 0000035,0.00000185,-0.00000011,-0.00000104,-0.00000105,-0.00000040,-0.
 00000010,-0.00000080,0.00000030,0.00000011,-0.00000079,0.00000651,-0.0
 0000098,-0.00000109,-0.00000124,0.00000154,-0.00000001,-0.00000259,-0.
 00000155,0.00000025,-0.00000029,0.00000039,0.00000020,-0.00005484,0.00
 040435,-0.00016033,0.00052767,0.00032613,-0.00043573,0.00003223,-0.001
 44092,-0.00015855,-0.00384014,-0.00745028,0.02424786,-0.05328511,-0.01
 081452,0.03478076,0.00086325,-0.00090842,-0.00053074,-0.00283315,0.003
 34464,0.00210075,0.05556060,0.00000429,0.00000037,-0.00000487,-0.00000
 379,-0.00000042,-0.00000026,0.00001059,-0.00000985,-0.00000067,-0.0000
 0141,0.00000670,0.00000217,-0.00000212,0.00002171,0.00000307,-0.000002
 57,0.00000211,-0.00000046,0.00000121,0.00000628,0.00000056,0.00000114,
 0.00000094,-0.00000120,0.00000048,0.00000073,0.00000322,-0.00000051,-0
 .00000139,-0.00000070,-0.00000259,0.00000147,0.00000099,-0.00000006,0.
 00000033,-0.00000139,0.00000016,-0.00000102,0.00000363,0.00000117,-0.0
 0000090,0.00000712,-0.00000706,-0.00003069,-0.00001472,-0.00000046,0.0
 0000143,0.00000093,0.00000018,0.00000065,-0.00000033,-0.00000120,-0.00
 000085,0.00000285,-0.00000207,-0.00000314,-0.00000118,0.00000024,-0.00
 000059,-0.00000045,-0.00000049,0.00000004,0.00000003,0.00000047,-0.000
 00054,0.00000068,0.00000021,-0.00000010,-0.00000049,0.00000057,-0.0000
 0015,0.,-0.00000026,0.00000009,-0.00000003,-0.00000061,-0.00000121,-0.
 00000159,-0.00000030,0.00000049,0.00000034,-0.00000033,0.00000014,0.,-
 0.00000028,-0.00000008,0.00000036,0.00000395,-0.00000118,-0.00000274,-
 0.00000076,0.00000131,0.00000043,-0.00000193,-0.00000117,0.00000126,0.
 ,0.00000013,-0.00000016,0.00017467,0.00001823,0.00025746,0.00025089,-0
 .00042571,-0.00044803,-0.00089664,0.00041892,-0.00038115,0.00218564,0.
 00544626,-0.01924848,-0.01115934,-0.06908738,0.07443157,-0.00070741,0.
 00070799,0.00065100,0.00272720,-0.00178132,-0.00179278,0.00946103,0.07
 210846,-0.00001922,-0.00000212,0.00000105,-0.00000522,-0.00005117,0.00
 000496,0.00002617,0.00000076,-0.00000317,-0.00000796,-0.00000760,0.000
 00008,-0.00000127,0.00000242,0.00001034,0.00000370,0.00000305,0.000000
 39,-0.00000378,-0.00000025,-0.00000582,0.00000151,-0.00000071,0.000001
 85,0.00000283,-0.00000216,-0.00000003,-0.00000041,0.00000119,0.0000010
 1,0.00000933,-0.00000414,-0.00000143,-0.00000029,-0.00000194,0.0000015
 5,0.00000164,0.00000470,-0.00000103,0.00000349,0.00008194,-0.00000555,
 -0.00000661,-0.00000272,-0.00000496,-0.00000078,0.00000165,0.00000016,
 -0.00000075,-0.00000035,-0.00000014,-0.00000026,-0.00000230,0.00000294
 ,-0.00000073,-0.00000037,-0.00000049,-0.00000035,-0.00000022,-0.000000
 13,-0.00000138,0.00000033,-0.00000038,0.00000049,0.00000076,0.00000026
 ,-0.00000029,-0.00000046,-0.00000029,0.00000159,-0.00000039,-0.0000050
 9,0.00000115,0.00000021,-0.00000035,-0.00000190,0.00000110,-0.00000245
 ,-0.00000006,0.00000017,0.00000067,-0.00000031,0.00000016,0.00000067,-
 0.00000070,-0.00000034,0.00000099,-0.00000993,0.00000294,0.00000480,0.
 00000157,-0.00000529,-0.00000030,0.00000524,0.00000353,-0.00000180,0.0
 0000053,-0.00000084,-0.00000018,-0.00019791,-0.00071265,0.00008997,-0.
 00102225,0.00028505,0.00099288,0.00118355,0.00171576,-0.00040401,0.001
 71326,0.00302614,-0.01255113,0.03569340,0.07222370,-0.29312174,0.00012
 989,-0.00008426,0.00077709,0.00226791,-0.00183934,0.00033301,-0.041651
 20,-0.07916776,0.31583962,0.00007785,-0.00000904,-0.00000735,0.0000030
 3,0.00021008,-0.00001054,-0.00006752,-0.00002141,-0.00000300,0.0000276
 7,0.00004566,0.00000836,0.00000901,0.00002687,0.00000300,-0.00001550,-
 0.00000359,0.00000048,0.00000237,0.00000356,0.00000014,0.00000001,-0.0
 0000107,0.00000009,-0.00002086,0.00001638,0.00000226,0.00000946,0.0000
 0467,-0.00000142,-0.00001676,0.00000814,0.00000205,0.00000775,-0.00000
 586,-0.00000026,-0.00002170,-0.00001301,0.00000055,-0.00001556,-0.0003
 3931,0.00002659,-0.00001540,-0.00005708,-0.00000657,0.00000329,0.00000
 106,-0.00000004,0.00000406,0.00000147,-0.00000003,0.00000019,0.0000010
 4,-0.00000088,0.00000091,0.00000107,0.00000097,0.00000010,-0.00000006,
 0.00000003,0.00000172,0.00000002,-0.00000009,-0.00000002,-0.00000009,-
 0.00000011,0.00000016,-0.00000104,0.00000008,-0.00000004,0.00000057,0.
 00000496,-0.00000085,0.00000041,0.00000020,0.00000950,0.00000230,0.000
 00100,-0.00000031,-0.00000076,-0.00000107,-0.00000293,0.00000106,-0.00
 000224,0.00000013,0.00000044,-0.00000107,0.00001881,-0.00000843,-0.000
 00185,-0.00000323,0.00000420,0.,-0.00000484,0.00000006,0.00000036,-0.0
 0000162,0.00000060,0.00000007,-0.00052105,0.00311776,0.00070097,0.0011
 8946,-0.00021654,-0.00055625,-0.00432187,-0.00116644,0.00248065,0.0069
 3867,0.02624883,-0.00077294,-0.06634554,-0.07001198,-0.00005732,0.0009
 6788,-0.00070123,-0.00076892,0.00087978,-0.00089187,-0.00030885,-0.002
 33374,-0.00303437,-0.00038164,0.06976810,-0.00010013,0.00000968,0.0000
 1130,0.00001820,-0.00021312,0.00000674,0.00002802,0.00005660,0.0000143
 8,-0.00002175,-0.00008168,-0.00001366,-0.00001018,-0.00010503,-0.00002
 505,0.00003038,0.00000132,-0.00000134,-0.00000330,-0.00000318,-0.00000
 052,0.00000187,0.00000111,-0.00000027,0.00002442,-0.00001907,-0.000009
 57,-0.00001116,-0.00000335,0.00000894,0.00002069,-0.00001433,-0.000009
 73,-0.00000441,0.00000626,0.00000655,0.00002412,0.00002040,-0.00000816
 ,0.00000215,0.00039691,-0.00002242,0.00006056,0.00020534,0.00004514,-0
 .00000743,-0.00000399,-0.00000176,-0.00000646,-0.00000479,0.00000089,0
 .00000065,0.00000203,-0.00000260,0.00000076,0.00000111,0.00000281,-0.0
 0000114,-0.00000080,0.00000074,-0.00000203,0.00000058,0.00000056,-0.00
 000122,-0.00000094,-0.00000112,-0.00000142,0.00000070,0.00000057,-0.00
 000053,-0.00000125,-0.00000712,0.00000153,-0.00000050,-0.00000009,-0.0
 0001118,-0.00000034,0.00000118,0.00000119,0.00000018,0.00000170,0.0000
 0455,-0.00000148,0.00000308,-0.00000033,-0.00000082,0.00000174,-0.0000
 2921,0.00001117,0.00000963,0.00000646,-0.00000601,-0.00000243,0.000009
 99,0.00000332,-0.00000408,0.00000086,-0.00000104,-0.00000038,0.0009472
 7,-0.00299888,-0.00086839,-0.00009128,-0.00109418,-0.00014112,0.002429
 95,0.00296589,-0.00092554,-0.00578566,-0.01629096,0.00097802,-0.068277
 99,-0.30043140,0.00186873,0.00008415,0.00055019,0.00049919,-0.00022264
 ,0.00068838,-0.00028432,-0.00187428,-0.00732403,0.00021154,0.07358081,
 0.32493799,-0.00005039,0.00000634,0.00000270,-0.00000044,-0.00013248,0
 .00000925,0.00003659,0.00001784,0.00000437,-0.00001630,-0.00003328,-0.
 00000597,-0.00000564,-0.00002807,-0.00000151,0.00001080,0.00000170,-0.
 00000144,-0.00000165,-0.00000080,-0.00000174,-0.00000011,0.00000060,0.
 00000072,0.00001335,-0.00001074,-0.00000176,-0.00000638,-0.00000296,0.
 00000195,0.00001025,-0.00000503,-0.00000219,-0.00000318,0.00000305,0.0
 0000141,0.00001286,0.00000902,-0.00000276,0.00000971,0.00022375,-0.000
 01348,0.00001514,0.00005335,0.00000038,-0.00000305,-0.00000114,-0.0000
 0022,-0.00000203,-0.00000153,0.00000028,-0.00000053,0.00000094,-0.0000
 0031,0.,0.00000055,0.00000143,-0.00000045,-0.00000028,0.00000024,-0.00
 000061,0.00000006,-0.00000005,-0.00000011,0.00000007,-0.00000015,-0.00
 000029,0.00000049,0.00000004,0.00000022,0.,-0.00000323,0.00000052,-0.0
 0000027,0.00000003,-0.00000583,-0.00000067,0.00000123,0.00000028,0.000
 00021,0.00000066,0.00000194,-0.00000077,0.00000148,-0.00000018,-0.0000
 0046,0.00000073,-0.00001242,0.00000502,0.00000265,0.00000227,-0.000002
 83,-0.00000067,0.00000351,0.00000059,-0.00000085,0.00000086,-0.0000004
 2,-0.00000006,0.00042996,-0.00197181,-0.00037852,-0.00055280,-0.000057
 17,0.00045012,0.00293946,0.00086209,-0.00051792,-0.00485863,-0.0151516
 0,-0.00077761,0.00012514,0.00272573,-0.04845487,-0.00012958,0.00060178
 ,0.00037144,-0.00075220,0.00033613,0.00031340,0.00829755,0.02992868,0.
 00191703,-0.00246181,-0.00105616,0.04731826,0.00002023,0.00000222,-0.0
 0000414,0.00000086,0.00005923,0.00000107,-0.00002475,-0.00000563,-0.00
 000282,0.00000792,0.00001355,0.00000321,0.00000440,0.00001515,0.000005
 25,-0.00000736,-0.00000090,-0.00000033,0.00000151,0.00000381,-0.000002
 90,-0.00000097,0.00000059,0.00000090,-0.00000514,0.00000298,0.00000355
 ,0.00000066,0.00000084,-0.00000219,-0.00000198,0.00000435,0.00000318,0
 .00000054,-0.00000140,-0.00000224,-0.00000404,-0.00000709,0.00000386,0
 .00000197,-0.00009358,0.00000697,-0.00001160,-0.00002661,-0.00001561,0
 .00000227,0.00000062,-0.00000019,0.00000202,0.00000018,0.00000058,0.00
 000082,0.00000402,-0.00000054,0.00000086,0.00000652,0.00000038,-0.0000
 0005,-0.00000071,0.,0.00000252,-0.00000054,-0.00000054,-0.00000009,0.0
 0000025,0.00000038,0.00000018,0.00000015,-0.00000046,0.00000048,-0.000
 00211,-0.00000059,-0.00000002,-0.00000018,-0.00000019,0.00000237,0.000
 00037,-0.00000145,-0.00000036,0.00000166,0.00000054,-0.00000132,0.0000
 0086,-0.00000040,0.00000004,0.00000073,-0.00000019,0.00000495,-0.00000
 510,-0.00000276,-0.00000153,0.00000166,0.00000120,-0.00000120,0.000000
 90,0.00000121,-0.00000008,0.00000019,0.00000003,0.00027716,0.00075832,
 0.00012157,0.00150724,-0.00014100,-0.00028776,-0.00092480,-0.00221619,
 0.00025719,-0.02062916,-0.00190165,-0.01156712,-0.25080361,-0.02209191
 ,-0.11557559,-0.00226313,0.00304547,0.00276814,0.00085061,-0.00054453,
 0.00015024,0.00536796,0.00100248,0.00226796,-0.00621059,-0.00081484,-0
 .00304580,0.27283422,0.00000678,-0.00000071,0.00000152,-0.00000524,0.0
 0000360,0.00000210,0.00001581,-0.00000942,-0.00000320,-0.00000235,0.00
 000871,0.00000044,-0.00000549,0.00002308,0.00001267,-0.00000033,-0.000
 00052,0.00000002,-0.00000065,-0.00000756,0.00000914,-0.00000167,0.0000
 0341,-0.00000260,-0.00000071,0.00000028,-0.00000005,-0.00000100,-0.000
 00110,0.00000018,-0.00000050,0.00000146,0.00000047,0.00000017,-0.00000
 008,-0.00000077,-0.00000317,-0.00000004,0.00000049,-0.00000481,0.00000
 007,-0.00000216,-0.00000813,-0.00003053,-0.00002909,0.00000007,0.00000
 115,0.00000049,-0.00000059,0.00000153,-0.00000132,0.00000051,0.0000013
 8,0.00000176,0.00000149,0.00000513,-0.00000568,0.00000125,0.00000135,-
 0.00000045,0.00000007,-0.00000028,-0.00000002,0.00000089,0.00000066,0.
 00000052,0.,-0.00000026,-0.00000006,0.00000040,0.00000011,-0.00000097,
 0.00000001,0.00000022,-0.00000011,0.00000096,-0.00000036,-0.00000057,-
 0.00000027,0.00000048,0.00000034,-0.00000033,0.00000013,0.00000002,-0.
 00000030,-0.00000014,0.00000043,0.00000243,-0.00000196,-0.00000015,-0.
 00000065,-0.00000018,-0.00000022,-0.00000069,0.00000056,0.00000026,0.0
 0000007,-0.00000003,0.00000010,-0.00012919,-0.00000680,-0.00028039,0.0
 0034641,-0.00038589,0.00004053,0.00002405,0.00047956,0.00091370,0.0167
 1987,0.00140939,0.01022197,-0.02391401,-0.04977984,-0.01315145,0.00269
 668,-0.00174395,-0.00176691,-0.00086376,0.00065493,0.00014305,0.008992
 89,-0.00007307,0.00432026,-0.02679388,-0.00125798,-0.01631952,0.022926
 89,0.05070351,-0.00000252,0.00000220,0.00000113,0.00000791,0.00000298,
 -0.00000132,-0.00001537,0.00000787,0.00000193,0.00000274,-0.00000678,-
 0.00000138,0.00000168,-0.00001705,-0.00000471,0.00000087,-0.00000052,-
 0.00000100,0.00000241,0.00000015,0.00000473,-0.00000097,0.00000123,-0.
 00000086,0.00000127,-0.00000105,0.00000028,-0.00000116,-0.00000016,-0.
 00000063,0.00000144,-0.00000046,0.00000056,-0.00000136,0.00000070,-0.0
 0000216,0.00000147,0.00000036,0.00000261,-0.00000469,0.00000168,-0.000
 00269,0.00000979,0.00003515,-0.00000094,-0.00000041,-0.00000133,-0.000
 00054,-0.00000011,-0.00000094,0.00000016,-0.00000179,0.00000160,-0.000
 00416,0.00000121,0.00000474,0.00000106,0.00000013,-0.00000051,0.000000
 10,0.00000182,-0.00000062,-0.00000006,-0.00000042,-0.00000064,-0.00000
 029,0.00000007,0.00000019,-0.00000005,0.,-0.00000043,-0.00000031,0.,-0
 .00000003,-0.00000002,-0.00000071,0.00000018,-0.00000029,-0.00000003,0
 .00000050,0.00000024,0.00000011,0.00000010,0.00000015,0.00000014,0.000
 00012,0.00000004,-0.00000083,-0.00000036,-0.00000061,0.00000003,0.0000
 0034,0.00000011,-0.00000005,-0.00000008,0.00000048,0.00000007,0.,0.000
 00007,0.00002049,0.00014051,-0.00021340,0.00030057,-0.00051910,-0.0000
 7272,-0.00071668,0.00021643,0.00062222,0.01468604,0.00213192,0.0082197
 0,-0.11677111,-0.01198260,-0.11468350,0.00246727,-0.00221342,-0.000310
 67,-0.00053030,0.00081646,0.00083148,-0.02648688,-0.00422696,-0.013870
 86,0.00211142,-0.00028760,-0.00023447,0.12491640,0.01589525,0.11972062
 \\0.00000167,0.00000030,-0.00000353,0.00000613,0.00000936,0.00000171,-
 0.00000687,-0.00000038,-0.00000781,-0.00000267,0.00000180,0.00000002,0
 .00000094,-0.00000156,0.00000181,0.00000030,0.00000108,-0.00000093,0.0
 0000041,0.00000193,-0.00000046,-0.00000001,0.00000180,-0.00000060,0.00
 000065,-0.00000184,0.00000050,-0.00000174,-0.00000061,-0.00000274,-0.0
 0000079,-0.00000150,-0.00000041,0.00000003,-0.00000115,0.00000167,-0.0
 0000287,-0.00000123,0.00000056,-0.00000036,-0.00001374,0.00000039,-0.0
 0000051,0.00000575,0.00000113,-0.00000009,0.00000162,-0.00000113,-0.00
 000096,0.00000161,-0.00000140,0.00000004,0.00000110,-0.00000028,0.0000
 0060,0.00000180,0.00000025,-0.00000051,0.00000183,-0.00000135,0.000000
 33,0.00000228,-0.00000038,0.00000003,0.00000291,-0.00000097,-0.0000000
 9,0.00000006,-0.00000159,-0.00000157,-0.00000348,-0.00000096,0.0000001
 7,-0.00000117,0.00000007,0.00000021,0.00000003,0.00000060,-0.00000182,
 -0.00000367,0.00000047,-0.00000221,-0.00000352,-0.00000098,-0.00000090
 ,-0.00000168,-0.00000161,0.00000045,-0.00000109,-0.00000239,-0.0000023
 1,-0.00000204,-0.00000128,-0.00000073,-0.00000068,-0.00000034,-0.00000
 155,-0.00000050,-0.00000164,0.00000394,0.00000325,0.00000188,-0.000007
 90,-0.00000420,0.00000642,0.00000529,0.00000137,-0.00000474,0.00000364
 ,0.00000213,0.00000338,0.00000223,0.00000082,0.00000326,0.00000154,0.0
 0000006,0.00000205,0.00000198,0.00000035,0.00000279,0.00000152,-0.0000
 0019,0.00000247,0.00000238,0.00000013,0.00000356,0.00000194,0.00000085
 ,0.00000254\\\@


 OLD HORSE! OLD HORSE! WHAT BROUGHT YOU HERE?
 FROM SACARAP' TO PORTLAND PIER
 I'VE CARTED STONE THIS MANY A YEAR;
 TILL, KILLED BY BLOWS AND SORE ABUSE,
 THEY SALTED ME DOWN FOR SAILORS' USE.
 THE SAILORS THEY DO ME DESPISE;
 THEY TURN ME OVER AND DAMN MY EYES;
 CUT OFF MY MEAT, AND SCRAPE MY BONES,
 AND PITCH ME OVER TO DAVY JONES.

    SAILORS' COMPLAINT ABOUT THE BEEF
    SERVED ON SHIPBOARD, CIRCA 1835.
 Job cpu time:       0 days 14 hours 55 minutes 10.4 seconds.
 File lengths (MBytes):  RWF=   1691 Int=      0 D2E=      0 Chk=     41 Scr=      1
 Normal termination of Gaussian 09 at Fri Nov 15 00:02:18 2019.
pbs_rusage has been removed.
Please contact help@nci.org.au if you require this functionality.
