 Entering Gaussian System, Link 0=/apps/gaussian/g09e01/g09/g09
 Initial command:
 /apps/gaussian/g09e01/g09/l1.exe "/jobfs/local/3595059.r-man2/Gau-2630.inp" -scrdir="/jobfs/local/3595059.r-man2/"
 Entering Link 1 = /apps/gaussian/g09e01/g09/l1.exe PID=      2631.
  
 Copyright (c) 1988,1990,1992,1993,1995,1998,2003,2009,2015,
            Gaussian, Inc.  All Rights Reserved.
  
 This is part of the Gaussian(R) 09 program.  It is based on
 the Gaussian(R) 03 system (copyright 2003, Gaussian, Inc.),
 the Gaussian(R) 98 system (copyright 1998, Gaussian, Inc.),
 the Gaussian(R) 94 system (copyright 1995, Gaussian, Inc.),
 the Gaussian 92(TM) system (copyright 1992, Gaussian, Inc.),
 the Gaussian 90(TM) system (copyright 1990, Gaussian, Inc.),
 the Gaussian 88(TM) system (copyright 1988, Gaussian, Inc.),
 the Gaussian 86(TM) system (copyright 1986, Carnegie Mellon
 University), and the Gaussian 82(TM) system (copyright 1983,
 Carnegie Mellon University). Gaussian is a federally registered
 trademark of Gaussian, Inc.
  
 This software contains proprietary and confidential information,
 including trade secrets, belonging to Gaussian, Inc.
  
 This software is provided under written license and may be
 used, copied, transmitted, or stored only in accord with that
 written license.
  
 The following legend is applicable only to US Government
 contracts under FAR:
  
                    RESTRICTED RIGHTS LEGEND
  
 Use, reproduction and disclosure by the US Government is
 subject to restrictions as set forth in subparagraphs (a)
 and (c) of the Commercial Computer Software - Restricted
 Rights clause in FAR 52.227-19.
  
 Gaussian, Inc.
 340 Quinnipiac St., Bldg. 40, Wallingford CT 06492
  
  
 ---------------------------------------------------------------
 Warning -- This program may not be used in any manner that
 competes with the business of Gaussian, Inc. or will provide
 assistance to any competitor of Gaussian, Inc.  The licensee
 of this program is prohibited from giving any competitor of
 Gaussian, Inc. access to this program.  By using this program,
 the user acknowledges that Gaussian, Inc. is engaged in the
 business of creating and licensing software in the field of
 computational chemistry and represents and warrants to the
 licensee that it is not a competitor of Gaussian, Inc. and that
 it will not use this program in any manner prohibited above.
 ---------------------------------------------------------------
  

 Cite this work as:
 Gaussian 09, Revision E.01,
 M. J. Frisch, G. W. Trucks, H. B. Schlegel, G. E. Scuseria, 
 M. A. Robb, J. R. Cheeseman, G. Scalmani, V. Barone, B. Mennucci, 
 G. A. Petersson, H. Nakatsuji, M. Caricato, X. Li, H. P. Hratchian, 
 A. F. Izmaylov, J. Bloino, G. Zheng, J. L. Sonnenberg, M. Hada, 
 M. Ehara, K. Toyota, R. Fukuda, J. Hasegawa, M. Ishida, T. Nakajima, 
 Y. Honda, O. Kitao, H. Nakai, T. Vreven, J. A. Montgomery, Jr., 
 J. E. Peralta, F. Ogliaro, M. Bearpark, J. J. Heyd, E. Brothers, 
 K. N. Kudin, V. N. Staroverov, T. Keith, R. Kobayashi, J. Normand, 
 K. Raghavachari, A. Rendell, J. C. Burant, S. S. Iyengar, J. Tomasi, 
 M. Cossi, N. Rega, J. M. Millam, M. Klene, J. E. Knox, J. B. Cross, 
 V. Bakken, C. Adamo, J. Jaramillo, R. Gomperts, R. E. Stratmann, 
 O. Yazyev, A. J. Austin, R. Cammi, C. Pomelli, J. W. Ochterski, 
 R. L. Martin, K. Morokuma, V. G. Zakrzewski, G. A. Voth, 
 P. Salvador, J. J. Dannenberg, S. Dapprich, A. D. Daniels, 
 O. Farkas, J. B. Foresman, J. V. Ortiz, J. Cioslowski, 
 and D. J. Fox, Gaussian, Inc., Wallingford CT, 2013.
 
 ******************************************
 Gaussian 09:  ES64L-G09RevE.01 30-Nov-2015
                14-Nov-2019 
 ******************************************
 %chk=CP21_carboxy.M062X_6-311pGd_opt_Pentadecane_GD3.chk
 %mem=196608000
 %nproc=8
 Will use up to    8 processors via shared memory.
 ----------------------------------------------------------------------
 # M062X/6-311+G* SCF=Tight INT(grid=ultrafine) OPT IOP(2/17=4) Empiric
 alDispersion=GD3 SCRF=(SMD,Solvent=n-Pentadecane) maxdisk=3221225472
 ----------------------------------------------------------------------
 1/14=-1,18=20,19=15,26=4,38=1/1,3;
 2/9=110,12=2,17=4,18=5,40=1/2;
 3/5=4,6=6,7=11,11=2,16=1,25=1,30=1,70=32201,71=1,72=151,74=-55,75=-5,124=31/1,2,3;
 4//1;
 5/5=2,32=2,38=5,53=151/2;
 6/7=2,8=2,9=2,10=2,28=1/1;
 7//1,2,3,16;
 1/14=-1,18=20,19=15,26=4/3(2);
 2/9=110,17=4/2;
 99//99;
 2/9=110,17=4/2;
 3/5=4,6=6,7=11,11=2,16=1,25=1,30=1,70=32205,71=1,72=151,74=-55,75=-5,124=31/1,2,3;
 4/5=5,16=3,69=1/1;
 5/5=2,32=2,38=5,53=151/2;
 7//1,2,3,16;
 1/14=-1,18=20,19=15,26=4/3(-5);
 2/9=110,17=4/2;
 6/7=2,8=2,9=2,10=2,19=2,28=1/1;
 99/9=1/99;
 -----------------------------------------------
 CP21_carboxy.M062X_6-311pGd_opt_Pentadecane_GD3
 -----------------------------------------------
 Symbolic Z-matrix:
 Charge = -1 Multiplicity = 1
 C                    -6.21087   1.25638   0.26889 
 N                    -5.00685   0.62755   0.10373 
 C                    -3.73984   1.21256   0.08634 
 O                    -3.54336   2.41575   0.21965 
 N                    -2.75208   0.31286  -0.09467 
 C                    -1.37145   0.75033  -0.14398 
 C                    -0.4498   -0.44785  -0.32386 
 C                     1.01277  -0.02383  -0.38954 
 C                    -6.37292   2.64339   0.48269 
 C                    -7.63873   3.17434   0.6387 
 C                    -8.75743   2.34092   0.58653 
 C                    -8.62051   0.96372   0.37349 
 C                    -7.36182   0.43084   0.22002 
 H                    -5.06152  -0.40438  -0.02368 
 H                    -2.95559  -0.69234  -0.20434 
 H                    -1.11912   1.28889   0.77664 
 H                    -1.23358   1.4607   -0.96762 
 H                    -0.73152  -0.9841   -1.23482 
 H                    -0.60628  -1.14803   0.50195 
 H                     1.19174   0.65532  -1.22817 
 H                     1.67077  -0.88651  -0.51615 
 H                     1.31722   0.49354   0.52491 
 H                    -5.50259   3.27864   0.52816 
 C                    -10.77196   3.44055  -1.06258 
 H                    -9.49745   0.32724   0.33967 
 H                    -7.22559  -0.63409   0.06414 
 F                    -10.76858   2.34092  -1.80544 
 F                    -11.98245   3.98461  -1.10674 
 F                    -9.89671   4.30176  -1.56656 
 S                    -10.34575   3.03517   0.70808 
 O                    -10.30134   4.33194   1.3611 
 O                    -11.3266   2.032     1.08375 
 H                    -7.76419   4.23738   0.81142 
 O                    -5.38964  -2.08546  -0.19089 
 O                    -3.19756  -2.46209  -0.39166 
 C                    -4.38892  -2.83761  -0.3345 
 C                    -4.68742  -4.33702  -0.44548 
 C                    -3.4572   -5.21668  -0.60876 
 H                    -5.37709  -4.4656   -1.28571 
 H                    -5.25575  -4.61781   0.4468 
 H                    -2.89983  -4.9468   -1.50752 
 H                    -3.7337   -6.27273  -0.68134 
 H                    -2.77746  -5.09874   0.23708 
 
 Add virtual bond connecting atoms O34        and H14        Dist= 3.25D+00.
 Add virtual bond connecting atoms O35        and H15        Dist= 3.39D+00.

 GradGradGradGradGradGradGradGradGradGradGradGradGradGradGradGradGradGrad
 Berny optimization.
 Initialization pass.
                           ----------------------------
                           !    Initial Parameters    !
                           ! (Angstroms and Degrees)  !
 --------------------------                            --------------------------
 ! Name  Definition              Value          Derivative Info.                !
 --------------------------------------------------------------------------------
 ! R1    R(1,2)                  1.3683         estimate D2E/DX2                !
 ! R2    R(1,9)                  1.4127         estimate D2E/DX2                !
 ! R3    R(1,13)                 1.4173         estimate D2E/DX2                !
 ! R4    R(2,3)                  1.3957         estimate D2E/DX2                !
 ! R5    R(2,14)                 1.0412         estimate D2E/DX2                !
 ! R6    R(3,4)                  1.2264         estimate D2E/DX2                !
 ! R7    R(3,5)                  1.3483         estimate D2E/DX2                !
 ! R8    R(5,6)                  1.4491         estimate D2E/DX2                !
 ! R9    R(5,15)                 1.0314         estimate D2E/DX2                !
 ! R10   R(6,7)                  1.5223         estimate D2E/DX2                !
 ! R11   R(6,16)                 1.096          estimate D2E/DX2                !
 ! R12   R(6,17)                 1.0964         estimate D2E/DX2                !
 ! R13   R(7,8)                  1.5242         estimate D2E/DX2                !
 ! R14   R(7,18)                 1.094          estimate D2E/DX2                !
 ! R15   R(7,19)                 1.0939         estimate D2E/DX2                !
 ! R16   R(8,20)                 1.0939         estimate D2E/DX2                !
 ! R17   R(8,21)                 1.0923         estimate D2E/DX2                !
 ! R18   R(8,22)                 1.0939         estimate D2E/DX2                !
 ! R19   R(9,10)                 1.3815         estimate D2E/DX2                !
 ! R20   R(9,23)                 1.0785         estimate D2E/DX2                !
 ! R21   R(10,11)                1.396          estimate D2E/DX2                !
 ! R22   R(10,33)                1.0843         estimate D2E/DX2                !
 ! R23   R(11,12)                1.4003         estimate D2E/DX2                !
 ! R24   R(11,30)                1.7377         estimate D2E/DX2                !
 ! R25   R(12,13)                1.3754         estimate D2E/DX2                !
 ! R26   R(12,25)                1.0841         estimate D2E/DX2                !
 ! R27   R(13,26)                1.0849         estimate D2E/DX2                !
 ! R28   R(14,34)                1.7209         estimate D2E/DX2                !
 ! R29   R(15,35)                1.796          estimate D2E/DX2                !
 ! R30   R(24,27)                1.327          estimate D2E/DX2                !
 ! R31   R(24,28)                1.3279         estimate D2E/DX2                !
 ! R32   R(24,29)                1.3273         estimate D2E/DX2                !
 ! R33   R(24,30)                1.8658         estimate D2E/DX2                !
 ! R34   R(30,31)                1.4526         estimate D2E/DX2                !
 ! R35   R(30,32)                1.4524         estimate D2E/DX2                !
 ! R36   R(34,36)                1.2601         estimate D2E/DX2                !
 ! R37   R(35,36)                1.2504         estimate D2E/DX2                !
 ! R38   R(36,37)                1.5329         estimate D2E/DX2                !
 ! R39   R(37,38)                1.5212         estimate D2E/DX2                !
 ! R40   R(37,39)                1.0946         estimate D2E/DX2                !
 ! R41   R(37,40)                1.0945         estimate D2E/DX2                !
 ! R42   R(38,41)                1.0915         estimate D2E/DX2                !
 ! R43   R(38,42)                1.0941         estimate D2E/DX2                !
 ! R44   R(38,43)                1.0915         estimate D2E/DX2                !
 ! A1    A(2,1,9)              124.7775         estimate D2E/DX2                !
 ! A2    A(2,1,13)             116.2782         estimate D2E/DX2                !
 ! A3    A(9,1,13)             118.9441         estimate D2E/DX2                !
 ! A4    A(1,2,3)              127.422          estimate D2E/DX2                !
 ! A5    A(1,2,14)             115.0894         estimate D2E/DX2                !
 ! A6    A(3,2,14)             117.4885         estimate D2E/DX2                !
 ! A7    A(2,3,4)              123.7326         estimate D2E/DX2                !
 ! A8    A(2,3,5)              112.7704         estimate D2E/DX2                !
 ! A9    A(4,3,5)              123.4969         estimate D2E/DX2                !
 ! A10   A(3,5,6)              120.0727         estimate D2E/DX2                !
 ! A11   A(3,5,15)             121.3352         estimate D2E/DX2                !
 ! A12   A(6,5,15)             118.5917         estimate D2E/DX2                !
 ! A13   A(5,6,7)              110.0737         estimate D2E/DX2                !
 ! A14   A(5,6,16)             109.8221         estimate D2E/DX2                !
 ! A15   A(5,6,17)             109.9358         estimate D2E/DX2                !
 ! A16   A(7,6,16)             110.2816         estimate D2E/DX2                !
 ! A17   A(7,6,17)             110.1858         estimate D2E/DX2                !
 ! A18   A(16,6,17)            106.4804         estimate D2E/DX2                !
 ! A19   A(6,7,8)              111.5354         estimate D2E/DX2                !
 ! A20   A(6,7,18)             109.1658         estimate D2E/DX2                !
 ! A21   A(6,7,19)             109.1454         estimate D2E/DX2                !
 ! A22   A(8,7,18)             110.3399         estimate D2E/DX2                !
 ! A23   A(8,7,19)             110.3555         estimate D2E/DX2                !
 ! A24   A(18,7,19)            106.1426         estimate D2E/DX2                !
 ! A25   A(7,8,20)             111.2692         estimate D2E/DX2                !
 ! A26   A(7,8,21)             111.3034         estimate D2E/DX2                !
 ! A27   A(7,8,22)             111.2612         estimate D2E/DX2                !
 ! A28   A(20,8,21)            107.6326         estimate D2E/DX2                !
 ! A29   A(20,8,22)            107.5606         estimate D2E/DX2                !
 ! A30   A(21,8,22)            107.6238         estimate D2E/DX2                !
 ! A31   A(1,9,10)             119.9687         estimate D2E/DX2                !
 ! A32   A(1,9,23)             119.4802         estimate D2E/DX2                !
 ! A33   A(10,9,23)            120.5503         estimate D2E/DX2                !
 ! A34   A(9,10,11)            120.0394         estimate D2E/DX2                !
 ! A35   A(9,10,33)            120.0538         estimate D2E/DX2                !
 ! A36   A(11,10,33)           119.9041         estimate D2E/DX2                !
 ! A37   A(10,11,12)           120.9635         estimate D2E/DX2                !
 ! A38   A(10,11,30)           119.4296         estimate D2E/DX2                !
 ! A39   A(12,11,30)           119.5349         estimate D2E/DX2                !
 ! A40   A(11,12,13)           119.1763         estimate D2E/DX2                !
 ! A41   A(11,12,25)           120.2038         estimate D2E/DX2                !
 ! A42   A(13,12,25)           120.6175         estimate D2E/DX2                !
 ! A43   A(1,13,12)            120.9073         estimate D2E/DX2                !
 ! A44   A(1,13,26)            118.3439         estimate D2E/DX2                !
 ! A45   A(12,13,26)           120.7479         estimate D2E/DX2                !
 ! A46   A(27,24,28)           108.8579         estimate D2E/DX2                !
 ! A47   A(27,24,29)           108.87           estimate D2E/DX2                !
 ! A48   A(27,24,30)           110.5252         estimate D2E/DX2                !
 ! A49   A(28,24,29)           108.8235         estimate D2E/DX2                !
 ! A50   A(28,24,30)           109.1969         estimate D2E/DX2                !
 ! A51   A(29,24,30)           110.5289         estimate D2E/DX2                !
 ! A52   A(11,30,24)           103.2513         estimate D2E/DX2                !
 ! A53   A(11,30,31)           111.1104         estimate D2E/DX2                !
 ! A54   A(11,30,32)           111.0644         estimate D2E/DX2                !
 ! A55   A(24,30,31)           103.8659         estimate D2E/DX2                !
 ! A56   A(24,30,32)           103.961          estimate D2E/DX2                !
 ! A57   A(31,30,32)           121.3972         estimate D2E/DX2                !
 ! A58   A(14,34,36)           116.2787         estimate D2E/DX2                !
 ! A59   A(15,35,36)           114.8039         estimate D2E/DX2                !
 ! A60   A(34,36,35)           125.6335         estimate D2E/DX2                !
 ! A61   A(34,36,37)           115.943          estimate D2E/DX2                !
 ! A62   A(35,36,37)           118.4235         estimate D2E/DX2                !
 ! A63   A(36,37,38)           114.5786         estimate D2E/DX2                !
 ! A64   A(36,37,39)           107.0485         estimate D2E/DX2                !
 ! A65   A(36,37,40)           107.0398         estimate D2E/DX2                !
 ! A66   A(38,37,39)           111.0532         estimate D2E/DX2                !
 ! A67   A(38,37,40)           111.0442         estimate D2E/DX2                !
 ! A68   A(39,37,40)           105.5733         estimate D2E/DX2                !
 ! A69   A(37,38,41)           111.0021         estimate D2E/DX2                !
 ! A70   A(37,38,42)           111.1566         estimate D2E/DX2                !
 ! A71   A(37,38,43)           110.9766         estimate D2E/DX2                !
 ! A72   A(41,38,42)           108.2462         estimate D2E/DX2                !
 ! A73   A(41,38,43)           107.0603         estimate D2E/DX2                !
 ! A74   A(42,38,43)           108.2461         estimate D2E/DX2                !
 ! A75   L(2,14,34,7,-1)       188.0514         estimate D2E/DX2                !
 ! A76   L(5,15,35,7,-1)       176.3808         estimate D2E/DX2                !
 ! A77   L(2,14,34,7,-2)       179.1606         estimate D2E/DX2                !
 ! A78   L(5,15,35,7,-2)       179.5884         estimate D2E/DX2                !
 ! D1    D(9,1,2,3)             -1.3776         estimate D2E/DX2                !
 ! D2    D(9,1,2,14)           178.7345         estimate D2E/DX2                !
 ! D3    D(13,1,2,3)           178.761          estimate D2E/DX2                !
 ! D4    D(13,1,2,14)           -1.127          estimate D2E/DX2                !
 ! D5    D(2,1,9,10)          -179.9282         estimate D2E/DX2                !
 ! D6    D(2,1,9,23)            -0.2737         estimate D2E/DX2                !
 ! D7    D(13,1,9,10)           -0.0701         estimate D2E/DX2                !
 ! D8    D(13,1,9,23)          179.5844         estimate D2E/DX2                !
 ! D9    D(2,1,13,12)         -179.9453         estimate D2E/DX2                !
 ! D10   D(2,1,13,26)            0.4048         estimate D2E/DX2                !
 ! D11   D(9,1,13,12)            0.1848         estimate D2E/DX2                !
 ! D12   D(9,1,13,26)         -179.4652         estimate D2E/DX2                !
 ! D13   D(1,2,3,4)             -0.1978         estimate D2E/DX2                !
 ! D14   D(1,2,3,5)            179.88           estimate D2E/DX2                !
 ! D15   D(14,2,3,4)           179.6877         estimate D2E/DX2                !
 ! D16   D(14,2,3,5)            -0.2344         estimate D2E/DX2                !
 ! D17   D(1,2,34,36)         -178.915          estimate D2E/DX2                !
 ! D18   D(3,2,34,36)            0.707          estimate D2E/DX2                !
 ! D19   D(2,3,5,6)            179.7443         estimate D2E/DX2                !
 ! D20   D(2,3,5,15)            -0.0058         estimate D2E/DX2                !
 ! D21   D(4,3,5,6)             -0.1781         estimate D2E/DX2                !
 ! D22   D(4,3,5,15)          -179.9282         estimate D2E/DX2                !
 ! D23   D(3,5,6,7)            178.7254         estimate D2E/DX2                !
 ! D24   D(3,5,6,16)            57.1232         estimate D2E/DX2                !
 ! D25   D(3,5,6,17)           -59.7178         estimate D2E/DX2                !
 ! D26   D(15,5,6,7)            -1.5178         estimate D2E/DX2                !
 ! D27   D(15,5,6,16)         -123.1199         estimate D2E/DX2                !
 ! D28   D(15,5,6,17)          120.0391         estimate D2E/DX2                !
 ! D29   D(3,5,35,36)           -0.6423         estimate D2E/DX2                !
 ! D30   D(6,5,35,36)          179.2731         estimate D2E/DX2                !
 ! D31   D(5,6,7,8)            179.6162         estimate D2E/DX2                !
 ! D32   D(5,6,7,18)            57.424          estimate D2E/DX2                !
 ! D33   D(5,6,7,19)           -58.1859         estimate D2E/DX2                !
 ! D34   D(16,6,7,8)           -59.0557         estimate D2E/DX2                !
 ! D35   D(16,6,7,18)          178.7521         estimate D2E/DX2                !
 ! D36   D(16,6,7,19)           63.1423         estimate D2E/DX2                !
 ! D37   D(17,6,7,8)            58.2084         estimate D2E/DX2                !
 ! D38   D(17,6,7,18)          -63.9838         estimate D2E/DX2                !
 ! D39   D(17,6,7,19)         -179.5936         estimate D2E/DX2                !
 ! D40   D(6,7,8,20)           -60.0945         estimate D2E/DX2                !
 ! D41   D(6,7,8,21)           179.8601         estimate D2E/DX2                !
 ! D42   D(6,7,8,22)            59.8313         estimate D2E/DX2                !
 ! D43   D(18,7,8,20)           61.4191         estimate D2E/DX2                !
 ! D44   D(18,7,8,21)          -58.6263         estimate D2E/DX2                !
 ! D45   D(18,7,8,22)         -178.6552         estimate D2E/DX2                !
 ! D46   D(19,7,8,20)          178.4071         estimate D2E/DX2                !
 ! D47   D(19,7,8,21)           58.3617         estimate D2E/DX2                !
 ! D48   D(19,7,8,22)          -61.6672         estimate D2E/DX2                !
 ! D49   D(1,9,10,11)            0.0648         estimate D2E/DX2                !
 ! D50   D(1,9,10,33)          179.4711         estimate D2E/DX2                !
 ! D51   D(23,9,10,11)        -179.586          estimate D2E/DX2                !
 ! D52   D(23,9,10,33)          -0.1797         estimate D2E/DX2                !
 ! D53   D(9,10,11,12)          -0.171          estimate D2E/DX2                !
 ! D54   D(9,10,11,30)        -177.0711         estimate D2E/DX2                !
 ! D55   D(33,10,11,12)       -179.5781         estimate D2E/DX2                !
 ! D56   D(33,10,11,30)          3.5218         estimate D2E/DX2                !
 ! D57   D(10,11,12,13)          0.2817         estimate D2E/DX2                !
 ! D58   D(10,11,12,25)        179.724          estimate D2E/DX2                !
 ! D59   D(30,11,12,13)        177.1786         estimate D2E/DX2                !
 ! D60   D(30,11,12,25)         -3.3791         estimate D2E/DX2                !
 ! D61   D(10,11,30,24)         88.39           estimate D2E/DX2                !
 ! D62   D(10,11,30,31)        -22.3934         estimate D2E/DX2                !
 ! D63   D(10,11,30,32)       -160.7362         estimate D2E/DX2                !
 ! D64   D(12,11,30,24)        -88.5549         estimate D2E/DX2                !
 ! D65   D(12,11,30,31)        160.6617         estimate D2E/DX2                !
 ! D66   D(12,11,30,32)         22.3189         estimate D2E/DX2                !
 ! D67   D(11,12,13,1)          -0.2878         estimate D2E/DX2                !
 ! D68   D(11,12,13,26)        179.3537         estimate D2E/DX2                !
 ! D69   D(25,12,13,1)        -179.7277         estimate D2E/DX2                !
 ! D70   D(25,12,13,26)         -0.0862         estimate D2E/DX2                !
 ! D71   D(27,24,30,11)         60.2084         estimate D2E/DX2                !
 ! D72   D(27,24,30,31)        176.2647         estimate D2E/DX2                !
 ! D73   D(27,24,30,32)        -55.8338         estimate D2E/DX2                !
 ! D74   D(28,24,30,11)        179.9314         estimate D2E/DX2                !
 ! D75   D(28,24,30,31)        -64.0124         estimate D2E/DX2                !
 ! D76   D(28,24,30,32)         63.8892         estimate D2E/DX2                !
 ! D77   D(29,24,30,11)        -60.3859         estimate D2E/DX2                !
 ! D78   D(29,24,30,31)         55.6704         estimate D2E/DX2                !
 ! D79   D(29,24,30,32)       -176.4281         estimate D2E/DX2                !
 ! D80   D(14,34,36,35)         -1.5373         estimate D2E/DX2                !
 ! D81   D(14,34,36,37)        178.4406         estimate D2E/DX2                !
 ! D82   D(15,35,36,34)          1.6507         estimate D2E/DX2                !
 ! D83   D(15,35,36,37)       -178.3267         estimate D2E/DX2                !
 ! D84   D(34,36,37,38)       -179.6194         estimate D2E/DX2                !
 ! D85   D(34,36,37,39)         56.777          estimate D2E/DX2                !
 ! D86   D(34,36,37,40)        -56.0339         estimate D2E/DX2                !
 ! D87   D(35,36,37,38)          0.3602         estimate D2E/DX2                !
 ! D88   D(35,36,37,39)       -123.2434         estimate D2E/DX2                !
 ! D89   D(35,36,37,40)        123.9457         estimate D2E/DX2                !
 ! D90   D(36,37,38,41)        -59.5093         estimate D2E/DX2                !
 ! D91   D(36,37,38,42)        179.9472         estimate D2E/DX2                !
 ! D92   D(36,37,38,43)         59.421          estimate D2E/DX2                !
 ! D93   D(39,37,38,41)         61.9245         estimate D2E/DX2                !
 ! D94   D(39,37,38,42)        -58.619          estimate D2E/DX2                !
 ! D95   D(39,37,38,43)       -179.1452         estimate D2E/DX2                !
 ! D96   D(40,37,38,41)        179.0752         estimate D2E/DX2                !
 ! D97   D(40,37,38,42)         58.5317         estimate D2E/DX2                !
 ! D98   D(40,37,38,43)        -61.9945         estimate D2E/DX2                !
 --------------------------------------------------------------------------------
 Trust Radius=3.00D-01 FncErr=1.00D-07 GrdErr=1.00D-06
 Number of steps in this run=    230 maximum allowed number of steps=    258.
 GradGradGradGradGradGradGradGradGradGradGradGradGradGradGradGradGradGrad

                          Input orientation:                          
 ---------------------------------------------------------------------
 Center     Atomic      Atomic             Coordinates (Angstroms)
 Number     Number       Type             X           Y           Z
 ---------------------------------------------------------------------
      1          6           0       -6.210867    1.256376    0.268886
      2          7           0       -5.006853    0.627552    0.103730
      3          6           0       -3.739835    1.212562    0.086342
      4          8           0       -3.543358    2.415752    0.219654
      5          7           0       -2.752082    0.312862   -0.094671
      6          6           0       -1.371448    0.750325   -0.143976
      7          6           0       -0.449803   -0.447850   -0.323862
      8          6           0        1.012769   -0.023828   -0.389543
      9          6           0       -6.372917    2.643394    0.482693
     10          6           0       -7.638733    3.174339    0.638701
     11          6           0       -8.757428    2.340923    0.586534
     12          6           0       -8.620508    0.963721    0.373491
     13          6           0       -7.361823    0.430838    0.220018
     14          1           0       -5.061521   -0.404376   -0.023679
     15          1           0       -2.955590   -0.692335   -0.204340
     16          1           0       -1.119124    1.288890    0.776635
     17          1           0       -1.233578    1.460695   -0.967622
     18          1           0       -0.731524   -0.984100   -1.234820
     19          1           0       -0.606283   -1.148030    0.501953
     20          1           0        1.191738    0.655316   -1.228165
     21          1           0        1.670766   -0.886506   -0.516154
     22          1           0        1.317223    0.493541    0.524907
     23          1           0       -5.502588    3.278642    0.528157
     24          6           0      -10.771962    3.440547   -1.062581
     25          1           0       -9.497451    0.327235    0.339666
     26          1           0       -7.225591   -0.634087    0.064145
     27          9           0      -10.768576    2.340917   -1.805435
     28          9           0      -11.982451    3.984606   -1.106737
     29          9           0       -9.896710    4.301764   -1.566564
     30         16           0      -10.345754    3.035168    0.708078
     31          8           0      -10.301341    4.331945    1.361095
     32          8           0      -11.326596    2.031998    1.083748
     33          1           0       -7.764192    4.237377    0.811417
     34          8           0       -5.389636   -2.085461   -0.190889
     35          8           0       -3.197565   -2.462088   -0.391658
     36          6           0       -4.388916   -2.837609   -0.334498
     37          6           0       -4.687423   -4.337020   -0.445478
     38          6           0       -3.457199   -5.216676   -0.608756
     39          1           0       -5.377093   -4.465605   -1.285707
     40          1           0       -5.255753   -4.617810    0.446797
     41          1           0       -2.899826   -4.946800   -1.507520
     42          1           0       -3.733703   -6.272726   -0.681345
     43          1           0       -2.777456   -5.098740    0.237083
 ---------------------------------------------------------------------
                    Distance matrix (angstroms):
                    1          2          3          4          5
     1  C    0.000000
     2  N    1.368336   0.000000
     3  C    2.478152   1.395662   0.000000
     4  O    2.908982   2.313636   1.226393   0.000000
     5  N    3.603552   2.285254   1.348289   2.268714   0.000000
     6  C    4.883289   3.645902   2.424039   2.760990   1.449122
     7  C    6.037019   4.701705   3.708039   4.250378   2.435508
     8  C    7.365688   6.074822   4.933799   5.203937   3.791360
     9  C    1.412725   2.464419   3.022829   2.850862   4.344557
    10  C    2.419534   3.701230   4.399439   4.186066   5.710100
    11  C    2.786058   4.151572   5.167168   5.227497   6.375049
    12  C    2.429601   3.639269   4.895441   5.282945   5.922940
    13  C    1.417252   2.366031   3.707797   4.303552   4.621976
    14  H    2.040757   1.041200   2.091279   3.212032   2.419293
    15  H    3.823381   2.458595   2.080426   3.191465   1.031438
    16  H    5.117099   4.000575   2.711172   2.730743   2.092452
    17  H    5.132651   4.009929   2.730154   2.767100   2.094140
    18  H    6.107705   4.761047   3.952306   4.645524   2.657950
    19  H    6.103020   4.761963   3.945159   4.626731   2.663573
    20  H    7.576344   6.340130   5.134089   5.255136   4.117742
    21  H    8.205386   6.875116   5.834697   6.215577   4.601925
    22  H    7.570971   6.339503   5.126712   5.235774   4.120166
    23  H    2.158341   2.730232   2.751578   2.162946   4.092560
    24  C    5.229435   6.519946   7.465570   7.412627   8.662432
    25  H    3.416131   4.506809   5.830790   6.310905   6.759353
    26  H    2.155327   2.552664   3.944755   4.783778   4.575392
    27  F    5.123647   6.306979   7.365813   7.504023   8.444164
    28  F    6.530449   7.835432   8.777720   8.685557   9.985274
    29  F    5.121397   6.340380   7.083952   6.863869   8.314055
    30  S    4.522641   5.887759   6.880887   6.847979   8.106738
    31  O    5.232974   6.582939   7.376239   7.116531   8.675459
    32  O    5.237965   6.547676   7.695793   7.840454   8.824194
    33  H    3.404926   4.597235   5.086323   4.635077   6.429935
    34  O    3.471843   2.755679   3.698061   4.882438   3.566216
    35  O    4.831489   3.614528   3.745076   4.928143   2.826128
    36  C    4.521537   3.547003   4.123384   5.349752   3.558400
    37  C    5.841000   5.005061   5.654963   6.881221   5.048762
    38  C    7.088960   6.088027   6.472878   7.677736   5.597969
    39  H    5.987738   5.292245   6.066689   7.278857   5.580590
    40  H    5.953987   5.262459   6.034995   7.242574   5.556354
    41  H    7.252449   6.173256   6.417457   7.589758   5.448120
    42  H    7.982898   7.060530   7.524554   8.737143   6.684140
    43  H    7.223352   6.146415   6.386034   7.553442   5.421820
                    6          7          8          9         10
     6  C    0.000000
     7  C    1.522306   0.000000
     8  C    2.518751   1.524213   0.000000
     9  C    5.384340   6.729756   7.900837   0.000000
    10  C    6.765152   8.107249   9.280842   1.381495   0.000000
    11  C    7.590543   8.810375  10.099580   2.405860   1.395989
    12  C    7.270638   8.321013   9.713778   2.808004   2.433321
    13  C    6.009921   6.988843   8.409047   2.437691   2.789045
    14  H    3.868390   4.621682   6.097185   3.356349   4.459593
    15  H    2.143460   2.520522   4.028533   4.824648   6.131371
    16  H    1.096013   2.162256   2.761914   5.433546   6.788169
    17  H    1.096370   2.161314   2.753916   5.469461   6.822232
    18  H    2.146549   1.093972   2.163140   6.923429   8.277210
    19  H    2.146265   1.093941   2.163313   6.901401   8.255721
    20  H    2.784676   2.174718   1.093871   8.006466   9.370586
    21  H    3.474593   2.173984   1.092338   8.840742  10.222079
    22  H    2.782499   2.174628   1.093884   7.985106   9.349266
    23  H    4.889832   6.335875   7.361953   1.078462   2.141544
    24  C    9.820936  11.054967  12.301818   4.730213   3.575241
    25  H    8.151370   9.104996  10.541333   3.892012   3.413247
    26  H    6.019210   6.789443   8.273380   3.412348   3.873617
    27  F    9.674525  10.791171  12.099457   4.964760   4.057624
    28  F   11.134669  12.379884  13.618283   5.982642   4.750892
    29  F    9.344333  10.646464  11.794611   4.400768   3.351528
    30  S    9.299713  10.541639  11.814324   3.998464   2.711484
    31  O    9.738389  11.078733  12.249349   4.365238   2.991887
    32  O   10.112120  11.244361  12.595910   5.027326   3.886303
    33  H    7.344350   8.760166   9.830321   2.141141   1.084260
    34  O    4.918304   5.205900   6.729084   4.876744   5.780325
    35  O    3.703464   3.407630   4.865390   6.075632   7.249477
    36  C    4.691981   4.607350   6.090861   5.886039   6.903039
    37  C    6.080104   5.753073   7.148352   7.240758   8.142861
    38  C    6.338097   5.645112   6.855241   8.454193   9.457828
    39  H    6.674928   6.430061   7.833443   7.393022   8.196774
    40  H    6.652346   6.409339   7.816553   7.346729   8.150645
    41  H    6.054125   5.257776   6.387012   8.581047   9.644501
    42  H    7.429149   6.696340   7.852571   9.371106  10.307221
    43  H    6.027738   5.231004   6.364997   8.539807   9.604017
                   11         12         13         14         15
    11  C    0.000000
    12  C    1.400292   0.000000
    13  C    2.393840   1.375430   0.000000
    14  H    4.644218   3.833513   2.459342   0.000000
    15  H    6.594502   5.930236   4.566890   2.133191   0.000000
    16  H    7.712755   7.519243   6.325928   4.364647   2.874051
    17  H    7.732951   7.524115   6.326649   4.361499   2.860676
    18  H    8.876274   8.283522   6.933935   4.533410   2.468498
    19  H    8.866855   8.288776   6.943316   4.547357   2.495146
    20  H   10.252820   9.946888   8.678193   6.455771   4.479366
    21  H   10.971756  10.494051   9.157783   6.767471   4.640916
    22  H   10.242813   9.950000   8.684626   6.464950   4.493889
    23  H    3.387729   3.886412   3.414922   3.750158   4.774139
    24  C    2.826145   3.581302   4.725723   6.962175   8.883296
    25  H    2.159517   1.084107   2.141484   4.510515   6.643147
    26  H    3.386753   2.143474   1.084860   2.177999   4.278829
    27  F    3.125097   3.355382   4.399640   6.578888   8.532694
    28  F    3.996202   4.755994   5.978273   8.266526  10.206484
    29  F    3.127090   4.066330   4.960000   6.921510   8.658858
    30  S    1.737679   2.716489   3.990562   6.347366   8.327142
    31  O    2.635864   3.891721   5.016120   7.197642   9.036262
    32  O    2.635011   2.994761   4.362244   6.812744   8.896904
    33  H    2.152586   3.412019   3.873163   5.435779   6.961068
    34  O    5.615985   4.478234   3.223372   1.720949   2.804560
    35  O    7.412007   6.459871   5.107271   2.800700   1.796013
    36  C    6.837353   5.732166   4.452910   2.543546   2.583324
    37  C    7.888277   6.651145   5.507065   3.972851   4.042414
    38  C    9.307978   8.113069   6.915733   5.106309   4.569991
    39  H    7.826926   6.538368   5.493770   4.264490   4.612005
    40  H    7.791355   6.517702   5.475016   4.244066   4.596094
    41  H    9.581622   8.437930   7.198111   5.244838   4.449928
    42  H   10.051879   8.795437   7.675511   6.052532   5.654534
    43  H    9.551479   8.421003   7.182822   5.227044   4.432041
                   16         17         18         19         20
    16  H    0.000000
    17  H    1.756430   0.000000
    18  H    3.059847   2.510075   0.000000
    19  H    2.505401   3.059182   1.748982   0.000000
    20  H    3.124216   2.568789   2.527186   3.078676   0.000000
    21  H    3.766581   3.761434   2.509383   2.507964   1.764551
    22  H    2.575216   3.109600   3.078543   2.528865   1.764987
    23  H    4.820333   4.875114   6.636422   6.600751   7.401385
    24  C   10.059305   9.742156  10.973492  11.262497  12.284748
    25  H    8.444648   8.443064   9.002226   9.014190  10.808538
    26  H    6.441616   6.430931   6.631946   6.653649   8.613016
    27  F   10.044191   9.612124  10.588850  10.989495  12.092296
    28  F   11.350147  11.042090  12.299910  12.583681  13.588899
    29  F    9.571520   9.136753  10.585416  10.967728  11.677533
    30  S    9.390680   9.397802  10.600130  10.601836  11.938444
    31  O    9.690969   9.792412  11.250799  11.169709  12.341504
    32  O   10.239092  10.315209  11.257360  11.197151  12.804253
    33  H    7.269918   7.316001   8.994960   8.962926   9.858993
    34  O    5.528075   5.518275   4.899060   4.923340   7.204324
    35  O    4.444621   4.424614   2.996118   3.039742   5.448296
    36  C    5.380906   5.369584   4.197927   4.226422   6.644010
    37  C    6.773269   6.768691   5.245404   5.265262   7.752454
    38  C    7.050410   7.047025   5.073062   5.090705   7.515090
    39  H    7.449682   7.238158   5.805582   6.079693   8.329267
    40  H    7.218697   7.424736   6.041550   5.801723   8.495969
    41  H    6.875470   6.642580   4.525361   4.871240   6.942812
    42  H    8.132635   8.132551   6.106470   6.119106   8.518025
    43  H    6.621404   6.845514   4.825204   4.515779   7.142172
                   21         22         23         24         25
    21  H    0.000000
    22  H    1.764463   0.000000
    23  H    8.360385   7.366588   0.000000
    24  C   13.184969  12.544056   5.506629   0.000000
    25  H   11.266528  10.817539   4.970439   3.644638   0.000000
    26  H    8.918835   8.629225   4.300406   5.518052   2.482217
    27  F   12.915716  12.446278   5.835719   1.327037   3.205017
    28  F   14.508164  13.846701   6.720110   1.327868   4.652275
    29  F   12.721163  12.026184   4.974228   1.327313   4.426059
    30  S   12.699409  11.938109   4.852618   1.865803   2.861511
    31  O   13.194227  12.264729   4.983098   2.624935   4.210375
    32  O   13.416735  12.749327   5.981795   2.626473   2.608764
    33  H   10.818273   9.827029   2.472703   3.632284   4.303016
    34  O    7.168860   7.221189   5.413260   7.763121   4.793406
    35  O    5.118457   5.473495   6.254212   9.626148   6.928472
    36  C    6.368638   6.662970   6.276381   8.982684   6.047137
    37  C    7.234473   7.767351   7.720800   9.894087   6.745969
    38  C    6.712300   7.529069   8.811731  11.342805   8.253430
    39  H    7.941944   8.525569   7.954823   9.574007   6.526139
    40  H    7.926321   8.326826   7.900727   9.881492   6.515900
    41  H    6.193473   7.177157   8.864324  11.511563   8.646167
    42  H    7.631968   8.529318   9.788793  12.001253   8.821719
    43  H    6.172273   6.937063   8.814283  11.769480   8.637711
                   26         27         28         29         30
    26  H    0.000000
    27  F    4.989862   0.000000
    28  F    6.732830   2.159487   0.000000
    29  F    5.844375   2.159197   2.159247   0.000000
    30  S    4.859372   2.641688   2.621786   2.641951   0.000000
    31  O    5.983627   3.769538   3.006155   2.955643   1.452595
    32  O    4.996584   2.958749   3.006833   3.771017   1.452422
    33  H    4.957788   4.412573   4.640788   3.194773   2.849639
    34  O    2.354201   7.150705   9.008313   7.937433   7.182764
    35  O    4.446834   9.076775  10.919955   9.592114   9.084374
    36  C    3.614021   8.347506  10.237223   9.100793   8.429733
    37  C    4.518155   9.133715  11.086214  10.149980   9.364644
    38  C    5.971072  10.583265  12.553545  11.531930  10.829551
    39  H    4.463135   8.698675  10.727014   9.867754   9.215441
    40  H    4.460575   9.159020  11.030118  10.254312   9.194806
    41  H    6.307287  10.729250  12.744596  11.597233  11.138336
    42  H    6.674075  11.178008  13.169497  12.271353  11.501591
    43  H    6.304675  11.107582  13.001728  11.929224  11.120316
                   31         32         33         34         35
    31  O    0.000000
    32  O    2.533342   0.000000
    33  H    2.597732   4.198640   0.000000
    34  O    8.229010   7.336599   6.827988   0.000000
    35  O    9.984721   9.405041   8.196603   2.233233   0.000000
    36  C    9.446391   8.593946   7.922186   1.260075   1.250441
    37  C   10.484786   9.326390   9.196008   2.372221   2.395400
    38  C   11.912126  10.832141  10.485523   3.703165   2.775301
    39  H   10.423562   9.123034   9.264883   2.619898   3.092531
    40  H   10.314650   9.026672   9.210838   2.614834   3.096172
    41  H   12.210917  11.244055  10.648410   4.014963   2.739998
    42  H   12.639797  11.390172  11.354974   4.529442   3.859057
    43  H   12.116520  11.164769  10.600022   4.010796   2.742944
                   36         37         38         39         40
    36  C    0.000000
    37  C    1.532858   0.000000
    38  C    2.569684   1.521153   0.000000
    39  H    2.128770   1.094606   2.169877   0.000000
    40  H    2.128601   1.094531   2.169707   1.743404   0.000000
    41  H    2.835852   2.166857   1.091455   2.533299   3.078633
    42  H    3.514204   2.170754   1.094059   2.516281   2.515569
    43  H    2.834823   2.166582   1.091514   3.078613   2.533225
                   41         42         43
    41  H    0.000000
    42  H    1.770874   0.000000
    43  H    1.755477   1.770921   0.000000
 Stoichiometry    C14H18F3N2O5S(1-)
 Framework group  C1[X(C14H18F3N2O5S)]
 Deg. of freedom   123
 Full point group                 C1      NOp   1
 Largest Abelian subgroup         C1      NOp   1
 Largest concise Abelian subgroup C1      NOp   1
                         Standard orientation:                         
 ---------------------------------------------------------------------
 Center     Atomic      Atomic             Coordinates (Angstroms)
 Number     Number       Type             X           Y           Z
 ---------------------------------------------------------------------
      1          6           0        0.017559   -0.408527   -0.339384
      2          7           0        1.377229   -0.456051   -0.193154
      3          6           0        2.181826   -1.593247   -0.107814
      4          8           0        1.747872   -2.739439   -0.152192
      5          7           0        3.490024   -1.297721    0.030627
      6          6           0        4.467318   -2.362107    0.139867
      7          6           0        5.867560   -1.776001    0.254842
      8          6           0        6.922789   -2.868588    0.381215
      9          6           0       -0.820085   -1.539849   -0.458776
     10          6           0       -2.184149   -1.376293   -0.604062
     11          6           0       -2.734922   -0.093905   -0.634301
     12          6           0       -1.923957    1.041456   -0.515518
     13          6           0       -0.565139    0.882958   -0.373047
     14          1           0        1.848193    0.471002   -0.139633
     15          1           0        3.818461   -0.320582    0.065164
     16          1           0        4.401004   -3.018796   -0.735121
     17          1           0        4.245116   -2.985359    1.014058
     18          1           0        5.907103   -1.107300    1.119740
     19          1           0        6.068517   -1.152395   -0.621193
     20          1           0        6.752037   -3.484371    1.269027
     21          1           0        7.926072   -2.444013    0.460979
     22          1           0        6.912312   -3.532611   -0.488006
     23          1           0       -0.385101   -2.526537   -0.441037
     24          6           0       -5.001487    0.082049    1.044633
     25          1           0       -2.364242    2.031690   -0.545091
     26          1           0        0.088076    1.745066   -0.289389
     27          9           0       -4.436120    1.082430    1.708430
     28          9           0       -6.320869    0.220908    1.101069
     29          9           0       -4.666092   -1.062914    1.626295
     30         16           0       -4.459306    0.092432   -0.740627
     31          8           0       -5.080403   -1.095588   -1.299984
     32          8           0       -4.812970    1.421865   -1.206525
     33          1           0       -2.827375   -2.243362   -0.704421
     34          8           0        2.407787    2.097890   -0.097770
     35          8           0        4.497318    1.341196    0.122695
     36          6           0        3.652781    2.256916    0.013994
     37          6           0        4.146197    3.708189    0.013151
     38          6           0        5.653992    3.863910    0.140471
     39          1           0        3.627465    4.223983    0.827422
     40          1           0        3.779708    4.171024   -0.908515
     41          1           0        6.016562    3.416437    1.067609
     42          1           0        5.944049    4.918791    0.132906
     43          1           0        6.169361    3.361870   -0.680354
 ---------------------------------------------------------------------
 Rotational constants (GHZ):      0.3479971      0.0740206      0.0648164
 Standard basis: 6-311+G(d) (5D, 7F)
 There are   637 symmetry adapted cartesian basis functions of A   symmetry.
 There are   612 symmetry adapted basis functions of A   symmetry.
   612 basis functions,  1004 primitive gaussians,   637 cartesian basis functions
   100 alpha electrons      100 beta electrons
       nuclear repulsion energy      2436.3668015183 Hartrees.
 NAtoms=   43 NActive=   43 NUniq=   43 SFac= 1.00D+00 NAtFMM=   60 NAOKFM=F Big=F
 Integral buffers will be    131072 words long.
 Raffenetti 2 integral format.
 Two-electron integral symmetry is turned on.
 Nuclear repulsion after empirical dispersion term =     2436.3641749620 Hartrees.
 ------------------------------------------------------------------------------
 Polarizable Continuum Model (PCM)
 =================================
 Model                : PCM (using non-symmetric T matrix).
 Atomic radii         : SMD-Coulomb.
 Polarization charges : Total charges.
 Charge compensation  : None.
 Solution method      : On-the-fly selection.
 Cavity type          : VdW (van der Waals Surface) (Alpha=1.000).
 Cavity algorithm     : GePol (No added spheres)
                        Default sphere list used, NSphG=   43.
                        Lebedev-Laikov grids with approx.  5.0 points / Ang**2.
                        Smoothing algorithm: York/Karplus (Gamma=1.0000).
                        Polarization charges: spherical gaussians, with
                                              point-specific exponents (IZeta= 3).
                        Self-potential: point-specific (ISelfS= 7).
                        Self-field    : sphere-specific E.n sum rule (ISelfD= 2).
 1st derivatives      : Analytical E(r).r(x)/FMM algorithm (CHGder, D1EAlg=3).
                        Cavity 1st derivative terms included.
 Solvent              : n-Pentadecane, Eps=   2.033300 Eps(inf)=   2.049192
 ------------------------------------------------------------------------------
 ------------------------------------------------------------------------------
 Atomic radii for non-electrostatic terms: SMD-CDS.
 ------------------------------------------------------------------------------
 Nuclear repulsion after PCM non-electrostatic terms =     2436.3548884416 Hartrees.
 One-electron integrals computed using PRISM.
 NBasis=   612 RedAO= T EigKep=  1.31D-06  NBF=   612
 NBsUse=   610 1.00D-06 EigRej=  4.95D-07 NBFU=   610
 ExpMin= 4.05D-02 ExpMax= 9.34D+04 ExpMxC= 3.17D+03 IAcc=3 IRadAn=         5 AccDes= 0.00D+00
 Harris functional with IExCor= 1009 and IRadAn=       5 diagonalized for initial guess.
 HarFok:  IExCor= 1009 AccDes= 0.00D+00 IRadAn=         5 IDoV= 1 UseB2=F ITyADJ=14
 ICtDFT=  3500011 ScaDFX=  1.000000  1.000000  1.000000  1.000000
 FoFCou: FMM=F IPFlag=           0 FMFlag=      100000 FMFlg1=           0
         NFxFlg=           0 DoJE=T BraDBF=F KetDBF=T FulRan=T
         wScrn=  0.000000 ICntrl=     500 IOpCl=  0 I1Cent=   200000004 NGrid=           0
         NMat0=    1 NMatS0=      1 NMatT0=    0 NMatD0=    1 NMtDS0=    0 NMtDT0=    0
 Petite list used in FoFCou.
 Requested convergence on RMS density matrix=1.00D-08 within 128 cycles.
 Requested convergence on MAX density matrix=1.00D-06.
 Requested convergence on             energy=1.00D-06.
 No special actions if energy rises.
 Inv3:  Mode=1 IEnd=    34741227.
 Iteration    1 A*A^-1 deviation from unit magnitude is 8.44D-15 for   3399.
 Iteration    1 A*A^-1 deviation from orthogonality  is 7.63D-15 for   3399   3012.
 Iteration    1 A^-1*A deviation from unit magnitude is 8.44D-15 for   3399.
 Iteration    1 A^-1*A deviation from orthogonality  is 9.75D-15 for   1708   1649.
 Error on total polarization charges =  0.02304
 SCF Done:  E(RM062X) =  -1727.66009978     A.U. after   16 cycles
            NFock= 16  Conv=0.66D-08     -V/T= 2.0027
 SMD-CDS (non-electrostatic) energy       (kcal/mol) =      -5.83
 (included in total energy above)

 **********************************************************************

            Population analysis using the SCF density.

 **********************************************************************

 Orbital symmetries:
       Occupied  (A) (A) (A) (A) (A) (A) (A) (A) (A) (A) (A) (A)
                 (A) (A) (A) (A) (A) (A) (A) (A) (A) (A) (A) (A)
                 (A) (A) (A) (A) (A) (A) (A) (A) (A) (A) (A) (A)
                 (A) (A) (A) (A) (A) (A) (A) (A) (A) (A) (A) (A)
                 (A) (A) (A) (A) (A) (A) (A) (A) (A) (A) (A) (A)
                 (A) (A) (A) (A) (A) (A) (A) (A) (A) (A) (A) (A)
                 (A) (A) (A) (A) (A) (A) (A) (A) (A) (A) (A) (A)
                 (A) (A) (A) (A) (A) (A) (A) (A) (A) (A) (A) (A)
                 (A) (A) (A) (A)
       Virtual   (A) (A) (A) (A) (A) (A) (A) (A) (A) (A) (A) (A)
                 (A) (A) (A) (A) (A) (A) (A) (A) (A) (A) (A) (A)
                 (A) (A) (A) (A) (A) (A) (A) (A) (A) (A) (A) (A)
                 (A) (A) (A) (A) (A) (A) (A) (A) (A) (A) (A) (A)
                 (A) (A) (A) (A) (A) (A) (A) (A) (A) (A) (A) (A)
                 (A) (A) (A) (A) (A) (A) (A) (A) (A) (A) (A) (A)
                 (A) (A) (A) (A) (A) (A) (A) (A) (A) (A) (A) (A)
                 (A) (A) (A) (A) (A) (A) (A) (A) (A) (A) (A) (A)
                 (A) (A) (A) (A) (A) (A) (A) (A) (A) (A) (A) (A)
                 (A) (A) (A) (A) (A) (A) (A) (A) (A) (A) (A) (A)
                 (A) (A) (A) (A) (A) (A) (A) (A) (A) (A) (A) (A)
                 (A) (A) (A) (A) (A) (A) (A) (A) (A) (A) (A) (A)
                 (A) (A) (A) (A) (A) (A) (A) (A) (A) (A) (A) (A)
                 (A) (A) (A) (A) (A) (A) (A) (A) (A) (A) (A) (A)
                 (A) (A) (A) (A) (A) (A) (A) (A) (A) (A) (A) (A)
                 (A) (A) (A) (A) (A) (A) (A) (A) (A) (A) (A) (A)
                 (A) (A) (A) (A) (A) (A) (A) (A) (A) (A) (A) (A)
                 (A) (A) (A) (A) (A) (A) (A) (A) (A) (A) (A) (A)
                 (A) (A) (A) (A) (A) (A) (A) (A) (A) (A) (A) (A)
                 (A) (A) (A) (A) (A) (A) (A) (A) (A) (A) (A) (A)
                 (A) (A) (A) (A) (A) (A) (A) (A) (A) (A) (A) (A)
                 (A) (A) (A) (A) (A) (A) (A) (A) (A) (A) (A) (A)
                 (A) (A) (A) (A) (A) (A) (A) (A) (A) (A) (A) (A)
                 (A) (A) (A) (A) (A) (A) (A) (A) (A) (A) (A) (A)
                 (A) (A) (A) (A) (A) (A) (A) (A) (A) (A) (A) (A)
                 (A) (A) (A) (A) (A) (A) (A) (A) (A) (A) (A) (A)
                 (A) (A) (A) (A) (A) (A) (A) (A) (A) (A) (A) (A)
                 (A) (A) (A) (A) (A) (A) (A) (A) (A) (A) (A) (A)
                 (A) (A) (A) (A) (A) (A) (A) (A) (A) (A) (A) (A)
                 (A) (A) (A) (A) (A) (A) (A) (A) (A) (A) (A) (A)
                 (A) (A) (A) (A) (A) (A) (A) (A) (A) (A) (A) (A)
                 (A) (A) (A) (A) (A) (A) (A) (A) (A) (A) (A) (A)
                 (A) (A) (A) (A) (A) (A) (A) (A) (A) (A) (A) (A)
                 (A) (A) (A) (A) (A) (A) (A) (A) (A) (A) (A) (A)
                 (A) (A) (A) (A) (A) (A) (A) (A) (A) (A) (A) (A)
                 (A) (A) (A) (A) (A) (A) (A) (A) (A) (A) (A) (A)
                 (A) (A) (A) (A) (A) (A) (A) (A) (A) (A) (A) (A)
                 (A) (A) (A) (A) (A) (A) (A) (A) (A) (A) (A) (A)
                 (A) (A) (A) (A) (A) (A) (A) (A) (A) (A) (A) (A)
                 (A) (A) (A) (A) (A) (A) (A) (A) (A) (A) (A) (A)
                 (A) (A) (A) (A) (A) (A) (A) (A) (A) (A) (A) (A)
                 (A) (A) (A) (A) (A) (A) (A) (A) (A) (A) (A) (A)
                 (A) (A) (A) (A) (A) (A)
 The electronic state is 1-A.
 Alpha  occ. eigenvalues --  -90.08025 -25.26869 -25.26852 -25.26849 -19.59874
 Alpha  occ. eigenvalues --  -19.59872 -19.52916 -19.50406 -19.50185 -14.71584
 Alpha  occ. eigenvalues --  -14.69378 -10.78935 -10.61265 -10.56528 -10.56268
 Alpha  occ. eigenvalues --  -10.53729 -10.52628 -10.52543 -10.51377 -10.50318
 Alpha  occ. eigenvalues --  -10.50104 -10.48412 -10.48316 -10.47055 -10.46681
 Alpha  occ. eigenvalues --   -8.42399  -6.34604  -6.34559  -6.34467  -1.46465
 Alpha  occ. eigenvalues --   -1.37008  -1.37003  -1.21875  -1.11795  -1.11136
 Alpha  occ. eigenvalues --   -1.09482  -1.00372  -0.99554  -0.96784  -0.93046
 Alpha  occ. eigenvalues --   -0.85016  -0.83301  -0.81988  -0.80918  -0.80329
 Alpha  occ. eigenvalues --   -0.75108  -0.72463  -0.69078  -0.68619  -0.68158
 Alpha  occ. eigenvalues --   -0.67594  -0.66612  -0.63699  -0.62560  -0.61129
 Alpha  occ. eigenvalues --   -0.57842  -0.57400  -0.56382  -0.56357  -0.55199
 Alpha  occ. eigenvalues --   -0.52749  -0.52366  -0.52229  -0.52018  -0.51316
 Alpha  occ. eigenvalues --   -0.50496  -0.50284  -0.49006  -0.48334  -0.47621
 Alpha  occ. eigenvalues --   -0.47062  -0.46818  -0.46733  -0.46011  -0.44721
 Alpha  occ. eigenvalues --   -0.44276  -0.42732  -0.42585  -0.41822  -0.40349
 Alpha  occ. eigenvalues --   -0.39961  -0.39049  -0.38577  -0.38420  -0.37714
 Alpha  occ. eigenvalues --   -0.37349  -0.36240  -0.36223  -0.35364  -0.35151
 Alpha  occ. eigenvalues --   -0.34167  -0.33877  -0.33627  -0.29070  -0.28265
 Alpha  occ. eigenvalues --   -0.26396  -0.25919  -0.25352  -0.25214  -0.22331
 Alpha virt. eigenvalues --    0.02299   0.05358   0.05394   0.05766   0.06376
 Alpha virt. eigenvalues --    0.06907   0.07151   0.07296   0.07864   0.07933
 Alpha virt. eigenvalues --    0.08246   0.08787   0.09143   0.09519   0.09946
 Alpha virt. eigenvalues --    0.10155   0.10663   0.10965   0.11122   0.11402
 Alpha virt. eigenvalues --    0.11484   0.12366   0.12750   0.12916   0.12987
 Alpha virt. eigenvalues --    0.13518   0.13876   0.14036   0.14348   0.14712
 Alpha virt. eigenvalues --    0.14878   0.14923   0.15558   0.15735   0.15841
 Alpha virt. eigenvalues --    0.16185   0.16668   0.17187   0.17340   0.17942
 Alpha virt. eigenvalues --    0.18260   0.18533   0.19204   0.19967   0.20002
 Alpha virt. eigenvalues --    0.20294   0.20988   0.21321   0.22049   0.22411
 Alpha virt. eigenvalues --    0.22481   0.23123   0.23521   0.23767   0.24201
 Alpha virt. eigenvalues --    0.24864   0.25130   0.25363   0.25464   0.25695
 Alpha virt. eigenvalues --    0.25830   0.26125   0.26571   0.26907   0.26943
 Alpha virt. eigenvalues --    0.27110   0.27593   0.27791   0.27983   0.28502
 Alpha virt. eigenvalues --    0.28711   0.29010   0.29434   0.29720   0.29849
 Alpha virt. eigenvalues --    0.30038   0.30307   0.30561   0.30754   0.31006
 Alpha virt. eigenvalues --    0.31346   0.31471   0.31969   0.32206   0.32398
 Alpha virt. eigenvalues --    0.32805   0.33028   0.33173   0.33809   0.34229
 Alpha virt. eigenvalues --    0.34672   0.34948   0.35135   0.35229   0.35706
 Alpha virt. eigenvalues --    0.35844   0.36199   0.36484   0.36836   0.37229
 Alpha virt. eigenvalues --    0.37373   0.37773   0.38104   0.38174   0.38586
 Alpha virt. eigenvalues --    0.39152   0.39267   0.39850   0.40091   0.40503
 Alpha virt. eigenvalues --    0.40915   0.41116   0.41422   0.41666   0.41953
 Alpha virt. eigenvalues --    0.42596   0.43553   0.44165   0.44283   0.44503
 Alpha virt. eigenvalues --    0.44894   0.44966   0.45412   0.45773   0.46802
 Alpha virt. eigenvalues --    0.47188   0.47739   0.48081   0.48582   0.49037
 Alpha virt. eigenvalues --    0.49281   0.49734   0.50365   0.50750   0.51301
 Alpha virt. eigenvalues --    0.52426   0.52717   0.53273   0.54326   0.54389
 Alpha virt. eigenvalues --    0.54982   0.56872   0.57239   0.57931   0.58372
 Alpha virt. eigenvalues --    0.58663   0.58976   0.59452   0.59958   0.60195
 Alpha virt. eigenvalues --    0.61398   0.61841   0.62176   0.63062   0.63480
 Alpha virt. eigenvalues --    0.63687   0.64241   0.65622   0.66168   0.66663
 Alpha virt. eigenvalues --    0.66916   0.68120   0.68454   0.69865   0.70281
 Alpha virt. eigenvalues --    0.70474   0.71964   0.72307   0.73108   0.73722
 Alpha virt. eigenvalues --    0.74278   0.74510   0.74742   0.75720   0.75958
 Alpha virt. eigenvalues --    0.76468   0.77060   0.77187   0.78207   0.78494
 Alpha virt. eigenvalues --    0.78550   0.79000   0.79502   0.80471   0.81531
 Alpha virt. eigenvalues --    0.81918   0.82453   0.82614   0.83263   0.83815
 Alpha virt. eigenvalues --    0.84052   0.84673   0.84903   0.85047   0.85985
 Alpha virt. eigenvalues --    0.86846   0.87876   0.88353   0.89267   0.90429
 Alpha virt. eigenvalues --    0.91977   0.93247   0.94518   0.94875   0.95976
 Alpha virt. eigenvalues --    0.97171   0.98214   0.98614   0.99869   1.00811
 Alpha virt. eigenvalues --    1.01956   1.02352   1.03153   1.04504   1.05083
 Alpha virt. eigenvalues --    1.05891   1.08078   1.08758   1.09348   1.09649
 Alpha virt. eigenvalues --    1.10687   1.11486   1.12641   1.13604   1.14626
 Alpha virt. eigenvalues --    1.15144   1.16309   1.18692   1.19472   1.20116
 Alpha virt. eigenvalues --    1.21681   1.22313   1.22937   1.23455   1.23917
 Alpha virt. eigenvalues --    1.24322   1.24750   1.26151   1.27118   1.27876
 Alpha virt. eigenvalues --    1.28427   1.29003   1.30418   1.30640   1.30833
 Alpha virt. eigenvalues --    1.31746   1.31987   1.32198   1.33210   1.33919
 Alpha virt. eigenvalues --    1.35619   1.35980   1.36967   1.37873   1.39289
 Alpha virt. eigenvalues --    1.39834   1.40755   1.44166   1.44952   1.45345
 Alpha virt. eigenvalues --    1.47695   1.48042   1.49935   1.50436   1.50628
 Alpha virt. eigenvalues --    1.51434   1.52067   1.53422   1.55044   1.55759
 Alpha virt. eigenvalues --    1.55858   1.56266   1.57134   1.58118   1.58369
 Alpha virt. eigenvalues --    1.58987   1.60301   1.60781   1.62625   1.63534
 Alpha virt. eigenvalues --    1.65118   1.65493   1.66433   1.67406   1.67704
 Alpha virt. eigenvalues --    1.68345   1.69708   1.71492   1.74051   1.74435
 Alpha virt. eigenvalues --    1.75603   1.76538   1.77596   1.78994   1.81484
 Alpha virt. eigenvalues --    1.82057   1.83032   1.83091   1.83527   1.83804
 Alpha virt. eigenvalues --    1.86151   1.86764   1.87419   1.87599   1.88696
 Alpha virt. eigenvalues --    1.89621   1.90147   1.90749   1.92963   1.93471
 Alpha virt. eigenvalues --    1.93642   1.95091   1.95948   1.96338   1.98598
 Alpha virt. eigenvalues --    1.99942   2.01263   2.02129   2.03851   2.05812
 Alpha virt. eigenvalues --    2.05886   2.06989   2.08694   2.10266   2.11215
 Alpha virt. eigenvalues --    2.12242   2.15929   2.17182   2.17675   2.19331
 Alpha virt. eigenvalues --    2.20818   2.22645   2.23943   2.27615   2.28579
 Alpha virt. eigenvalues --    2.31657   2.33230   2.35347   2.38668   2.42952
 Alpha virt. eigenvalues --    2.44105   2.45194   2.45280   2.47521   2.52858
 Alpha virt. eigenvalues --    2.53799   2.57096   2.59114   2.60128   2.60373
 Alpha virt. eigenvalues --    2.61144   2.63546   2.65332   2.65758   2.66474
 Alpha virt. eigenvalues --    2.66648   2.70594   2.71155   2.72120   2.73851
 Alpha virt. eigenvalues --    2.77145   2.77928   2.78906   2.81313   2.86565
 Alpha virt. eigenvalues --    2.86940   2.88069   2.91676   2.92177   2.92621
 Alpha virt. eigenvalues --    2.93173   2.94706   2.96231   2.96843   2.98656
 Alpha virt. eigenvalues --    2.99429   3.00422   3.01192   3.01799   3.02944
 Alpha virt. eigenvalues --    3.04081   3.05012   3.05790   3.06226   3.07218
 Alpha virt. eigenvalues --    3.09247   3.10277   3.12075   3.13887   3.14871
 Alpha virt. eigenvalues --    3.16218   3.17923   3.18027   3.19813   3.21802
 Alpha virt. eigenvalues --    3.23376   3.23786   3.26403   3.30482   3.30766
 Alpha virt. eigenvalues --    3.30888   3.31873   3.33935   3.34611   3.37956
 Alpha virt. eigenvalues --    3.38736   3.40832   3.44900   3.45189   3.46214
 Alpha virt. eigenvalues --    3.47384   3.48146   3.49067   3.49242   3.50925
 Alpha virt. eigenvalues --    3.53529   3.53890   3.60340   3.66482   3.69055
 Alpha virt. eigenvalues --    3.70399   3.77141   3.77662   3.79636   3.80011
 Alpha virt. eigenvalues --    3.81641   3.84405   3.85448   3.85964   3.87306
 Alpha virt. eigenvalues --    3.87550   3.88514   3.88729   3.91419   3.93026
 Alpha virt. eigenvalues --    3.96142   3.99603   3.99678   4.05535   4.06852
 Alpha virt. eigenvalues --    4.11827   4.13090   4.13689   4.16112   4.23420
 Alpha virt. eigenvalues --    4.27795   4.30694   4.31427   4.31623   4.48132
 Alpha virt. eigenvalues --    4.70655   4.76128   4.85984   4.99192   5.02032
 Alpha virt. eigenvalues --    5.02752   5.21160   5.22119   5.24634   5.26125
 Alpha virt. eigenvalues --    5.26601   5.26843   5.27836   5.29275   5.32790
 Alpha virt. eigenvalues --    5.47070   5.47618   5.50271   5.52525   5.84693
 Alpha virt. eigenvalues --    5.97604   6.11034   6.45690   6.48264   6.52029
 Alpha virt. eigenvalues --    6.53459   6.54248   6.56036   6.58063   6.92142
 Alpha virt. eigenvalues --    6.92398   8.37141  17.62083  17.66958  17.82958
 Alpha virt. eigenvalues --   23.55628  23.58907  23.65743  23.68767  23.81007
 Alpha virt. eigenvalues --   23.86815  23.87712  23.94288  24.01273  24.04873
 Alpha virt. eigenvalues --   24.05469  24.11106  24.19767  24.26074  35.71264
 Alpha virt. eigenvalues --   35.80622  50.02354  50.06494  50.15382  50.22765
 Alpha virt. eigenvalues --   50.23736  66.90698  66.90911  66.95775 189.63254
          Condensed to atoms (all electrons):
               1          2          3          4          5          6
     1  C   34.760726   0.145779   0.525899  -0.341248  -0.429577  -0.527904
     2  N    0.145779   8.253033   0.368151  -0.062870  -0.607331  -0.716033
     3  C    0.525899   0.368151  10.061130   0.662702   0.204754  -1.781327
     4  O   -0.341248  -0.062870   0.662702   8.127879  -0.194624  -0.165875
     5  N   -0.429577  -0.607331   0.204754  -0.194624   8.069418   0.666145
     6  C   -0.527904  -0.716033  -1.781327  -0.165875   0.666145   9.900611
     7  C    0.006754   0.093604   0.503847   0.032310  -0.080555  -1.498832
     8  C   -0.013849  -0.022758  -0.340550  -0.000777  -0.051296   0.543524
     9  C    7.030849  -0.198730  -0.188317   0.416783   0.158047  -0.403084
    10  C  -10.295222   0.138119  -1.002047   0.074775   0.115462  -0.136110
    11  C  -18.367309   0.063934  -1.773845  -0.024291   0.036806  -0.103883
    12  C  -10.461931   0.069474  -0.487068  -0.009348  -0.084089  -0.034655
    13  C    5.042515  -0.061242  -0.817896  -0.098398  -0.338578  -0.146666
    14  H   -0.126387   0.062027  -0.027645  -0.004196   0.031620   0.048391
    15  H   -0.014413   0.014420  -0.066754  -0.008550   0.121465   0.057725
    16  H    0.011710   0.007010   0.044008   0.000304  -0.061207   0.375132
    17  H    0.006973   0.007700   0.047460  -0.000954  -0.059449   0.374442
    18  H   -0.000002  -0.001827  -0.005957  -0.000232   0.007553  -0.059663
    19  H    0.000268  -0.001363   0.001739  -0.000219   0.007440  -0.065473
    20  H   -0.000050  -0.000040  -0.002681  -0.000024   0.000070  -0.038496
    21  H    0.000161   0.000018   0.008490   0.000018  -0.001914   0.092214
    22  H   -0.000102  -0.000040  -0.003511  -0.000042   0.000421  -0.044512
    23  H    0.072977  -0.031228   0.092020   0.001538   0.008170   0.013064
    24  C    0.576065  -0.002918   0.020752   0.000231  -0.000471   0.000223
    25  H    0.050657  -0.002829   0.002349  -0.000016  -0.000085   0.000003
    26  H    0.034924  -0.027130   0.003466   0.000059   0.001980   0.000766
    27  F   -0.033070   0.000053  -0.000603   0.000001   0.000003  -0.000004
    28  F   -0.004148   0.000022   0.000038  -0.000000   0.000000   0.000000
    29  F   -0.044317   0.000022  -0.001356  -0.000004   0.000001  -0.000008
    30  S   -1.207726   0.000643  -0.120824  -0.000331   0.004212  -0.002412
    31  O   -0.160654  -0.000417  -0.008784  -0.000103   0.000001  -0.000054
    32  O    0.050022   0.000560   0.004906   0.000022   0.000012   0.000016
    33  H    0.012948  -0.001372   0.006307   0.000016   0.000019   0.000069
    34  O   -0.166449   0.036824  -0.021749  -0.001092  -0.060825  -0.014242
    35  O    0.007035  -0.052361  -0.060439   0.000488   0.018971   0.056583
    36  C    0.476785   0.001289   0.025365  -0.001813   0.020651   0.024643
    37  C   -0.382599  -0.055377  -0.072045  -0.001040  -0.055027   0.112115
    38  C   -0.001767   0.002759   0.006713   0.000077   0.011553  -0.022144
    39  H    0.002169   0.000364   0.000051  -0.000000   0.000047  -0.000265
    40  H    0.003046   0.000425   0.000235   0.000001   0.000008  -0.000588
    41  H    0.000133   0.000041  -0.000090  -0.000000   0.000148   0.000006
    42  H    0.000190   0.000017   0.000185   0.000000  -0.000084  -0.000086
    43  H   -0.000006   0.000031  -0.000313  -0.000000   0.000077   0.000355
               7          8          9         10         11         12
     1  C    0.006754  -0.013849   7.030849 -10.295222 -18.367309 -10.461931
     2  N    0.093604  -0.022758  -0.198730   0.138119   0.063934   0.069474
     3  C    0.503847  -0.340550  -0.188317  -1.002047  -1.773845  -0.487068
     4  O    0.032310  -0.000777   0.416783   0.074775  -0.024291  -0.009348
     5  N   -0.080555  -0.051296   0.158047   0.115462   0.036806  -0.084089
     6  C   -1.498832   0.543524  -0.403084  -0.136110  -0.103883  -0.034655
     7  C    6.951893  -0.568883  -0.013752  -0.005691  -0.002231   0.000846
     8  C   -0.568883   6.648754  -0.003533   0.000947  -0.000496  -0.001432
     9  C   -0.013752  -0.003533  38.526909   4.390453 -19.536277 -11.334207
    10  C   -0.005691   0.000947   4.390453  38.874057   0.676117 -13.851113
    11  C   -0.002231  -0.000496 -19.536277   0.676117  59.164428   3.903178
    12  C    0.000846  -0.001432 -11.334207 -13.851113   3.903178  33.999054
    13  C    0.023679  -0.009862 -12.491266 -11.890189 -14.380910   3.357267
    14  H   -0.011685   0.000306  -0.013344  -0.009279   0.020755   0.055381
    15  H   -0.051892   0.013835  -0.034482  -0.002313  -0.004151  -0.002391
    16  H   -0.020115  -0.021413  -0.006979  -0.001229   0.000025   0.000272
    17  H   -0.024696  -0.020462  -0.003500  -0.000391  -0.000026   0.000300
    18  H    0.448804  -0.060744  -0.001008  -0.000050   0.000001   0.000028
    19  H    0.445442  -0.059210  -0.000346   0.000016   0.000002   0.000011
    20  H    0.037092   0.349255  -0.000083  -0.000006  -0.000000   0.000001
    21  H   -0.175078   0.427590   0.000066   0.000003   0.000000  -0.000001
    22  H    0.034687   0.358080  -0.000083  -0.000007  -0.000001   0.000001
    23  H   -0.000607   0.000126   0.259204  -0.075395   0.018138  -0.017338
    24  C    0.000012  -0.000000   0.480107   1.432300  -2.088680   0.510407
    25  H    0.000001   0.000000  -0.015677  -0.031140  -0.010869   0.362672
    26  H   -0.000024   0.000011  -0.009245   0.000439   0.087222  -0.015497
    27  F   -0.000000  -0.000000   0.037107   0.070101   0.178331  -0.154327
    28  F   -0.000000   0.000000  -0.005318  -0.026864   0.096892  -0.027866
    29  F    0.000000  -0.000000  -0.119268  -0.228898   0.214318   0.097257
    30  S   -0.000093   0.000007   0.134177  -2.027837  -3.619264   0.888524
    31  O    0.000001   0.000000  -1.444420  -2.422700   0.889508   2.030742
    32  O   -0.000001  -0.000000   0.847047   2.310781   0.561225  -2.355143
    33  H    0.000004   0.000000  -0.017855   0.418375  -0.043969  -0.051877
    34  O   -0.003308  -0.000169   0.024294   0.021778  -0.036908  -0.079767
    35  O   -0.005738   0.013614  -0.008072   0.000571  -0.000011  -0.002611
    36  C   -0.004324  -0.015967   0.005820  -0.005546  -0.097861  -0.330727
    37  C   -0.052235   0.012598  -0.147227  -0.030114   0.041197   0.264188
    38  C    0.015430  -0.006144   0.001388   0.000083  -0.000308   0.002307
    39  H    0.000177  -0.000004   0.000286   0.000028  -0.000141  -0.001492
    40  H    0.000354   0.000002   0.000444   0.000038  -0.000136  -0.001541
    41  H    0.000311   0.000171   0.000013   0.000001   0.000000  -0.000032
    42  H   -0.000052  -0.000003   0.000020   0.000001  -0.000002  -0.000048
    43  H    0.000089   0.000153  -0.000005   0.000000   0.000000  -0.000026
              13         14         15         16         17         18
     1  C    5.042515  -0.126387  -0.014413   0.011710   0.006973  -0.000002
     2  N   -0.061242   0.062027   0.014420   0.007010   0.007700  -0.001827
     3  C   -0.817896  -0.027645  -0.066754   0.044008   0.047460  -0.005957
     4  O   -0.098398  -0.004196  -0.008550   0.000304  -0.000954  -0.000232
     5  N   -0.338578   0.031620   0.121465  -0.061207  -0.059449   0.007553
     6  C   -0.146666   0.048391   0.057725   0.375132   0.374442  -0.059663
     7  C    0.023679  -0.011685  -0.051892  -0.020115  -0.024696   0.448804
     8  C   -0.009862   0.000306   0.013835  -0.021413  -0.020462  -0.060744
     9  C  -12.491266  -0.013344  -0.034482  -0.006979  -0.003500  -0.001008
    10  C  -11.890189  -0.009279  -0.002313  -0.001229  -0.000391  -0.000050
    11  C  -14.380910   0.020755  -0.004151   0.000025  -0.000026   0.000001
    12  C    3.357267   0.055381  -0.002391   0.000272   0.000300   0.000028
    13  C   36.554513   0.021175   0.011434   0.002293   0.001761   0.000598
    14  H    0.021175   0.319695   0.028212  -0.000086  -0.000148   0.000094
    15  H    0.011434   0.028212   0.327397   0.001926   0.001981   0.003567
    16  H    0.002293  -0.000086   0.001926   0.473484  -0.053507   0.006018
    17  H    0.001761  -0.000148   0.001981  -0.053507   0.472965  -0.008820
    18  H    0.000598   0.000094   0.003567   0.006018  -0.008820   0.441797
    19  H    0.000230   0.000080   0.002636  -0.008697   0.006157  -0.036671
    20  H    0.000028   0.000000  -0.000037  -0.000731   0.003395  -0.007667
    21  H   -0.000023   0.000000  -0.000060  -0.000086  -0.000061  -0.004157
    22  H    0.000029   0.000000  -0.000006   0.003307  -0.000791   0.006592
    23  H   -0.015832  -0.000471   0.000080  -0.000027  -0.000032   0.000000
    24  C    0.153642  -0.000051   0.000005  -0.000000  -0.000000  -0.000000
    25  H   -0.043219  -0.000087   0.000001  -0.000000  -0.000000  -0.000000
    26  H    0.204777   0.013055  -0.000214   0.000000   0.000000  -0.000000
    27  F   -0.103157   0.000002  -0.000000   0.000000  -0.000000   0.000000
    28  F   -0.008955  -0.000000  -0.000000  -0.000000   0.000000   0.000000
    29  F    0.044444   0.000001  -0.000000   0.000000  -0.000000   0.000000
    30  S    1.744925  -0.000310  -0.000121  -0.000002   0.000005  -0.000000
    31  O    0.845439  -0.000004   0.000000   0.000000  -0.000000   0.000000
    32  O   -1.345895   0.000013  -0.000000   0.000000   0.000000  -0.000000
    33  H   -0.025935   0.000012  -0.000000  -0.000000  -0.000000  -0.000000
    34  O    0.300417   0.080607   0.013586  -0.000034  -0.000052  -0.000099
    35  O    0.002176   0.012238   0.071347  -0.000363  -0.000232  -0.004996
    36  C   -0.157264  -0.019787  -0.006949  -0.000062   0.000030   0.002535
    37  C    0.213478   0.054332   0.051528  -0.000292  -0.000190  -0.000335
    38  C    0.001550  -0.003504  -0.006266   0.000073   0.000081   0.001461
    39  H   -0.000838  -0.000314  -0.000064   0.000000   0.000000   0.000002
    40  H   -0.001593  -0.000369  -0.000052   0.000000   0.000000   0.000001
    41  H   -0.000061  -0.000021  -0.000320   0.000000  -0.000000  -0.000042
    42  H   -0.000204  -0.000001   0.000055  -0.000000  -0.000000  -0.000000
    43  H    0.000039  -0.000019  -0.000315  -0.000000  -0.000000  -0.000035
              19         20         21         22         23         24
     1  C    0.000268  -0.000050   0.000161  -0.000102   0.072977   0.576065
     2  N   -0.001363  -0.000040   0.000018  -0.000040  -0.031228  -0.002918
     3  C    0.001739  -0.002681   0.008490  -0.003511   0.092020   0.020752
     4  O   -0.000219  -0.000024   0.000018  -0.000042   0.001538   0.000231
     5  N    0.007440   0.000070  -0.001914   0.000421   0.008170  -0.000471
     6  C   -0.065473  -0.038496   0.092214  -0.044512   0.013064   0.000223
     7  C    0.445442   0.037092  -0.175078   0.034687  -0.000607   0.000012
     8  C   -0.059210   0.349255   0.427590   0.358080   0.000126  -0.000000
     9  C   -0.000346  -0.000083   0.000066  -0.000083   0.259204   0.480107
    10  C    0.000016  -0.000006   0.000003  -0.000007  -0.075395   1.432300
    11  C    0.000002  -0.000000   0.000000  -0.000001   0.018138  -2.088680
    12  C    0.000011   0.000001  -0.000001   0.000001  -0.017338   0.510407
    13  C    0.000230   0.000028  -0.000023   0.000029  -0.015832   0.153642
    14  H    0.000080   0.000000   0.000000   0.000000  -0.000471  -0.000051
    15  H    0.002636  -0.000037  -0.000060  -0.000006   0.000080   0.000005
    16  H   -0.008697  -0.000731  -0.000086   0.003307  -0.000027  -0.000000
    17  H    0.006157   0.003395  -0.000061  -0.000791  -0.000032  -0.000000
    18  H   -0.036671  -0.007667  -0.004157   0.006592   0.000000  -0.000000
    19  H    0.440964   0.006594  -0.004259  -0.007741   0.000000  -0.000000
    20  H    0.006594   0.464958  -0.026305  -0.039667  -0.000000   0.000000
    21  H   -0.004259  -0.026305   0.443934  -0.026311   0.000000  -0.000000
    22  H   -0.007741  -0.039667  -0.026311   0.465611  -0.000000   0.000000
    23  H    0.000000  -0.000000   0.000000  -0.000000   0.365969  -0.000332
    24  C   -0.000000   0.000000  -0.000000   0.000000  -0.000332   7.463342
    25  H   -0.000000   0.000000  -0.000000   0.000000   0.000071   0.000796
    26  H   -0.000000  -0.000000   0.000000  -0.000000  -0.000083  -0.000873
    27  F   -0.000000  -0.000000  -0.000000   0.000000  -0.000006   0.161318
    28  F    0.000000   0.000000  -0.000000   0.000000  -0.000000   0.220129
    29  F   -0.000000  -0.000000  -0.000000   0.000000   0.000025   0.142233
    30  S    0.000000  -0.000000   0.000000  -0.000000   0.001444  -3.019634
    31  O    0.000000  -0.000000   0.000000  -0.000000   0.000620  -0.062421
    32  O   -0.000000  -0.000000   0.000000  -0.000000  -0.000093   0.000618
    33  H   -0.000000   0.000000  -0.000000   0.000000  -0.003243  -0.002079
    34  O   -0.000123  -0.000000  -0.000001  -0.000001   0.000057   0.000010
    35  O   -0.004580  -0.000004  -0.000013  -0.000025   0.000000  -0.000001
    36  C    0.001719   0.000128  -0.000245   0.000099   0.000520   0.000224
    37  C   -0.000454  -0.000030   0.000136  -0.000043   0.000055   0.000021
    38  C    0.001439   0.000031  -0.000100   0.000035  -0.000001  -0.000004
    39  H    0.000001   0.000000  -0.000000   0.000000   0.000000   0.000000
    40  H    0.000001   0.000000  -0.000000   0.000000   0.000000   0.000000
    41  H   -0.000034  -0.000000   0.000001  -0.000000   0.000000   0.000000
    42  H   -0.000000  -0.000000  -0.000000  -0.000000  -0.000000   0.000000
    43  H   -0.000035  -0.000000   0.000001  -0.000000   0.000000   0.000000
              25         26         27         28         29         30
     1  C    0.050657   0.034924  -0.033070  -0.004148  -0.044317  -1.207726
     2  N   -0.002829  -0.027130   0.000053   0.000022   0.000022   0.000643
     3  C    0.002349   0.003466  -0.000603   0.000038  -0.001356  -0.120824
     4  O   -0.000016   0.000059   0.000001  -0.000000  -0.000004  -0.000331
     5  N   -0.000085   0.001980   0.000003   0.000000   0.000001   0.004212
     6  C    0.000003   0.000766  -0.000004   0.000000  -0.000008  -0.002412
     7  C    0.000001  -0.000024  -0.000000  -0.000000   0.000000  -0.000093
     8  C    0.000000   0.000011  -0.000000   0.000000  -0.000000   0.000007
     9  C   -0.015677  -0.009245   0.037107  -0.005318  -0.119268   0.134177
    10  C   -0.031140   0.000439   0.070101  -0.026864  -0.228898  -2.027837
    11  C   -0.010869   0.087222   0.178331   0.096892   0.214318  -3.619264
    12  C    0.362672  -0.015497  -0.154327  -0.027866   0.097257   0.888524
    13  C   -0.043219   0.204777  -0.103157  -0.008955   0.044444   1.744925
    14  H   -0.000087   0.013055   0.000002  -0.000000   0.000001  -0.000310
    15  H    0.000001  -0.000214  -0.000000  -0.000000  -0.000000  -0.000121
    16  H   -0.000000   0.000000   0.000000  -0.000000   0.000000  -0.000002
    17  H   -0.000000   0.000000  -0.000000   0.000000  -0.000000   0.000005
    18  H   -0.000000  -0.000000   0.000000   0.000000   0.000000  -0.000000
    19  H   -0.000000  -0.000000  -0.000000   0.000000  -0.000000   0.000000
    20  H    0.000000  -0.000000  -0.000000   0.000000  -0.000000  -0.000000
    21  H   -0.000000   0.000000  -0.000000  -0.000000  -0.000000   0.000000
    22  H    0.000000  -0.000000   0.000000   0.000000   0.000000  -0.000000
    23  H    0.000071  -0.000083  -0.000006  -0.000000   0.000025   0.001444
    24  C    0.000796  -0.000873   0.161318   0.220129   0.142233  -3.019634
    25  H    0.386520  -0.002819  -0.003128  -0.000173   0.000248   0.017364
    26  H   -0.002819   0.341498   0.000065  -0.000001  -0.000001   0.006121
    27  F   -0.003128   0.000065   8.948649  -0.041127  -0.038372   0.012295
    28  F   -0.000173  -0.000001  -0.041127   8.982666  -0.041671  -0.048830
    29  F    0.000248  -0.000001  -0.038372  -0.041671   8.950924   0.065259
    30  S    0.017364   0.006121   0.012295  -0.048830   0.065259  22.957003
    31  O    0.001966  -0.000135  -0.010467  -0.006702   0.021013  -0.098064
    32  O   -0.009621   0.000859   0.021539  -0.003250  -0.009953  -0.511722
[...]
 -0.00003016,0.00000890,-0.00000973,-0.00000675,-0.00003509,-0.00002128
 ,-0.00002176,0.00000332,0.00001980,0.00001813,0.00000850,0.00000098,0.
 00000978,0.00000676,0.00000865,0.00000156,-0.00007297,-0.00000851,-0.0
 0000636,0.00001366,0.00000546,0.00000792,0.00002528,0.00001947,0.00000
 427,0.00000087,0.00000001,-0.00000137,0.00157864,-0.00115470,0.0009172
 4,0.00048558,-0.00072483,-0.00028478,-0.00169695,0.00267493,-0.0015513
 3,-0.12827355,-0.02661853,-0.20450496,0.00408925,0.00110902,0.00481036
 ,0.14008521,0.02836259,0.22027538,0.00004240,-0.00001341,0.00000711,0.
 00005600,0.00009196,0.00003221,-0.00022250,0.00003763,0.00004130,0.000
 05505,-0.00003795,-0.00002284,0.00004199,-0.00025820,-0.00004358,0.000
 01417,-0.00000534,0.00000746,0.00000119,0.00000507,0.00002376,0.000003
 18,-0.00000224,-0.00000680,-0.00000817,0.00000761,-0.00000961,0.000002
 90,0.00000117,0.00000008,-0.00001594,0.00001076,0.00000271,0.00001567,
 -0.00000489,-0.00000411,-0.00002083,-0.00000786,-0.00000433,-0.0000505
 2,-0.00019856,-0.00008899,0.00001925,0.00036293,0.00000143,-0.00000370
 ,-0.00001303,-0.00000440,-0.00000433,-0.00000402,-0.00000062,0.0000023
 2,0.00001138,-0.00002341,0.00000199,0.00000689,0.00001481,-0.00000156,
 -0.00000006,0.00000088,0.00000532,0.00000049,0.00000385,-0.00000594,-0
 .00000777,-0.00000479,-0.00000145,0.00000039,0.00000381,0.00000440,0.0
 0000189,0.00001522,-0.00000116,0.00000368,0.00000248,0.00002987,-0.000
 00207,0.00000127,-0.00000174,-0.00000410,-0.00000671,-0.00000600,0.000
 00243,-0.00000524,-0.00000095,0.00000034,-0.00000362,0.00003129,-0.000
 00432,0.00000829,-0.00000765,0.00000349,-0.00000463,-0.00000985,-0.000
 00274,-0.00000483,-0.00000082,-0.00000007,0.00000164,0.00040224,0.0022
 2580,-0.00101471,-0.00031966,-0.00272381,-0.00164471,-0.00687095,-0.00
 246445,0.00795472,-0.11408236,-0.03479020,0.11290788,-0.01370415,-0.00
 700359,0.02209588,0.01085911,0.00627033,-0.01677810,0.12588549,-0.0001
 8656,0.00009116,0.00001830,0.00020099,-0.00003203,0.00006026,-0.000367
 60,0.00019685,0.00009207,0.00006380,-0.00020088,-0.00005558,0.00007712
 ,-0.00059275,-0.00000989,0.00012050,0.00001394,0.00000452,-0.00002124,
 0.00001337,-0.00001292,0.00001013,-0.00001019,0.00000345,0.00003990,-0
 .00005025,-0.00001587,-0.00003679,0.00000242,0.00000078,0.00006055,-0.
 00002019,-0.00001139,-0.00002332,0.00001643,-0.00000347,0.00007808,0.0
 0001482,-0.00001095,-0.00002950,0.00015109,-0.00013711,0.00009267,0.00
 093128,-0.00009522,-0.00002337,-0.00001881,-0.00000908,-0.00002082,-0.
 00001944,0.00000730,0.00002000,0.00000179,-0.00002291,0.00002345,0.000
 00053,0.00002874,-0.00000738,-0.00000616,0.00000261,-0.00001163,0.0000
 0402,0.00000088,-0.00000831,-0.00000581,-0.00000340,-0.00000855,0.0000
 0677,0.00000423,-0.00000397,-0.00000172,-0.00000520,0.00000678,-0.0000
 0451,0.00000531,-0.00004243,0.00000020,0.00002578,0.00000181,0.0000003
 6,-0.00000042,0.00000935,-0.00000394,0.00000477,0.00000351,0.00000199,
 -0.00000230,-0.00006193,0.00000890,0.00002251,0.00000919,-0.00000770,-
 0.00000622,0.00001948,0.00001261,-0.00000782,0.00000113,-0.00000116,0.
 00000157,0.00133153,-0.00003401,-0.00442365,-0.00285725,-0.00531645,-0
 .00421831,-0.01564709,-0.00590522,0.03152046,-0.03461497,-0.06495226,0
 .06088306,0.01106097,0.00489177,-0.01822920,0.00284975,0.00068962,-0.0
 0422013,0.03588193,0.07102977,0.00015354,-0.00006145,-0.00002646,-0.00
 013086,0.00008588,0.00003646,0.00016134,-0.00007657,-0.00002591,-0.000
 02843,0.00006847,0.00001314,-0.00004701,0.00012762,0.00005322,-0.00001
 227,-0.00000164,-0.00000385,-0.00000158,-0.00000756,-0.00001578,-0.000
 00418,0.00000482,0.00000485,-0.00003482,0.00003369,0.00000900,0.000031
 89,-0.00000390,-0.00000212,-0.00005082,0.00001028,0.00001005,0.0000262
 3,-0.00001296,-0.00000003,-0.00006200,-0.00000718,0.00001069,0.0000026
 1,-0.00008885,-0.00002889,-0.00003161,-0.00014528,-0.00007433,0.000001
 58,0.00000779,0.00000634,0.00000003,0.00000379,-0.00000262,-0.00000451
 ,-0.00000254,0.00001637,-0.00000298,-0.00000200,-0.00001041,0.00000261
 ,0.00000152,-0.00000357,-0.00000265,-0.00000174,-0.00000150,0.00000530
 ,0.00000458,0.00000540,0.00000587,-0.00000541,-0.00000358,0.00001053,0
 .00001620,-0.00000088,-0.00000820,0.00000909,-0.00000241,0.00001981,0.
 00002547,-0.00001755,-0.00000315,-0.00000678,-0.00000096,-0.00000787,0
 .00000026,-0.00000224,-0.00000842,-0.00000894,0.00000738,0.00005879,0.
 00001564,-0.00001838,-0.00000977,-0.00000401,0.00000256,-0.00002308,-0
 .00002336,0.00000733,-0.00000073,0.00000012,-0.00000074,-0.00095750,0.
 00010465,0.00069577,-0.00097518,0.00023741,-0.00055832,-0.00030198,-0.
 00315625,0.00217979,0.11148988,0.05806925,-0.22342282,0.00042513,-0.00
 014501,-0.00119132,0.01295852,0.00755761,-0.02178791,-0.12306985,-0.06
 126475,0.24195559,0.00001834,-0.00000598,0.00000972,0.00000671,0.00008
 807,-0.00001062,-0.00004036,-0.00001706,0.00001694,0.00001268,0.000025
 79,-0.00000535,0.00000450,0.00001866,-0.00003037,0.00000639,-0.0000043
 4,0.00000927,-0.00000721,0.00000222,0.00000104,-0.00000098,-0.00000468
 ,0.00000008,-0.00000439,0.00000995,-0.00000426,0.00000114,0.00000484,-
 0.00000029,-0.00000989,0.00001120,0.00000073,0.00000445,-0.00000400,-0
 .00000446,-0.00000827,-0.00000949,-0.00001633,-0.00001419,-0.00013361,
 -0.00000061,-0.00000702,-0.00003824,0.00002676,-0.00000177,0.00000285,
 -0.00000065,0.00000155,0.00000844,-0.00000119,0.00001051,-0.00000923,0
 .00001488,0.00000383,-0.00000059,-0.00001676,0.00000245,0.00000541,-0.
 00000278,-0.00000780,-0.00000090,0.00000047,-0.00000008,0.00000217,0.0
 0000163,0.00000019,0.00000039,0.00000281,0.00000021,-0.00000345,0.0000
 2449,0.00000254,-0.00000343,0.00000365,0.00001113,-0.00001507,0.000014
 43,-0.00000063,-0.00000274,-0.00000969,-0.00000562,0.00000362,-0.00000
 737,0.00000257,0.00000487,-0.00000903,0.00002153,-0.00002112,0.0000126
 5,-0.00000608,0.00000924,-0.00000376,-0.00000459,0.00000848,-0.0000069
 5,-0.00000035,0.00000055,0.00000140,0.00045004,0.00043327,-0.00029756,
 0.00080741,-0.00029598,-0.00037311,-0.00109686,-0.00161087,0.00016615,
 -0.01461438,-0.00683309,0.02388746,-0.11527479,-0.03455289,0.11257742,
 0.00065198,-0.00090000,-0.00040057,-0.00386419,0.00386360,-0.00000753,
 0.12684672,0.00010545,-0.00004697,-0.00001758,-0.00009102,0.00006792,0
 .00001776,0.00012530,-0.00010320,-0.00001966,-0.00001605,0.00008988,0.
 00001416,-0.00001710,0.00017978,0.00003125,-0.00002702,-0.00000450,0.0
 0000227,-0.00000369,-0.00001252,-0.00003174,-0.00000885,0.00001074,0.0
 0000926,-0.00002390,0.00003152,0.00000584,0.00002199,0.00000143,-0.000
 00228,-0.00003978,0.00001732,0.00000801,0.00001673,-0.00001428,-0.0000
 0476,-0.00004160,-0.00001003,0.00000690,0.00000336,-0.00011643,-0.0000
 1628,-0.00005710,-0.00026324,-0.00002672,0.00000262,0.00001251,0.00000
 830,0.00000251,0.00000579,-0.00000588,-0.00000877,-0.00000488,0.000030
 26,-0.00000915,-0.00000126,-0.00001185,0.00000362,0.00000303,-0.000003
 55,0.00000254,-0.00000432,-0.00000144,0.00000971,0.00000578,0.00000492
 ,0.00000439,-0.00000332,-0.00000153,0.00000994,-0.00000306,0.00001571,
 -0.00000158,0.00000099,-0.00000036,0.00001732,-0.00000360,-0.00000545,
 -0.00000314,-0.00000060,-0.00000419,-0.00001280,0.00000609,-0.00000752
 ,-0.00000291,0.00000102,-0.00000252,0.00005680,-0.00001901,-0.00000731
 ,-0.00001132,0.00001206,0.00000191,-0.00001824,-0.00000372,0.00000086,
 -0.00000051,0.00000050,0.00000008,-0.00063313,0.00026852,0.00034058,-0
 .00098613,-0.00086452,0.00096996,0.00117542,0.00037393,-0.00104779,0.0
 0992379,0.00530933,-0.01769986,-0.03561132,-0.06479389,0.05849524,-0.0
 0084635,0.00083296,0.00036465,0.00339431,-0.00225304,-0.00058067,0.035
 75284,0.06822838,0.00005102,-0.00002578,-0.00001382,-0.00010373,-0.000
 04722,0.00001706,0.00017007,-0.00005414,-0.00003028,-0.00004257,0.0000
 3336,0.00001305,-0.00006090,0.00009774,0.00004640,0.00004363,0.0000019
 1,-0.00000330,-0.00002186,-0.00001028,-0.00004090,-0.00000454,0.000001
 17,0.00001143,-0.00001134,0.00001370,0.00000547,0.00001397,-0.00000299
 ,-0.00000041,-0.00001765,0.00000039,0.00000288,0.00000637,-0.00000465,
 -0.00000045,-0.00002015,-0.00000048,0.00001135,0.00002469,0.00005810,-
 0.00001010,-0.00001800,-0.00010287,-0.00004244,-0.00000872,0.00001530,
 0.00000650,-0.00000763,0.00000391,-0.00000016,0.00000914,-0.00002624,0
 .00004408,0.00000507,-0.00001020,-0.00002982,0.00000249,0.00000340,-0.
 00000496,-0.00002071,-0.00000183,-0.00000469,0.00000895,0.00001306,0.0
 0000999,0.00000368,-0.00000285,-0.00000288,0.00000175,0.00001132,-0.00
 000402,-0.00000302,0.00000255,-0.00000165,0.00000308,0.00000310,-0.000
 00680,-0.00000047,-0.00000441,-0.00000015,-0.00000030,-0.00000187,0.00
 000068,-0.00000344,-0.00000531,0.00000470,0.00001562,0.00001155,-0.000
 00867,-0.00000162,-0.00000547,0.00000162,-0.00000652,-0.00001016,0.000
 00422,0.00000026,0.00000027,-0.00000119,-0.00077347,-0.00043002,-0.000
 01940,-0.00152879,0.00103896,0.00031824,0.00244382,0.00137600,-0.00013
 952,0.00087465,-0.00023066,-0.00187561,0.11303280,0.05643230,-0.234826
 64,0.00023352,-0.00044204,0.00069690,0.00030629,-0.00033691,0.00152168
 ,-0.12458253,-0.06395127,0.25161044,0.00010971,-0.00001842,-0.00001069
 ,0.00006759,0.00033097,0.00003562,-0.00020078,0.00001565,0.00001644,0.
 00006423,0.00003585,-0.00000007,0.00005150,-0.00004611,-0.00000714,-0.
 00004468,-0.00001043,0.00000138,0.00001454,0.00001768,-0.00000080,0.00
 000722,-0.00000758,-0.00000019,-0.00002568,0.00002252,0.00000448,0.000
 01233,0.00000883,0.00000039,-0.00003122,0.00001897,0.00000688,0.000019
 78,-0.00000419,-0.00000351,-0.00004490,-0.00003439,-0.00000247,-0.0001
 0577,-0.00048703,-0.00005332,-0.00000351,0.00002594,0.00000299,0.00000
 879,-0.00000192,-0.00000337,0.00000958,-0.00000271,0.00000173,-0.00000
 506,0.00001046,-0.00001732,-0.00000086,0.00000699,0.00001984,-0.000003
 58,-0.00000449,0.00000407,0.00001048,0.00000255,-0.00000058,-0.0000037
 4,-0.00000363,-0.00000434,-0.00000054,0.00000003,0.00000021,0.00000301
 ,0.00000201,0.00001594,-0.00000185,0.00000108,0.00000020,0.00004081,-0
 .00000869,-0.00000242,-0.00000187,-0.00000370,-0.00000614,-0.00000799,
 0.00000345,-0.00000643,-0.00000112,0.00000073,-0.00000306,0.00004798,-
 0.00001086,-0.00000331,-0.00001016,0.00000803,0.00000095,-0.00001503,-
 0.00000392,0.00000021,-0.00000216,0.00000120,0.00000025,-0.00018523,0.
 00329356,0.00032469,0.00213555,-0.00069819,-0.00018254,-0.00689838,-0.
 00127270,0.00042583,0.00879771,0.02970584,0.00186921,-0.06685081,-0.06
 736363,-0.00473432,0.00107173,-0.00088024,-0.00049692,0.00107425,-0.00
 097575,0.00018726,-0.00499639,-0.01474946,-0.00308023,0.07134008,-0.00
 036068,0.00012821,0.00004070,0.00014133,-0.00051542,-0.00007243,-0.000
 02717,0.00024598,0.00003082,-0.00004199,-0.00026234,-0.00002846,-0.000
 02163,-0.00032110,-0.00003524,0.00010119,0.00002858,-0.00000748,-0.000
 00708,0.00001274,0.00000654,0.00001207,-0.00000799,-0.00000252,0.00008
 415,-0.00010111,-0.00001879,-0.00006561,-0.00001974,0.00000514,0.00013
 918,-0.00007452,-0.00003009,-0.00006670,0.00004452,0.00001597,0.000142
 38,0.00006939,0.00000365,0.00008428,0.00084763,0.00009739,0.00013815,0
 .00052882,0.00005485,-0.00001684,-0.00001999,-0.00001303,-0.00001574,-
 0.00002062,0.00001127,0.00001613,0.00000790,-0.00003431,0.00001874,0.0
 0000096,0.00003028,-0.00000876,-0.00000957,0.00000742,-0.00000711,0.00
 000824,0.00000137,-0.00001021,-0.00000875,-0.00000811,-0.00000949,0.00
 000693,0.00000120,-0.00003698,0.00002096,-0.00006474,0.00000119,0.0000
 0099,0.00000038,-0.00008578,0.00003565,0.00000683,0.00001160,-0.000001
 17,0.00001633,0.00005117,-0.00002555,0.00003023,0.00000909,-0.00000815
 ,0.00001354,-0.00022153,0.00008425,0.00002846,0.00004663,-0.00005452,-
 0.00001018,0.00007193,0.00000767,-0.00000388,0.00000314,-0.00000270,-0
 .00000157,0.00143477,-0.00343159,-0.00043435,0.00026769,-0.00110354,-0
 .00017684,0.00237730,0.00271891,0.00002964,-0.00697112,-0.01694563,-0.
 00087421,-0.06667219,-0.29298383,-0.01643271,0.00009680,0.00041749,0.0
 0061843,0.00006884,0.00057272,-0.00055072,-0.00175556,-0.00692574,-0.0
 0037177,0.07190877,0.31932531,-0.00003965,0.00001118,0.00000980,0.0000
 0835,-0.00006629,-0.00001355,0.00000997,0.00002152,-0.00000056,-0.0000
 0775,-0.00002549,-0.00000321,-0.00000214,-0.00002817,0.00002282,0.0000
 1145,0.00000299,0.00000281,-0.00000348,0.00000314,-0.00002660,0.000001
 46,-0.00000129,0.00000824,0.00000931,-0.00000960,-0.00000367,-0.000006
 62,-0.00000246,0.00000058,0.00001385,-0.00000744,-0.00000447,-0.000007
 04,0.00000374,0.00000253,0.00001536,0.00000993,-0.00000849,0.00001413,
 0.00010627,0.00001144,0.00000964,0.00004584,-0.00001874,-0.00000342,0.
 00000123,-0.00000050,-0.00000045,-0.00000464,0.00000058,0.00000029,-0.
 00000359,0.00000367,0.00000462,0.00000244,0.00000856,-0.00000256,-0.00
 000265,0.00000083,-0.00000151,0.00000079,-0.00000200,0.00000120,0.0000
 0131,0.00000004,-0.00000077,0.00000060,0.00000054,-0.00000310,0.000005
 04,0.00000072,0.00000039,-0.00000019,0.00000203,-0.00000986,0.00000327
 ,0.00000470,0.00000091,-0.00000282,-0.00000234,0.00000466,-0.00000267,
 0.00000131,0.00000118,-0.00000070,-0.00000092,-0.00002241,0.00000662,0
 .00000957,0.00000431,-0.00000582,-0.00000379,0.00000782,0.00000258,-0.
 00000373,0.00000048,-0.00000043,0.00000035,0.00013980,-0.00053385,-0.0
 0000209,-0.00010017,-0.00010839,0.00054232,0.00074401,0.00026640,0.000
 66625,-0.00128741,-0.00346781,-0.00148737,-0.00466724,-0.01638131,-0.0
 5130704,0.00017101,0.00038881,0.00010553,-0.00030438,-0.00016535,-0.00
 006342,0.00590720,0.02699210,0.00364875,0.00457828,0.01863351,0.048411
 01,0.00001005,0.00000758,-0.00001295,0.00002536,0.00008956,0.00003197,
 -0.00006539,-0.00000625,-0.00001502,0.00001945,0.00001950,0.00000991,0
 .00001900,-0.00000116,0.00003567,-0.00000101,-0.00000210,-0.00000997,-
 0.00000530,0.00000483,-0.00000678,-0.00000052,-0.00000428,0.00000099,-
 0.00000290,0.00000233,0.00000690,-0.00000117,0.00000601,0.00000175,-0.
 00000517,0.00000935,0.00000423,0.00000367,-0.00000181,0.00000158,-0.00
 000340,-0.00001800,0.00001245,-0.00001975,-0.00013755,-0.00003179,-0.0
 0000969,-0.00001704,-0.00003794,0.00000276,0.00000741,0.00000213,-0.00
 000041,0.00000041,0.00000185,0.00000469,-0.00000066,0.00001193,0.00000
 687,-0.00000434,-0.00001096,-0.00000117,0.00000023,0.00000018,-0.00000
 455,-0.00000059,-0.00000082,0.00000244,0.00000454,0.00000253,-0.000000
 82,0.00000157,-0.00000287,0.00000439,-0.00001796,-0.00000912,0.0000022
 8,-0.00000297,-0.00000502,0.00000833,-0.00001194,-0.00001741,-0.000000
 93,0.00001077,0.00000910,-0.00000634,0.00000521,0.00000018,-0.00000023
 ,0.00000391,0.00000165,0.00001727,-0.00001800,-0.00001854,-0.00000344,
 0.00001267,0.00000897,-0.00000555,0.00000347,0.00000755,-0.00000071,0.
 00000109,-0.00000118,0.00058804,0.00042952,0.00027697,0.00170854,-0.00
 025769,0.00057299,-0.00143610,-0.00175111,-0.00025027,-0.01769766,-0.0
 0261291,-0.02223865,-0.14971172,-0.01911238,-0.13057134,-0.00370886,0.
 00369622,0.00141245,0.00065636,-0.00087774,0.00024608,0.01109893,0.002
 59229,0.01306732,-0.00544557,-0.00082435,-0.00518971,0.16395996,0.0001
 1936,-0.00005498,-0.00000843,-0.00011419,0.00005896,0.00001260,0.00015
 775,-0.00011670,-0.00002353,-0.00002449,0.00009787,0.00001064,-0.00003
 504,0.00019750,0.00000673,-0.00001686,-0.00000677,0.00000280,-0.000002
 72,-0.00002444,0.00003385,-0.00001249,0.00001415,-0.00000787,-0.000025
 99,0.00003428,0.00000342,0.00002395,0.00000083,-0.00000118,-0.00004517
 ,0.00001879,0.00000753,0.00001871,-0.00001624,-0.00000332,-0.00004789,
 -0.00000742,-0.00000672,0.00000935,-0.00010131,-0.00001021,-0.00005376
 ,-0.00027054,-0.00002685,0.00000172,0.00000632,0.00000709,-0.00000054,
 0.00001640,-0.00000686,-0.00000629,-0.00000695,0.00001988,-0.00001318,
 -0.00000166,-0.00003856,0.00001108,0.00000966,-0.00000656,-0.00000057,
 -0.00000540,0.00000132,0.00000527,0.00000380,0.00000494,0.00000540,-0.
 00000420,0.00000022,0.00000844,-0.00000016,0.00001894,-0.00000170,0.00
 000144,0.00000106,0.00001827,-0.00000379,0.00000343,-0.00000278,-0.000
 00228,-0.00000591,-0.00001260,0.00000568,-0.00000822,-0.00000280,0.000
 00055,-0.00000314,0.00006268,-0.00002014,-0.00000676,-0.00001235,0.000
 01201,0.00000124,-0.00002033,-0.00000443,0.00000058,-0.00000044,0.0000
 0052,0.00000067,-0.00077032,0.00022546,-0.00016515,-0.00112116,0.00008
 405,-0.00047690,0.00168560,0.00044908,0.00088161,0.01216354,0.00209349
 ,0.01659046,-0.02036162,-0.05067500,-0.02530713,0.00334967,-0.00222135
 ,-0.00055015,-0.00084065,0.00078410,-0.00022656,0.00596584,-0.00000732
 ,0.00696135,-0.01883309,-0.00227027,-0.02568838,0.01877237,0.05170642,
 -0.00003155,0.00002140,0.00000166,0.00008400,0.00004526,0.00000943,-0.
 00013781,0.00003532,0.00000527,0.00003748,-0.00001854,-0.00000027,0.00
 005936,-0.00006833,0.00000998,-0.00004909,-0.00000205,0.00000098,0.000
 01718,0.00001348,-0.00002845,0.00000452,-0.00000068,0.00000803,0.00000
 585,-0.00001112,-0.00000040,-0.00000888,0.00000363,0.00000133,0.000012
 52,0.00000079,0.00000020,-0.00000293,0.00000279,-0.00000014,0.00001255
 ,-0.00000419,0.00000475,-0.00002326,-0.00005812,-0.00001707,0.00000353
 ,0.00006326,-0.00001944,0.00000755,-0.00000427,-0.00000107,0.00000975,
 -0.00001331,0.00000121,-0.00001269,0.00001609,-0.00002764,-0.00000449,
 0.00001817,0.00004489,-0.00000590,-0.00001325,0.00000763,0.00002089,0.
 00000223,-0.00000663,-0.00000287,-0.00000308,-0.00000472,-0.00000310,0
 .00000220,-0.00000072,0.00000176,-0.00001483,-0.00001001,0.00000191,-0
 .00000199,-0.00000167,-0.00000144,-0.00000083,-0.00000372,-0.00000008,
 0.00000873,0.00000779,-0.00000183,0.00000294,0.00000186,0.00000123,0.0
 0000401,0.00000084,-0.00000773,-0.00001194,-0.00000717,0.00000090,0.00
 000744,0.00000459,0.00000289,0.00000678,0.00000293,-0.00000045,0.00000
 024,-0.00000047,0.00055808,0.00042515,-0.00013445,0.00152788,-0.000710
 46,0.00038531,-0.00199370,-0.00104840,0.00017318,0.00351418,0.00131912
 ,0.00442241,-0.13118838,-0.02336266,-0.21444175,0.00103699,-0.00085817
 ,0.00132951,-0.00038281,0.00058146,0.00073038,-0.01688739,-0.00386980,
 -0.02090757,0.00112232,-0.00051251,-0.00051247,0.14270305,0.02800803,0
 .22897168\\0.00000112,-0.00000068,0.00000126,-0.00000065,-0.00000058,0
 .00000070,0.00000012,0.00000214,0.00000053,0.00000051,-0.00000076,0.00
 000123,0.00000098,-0.00000106,-0.00000074,-0.00000124,-0.00000005,-0.0
 0000117,-0.00000039,0.00000031,-0.00000223,0.00000051,0.00000034,-0.00
 000300,0.00000027,-0.00000008,0.00000290,0.00000077,-0.00000097,0.0000
 0364,-0.00000087,-0.00000022,0.00000350,0.00000068,-0.00000053,0.00000
 224,-0.00000031,-0.00000063,0.00000108,0.00000015,-0.00000053,-0.00000
 062,-0.00000006,0.,-0.00000186,0.00000019,-0.00000036,-0.00000032,-0.0
 0000030,0.00000095,-0.00000023,-0.00000065,0.00000132,-0.00000279,0.00
 000050,-0.00000047,-0.00000297,-0.00000048,0.00000116,-0.00000207,-0.0
 0000012,0.00000049,-0.00000336,0.00000013,-0.00000042,-0.00000233,0.00
 000057,-0.00000077,0.00000297,-0.00000008,0.00000046,0.00000645,0.,-0.
 00000032,0.00000212,0.00000039,-0.00000059,0.00000035,-0.00000084,0.00
 000098,0.00000381,-0.00000101,0.00000095,0.00000591,-0.00000073,0.0000
 0138,0.00000540,0.00000032,-0.00000103,0.00000589,0.00000086,-0.000001
 35,0.00000557,0.00000084,-0.00000091,0.00000420,-0.00000004,-0.0000009
 5,0.00000483,0.,-0.00000240,-0.00000300,0.00000075,0.00000031,-0.00000
 448,0.00000016,0.00000249,-0.00000272,-0.00000392,-0.00000214,-0.00000
 389,0.00000376,0.00000394,-0.00000400,-0.00000026,0.00000110,-0.000003
 09,0.00000275,0.00000058,-0.00000383,-0.00000361,-0.00000052,-0.000004
 43,-0.00000035,0.00000031,-0.00000597,-0.00000041,-0.00000088,-0.00000
 549\\\@


 One man practicing sportsmanship is far better than 50 preaching it.
 -- Knute K. Rockne
 Job cpu time:       0 days 15 hours 18 minutes 39.5 seconds.
 File lengths (MBytes):  RWF=   1707 Int=      0 D2E=      0 Chk=     38 Scr=      1
 Normal termination of Gaussian 09 at Thu Nov 14 23:53:53 2019.
pbs_rusage has been removed.
Please contact help@nci.org.au if you require this functionality.
